Generated by trjconv : CNT in water t=   7.00000
33518
    1C        C    1   2.849   2.773   4.750
    1C        C    2   2.898   2.719   4.871
    1C        C    3   2.848   2.776   4.990
    1C        C    4   2.854   2.781   4.265
    1C        C    5   2.905   2.729   4.386
    1C        C    6   2.848   2.773   4.508
    1C        C    7   3.013   2.637   4.626
    1C        C    8   2.899   2.721   4.629
    1C        C    9   3.078   2.605   4.747
    1C        C   10   3.010   2.634   4.867
    1C        C   11   3.182   2.493   4.977
    1C        C   12   3.059   2.560   4.976
    1C        C   13   2.848   2.773   3.772
    1C        C   14   2.902   2.728   3.894
    1C        C   15   2.854   2.777   4.018
    1C        C   16   3.016   2.646   4.137
    1C        C   17   2.905   2.733   4.142
    1C        C   18   3.076   2.610   4.260
    1C        C   19   3.018   2.644   4.385
    1C        C   20   3.211   2.555   4.503
    1C        C   21   3.078   2.603   4.506
    1C        C   22   3.278   2.534   4.625
    1C        C   23   3.209   2.548   4.748
    1C        C   24   3.414   2.482   4.862
    1C        C   25   3.272   2.501   4.866
    1C        C   26   3.489   2.475   4.980
    1C        C   27   2.847   2.765   3.283
    1C        C   28   2.902   2.722   3.406
    1C        C   29   2.855   2.771   3.529
    1C        C   30   3.018   2.640   3.651
    1C        C   31   2.902   2.721   3.652
    1C        C   32   3.079   2.610   3.775
    1C        C   33   3.015   2.643   3.897
    1C        C   34   3.210   2.554   4.019
    1C        C   35   3.078   2.605   4.017
    1C        C   36   3.278   2.536   4.142
    1C        C   37   3.208   2.561   4.262
    1C        C   38   3.418   2.509   4.383
    1C        C   39   3.280   2.536   4.381
    1C        C   40   3.490   2.502   4.504
    1C        C   41   3.417   2.507   4.625
    1C        C   42   3.633   2.483   4.744
    1C        C   43   3.490   2.480   4.742
    1C        C   44   3.707   2.486   4.864
    1C        C   45   3.628   2.479   4.980
    1C        C   46   2.840   2.754   2.795
    1C        C   47   2.894   2.710   2.918
    1C        C   48   2.845   2.761   3.040
    1C        C   49   3.020   2.640   3.161
    1C        C   50   2.904   2.721   3.162
    1C        C   51   3.081   2.608   3.284
    1C        C   52   3.015   2.637   3.406
    1C        C   53   3.206   2.546   3.529
    1C        C   54   3.077   2.602   3.529
    1C        C   55   3.277   2.530   3.650
    1C        C   56   3.211   2.559   3.771
    1C        C   57   3.413   2.510   3.895
    1C        C   58   3.274   2.537   3.895
    1C        C   59   3.486   2.502   4.016
    1C        C   60   3.416   2.508   4.138
    1C        C   61   3.628   2.502   4.258
    1C        C   62   3.487   2.501   4.260
    1C        C   63   3.700   2.511   4.380
    1C        C   64   3.631   2.511   4.503
    1C        C   65   3.839   2.540   4.621
    1C        C   66   3.704   2.499   4.624
    1C        C   67   3.905   2.566   4.743
    1C        C   68   3.843   2.526   4.863
    1C        C   69   4.053   2.584   4.978
    1C        C   70   3.923   2.533   4.978
    1C        C   71   2.829   2.735   2.310
    1C        C   72   2.892   2.699   2.431
    1C        C   73   2.835   2.749   2.551
    1C        C   74   3.008   2.626   2.676
    1C        C   75   2.889   2.701   2.673
    1C        C   76   3.074   2.591   2.796
    1C        C   77   3.014   2.636   2.915
    1C        C   78   3.207   2.548   3.038
    1C        C   79   3.076   2.601   3.037
    1C        C   80   3.279   2.533   3.159
    1C        C   81   3.211   2.555   3.281
    1C        C   82   3.412   2.503   3.404
    1C        C   83   3.273   2.527   3.405
    1C        C   84   3.483   2.494   3.525
    1C        C   85   3.415   2.497   3.649
    1C        C   86   3.623   2.500   3.770
    1C        C   87   3.482   2.493   3.773
    1C        C   88   3.694   2.510   3.892
    1C        C   89   3.628   2.505   4.016
    1C        C   90   3.837   2.548   4.137
    1C        C   91   3.700   2.513   4.137
    1C        C   92   3.905   2.570   4.258
    1C        C   93   3.837   2.545   4.379
    1C        C   94   4.030   2.635   4.500
    1C        C   95   3.906   2.568   4.500
    1C        C   96   4.092   2.674   4.622
    1C        C   97   4.031   2.632   4.743
    1C        C   98   4.202   2.757   4.858
    1C        C   99   4.102   2.656   4.864
    1C        C  100   4.217   2.840   4.971
    1C        C  101   2.822   2.733   2.072
    1C        C  102   2.992   2.592   2.191
    1C        C  103   2.878   2.678   2.189
    1C        C  104   3.068   2.575   2.310
    1C        C  105   3.006   2.616   2.430
    1C        C  106   3.201   2.540   2.549
    1C        C  107   3.069   2.590   2.554
    1C        C  108   3.270   2.522   2.671
    1C        C  109   3.205   2.537   2.795
    1C        C  110   3.413   2.497   2.913
    1C        C  111   3.275   2.523   2.917
    1C        C  112   3.483   2.495   3.036
    1C        C  113   3.417   2.504   3.161
    1C        C  114   3.628   2.499   3.278
    1C        C  115   3.486   2.496   3.284
    1C        C  116   3.693   2.505   3.404
    1C        C  117   3.624   2.502   3.527
    1C        C  118   3.831   2.549   3.647
    1C        C  119   3.695   2.511   3.649
    1C        C  120   3.897   2.573   3.769
    1C        C  121   3.831   2.545   3.891
    1C        C  122   4.023   2.640   4.015
    1C        C  123   3.899   2.572   4.012
    1C        C  124   4.088   2.680   4.133
    1C        C  125   4.028   2.640   4.255
    1C        C  126   4.197   2.764   4.378
    1C        C  127   4.088   2.675   4.378
    1C        C  128   4.246   2.823   4.497
    1C        C  129   4.191   2.774   4.618
    1C        C  130   4.331   2.935   4.741
    1C        C  131   4.248   2.819   4.738
    1C        C  132   4.363   3.002   4.861
    1C        C  133   4.285   2.961   4.970
    1C        C  134   3.173   2.474   2.078
    1C        C  135   3.038   2.510   2.082
    1C        C  136   3.258   2.477   2.190
    1C        C  137   3.199   2.520   2.311
    1C        C  138   3.410   2.480   2.430
    1C        C  139   3.272   2.506   2.431
    1C        C  140   3.482   2.481   2.552
    1C        C  141   3.409   2.494   2.673
    1C        C  142   3.626   2.497   2.795
    1C        C  143   3.485   2.489   2.792
    1C        C  144   3.698   2.505   2.916
    1C        C  145   3.624   2.502   3.036
    1C        C  146   3.837   2.536   3.159
    1C        C  147   3.698   2.506   3.156
    1C        C  148   3.899   2.566   3.282
    1C        C  149   3.829   2.542   3.403
    1C        C  150   4.025   2.629   3.523
    1C        C  151   3.897   2.569   3.524
    1C        C  152   4.084   2.669   3.645
    1C        C  153   4.022   2.640   3.768
    1C        C  154   4.191   2.766   3.886
    1C        C  155   4.079   2.680   3.891
    1C        C  156   4.246   2.809   4.009
    1C        C  157   4.201   2.765   4.135
    1C        C  158   4.339   2.925   4.250
    1C        C  159   4.251   2.814   4.257
    1C        C  160   4.376   2.985   4.373
    1C        C  161   4.333   2.934   4.497
    1C        C  162   4.441   3.117   4.617
    1C        C  163   4.374   2.992   4.619
    1C        C  164   4.468   3.184   4.738
    1C        C  165   4.437   3.123   4.861
    1C        C  166   4.513   3.324   4.973
    1C        C  167   4.483   3.188   4.976
    1C        C  168   3.475   2.434   2.074
    1C        C  169   3.397   2.454   2.189
    1C        C  170   3.618   2.469   2.306
    1C        C  171   3.475   2.462   2.306
    1C        C  172   3.695   2.491   2.422
    1C        C  173   3.623   2.486   2.543
    1C        C  174   3.825   2.537   2.668
    1C        C  175   3.687   2.504   2.668
    1C        C  176   3.900   2.560   2.785
    1C        C  177   3.836   2.534   2.908
    1C        C  178   4.022   2.625   3.034
    1C        C  179   3.898   2.557   3.033
    1C        C  180   4.085   2.668   3.152
    1C        C  181   4.023   2.634   3.274
    1C        C  182   4.191   2.755   3.402
    1C        C  183   4.079   2.669   3.399
    1C        C  184   4.248   2.806   3.521
    1C        C  185   4.197   2.754   3.642
    1C        C  186   4.337   2.915   3.767
    1C        C  187   4.246   2.808   3.763
    1C        C  188   4.382   2.975   3.887
    1C        C  189   4.339   2.916   4.008
    1C        C  190   4.448   3.105   4.129
    1C        C  191   4.379   2.981   4.127
    1C        C  192   4.468   3.172   4.252
    1C        C  193   4.441   3.110   4.376
    1C        C  194   4.503   3.319   4.493
    1C        C  195   4.469   3.181   4.495
    1C        C  196   4.524   3.387   4.614
    1C        C  197   4.513   3.319   4.738
    1C        C  198   4.559   3.538   4.852
    1C        C  199   4.531   3.397   4.855
    1C        C  200   4.584   3.623   4.964
    1C        C  201   3.613   2.415   2.074
    1C        C  202   3.825   2.512   2.183
    1C        C  203   3.691   2.460   2.185
    1C        C  204   3.899   2.542   2.301
    1C        C  205   3.833   2.523   2.425
    1C        C  206   4.023   2.617   2.541
    1C        C  207   3.896   2.555   2.547
    1C        C  208   4.081   2.658   2.663
    1C        C  209   4.025   2.626   2.789
    1C        C  210   4.196   2.747   2.906
    1C        C  211   4.083   2.663   2.913
    1C        C  212   4.249   2.795   3.028
    1C        C  213   4.199   2.753   3.153
    1C        C  214   4.335   2.908   3.273
    1C        C  215   4.245   2.798   3.279
    1C        C  216   4.369   2.975   3.392
    1C        C  217   4.333   2.919   3.517
    1C        C  218   4.432   3.099   3.642
    1C        C  219   4.370   2.972   3.642
    1C        C  220   4.463   3.171   3.760
    1C        C  221   4.445   3.101   3.881
    1C        C  222   4.504   3.303   4.007
    1C        C  223   4.473   3.165   4.004
    1C        C  224   4.515   3.380   4.125
    1C        C  225   4.501   3.310   4.247
    1C        C  226   4.516   3.525   4.367
    1C        C  227   4.507   3.384   4.367
    1C        C  228   4.520   3.597   4.488
    1C        C  229   4.530   3.528   4.611
    1C        C  230   4.511   3.744   4.727
    1C        C  231   4.541   3.605   4.728
    1C        C  232   4.506   3.822   4.845
    1C        C  233   4.541   3.756   4.963
    1C        C  234   4.015   2.608   2.063
    1C        C  235   3.891   2.545   2.065
    1C        C  236   4.084   2.645   2.179
    1C        C  237   4.025   2.608   2.301
    1C        C  238   4.201   2.737   2.422
    1C        C  239   4.087   2.652   2.420
    1C        C  240   4.253   2.786   2.544
    1C        C  241   4.196   2.740   2.665
    1C        C  242   4.339   2.904   2.785
    1C        C  243   4.250   2.795   2.784
    1C        C  244   4.376   2.962   2.908
    1C        C  245   4.335   2.906   3.031
    1C        C  246   4.441   3.093   3.148
    1C        C  247   4.375   2.968   3.152
    1C        C  248   4.463   3.160   3.271
    1C        C  249   4.431   3.102   3.396
    1C        C  250   4.493   3.302   3.514
    1C        C  251   4.457   3.165   3.520
    1C        C  252   4.504   3.374   3.635
    1C        C  253   4.496   3.309   3.760
    1C        C  254   4.522   3.513   3.880
    1C        C  255   4.513   3.373   3.885
    1C        C  256   4.517   3.590   3.998
    1C        C  257   4.516   3.521   4.121
    1C        C  258   4.488   3.731   4.245
    1C        C  259   4.515   3.593   4.243
    1C        C  260   4.468   3.806   4.363
    1C        C  261   4.487   3.735   4.484
    1C        C  262   4.426   3.938   4.610
    1C        C  263   4.476   3.806   4.605
    1C        C  264   4.401   4.013   4.727
    1C        C  265   4.440   3.947   4.846
    1C        C  266   4.320   4.128   4.963
    1C        C  267   4.398   4.012   4.962
    1C        C  268   4.257   2.777   2.062
    1C        C  269   4.195   2.733   2.180
    1C        C  270   4.348   2.888   2.299
    1C        C  271   4.255   2.780   2.299
    1C        C  272   4.389   2.949   2.420
    1C        C  273   4.349   2.889   2.541
    1C        C  274   4.446   3.083   2.661
    1C        C  275   4.380   2.959   2.661
    1C        C  276   4.470   3.151   2.783
    1C        C  277   4.442   3.087   2.905
    1C        C  278   4.508   3.293   3.024
    1C        C  279   4.471   3.156   3.025
    1C        C  280   4.509   3.362   3.147
    1C        C  281   4.499   3.296   3.272
    1C        C  282   4.515   3.511   3.388
    1C        C  283   4.514   3.370   3.392
    1C        C  284   4.509   3.578   3.513
    1C        C  285   4.513   3.515   3.639
    1C        C  286   4.491   3.727   3.751
    1C        C  287   4.515   3.588   3.760
    1C        C  288   4.473   3.792   3.875
    1C        C  289   4.495   3.730   4.000
    1C        C  290   4.429   3.932   4.116
    1C        C  291   4.475   3.799   4.122
    1C        C  292   4.401   4.000   4.237
    1C        C  293   4.427   3.941   4.363
    1C        C  294   4.326   4.122   4.480
    1C        C  295   4.400   4.003   4.487
    1C        C  296   4.286   4.187   4.599
    1C        C  297   4.328   4.135   4.724
    1C        C  298   4.202   4.311   4.837
    1C        C  299   4.286   4.195   4.845
    1C        C  300   4.169   4.395   4.948
    1C        C  301   4.346   2.883   2.063
    1C        C  302   4.471   3.067   2.178
    1C        C  303   4.396   2.945   2.178
    1C        C  304   4.485   3.140   2.299
    1C        C  305   4.455   3.074   2.421
    1C        C  306   4.509   3.284   2.539
    1C        C  307   4.481   3.146   2.539
    1C        C  308   4.518   3.357   2.660
    1C        C  309   4.507   3.288   2.782
    1C        C  310   4.525   3.502   2.902
    1C        C  311   4.522   3.361   2.902
    1C        C  312   4.511   3.575   3.023
    1C        C  313   4.510   3.503   3.145
    1C        C  314   4.483   3.717   3.266
    1C        C  315   4.511   3.579   3.264
    1C        C  316   4.470   3.785   3.389
    1C        C  317   4.487   3.718   3.512
    1C        C  318   4.420   3.926   3.628
    1C        C  319   4.475   3.796   3.629
    1C        C  320   4.392   3.984   3.754
    1C        C  321   4.422   3.924   3.878
    1C        C  322   4.316   4.115   3.990
    1C        C  323   4.392   3.996   3.996
    1C        C  324   4.281   4.168   4.116
    1C        C  325   4.331   4.123   4.240
    1C        C  326   4.185   4.283   4.355
    1C        C  327   4.285   4.183   4.359
    1C        C  328   4.140   4.341   4.475
    1C        C  329   4.196   4.295   4.597
    1C        C  330   4.031   4.440   4.713
    1C        C  331   4.146   4.356   4.714
    1C        C  332   3.972   4.489   4.831
    1C        C  333   4.051   4.471   4.945
    1C        C  334   4.556   3.267   2.069
    1C        C  335   4.534   3.129   2.066
    1C        C  336   4.544   3.351   2.181
    1C        C  337   4.519   3.278   2.299
    1C        C  338   4.523   3.496   2.415
    1C        C  339   4.519   3.355   2.417
    1C        C  340   4.521   3.569   2.536
    1C        C  341   4.520   3.498   2.658
    1C        C  342   4.496   3.711   2.777
    1C        C  343   4.516   3.571   2.779
    1C        C  344   4.475   3.781   2.898
    1C        C  345   4.495   3.715   3.021
    1C        C  346   4.421   3.916   3.140
    1C        C  347   4.473   3.785   3.142
    1C        C  348   4.390   3.982   3.261
    1C        C  349   4.425   3.919   3.382
    1C        C  350   4.317   4.105   3.506
    1C        C  351   4.394   3.986   3.503
    1C        C  352   4.273   4.165   3.626
    1C        C  353   4.324   4.108   3.745
    1C        C  354   4.176   4.267   3.868
    1C        C  355   4.274   4.165   3.864
    1C        C  356   4.124   4.316   3.990
    1C        C  357   4.181   4.268   4.110
    1C        C  358   4.011   4.399   4.231
    1C        C  359   4.127   4.318   4.231
    1C        C  360   3.955   4.447   4.352
    1C        C  361   4.022   4.419   4.473
    1C        C  362   3.830   4.516   4.594
    1C        C  363   3.960   4.462   4.593
    1C        C  364   3.765   4.546   4.715
    1C        C  365   3.842   4.544   4.833
    1C        C  366   3.634   4.592   4.951
    1C        C  367   3.772   4.575   4.951
    1C        C  368   4.505   3.563   2.055
    1C        C  369   4.529   3.491   2.172
    1C        C  370   4.502   3.706   2.288
    1C        C  371   4.521   3.566   2.292
    1C        C  372   4.488   3.778   2.409
    1C        C  373   4.501   3.709   2.531
    1C        C  374   4.425   3.908   2.653
    1C        C  375   4.478   3.777   2.653
    1C        C  376   4.388   3.973   2.772
    1C        C  377   4.424   3.913   2.894
    1C        C  378   4.322   4.099   3.016
    1C        C  379   4.395   3.978   3.016
    1C        C  380   4.273   4.158   3.134
    1C        C  381   4.316   4.103   3.257
    1C        C  382   4.181   4.261   3.379
    1C        C  383   4.279   4.159   3.381
    1C        C  384   4.123   4.310   3.499
    1C        C  385   4.173   4.264   3.623
    1C        C  386   4.008   4.394   3.743
    1C        C  387   4.124   4.314   3.746
    1C        C  388   3.945   4.431   3.864
    1C        C  389   4.007   4.395   3.986
    1C        C  390   3.823   4.498   4.108
    1C        C  391   3.949   4.434   4.109
    1C        C  392   3.757   4.521   4.231
    1C        C  393   3.825   4.502   4.353
    1C        C  394   3.616   4.543   4.476
    1C        C  395   3.756   4.527   4.473
    1C        C  396   3.548   4.560   4.598
    1C        C  397   3.625   4.567   4.717
    1C        C  398   3.414   4.550   4.842
    1C        C  399   3.552   4.576   4.838
    1C        C  400   3.342   4.516   4.958
    1C        C  401   4.506   3.702   2.053
    1C        C  402   4.451   3.915   2.166
    1C        C  403   4.491   3.780   2.168
    1C        C  404   4.415   3.978   2.288
    1C        C  405   4.439   3.910   2.410
    1C        C  406   4.326   4.093   2.524
    1C        C  407   4.403   3.975   2.530
    1C        C  408   4.279   4.150   2.645
    1C        C  409   4.315   4.094   2.769
    1C        C  410   4.176   4.251   2.887
    1C        C  411   4.277   4.152   2.893
    1C        C  412   4.123   4.298   3.010
    1C        C  413   4.170   4.255   3.135
    1C        C  414   4.004   4.383   3.254
    1C        C  415   4.119   4.302   3.258
    1C        C  416   3.943   4.420   3.376
    1C        C  417   4.004   4.385   3.499
    1C        C  418   3.814   4.480   3.619
    1C        C  419   3.944   4.425   3.621
    1C        C  420   3.748   4.507   3.741
    1C        C  421   3.815   4.485   3.863
    1C        C  422   3.614   4.537   3.989
    1C        C  423   3.753   4.515   3.986
    1C        C  424   3.543   4.541   4.111
    1C        C  425   3.617   4.541   4.231
    1C        C  426   3.405   4.549   4.356
    1C        C  427   3.546   4.549   4.353
    1C        C  428   3.335   4.546   4.479
    1C        C  429   3.407   4.557   4.600
    1C        C  430   3.199   4.517   4.723
    1C        C  431   3.338   4.546   4.723
    1C        C  432   3.129   4.490   4.844
    1C        C  433   3.205   4.494   4.961
    1C        C  434   4.390   4.123   2.051
    1C        C  435   4.446   3.995   2.051
    1C        C  436   4.308   4.164   2.162
    1C        C  437   4.338   4.098   2.284
    1C        C  438   4.184   4.252   2.402
    1C        C  439   4.284   4.152   2.403
    1C        C  440   4.128   4.296   2.523
    1C        C  441   4.181   4.252   2.647
    1C        C  442   4.009   4.383   2.764
    1C        C  443   4.126   4.304   2.766
    1C        C  444   3.948   4.414   2.888
    1C        C  445   4.005   4.375   3.011
    1C        C  446   3.810   4.465   3.128
    1C        C  447   3.941   4.413   3.131
    1C        C  448   3.747   4.490   3.252
    1C        C  449   3.811   4.472   3.376
    1C        C  450   3.608   4.535   3.495
    1C        C  451   3.745   4.500   3.498
    1C        C  452   3.543   4.544   3.621
    1C        C  453   3.611   4.542   3.745
    1C        C  454   3.400   4.549   3.865
    1C        C  455   3.542   4.549   3.868
    1C        C  456   3.332   4.534   3.988
    1C        C  457   3.402   4.539   4.111
    1C        C  458   3.197   4.501   4.237
    1C        C  459   3.334   4.536   4.235
    1C        C  460   3.128   4.485   4.359
    1C        C  461   3.198   4.510   4.480
    1C        C  462   2.999   4.439   4.603
    1C        C  463   3.129   4.496   4.602
    1C        C  464   2.932   4.405   4.722
    1C        C  465   2.995   4.442   4.845
    1C        C  466   2.800   4.340   4.958
    1C        C  467   2.908   4.429   4.958
    1C        C  468   4.128   4.289   2.043
    1C        C  469   4.193   4.249   2.160
    1C        C  470   4.008   4.369   2.279
    1C        C  471   4.131   4.297   2.279
    1C        C  472   3.941   4.399   2.400
    1C        C  473   4.008   4.370   2.521
    1C        C  474   3.814   4.463   2.644
    1C        C  475   3.945   4.410   2.641
    1C        C  476   3.747   4.488   2.766
    1C        C  477   3.816   4.464   2.887
    1C        C  478   3.604   4.514   3.010
    1C        C  479   3.742   4.485   3.005
    1C        C  480   3.535   4.525   3.133
    1C        C  481   3.609   4.521   3.253
    1C        C  482   3.395   4.536   3.378
    1C        C  483   3.536   4.539   3.373
    1C        C  484   3.328   4.524   3.502
    1C        C  485   3.402   4.537   3.621
    1C        C  486   3.193   4.499   3.747
    1C        C  487   3.330   4.534   3.743
    1C        C  488   3.129   4.475   3.870
    1C        C  489   3.195   4.502   3.992
    1C        C  490   3.005   4.413   4.116
    1C        C  491   3.128   4.482   4.115
    1C        C  492   2.942   4.385   4.239
    1C        C  493   2.998   4.430   4.361
    1C        C  494   2.830   4.304   4.482
    1C        C  495   2.937   4.396   4.484
    1C        C  496   2.776   4.256   4.604
    1C        C  497   2.827   4.309   4.725
    1C        C  498   2.664   4.168   4.845
    1C        C  499   2.758   4.274   4.842
    1C        C  500   2.602   4.117   4.960
    1C        C  501   4.006   4.356   2.042
    1C        C  502   3.818   4.467   2.157
    1C        C  503   3.941   4.399   2.159
    1C        C  504   3.748   4.487   2.278
    1C        C  505   3.811   4.453   2.399
    1C        C  506   3.609   4.511   2.522
    1C        C  507   3.747   4.483   2.522
    1C        C  508   3.533   4.513   2.641
    1C        C  509   3.607   4.511   2.762
    1C        C  510   3.398   4.527   2.886
    1C        C  511   3.540   4.525   2.885
    1C        C  512   3.324   4.524   3.006
    1C        C  513   3.394   4.530   3.129
    1C        C  514   3.191   4.496   3.256
    1C        C  515   3.328   4.529   3.254
    1C        C  516   3.123   4.471   3.378
    1C        C  517   3.191   4.491   3.500
    1C        C  518   3.000   4.411   3.626
    1C        C  519   3.126   4.475   3.625
    1C        C  520   2.941   4.374   3.749
    1C        C  521   3.004   4.410   3.870
    1C        C  522   2.836   4.284   3.996
    1C        C  523   2.946   4.373   3.994
    1C        C  524   2.790   4.237   4.121
    1C        C  525   2.833   4.296   4.242
    1C        C  526   2.694   4.135   4.366
    1C        C  527   2.778   4.249   4.363
    1C        C  528   2.655   4.077   4.489
    1C        C  529   2.689   4.145   4.608
    1C        C  530   2.589   3.959   4.733
    1C        C  531   2.640   4.091   4.729
    1C        C  532   2.546   3.902   4.856
    1C        C  533   2.535   3.995   4.965
    1C        C  534   3.620   4.557   2.045
    1C        C  535   3.754   4.516   2.042
    1C        C  536   3.538   4.532   2.159
    1C        C  537   3.608   4.513   2.281
    1C        C  538   3.394   4.512   2.401
    1C        C  539   3.535   4.519   2.402
    1C        C  540   3.322   4.513   2.522
    1C        C  541   3.392   4.516   2.645
    1C        C  542   3.184   4.483   2.767
    1C        C  543   3.322   4.514   2.768
    1C        C  544   3.121   4.462   2.892
    1C        C  545   3.188   4.487   3.013
    1C        C  546   2.997   4.400   3.137
    1C        C  547   3.121   4.469   3.136
    1C        C  548   2.941   4.361   3.261
    1C        C  549   2.996   4.410   3.382
    1C        C  550   2.830   4.281   3.506
    1C        C  551   2.938   4.373   3.505
    1C        C  552   2.778   4.234   3.628
    1C        C  553   2.833   4.282   3.749
    1C        C  554   2.700   4.123   3.878
    1C        C  555   2.787   4.234   3.874
    1C        C  556   2.655   4.068   4.001
    1C        C  557   2.696   4.132   4.120
    1C        C  558   2.602   3.946   4.248
    1C        C  559   2.656   4.077   4.243
    1C        C  560   2.576   3.879   4.369
    1C        C  561   2.595   3.950   4.490
    1C        C  562   2.530   3.750   4.616
    1C        C  563   2.567   3.887   4.614
    1C        C  564   2.516   3.682   4.739
    1C        C  565   2.517   3.762   4.857
    1C        C  566   2.530   3.546   4.977
    1C        C  567   2.527   3.685   4.974
    1C        C  568   3.327   4.480   2.041
    1C        C  569   3.397   4.512   2.159
    1C        C  570   3.183   4.477   2.282
    1C        C  571   3.322   4.506   2.279
    1C        C  572   3.113   4.463   2.404
    1C        C  573   3.183   4.484   2.524
    1C        C  574   2.988   4.400   2.650
    1C        C  575   3.114   4.465   2.646
    1C        C  576   2.927   4.365   2.772
    1C        C  577   2.992   4.404   2.891
    1C        C  578   2.829   4.272   3.018
    1C        C  579   2.937   4.363   3.015
    1C        C  580   2.778   4.222   3.139
    1C        C  581   2.832   4.271   3.260
    1C        C  582   2.693   4.117   3.386
    1C        C  583   2.784   4.225   3.385
    1C        C  584   2.660   4.057   3.510
    1C        C  585   2.697   4.119   3.632
    1C        C  586   2.594   3.939   3.757
    1C        C  587   2.660   4.063   3.756
    1C        C  588   2.568   3.876   3.881
    1C        C  589   2.595   3.940   4.004
    1C        C  590   2.544   3.738   4.130
    1C        C  591   2.576   3.876   4.128
    1C        C  592   2.529   3.670   4.254
    1C        C  593   2.538   3.743   4.374
    1C        C  594   2.520   3.534   4.500
    1C        C  595   2.523   3.675   4.497
    1C        C  596   2.517   3.463   4.622
    1C        C  597   2.516   3.540   4.740
    1C        C  598   2.536   3.327   4.864
    1C        C  599   2.528   3.468   4.861
    1C        C  600   2.534   3.250   4.981
    1C        C  601   3.195   4.441   2.046
    1C        C  602   2.982   4.392   2.159
    1C        C  603   3.116   4.444   2.161
    1C        C  604   2.925   4.358   2.285
    1C        C  605   2.987   4.399   2.405
    1C        C  606   2.821   4.269   2.529
    1C        C  607   2.929   4.360   2.528
    1C        C  608   2.770   4.222   2.651
    1C        C  609   2.824   4.268   2.773
    1C        C  610   2.689   4.109   2.897
    1C        C  611   2.779   4.217   2.897
    1C        C  612   2.648   4.055   3.021
    1C        C  613   2.690   4.112   3.144
    1C        C  614   2.589   3.927   3.268
    1C        C  615   2.651   4.054   3.267
    1C        C  616   2.567   3.865   3.393
    1C        C  617   2.598   3.930   3.515
    1C        C  618   2.530   3.731   3.642
    1C        C  619   2.569   3.867   3.638
    1C        C  620   2.516   3.666   3.766
    1C        C  621   2.531   3.740   3.885
    1C        C  622   2.514   3.529   4.011
    1C        C  623   2.530   3.669   4.008
    1C        C  624   2.513   3.457   4.133
    1C        C  625   2.517   3.530   4.254
    1C        C  626   2.542   3.324   4.378
    1C        C  627   2.515   3.462   4.378
    1C        C  628   2.564   3.257   4.501
    1C        C  629   2.537   3.323   4.623
    1C        C  630   2.599   3.119   4.744
    1C        C  631   2.554   3.253   4.744
    1C        C  632   2.618   3.048   4.866
    1C        C  633   2.561   3.113   4.980
    1C        C  634   2.780   4.305   2.054
    1C        C  635   2.887   4.395   2.052
    1C        C  636   2.748   4.232   2.169
    1C        C  637   2.810   4.275   2.288
    1C        C  638   2.673   4.111   2.411
    1C        C  639   2.763   4.220   2.410
    1C        C  640   2.638   4.050   2.533
    1C        C  641   2.682   4.111   2.653
    1C        C  642   2.583   3.925   2.780
    1C        C  643   2.648   4.050   2.776
    1C        C  644   2.563   3.857   2.902
    1C        C  645   2.589   3.926   3.023
    1C        C  646   2.527   3.726   3.150
    1C        C  647   2.560   3.863   3.145
    1C        C  648   2.517   3.655   3.272
    1C        C  649   2.530   3.728   3.392
    1C        C  650   2.507   3.524   3.519
    1C        C  651   2.515   3.665   3.518
    1C        C  652   2.511   3.455   3.642
    1C        C  653   2.512   3.524   3.766
    1C        C  654   2.536   3.317   3.889
    1C        C  655   2.518   3.457   3.890
    1C        C  656   2.550   3.250   4.012
    1C        C  657   2.534   3.317   4.135
    1C        C  658   2.610   3.120   4.258
    1C        C  659   2.556   3.251   4.258
    1C        C  660   2.638   3.057   4.381
    1C        C  661   2.606   3.122   4.503
    1C        C  662   2.711   2.936   4.628
    1C        C  663   2.632   3.054   4.623
    1C        C  664   2.752   2.877   4.749
    1C        C  665   2.700   2.931   4.870
    1C        C  666   2.752   2.875   4.988
    1C        C  667   2.683   4.025   2.056
    1C        C  668   2.682   4.107   2.169
    1C        C  669   2.592   3.912   2.291
    1C        C  670   2.642   4.045   2.290
    1C        C  671   2.566   3.847   2.414
    1C        C  672   2.587   3.918   2.534
    1C        C  673   2.524   3.720   2.658
    1C        C  674   2.557   3.857   2.658
    1C        C  675   2.515   3.652   2.781
    1C        C  676   2.530   3.720   2.904
    1C        C  677   2.509   3.514   3.029
    1C        C  678   2.514   3.655   3.029
    1C        C  679   2.509   3.445   3.152
    1C        C  680   2.509   3.514   3.275
    1C        C  681   2.529   3.308   3.402
    1C        C  682   2.508   3.448   3.400
    1C        C  683   2.552   3.243   3.526
    1C        C  684   2.537   3.316   3.646
    1C        C  685   2.606   3.115   3.769
    1C        C  686   2.556   3.247   3.768
    1C        C  687   2.635   3.051   3.892
    1C        C  688   2.598   3.117   4.012
    1C        C  689   2.717   2.942   4.140
    1C        C  690   2.635   3.057   4.134
    1C        C  691   2.758   2.885   4.262
    1C        C  692   2.715   2.939   4.385
    1C        C  693   2.752   2.876   4.506
    1C        C  694   2.637   3.893   2.059
    1C        C  695   2.533   3.702   2.173
    1C        C  696   2.578   3.836   2.173
    1C        C  697   2.517   3.635   2.296
    1C        C  698   2.530   3.710   2.415
    1C        C  699   2.494   3.505   2.543
    1C        C  700   2.508   3.646   2.539
    1C        C  701   2.506   3.438   2.666
    1C        C  702   2.501   3.512   2.786
    1C        C  703   2.531   3.301   2.912
    1C        C  704   2.509   3.441   2.908
    1C        C  705   2.549   3.233   3.035
    1C        C  706   2.532   3.305   3.155
    1C        C  707   2.597   3.108   3.281
    1C        C  708   2.547   3.241   3.279
    1C        C  709   2.636   3.046   3.402
    1C        C  710   2.607   3.113   3.523
    1C        C  711   2.713   2.933   3.649
    1C        C  712   2.635   3.051   3.647
    1C        C  713   2.763   2.886   3.772
    1C        C  714   2.721   2.940   3.896
    1C        C  715   2.766   2.887   4.019
    1C        C  716   2.450   3.497   2.062
    1C        C  717   2.493   3.630   2.059
    1C        C  718   2.464   3.420   2.182
    1C        C  719   2.482   3.497   2.299
    1C        C  720   2.511   3.291   2.425
    1C        C  721   2.488   3.430   2.423
    1C        C  722   2.535   3.223   2.547
    1C        C  723   2.527   3.298   2.666
    1C        C  724   2.595   3.100   2.789
    1C        C  725   2.546   3.233   2.789
    1C        C  726   2.626   3.040   2.914
    1C        C  727   2.597   3.100   3.038
    1C        C  728   2.707   2.923   3.159
    1C        C  729   2.625   3.038   3.162
    1C        C  730   2.756   2.874   3.281
    1C        C  731   2.716   2.929   3.405
    1C        C  732   2.760   2.876   3.528
    1C        C  733   2.492   3.195   2.072
    1C        C  734   2.496   3.280   2.183
    1C        C  735   2.586   3.087   2.307
    1C        C  736   2.525   3.216   2.306
    1C        C  737   2.617   3.023   2.429
    1C        C  738   2.592   3.093   2.549
    1C        C  739   2.702   2.911   2.672
    1C        C  740   2.626   3.030   2.671
    1C        C  741   2.746   2.859   2.796
    1C        C  742   2.703   2.921   2.916
    1C        C  743   2.750   2.866   3.037
    1C        C  744   2.551   3.069   2.074
    1C        C  745   2.684   2.894   2.187
    1C        C  746   2.612   3.015   2.188
    1C        C  747   2.734   2.841   2.308
    1C        C  748   2.692   2.903   2.427
    1C        C  749   2.738   2.851   2.550
    1C        C  750   2.736   2.842   2.068
    1C        C  751   3.655   2.299   1.992
    1C        O  752   3.661   2.181   2.036
    1C        O  753   3.689   2.310   1.856
    1C        C  754   4.616   3.045   1.975
    1C        O  755   4.571   3.010   1.863
    1C        O  756   4.755   3.056   1.975
    1C        C  757   4.470   4.217   1.970
    1C        O  758   4.568   4.277   2.022
    1C        O  759   4.480   4.198   1.831
    1C        C  760   3.597   4.664   1.946
    1C        O  761   3.526   4.766   1.969
    1C        O  762   3.584   4.631   1.811
    1C        C  763   2.864   4.518   1.973
    1C        O  764   2.911   4.538   1.857
    1C        O  765   2.845   4.635   2.047
    1C        C  766   2.335   3.458   1.977
    1C        O  767   2.349   3.446   1.853
    1C        O  768   2.203   3.491   2.009
    1C        C  769   4.711   3.605   5.038
    1C        O  770   4.716   3.527   5.137
    1C        O  771   4.837   3.646   4.993
    1C        C  772   4.269   4.453   5.040
    1C        O  773   4.267   4.411   5.159
    1C        O  774   4.348   4.566   5.019
    1C        C  775   4.142   2.513   5.073
    1C        O  776   4.182   2.395   5.057
    1C        O  777   4.158   2.549   5.208
    1C        C  778   2.872   4.547   5.040
    1C        O  779   2.860   4.665   4.996
    1C        O  780   2.895   4.537   5.178
    1C        C  781   2.513   3.040   5.101
    1C        O  782   2.401   2.984   5.103
    1C        O  783   2.565   3.077   5.224
    1C        C  784   2.410   3.998   5.045
    1C        O  785   2.294   3.999   4.995
    1C        O  786   2.419   3.979   5.183
    1C        C  787   2.941   2.422   2.014
    1C        O  788   2.941   2.428   1.888
    1C        O  789   2.913   2.294   2.062
    1C        C  790   3.194   2.381   5.073
    1C        O  791   3.153   2.265   5.047
    1C        O  792   3.198   2.411   5.210
    1C        H  793   4.241   3.040   5.027
    1C        H  794   4.151   2.818   5.052
    1C        H  795   4.483   3.136   5.069
    1C        H  796   4.476   3.377   5.058
    1C        H  797   4.557   3.815   5.052
    1C        H  798   4.464   4.009   5.046
    1C        H  799   4.266   4.155   5.052
    1C        H  800   4.042   4.550   5.016
    1C        H  801   3.828   4.621   5.029
    1C        H  802   3.593   4.629   5.043
    1C        H  803   3.387   4.523   5.055
    1C        H  804   3.160   4.547   5.042
    1C        H  805   3.884   2.495   5.070
    1C        H  806   3.677   2.440   5.067
    1C        H  807   2.995   2.548   5.062
    1C        H  808   3.441   2.463   5.074
    1C        H  809   2.907   2.777   5.079
    1C        H  810   2.690   2.879   5.075
    1C        H  811   2.460   3.286   5.049
    1C        H  812   2.510   3.503   5.072
    1C        H  813   2.546   3.741   5.063
    1C        H  814   2.616   4.173   5.050
    1C        H  815   2.776   4.298   5.054
    1C        H  816   2.793   2.919   2.020
    1C        H  817   2.819   2.675   1.982
    1C        H  818   3.217   2.450   1.984
    1C        H  819   3.441   2.480   1.984
    1C        H  820   3.848   2.519   1.970
    1C        H  821   4.061   2.605   1.966
    1C        H  822   4.236   2.730   1.968
    1C        H  823   4.352   2.936   1.970
    1C        H  824   4.627   3.306   1.999
    1C        H  825   4.457   3.514   1.973
    1C        H  826   4.484   3.748   1.958
    1C        H  827   3.804   4.512   1.947
    1C        H  828   3.986   4.420   1.958
    1C        H  829   4.192   4.306   1.959
    1C        H  830   4.488   3.959   1.960
    1C        H  831   2.617   3.845   1.965
    1C        H  832   2.729   4.050   1.963
    1C        H  833   2.727   4.285   1.963
    1C        H  834   3.363   4.523   1.950
    1C        H  835   3.158   4.379   1.967
    1C        H  836   2.518   3.001   1.997
    1C        H  837   2.443   3.224   1.981
    1C        H  838   2.497   3.681   1.966
    2V3OU   H29  839   2.806   3.549   0.683
    2V3OU   C27  840   2.783   3.500   0.781
    2V3OU   H27  841   2.723   3.572   0.843
    2V3OU   H28  842   2.728   3.405   0.758
    2V3OU   O11  843   2.908   3.471   0.845
    2V3OU   C15  844   2.921   3.402   0.963
    2V3OU   C13  845   3.049   3.380   1.017
    2V3OU   C14  846   3.076   3.276   1.106
    2V3OU   C16  847   2.974   3.190   1.145
    2V3OU    H6  848   2.998   3.101   1.205
    2V3OU   C12  849   3.216   3.228   1.114
    2V3OU    O2  850   3.241   3.121   1.174
    2V3OU   C10  851   3.326   3.311   1.062
    2V3OU    C8  852   3.457   3.273   1.088
    2V3OU   O10  853   3.489   3.152   1.142
    2V3OU   H26  854   3.403   3.113   1.166
    2V3OU    C6  855   3.566   3.351   1.039
    2V3OU    C5  856   3.538   3.467   0.968
    2V3OU    C4  857   3.705   3.298   1.036
    2V3OU    H4  858   3.725   3.222   1.117
    2V3OU    H5  859   3.715   3.238   0.941
    2V3OU    C2  860   3.816   3.404   1.037
    2V3OU    O6  861   3.809   3.475   1.160
    2V3OU   H21  862   3.767   3.559   1.134
    2V3OU    C3  863   3.785   3.498   0.920
    2V3OU    H2  864   3.861   3.580   0.910
    2V3OU    H3  865   3.787   3.438   0.826
    2V3OU   C25  866   3.949   3.330   1.020
    2V3OU    O7  867   3.994   3.295   0.911
    2V3OU   C26  868   4.027   3.288   1.144
    2V3OU   H22  869   4.062   3.382   1.193
    2V3OU   H23  870   4.108   3.217   1.115
    2V3OU    O8  871   3.957   3.213   1.241
    2V3OU   H24  872   3.928   3.273   1.312
    2V3OU    C1  873   3.648   3.563   0.933
    2V3OU    H1  874   3.628   3.621   0.838
    2V3OU    O3  875   3.654   3.650   1.047
    2V3OU   C19  876   3.620   3.789   1.047
    2V3OU    H9  877   3.521   3.806   0.996
    2V3OU    O4  878   3.712   3.850   0.959
    2V3OU   C20  879   3.844   3.874   1.009
    2V3OU   H10  880   3.900   3.780   1.037
    2V3OU   C24  881   3.608   3.859   1.182
    2V3OU   H16  882   3.544   3.797   1.250
    2V3OU   H17  883   3.558   3.958   1.165
    2V3OU   C23  884   3.748   3.881   1.240
    2V3OU   H15  885   3.795   3.779   1.264
    2V3OU    N1  886   3.741   3.959   1.362
    2V3OU   H19  887   3.808   3.922   1.425
    2V3OU   H20  888   3.652   3.933   1.399
    2V3OU   C21  889   3.848   3.949   1.142
    2V3OU   H11  890   3.950   3.927   1.186
    2V3OU    O5  891   3.823   4.088   1.135
    2V3OU   H18  892   3.781   4.107   1.221
    2V3OU   C22  893   3.915   3.947   0.895
    2V3OU   H12  894   3.862   4.044   0.875
    2V3OU   H13  895   3.904   3.890   0.800
    2V3OU   H14  896   4.024   3.958   0.919
    2V3OU   C11  897   3.157   3.476   0.990
    2V3OU    O1  898   3.130   3.594   0.960
    2V3OU    C9  899   3.298   3.429   0.988
    2V3OU    C7  900   3.403   3.503   0.936
    2V3OU    O9  901   3.386   3.615   0.857
    2V3OU   H25  902   3.291   3.634   0.852
    2V3OU   C17  903   2.819   3.314   1.004
    2V3OU    H7  904   2.718   3.340   0.973
    2V3OU   C18  905   2.847   3.211   1.094
    2V3OU    H8  906   2.759   3.157   1.133
    3SOL     OW  907   0.637   4.725   1.383
    3SOL    HW1  908   0.605   4.644   1.334
    3SOL    HW2  909   0.736   4.718   1.397
    4SOL     OW  910   6.171   1.814   2.355
    4SOL    HW1  911   6.270   1.823   2.368
    4SOL    HW2  912   6.151   1.784   2.262
    5SOL     OW  913   3.874   3.319   0.501
    5SOL    HW1  914   3.931   3.275   0.569
    5SOL    HW2  915   3.795   3.260   0.480
    6SOL     OW  916   3.512   2.347   0.562
    6SOL    HW1  917   3.585   2.390   0.508
    6SOL    HW2  918   3.423   2.379   0.530
    7SOL     OW  919   5.637   0.832   1.849
    7SOL    HW1  920   5.642   0.766   1.775
    7SOL    HW2  921   5.690   0.800   1.927
    8SOL     OW  922   3.346   2.159   3.202
    8SOL    HW1  923   3.269   2.175   3.140
    8SOL    HW2  924   3.398   2.243   3.215
    9SOL     OW  925   6.480   4.263   6.749
    9SOL    HW1  926   6.396   4.317   6.736
    9SOL    HW2  927   6.462   4.189   6.813
   10SOL     OW  928   6.973   4.288   1.864
   10SOL    HW1  929   6.951   4.330   1.952
   10SOL    HW2  930   0.037   4.322   1.833
   11SOL     OW  931   3.836   6.931   0.273
   11SOL    HW1  932   3.806   6.863   0.339
   11SOL    HW2  933   3.935   6.938   0.274
   12SOL     OW  934   5.490   6.895   2.204
   12SOL    HW1  935   5.506   6.799   2.179
   12SOL    HW2  936   5.453   6.900   2.297
   13SOL     OW  937   2.040   6.691   2.321
   13SOL    HW1  938   2.024   6.787   2.301
   13SOL    HW2  939   1.982   6.663   2.398
   14SOL     OW  940   2.619   0.273   3.116
   14SOL    HW1  941   2.678   0.290   3.038
   14SOL    HW2  942   2.525   0.301   3.094
   15SOL     OW  943   2.642   6.985   6.430
   15SOL    HW1  944   2.554   7.014   6.394
   15SOL    HW2  945   2.701   6.955   6.355
   16SOL     OW  946   6.189   1.707   0.573
   16SOL    HW1  947   6.184   1.720   0.672
   16SOL    HW2  948   6.269   1.755   0.537
   17SOL     OW  949   4.195   5.540   4.020
   17SOL    HW1  950   4.123   5.470   4.017
   17SOL    HW2  951   4.153   5.631   4.024
   18SOL     OW  952   1.506   0.263   6.759
   18SOL    HW1  953   1.546   0.188   6.812
   18SOL    HW2  954   1.423   0.232   6.713
   19SOL     OW  955   0.339   6.858   0.924
   19SOL    HW1  956   0.246   6.862   0.888
   19SOL    HW2  957   0.378   6.767   0.907
   20SOL     OW  958   3.374   0.092   4.541
   20SOL    HW1  959   3.416   0.115   4.453
   20SOL    HW2  960   3.338   0.175   4.583
   21SOL     OW  961   2.801   2.954   1.370
   21SOL    HW1  962   2.778   3.052   1.368
   21SOL    HW2  963   2.882   2.938   1.314
   22SOL     OW  964   1.794   0.953   5.214
   22SOL    HW1  965   1.797   0.904   5.126
   22SOL    HW2  966   1.872   0.925   5.270
   23SOL     OW  967   2.188   6.603   4.232
   23SOL    HW1  968   2.237   6.594   4.318
   23SOL    HW2  969   2.252   6.596   4.156
   24SOL     OW  970   4.850   1.559   5.088
   24SOL    HW1  971   4.935   1.595   5.125
   24SOL    HW2  972   4.830   1.605   5.001
   25SOL     OW  973   2.482   6.059   0.676
   25SOL    HW1  974   2.433   5.982   0.716
   25SOL    HW2  975   2.581   6.044   0.687
   26SOL     OW  976   5.940   1.126   2.885
   26SOL    HW1  977   5.861   1.181   2.858
   26SOL    HW2  978   5.910   1.051   2.943
   27SOL     OW  979   5.821   0.054   2.471
   27SOL    HW1  980   5.822   0.063   2.372
   27SOL    HW2  981   5.886   0.118   2.512
   28SOL     OW  982   2.745   1.395   0.323
   28SOL    HW1  983   2.694   1.343   0.393
   28SOL    HW2  984   2.771   1.334   0.249
   29SOL     OW  985   4.968   3.132   1.874
   29SOL    HW1  986   4.883   3.102   1.917
   29SOL    HW2  987   5.046   3.108   1.932
   30SOL     OW  988   4.107   1.436   6.702
   30SOL    HW1  989   4.091   1.427   6.603
   30SOL    HW2  990   4.110   1.345   6.744
   31SOL     OW  991   1.358   1.831   5.489
   31SOL    HW1  992   1.439   1.874   5.449
   31SOL    HW2  993   1.276   1.872   5.451
   32SOL     OW  994   6.575   1.635   2.359
   32SOL    HW1  995   6.595   1.544   2.322
   32SOL    HW2  996   6.589   1.634   2.458
   33SOL     OW  997   1.384   1.264   4.750
   33SOL    HW1  998   1.455   1.316   4.703
   33SOL    HW2  999   1.399   1.270   4.849
   34SOL     OW 1000   0.902   0.648   4.569
   34SOL    HW1 1001   0.974   0.717   4.578
   34SOL    HW2 1002   0.913   0.580   4.642
   35SOL     OW 1003   4.711   2.316   6.523
   35SOL    HW1 1004   4.800   2.306   6.565
   35SOL    HW2 1005   4.706   2.261   6.440
   36SOL     OW 1006   0.791   2.675   6.198
   36SOL    HW1 1007   0.759   2.754   6.250
   36SOL    HW2 1008   0.865   2.630   6.247
   37SOL     OW 1009   3.414   6.699   1.928
   37SOL    HW1 1010   3.362   6.697   2.013
   37SOL    HW2 1011   3.384   6.777   1.872
   38SOL     OW 1012   6.660   5.603   1.604
   38SOL    HW1 1013   6.662   5.670   1.679
   38SOL    HW2 1014   6.707   5.641   1.525
   39SOL     OW 1015   6.933   2.797   6.501
   39SOL    HW1 1016   6.882   2.727   6.451
   39SOL    HW2 1017   7.001   2.839   6.441
   40SOL     OW 1018   6.933   1.678   1.743
   40SOL    HW1 1019   6.838   1.647   1.747
   40SOL    HW2 1020   6.994   1.606   1.776
   41SOL     OW 1021   0.603   1.478   6.328
   41SOL    HW1 1022   0.610   1.380   6.346
   41SOL    HW2 1023   0.690   1.522   6.349
   42SOL     OW 1024   4.152   6.705   0.654
   42SOL    HW1 1025   4.138   6.687   0.752
   42SOL    HW2 1026   4.124   6.799   0.633
   43SOL     OW 1027   4.554   5.354   5.698
   43SOL    HW1 1028   4.545   5.377   5.794
   43SOL    HW2 1029   4.586   5.433   5.647
   44SOL     OW 1030   1.046   4.667   6.926
   44SOL    HW1 1031   1.093   4.658   6.838
   44SOL    HW2 1032   0.979   4.594   6.936
   45SOL     OW 1033   2.399   0.018   0.982
   45SOL    HW1 1034   2.484   7.003   1.014
   45SOL    HW2 1035   2.381   7.013   0.888
   46SOL     OW 1036   0.693   5.480   3.650
   46SOL    HW1 1037   0.708   5.436   3.738
   46SOL    HW2 1038   0.699   5.579   3.661
   47SOL     OW 1039   6.686   4.232   2.634
   47SOL    HW1 1040   6.629   4.235   2.552
   47SOL    HW2 1041   6.659   4.155   2.691
   48SOL     OW 1042   1.072   1.769   5.309
   48SOL    HW1 1043   1.037   1.860   5.288
   48SOL    HW2 1044   1.128   1.735   5.234
   49SOL     OW 1045   5.901   3.313   0.088
   49SOL    HW1 1046   5.956   3.342   0.166
   49SOL    HW2 1047   5.950   3.335   0.003
   50SOL     OW 1048   0.824   4.004   4.629
   50SOL    HW1 1049   0.835   3.941   4.552
   50SOL    HW2 1050   0.728   4.032   4.637
   51SOL     OW 1051   2.961   6.293   1.701
   51SOL    HW1 1052   2.922   6.336   1.782
   51SOL    HW2 1053   3.025   6.221   1.729
   52SOL     OW 1054   0.690   2.165   2.338
   52SOL    HW1 1055   0.771   2.174   2.280
   52SOL    HW2 1056   0.610   2.201   2.289
   53SOL     OW 1057   4.643   6.499   3.856
   53SOL    HW1 1058   4.732   6.531   3.825
   53SOL    HW2 1059   4.622   6.539   3.946
   54SOL     OW 1060   4.568   4.761   5.280
   54SOL    HW1 1061   4.645   4.732   5.222
   54SOL    HW2 1062   4.507   4.684   5.295
   55SOL     OW 1063   4.333   2.310   1.163
   55SOL    HW1 1064   4.342   2.406   1.189
   55SOL    HW2 1065   4.381   2.253   1.229
   56SOL     OW 1066   0.055   0.789   1.722
   56SOL    HW1 1067   0.005   0.702   1.726
   56SOL    HW2 1068   0.137   0.783   1.778
   57SOL     OW 1069   5.114   0.509   6.845
   57SOL    HW1 1070   5.020   0.544   6.841
   57SOL    HW2 1071   5.129   0.446   6.769
   58SOL     OW 1072   0.017   0.918   6.996
   58SOL    HW1 1073   0.048   1.012   6.982
   58SOL    HW2 1074   6.954   0.905   6.951
   59SOL     OW 1075   0.215   0.002   5.717
   59SOL    HW1 1076   0.203   6.944   5.769
   59SOL    HW2 1077   0.241   7.005   5.623
   60SOL     OW 1078   4.505   6.887   5.239
   60SOL    HW1 1079   4.575   6.906   5.307
   60SOL    HW2 1080   4.548   6.868   5.151
   61SOL     OW 1081   3.549   0.062   5.518
   61SOL    HW1 1082   3.461   0.054   5.471
   61SOL    HW2 1083   3.562   0.156   5.550
   62SOL     OW 1084   2.975   0.189   4.691
   62SOL    HW1 1085   2.929   0.184   4.780
   62SOL    HW2 1086   2.912   0.227   4.623
   63SOL     OW 1087   6.920   3.396   4.454
   63SOL    HW1 1088   6.950   3.488   4.481
   63SOL    HW2 1089   6.986   3.329   4.489
   64SOL     OW 1090   6.982   2.143   5.590
   64SOL    HW1 1091   0.002   2.221   5.632
   64SOL    HW2 1092   6.966   2.072   5.660
   65SOL     OW 1093   1.373   4.560   5.225
   65SOL    HW1 1094   1.460   4.511   5.232
   65SOL    HW2 1095   1.367   4.627   5.298
   66SOL     OW 1096   2.860   0.852   1.464
   66SOL    HW1 1097   2.761   0.859   1.476
   66SOL    HW2 1098   2.893   0.926   1.405
   67SOL     OW 1099   4.511   5.324   4.448
   67SOL    HW1 1100   4.452   5.334   4.368
   67SOL    HW2 1101   4.559   5.236   4.444
   68SOL     OW 1102   5.282   2.741   7.012
   68SOL    HW1 1103   5.333   2.784   0.060
   68SOL    HW2 1104   5.217   2.675   0.024
   69SOL     OW 1105   2.319   3.443   5.610
   69SOL    HW1 1106   2.270   3.516   5.563
   69SOL    HW2 1107   2.276   3.355   5.590
   70SOL     OW 1108   5.818   0.957   3.133
   70SOL    HW1 1109   5.875   0.977   3.212
   70SOL    HW2 1110   5.746   0.893   3.160
   71SOL     OW 1111   1.609   4.432   1.958
   71SOL    HW1 1112   1.524   4.401   1.915
   71SOL    HW2 1113   1.687   4.385   1.916
   72SOL     OW 1114   4.051   5.769   4.031
   72SOL    HW1 1115   4.080   5.803   3.942
   72SOL    HW2 1116   3.986   5.833   4.072
   73SOL     OW 1117   3.497   2.919   6.683
   73SOL    HW1 1118   3.400   2.897   6.673
   73SOL    HW2 1119   3.550   2.835   6.698
   74SOL     OW 1120   5.006   0.245   5.200
   74SOL    HW1 1121   4.973   0.183   5.272
   74SOL    HW2 1122   4.939   0.250   5.127
   75SOL     OW 1123   3.539   5.641   5.541
   75SOL    HW1 1124   3.496   5.618   5.454
   75SOL    HW2 1125   3.611   5.708   5.526
   76SOL     OW 1126   2.796   2.440   0.904
   76SOL    HW1 1127   2.849   2.513   0.861
   76SOL    HW2 1128   2.741   2.478   0.978
   77SOL     OW 1129   6.016   3.962   6.746
   77SOL    HW1 1130   6.054   4.009   6.667
   77SOL    HW2 1131   5.963   4.026   6.801
   78SOL     OW 1132   6.030   0.059   5.623
   78SOL    HW1 1133   6.078   0.102   5.546
   78SOL    HW2 1134   6.056   0.104   5.708
   79SOL     OW 1135   3.299   6.096   0.486
   79SOL    HW1 1136   3.223   6.031   0.478
   79SOL    HW2 1137   3.339   6.088   0.577
   80SOL     OW 1138   0.012   1.197   4.399
   80SOL    HW1 1139   0.066   1.115   4.418
   80SOL    HW2 1140   0.067   1.278   4.419
   81SOL     OW 1141   1.177   5.938   2.771
   81SOL    HW1 1142   1.151   6.025   2.813
   81SOL    HW2 1143   1.239   5.889   2.832
   82SOL     OW 1144   6.613   4.322   5.865
   82SOL    HW1 1145   6.650   4.268   5.941
   82SOL    HW2 1146   6.545   4.268   5.816
   83SOL     OW 1147   5.453   0.059   5.051
   83SOL    HW1 1148   5.362   0.095   5.030
   83SOL    HW2 1149   5.522   0.128   5.028
   84SOL     OW 1150   6.917   3.170   2.279
   84SOL    HW1 1151   6.946   3.076   2.293
   84SOL    HW2 1152   6.893   3.211   2.367
   85SOL     OW 1153   0.888   1.005   4.972
   85SOL    HW1 1154   0.985   1.027   4.978
   85SOL    HW2 1155   0.876   0.911   4.938
   86SOL     OW 1156   1.824   0.707   4.110
   86SOL    HW1 1157   1.917   0.674   4.088
   86SOL    HW2 1158   1.830   0.782   4.176
   87SOL     OW 1159   4.520   6.676   1.935
   87SOL    HW1 1160   4.567   6.759   1.966
   87SOL    HW2 1161   4.444   6.656   1.996
   88SOL     OW 1162   5.793   0.568   1.430
   88SOL    HW1 1163   5.728   0.575   1.506
   88SOL    HW2 1164   5.883   0.544   1.466
   89SOL     OW 1165   1.994   1.906   5.699
   89SOL    HW1 1166   1.896   1.903   5.718
   89SOL    HW2 1167   2.010   1.886   5.602
   90SOL     OW 1168   5.981   5.783   3.425
   90SOL    HW1 1169   5.930   5.807   3.507
   90SOL    HW2 1170   5.919   5.749   3.355
   91SOL     OW 1171   5.288   5.152   4.172
   91SOL    HW1 1172   5.355   5.186   4.238
   91SOL    HW2 1173   5.201   5.201   4.185
   92SOL     OW 1174   3.383   5.690   1.073
   92SOL    HW1 1175   3.293   5.686   1.029
   92SOL    HW2 1176   3.393   5.613   1.136
   93SOL     OW 1177   2.865   5.004   5.838
   93SOL    HW1 1178   2.870   4.922   5.895
   93SOL    HW2 1179   2.892   5.084   5.892
   94SOL     OW 1180   1.843   6.580   2.480
   94SOL    HW1 1181   1.746   6.558   2.473
   94SOL    HW2 1182   1.897   6.496   2.483
   95SOL     OW 1183   6.938   0.129   3.946
   95SOL    HW1 1184   6.915   0.223   3.921
   95SOL    HW2 1185   6.854   0.080   3.971
   96SOL     OW 1186   1.710   6.520   4.511
   96SOL    HW1 1187   1.719   6.426   4.477
   96SOL    HW2 1188   1.783   6.538   4.577
   97SOL     OW 1189   6.725   2.432   4.088
   97SOL    HW1 1190   6.764   2.409   3.999
   97SOL    HW2 1191   6.787   2.493   4.137
   98SOL     OW 1192   4.812   1.061   5.399
   98SOL    HW1 1193   4.798   1.013   5.486
   98SOL    HW2 1194   4.777   1.154   5.406
   99SOL     OW 1195   4.552   1.040   0.894
   99SOL    HW1 1196   4.627   1.053   0.829
   99SOL    HW2 1197   4.588   1.042   0.987
  100SOL     OW 1198   6.672   5.873   0.461
  100SOL    HW1 1199   6.642   5.779   0.447
  100SOL    HW2 1200   6.728   5.878   0.544
  101SOL     OW 1201   1.574   6.598   3.580
  101SOL    HW1 1202   1.551   6.691   3.608
  101SOL    HW2 1203   1.628   6.601   3.496
  102SOL     OW 1204   4.739   0.465   2.508
  102SOL    HW1 1205   4.746   0.549   2.455
  102SOL    HW2 1206   4.831   0.435   2.537
  103SOL     OW 1207   4.624   1.300   3.079
  103SOL    HW1 1208   4.560   1.225   3.096
  103SOL    HW2 1209   4.630   1.357   3.161
  104SOL     OW 1210   6.052   6.334   2.354
  104SOL    HW1 1211   6.097   6.246   2.341
  104SOL    HW2 1212   6.035   6.348   2.451
  105SOL     OW 1213   5.580   1.537   5.808
  105SOL    HW1 1214   5.526   1.506   5.887
  105SOL    HW2 1215   5.547   1.491   5.726
  106SOL     OW 1216   3.921   0.019   1.090
  106SOL    HW1 1217   3.986   0.069   1.147
  106SOL    HW2 1218   3.829   0.058   1.103
  107SOL     OW 1219   2.618   3.751   6.900
  107SOL    HW1 1220   2.639   3.848   6.904
  107SOL    HW2 1221   2.703   3.698   6.907
  108SOL     OW 1222   4.587   4.361   5.471
  108SOL    HW1 1223   4.637   4.306   5.404
  108SOL    HW2 1224   4.506   4.312   5.502
  109SOL     OW 1225   5.651   1.164   2.426
  109SOL    HW1 1226   5.615   1.090   2.370
  109SOL    HW2 1227   5.585   1.187   2.498
  110SOL     OW 1228   3.627   6.616   4.226
  110SOL    HW1 1229   3.654   6.709   4.248
  110SOL    HW2 1230   3.708   6.559   4.216
  111SOL     OW 1231   3.342   1.316   3.387
  111SOL    HW1 1232   3.298   1.332   3.299
  111SOL    HW2 1233   3.281   1.344   3.461
  112SOL     OW 1234   0.199   1.629   6.734
  112SOL    HW1 1235   0.119   1.570   6.739
  112SOL    HW2 1236   0.204   1.672   6.644
  113SOL     OW 1237   6.779   6.683   3.718
  113SOL    HW1 1238   6.696   6.663   3.770
  113SOL    HW2 1239   6.847   6.612   3.737
  114SOL     OW 1240   1.466   6.048   0.482
  114SOL    HW1 1241   1.498   6.064   0.389
  114SOL    HW2 1242   1.374   6.009   0.480
  115SOL     OW 1243   5.600   1.117   5.806
  115SOL    HW1 1244   5.526   1.152   5.749
  115SOL    HW2 1245   5.655   1.193   5.840
  116SOL     OW 1246   6.133   3.904   2.916
  116SOL    HW1 1247   6.039   3.924   2.886
  116SOL    HW2 1248   6.168   3.981   2.969
  117SOL     OW 1249   0.593   6.400   6.397
  117SOL    HW1 1250   0.547   6.311   6.391
  117SOL    HW2 1251   0.572   6.454   6.316
  118SOL     OW 1252   2.403   1.353   3.800
  118SOL    HW1 1253   2.416   1.418   3.875
  118SOL    HW2 1254   2.460   1.272   3.816
  119SOL     OW 1255   6.835   2.514   6.866
  119SOL    HW1 1256   6.857   2.430   6.815
  119SOL    HW2 1257   6.783   2.576   6.807
  120SOL     OW 1258   4.438   5.774   1.563
  120SOL    HW1 1259   4.428   5.870   1.590
  120SOL    HW2 1260   4.426   5.766   1.464
  121SOL     OW 1261   2.914   2.979   6.319
  121SOL    HW1 1262   2.895   3.013   6.227
  121SOL    HW2 1263   2.996   2.921   6.316
  122SOL     OW 1264   1.214   3.414   4.653
  122SOL    HW1 1265   1.256   3.489   4.603
  122SOL    HW2 1266   1.146   3.450   4.717
  123SOL     OW 1267   6.427   1.572   2.062
  123SOL    HW1 1268   6.493   1.533   2.126
  123SOL    HW2 1269   6.369   1.499   2.025
  124SOL     OW 1270   5.211   3.541   1.485
  124SOL    HW1 1271   5.125   3.506   1.523
  124SOL    HW2 1272   5.277   3.555   1.560
  125SOL     OW 1273   2.255   3.238   1.468
  125SOL    HW1 1274   2.166   3.211   1.433
  125SOL    HW2 1275   2.269   3.197   1.558
  126SOL     OW 1276   3.833   4.507   0.354
  126SOL    HW1 1277   3.815   4.585   0.413
  126SOL    HW2 1278   3.911   4.455   0.390
  127SOL     OW 1279   0.577   5.922   5.970
  127SOL    HW1 1280   0.642   5.883   5.904
  127SOL    HW2 1281   0.622   5.995   6.022
  128SOL     OW 1282   4.662   2.194   0.096
  128SOL    HW1 1283   4.722   2.118   0.072
  128SOL    HW2 1284   4.588   2.161   0.155
  129SOL     OW 1285   2.350   3.878   6.754
  129SOL    HW1 1286   2.344   3.930   6.840
  129SOL    HW2 1287   2.299   3.927   6.683
  130SOL     OW 1288   1.777   1.913   4.961
  130SOL    HW1 1289   1.825   1.878   4.881
  130SOL    HW2 1290   1.691   1.864   4.972
  131SOL     OW 1291   6.143   1.315   2.545
  131SOL    HW1 1292   6.157   1.408   2.511
  131SOL    HW2 1293   6.045   1.295   2.547
  132SOL     OW 1294   0.820   1.724   2.251
  132SOL    HW1 1295   0.907   1.764   2.280
  132SOL    HW2 1296   0.814   1.630   2.285
  133SOL     OW 1297   0.114   5.671   2.906
  133SOL    HW1 1298   0.139   5.608   2.980
  133SOL    HW2 1299   0.047   5.737   2.939
  134SOL     OW 1300   1.252   3.719   3.185
  134SOL    HW1 1301   1.292   3.650   3.125
  134SOL    HW2 1302   1.260   3.691   3.280
  135SOL     OW 1303   4.932   0.813   4.395
  135SOL    HW1 1304   4.863   0.801   4.324
  135SOL    HW2 1305   4.888   0.816   4.485
  136SOL     OW 1306   4.923   5.144   6.036
  136SOL    HW1 1307   5.015   5.166   6.068
  136SOL    HW2 1308   4.897   5.208   5.964
  137SOL     OW 1309   4.160   1.118   5.538
  137SOL    HW1 1310   4.126   1.090   5.628
  137SOL    HW2 1311   4.083   1.132   5.476
  138SOL     OW 1312   5.559   4.835   5.268
  138SOL    HW1 1313   5.511   4.911   5.310
  138SOL    HW2 1314   5.658   4.851   5.272
  139SOL     OW 1315   3.388   5.549   5.306
  139SOL    HW1 1316   3.402   5.624   5.241
  139SOL    HW2 1317   3.391   5.462   5.257
  140SOL     OW 1318   6.496   4.102   4.719
  140SOL    HW1 1319   6.460   4.172   4.781
  140SOL    HW2 1320   6.486   4.012   4.761
  141SOL     OW 1321   1.710   2.078   2.857
  141SOL    HW1 1322   1.647   2.134   2.912
  141SOL    HW2 1323   1.747   2.004   2.914
  142SOL     OW 1324   1.333   4.784   1.299
  142SOL    HW1 1325   1.327   4.840   1.381
  142SOL    HW2 1326   1.276   4.702   1.309
  143SOL     OW 1327   5.200   4.553   2.034
  143SOL    HW1 1328   5.187   4.651   2.044
  143SOL    HW2 1329   5.132   4.516   1.970
  144SOL     OW 1330   3.429   6.560   0.622
  144SOL    HW1 1331   3.358   6.493   0.599
  144SOL    HW2 1332   3.424   6.581   0.719
  145SOL     OW 1333   6.184   5.840   0.892
  145SOL    HW1 1334   6.195   5.939   0.903
  145SOL    HW2 1335   6.161   5.819   0.797
  146SOL     OW 1336   0.338   4.341   0.680
  146SOL    HW1 1337   0.419   4.284   0.665
  146SOL    HW2 1338   0.288   4.307   0.760
  147SOL     OW 1339   6.109   2.470   0.954
  147SOL    HW1 1340   6.025   2.466   0.898
  147SOL    HW2 1341   6.188   2.469   0.894
  148SOL     OW 1342   0.657   5.643   5.331
  148SOL    HW1 1343   0.654   5.543   5.322
  148SOL    HW2 1344   0.741   5.670   5.377
  149SOL     OW 1345   3.024   0.860   6.776
  149SOL    HW1 1346   3.091   0.884   6.846
  149SOL    HW2 1347   3.062   0.791   6.715
  150SOL     OW 1348   6.883   5.945   5.128
  150SOL    HW1 1349   6.917   5.876   5.191
  150SOL    HW2 1350   6.820   5.903   5.062
  151SOL     OW 1351   4.884   0.391   2.006
  151SOL    HW1 1352   4.835   0.476   1.986
  151SOL    HW2 1353   4.848   0.318   1.949
  152SOL     OW 1354   2.717   0.668   4.207
  152SOL    HW1 1355   2.637   0.612   4.186
  152SOL    HW2 1356   2.711   0.754   4.156
  153SOL     OW 1357   0.911   0.221   2.539
  153SOL    HW1 1358   0.903   0.220   2.639
  153SOL    HW2 1359   0.928   0.315   2.508
  154SOL     OW 1360   0.766   1.568   3.008
  154SOL    HW1 1361   0.672   1.585   3.038
  154SOL    HW2 1362   0.795   1.478   3.040
  155SOL     OW 1363   1.025   1.163   3.541
  155SOL    HW1 1364   0.939   1.118   3.514
  155SOL    HW2 1365   1.005   1.254   3.576
  156SOL     OW 1366   6.887   2.119   1.140
  156SOL    HW1 1367   6.952   2.096   1.068
  156SOL    HW2 1368   6.900   2.058   1.218
  157SOL     OW 1369   0.574   2.300   2.538
  157SOL    HW1 1370   0.640   2.282   2.466
  157SOL    HW2 1371   0.538   2.213   2.573
  158SOL     OW 1372   1.945   1.025   3.253
  158SOL    HW1 1373   1.931   1.103   3.192
  158SOL    HW2 1374   1.981   0.948   3.201
  159SOL     OW 1375   5.071   3.791   1.513
  159SOL    HW1 1376   5.011   3.766   1.437
  159SOL    HW2 1377   5.128   3.713   1.537
  160SOL     OW 1378   6.615   4.611   6.351
  160SOL    HW1 1379   6.688   4.640   6.414
  160SOL    HW2 1380   6.534   4.587   6.404
  161SOL     OW 1381   2.742   4.538   5.371
  161SOL    HW1 1382   2.799   4.550   5.290
  161SOL    HW2 1383   2.662   4.483   5.347
  162SOL     OW 1384   4.457   5.582   2.664
  162SOL    HW1 1385   4.531   5.602   2.729
  162SOL    HW2 1386   4.492   5.588   2.571
  163SOL     OW 1387   6.059   0.394   1.237
  163SOL    HW1 1388   6.110   0.468   1.281
  163SOL    HW2 1389   5.966   0.424   1.218
  164SOL     OW 1390   6.218   3.113   1.858
  164SOL    HW1 1391   6.278   3.064   1.921
  164SOL    HW2 1392   6.130   3.132   1.903
  165SOL     OW 1393   6.375   3.437   6.932
  165SOL    HW1 1394   6.384   3.478   7.023
  165SOL    HW2 1395   6.414   3.498   6.864
  166SOL     OW 1396   1.504   6.803   0.699
  166SOL    HW1 1397   1.492   6.712   0.659
  166SOL    HW2 1398   1.459   6.871   0.642
  167SOL     OW 1399   6.948   2.251   1.943
  167SOL    HW1 1400   6.988   2.333   1.983
  167SOL    HW2 1401   6.873   2.219   2.000
  168SOL     OW 1402   2.083   5.109   1.229
  168SOL    HW1 1403   2.087   5.015   1.264
  168SOL    HW2 1404   2.125   5.171   1.295
  169SOL     OW 1405   1.192   0.409   1.060
  169SOL    HW1 1406   1.240   0.386   1.145
  169SOL    HW2 1407   1.189   0.329   1.001
  170SOL     OW 1408   0.283   1.843   4.015
  170SOL    HW1 1409   0.345   1.894   3.956
  170SOL    HW2 1410   0.259   1.756   3.971
  171SOL     OW 1411   3.381   4.001   0.855
  171SOL    HW1 1412   3.284   4.003   0.878
  171SOL    HW2 1413   3.420   4.092   0.867
  172SOL     OW 1414   0.150   3.020   1.763
  172SOL    HW1 1415   0.151   2.948   1.832
  172SOL    HW2 1416   0.067   3.014   1.709
  173SOL     OW 1417   6.994   6.831   5.351
  173SOL    HW1 1418   7.019   6.785   5.266
  173SOL    HW2 1419   0.019   6.790   5.427
  174SOL     OW 1420   2.316   5.940   3.339
  174SOL    HW1 1421   2.245   5.871   3.332
  174SOL    HW2 1422   2.352   5.943   3.432
  175SOL     OW 1423   0.443   5.105   3.600
  175SOL    HW1 1424   0.461   5.015   3.560
  175SOL    HW2 1425   0.352   5.136   3.574
  176SOL     OW 1426   2.703   6.032   6.823
  176SOL    HW1 1427   2.707   6.013   6.725
  176SOL    HW2 1428   2.607   6.041   6.852
  177SOL     OW 1429   4.844   1.328   2.611
  177SOL    HW1 1430   4.845   1.236   2.571
  177SOL    HW2 1431   4.811   1.323   2.705
  178SOL     OW 1432   5.378   3.989   6.434
  178SOL    HW1 1433   5.476   3.972   6.429
  178SOL    HW2 1434   5.354   4.021   6.525
  179SOL     OW 1435   3.404   6.878   0.231
  179SOL    HW1 1436   3.400   6.846   0.326
  179SOL    HW2 1437   3.493   6.857   0.192
  180SOL     OW 1438   0.917   2.381   0.073
  180SOL    HW1 1439   0.881   2.468   0.040
  180SOL    HW2 1440   0.968   2.396   0.158
  181SOL     OW 1441   3.059   3.360   4.013
  181SOL    HW1 1442   3.139   3.379   3.957
  181SOL    HW2 1443   2.995   3.303   3.960
  182SOL     OW 1444   5.412   2.451   5.177
  182SOL    HW1 1445   5.319   2.463   5.211
  182SOL    HW2 1446   5.447   2.361   5.206
  183SOL     OW 1447   6.764   1.223   3.122
  183SOL    HW1 1448   6.672   1.207   3.087
  183SOL    HW2 1449   6.820   1.265   3.051
  184SOL     OW 1450   0.149   4.570   2.303
  184SOL    HW1 1451   0.234   4.584   2.352
  184SOL    HW2 1452   0.161   4.595   2.207
  185SOL     OW 1453   3.378   3.791   5.899
  185SOL    HW1 1454   3.363   3.693   5.889
  185SOL    HW2 1455   3.364   3.816   5.995
  186SOL     OW 1456   5.940   7.017   3.707
  186SOL    HW1 1457   6.036   6.992   3.694
  186SOL    HW2 1458   5.934   0.084   3.744
  187SOL     OW 1459   5.604   0.050   4.024
  187SOL    HW1 1460   5.630   0.135   4.069
  187SOL    HW2 1461   5.508   0.053   3.997
  188SOL     OW 1462   6.207   2.548   4.852
  188SOL    HW1 1463   6.207   2.633   4.904
  188SOL    HW2 1464   6.117   2.534   4.810
  189SOL     OW 1465   2.069   4.655   3.578
  189SOL    HW1 1466   2.027   4.611   3.657
  189SOL    HW2 1467   1.999   4.675   3.509
  190SOL     OW 1468   3.313   1.239   0.032
  190SOL    HW1 1469   3.341   1.249   6.962
  190SOL    HW2 1470   3.378   1.181   0.080
  191SOL     OW 1471   5.207   5.558   6.674
  191SOL    HW1 1472   5.196   5.574   6.772
  191SOL    HW2 1473   5.220   5.646   6.627
  192SOL     OW 1474   6.426   1.119   6.570
  192SOL    HW1 1475   6.380   1.172   6.499
  192SOL    HW2 1476   6.497   1.062   6.529
  193SOL     OW 1477   6.293   4.197   0.034
  193SOL    HW1 1478   6.216   4.135   0.042
  193SOL    HW2 1479   6.372   4.148   7.024
  194SOL     OW 1480   4.122   0.064   4.419
  194SOL    HW1 1481   4.066   0.145   4.438
  194SOL    HW2 1482   4.124   0.005   4.500
  195SOL     OW 1483   7.017   5.578   3.353
  195SOL    HW1 1484   0.049   5.597   3.432
  195SOL    HW2 1485   6.924   5.557   3.384
  196SOL     OW 1486   0.352   0.894   1.315
  196SOL    HW1 1487   0.339   0.918   1.411
  196SOL    HW2 1488   0.449   0.904   1.291
  197SOL     OW 1489   1.936   0.873   0.706
  197SOL    HW1 1490   2.026   0.871   0.663
  197SOL    HW2 1491   1.868   0.905   0.639
  198SOL     OW 1492   2.967   1.454   4.982
  198SOL    HW1 1493   2.988   1.551   4.969
  198SOL    HW2 1494   2.963   1.408   4.893
  199SOL     OW 1495   2.087   1.022   4.350
  199SOL    HW1 1496   2.153   1.066   4.289
  199SOL    HW2 1497   2.073   1.079   4.431
  200SOL     OW 1498   6.111   2.031   0.438
  200SOL    HW1 1499   6.108   2.123   0.401
  200SOL    HW2 1500   6.144   1.967   0.368
  201SOL     OW 1501   0.655   1.711   5.810
  201SOL    HW1 1502   0.666   1.800   5.854
  201SOL    HW2 1503   0.560   1.682   5.817
  202SOL     OW 1504   5.583   6.855   6.994
  202SOL    HW1 1505   5.594   6.886   6.900
  202SOL    HW2 1506   5.663   6.883   0.022
  203SOL     OW 1507   6.527   3.880   0.167
  203SOL    HW1 1508   6.547   3.839   0.256
  203SOL    HW2 1509   6.565   3.973   0.164
  204SOL     OW 1510   6.453   0.543   5.164
  204SOL    HW1 1511   6.478   0.447   5.181
  204SOL    HW2 1512   6.357   0.548   5.136
  205SOL     OW 1513   2.225   4.971   3.377
  205SOL    HW1 1514   2.188   5.061   3.397
  205SOL    HW2 1515   2.306   4.980   3.319
  206SOL     OW 1516   1.192   4.058   1.425
  206SOL    HW1 1517   1.211   4.017   1.336
  206SOL    HW2 1518   1.268   4.040   1.488
  207SOL     OW 1519   0.369   2.739   4.282
  207SOL    HW1 1520   0.365   2.689   4.196
  207SOL    HW2 1521   0.282   2.786   4.298
  208SOL     OW 1522   1.436   2.975   4.962
  208SOL    HW1 1523   1.349   2.938   4.931
  208SOL    HW2 1524   1.444   3.071   4.935
  209SOL     OW 1525   6.138   3.980   2.276
  209SOL    HW1 1526   6.234   4.005   2.273
  209SOL    HW2 1527   6.114   3.927   2.195
  210SOL     OW 1528   4.736   4.193   1.165
  210SOL    HW1 1529   4.686   4.110   1.191
  210SOL    HW2 1530   4.783   4.177   1.078
  211SOL     OW 1531   1.635   1.106   2.029
  211SOL    HW1 1532   1.547   1.061   2.014
  211SOL    HW2 1533   1.699   1.079   1.956
  212SOL     OW 1534   2.106   4.761   1.917
  212SOL    HW1 1535   2.032   4.703   1.884
  212SOL    HW2 1536   2.154   4.713   1.991
  213SOL     OW 1537   1.072   5.437   1.279
  213SOL    HW1 1538   1.098   5.486   1.362
  213SOL    HW2 1539   1.015   5.495   1.222
  214SOL     OW 1540   5.694   6.392   2.183
  214SOL    HW1 1541   5.641   6.396   2.268
  214SOL    HW2 1542   5.718   6.485   2.155
  215SOL     OW 1543   2.497   4.886   2.772
  215SOL    HW1 1544   2.436   4.917   2.845
  215SOL    HW2 1545   2.443   4.853   2.695
  216SOL     OW 1546   1.596   6.158   2.862
  216SOL    HW1 1547   1.613   6.068   2.903
  216SOL    HW2 1548   1.558   6.219   2.931
  217SOL     OW 1549   7.023   4.451   4.795
  217SOL    HW1 1550   0.048   4.442   4.881
  217SOL    HW2 1551   0.007   4.544   4.760
  218SOL     OW 1552   3.259   2.531   5.901
  218SOL    HW1 1553   3.292   2.602   5.964
  218SOL    HW2 1554   3.334   2.470   5.877
  219SOL     OW 1555   5.236   1.910   1.252
  219SOL    HW1 1556   5.177   1.916   1.171
  219SOL    HW2 1557   5.323   1.867   1.227
  220SOL     OW 1558   2.067   6.981   0.582
  220SOL    HW1 1559   2.094   6.890   0.548
  220SOL    HW2 1560   1.977   7.005   0.546
  221SOL     OW 1561   4.989   4.484   1.871
  221SOL    HW1 1562   4.969   4.387   1.860
  221SOL    HW2 1563   4.910   4.538   1.842
  222SOL     OW 1564   0.873   4.375   6.158
  222SOL    HW1 1565   0.954   4.333   6.118
  222SOL    HW2 1566   0.901   4.453   6.215
  223SOL     OW 1567   6.175   2.130   5.448
  223SOL    HW1 1568   6.208   2.084   5.530
  223SOL    HW2 1569   6.246   2.193   5.416
  224SOL     OW 1570   3.744   3.069   5.564
  224SOL    HW1 1571   3.658   3.024   5.541
  224SOL    HW2 1572   3.818   3.032   5.507
  225SOL     OW 1573   4.382   5.686   6.239
  225SOL    HW1 1574   4.376   5.587   6.227
  225SOL    HW2 1575   4.290   5.725   6.240
  226SOL     OW 1576   1.852   2.302   0.359
  226SOL    HW1 1577   1.776   2.291   0.423
  226SOL    HW2 1578   1.817   2.328   0.270
  227SOL     OW 1579   1.449   3.702   1.600
  227SOL    HW1 1580   1.521   3.735   1.540
  227SOL    HW2 1581   1.489   3.664   1.683
  228SOL     OW 1582   0.810   0.099   2.331
  228SOL    HW1 1583   0.851   0.150   2.406
  228SOL    HW2 1584   0.731   0.149   2.296
  229SOL     OW 1585   4.171   0.588   5.856
  229SOL    HW1 1586   4.225   0.669   5.831
  229SOL    HW2 1587   4.207   0.508   5.808
  230SOL     OW 1588   5.812   3.633   5.815
  230SOL    HW1 1589   5.821   3.644   5.914
  230SOL    HW2 1590   5.893   3.587   5.779
  231SOL     OW 1591   4.975   1.466   0.467
  231SOL    HW1 1592   5.005   1.557   0.437
  231SOL    HW2 1593   5.006   1.449   0.560
  232SOL     OW 1594   1.436   2.805   5.195
  232SOL    HW1 1595   1.399   2.871   5.129
  232SOL    HW2 1596   1.381   2.805   5.277
  233SOL     OW 1597   3.340   1.814   3.628
  233SOL    HW1 1598   3.241   1.810   3.615
  233SOL    HW2 1599   3.375   1.897   3.584
  234SOL     OW 1600   5.476   6.467   0.320
  234SOL    HW1 1601   5.550   6.445   0.256
  234SOL    HW2 1602   5.392   6.487   0.269
  235SOL     OW 1603   5.191   3.390   2.575
  235SOL    HW1 1604   5.111   3.330   2.579
  235SOL    HW2 1605   5.167   3.478   2.617
  236SOL     OW 1606   3.696   3.684   5.864
  236SOL    HW1 1607   3.715   3.738   5.782
  236SOL    HW2 1608   3.774   3.625   5.885
  237SOL     OW 1609   5.951   3.286   3.276
  237SOL    HW1 1610   6.042   3.323   3.298
  237SOL    HW2 1611   5.887   3.361   3.262
  238SOL     OW 1612   6.212   1.926   0.195
  238SOL    HW1 1613   6.310   1.941   0.203
  238SOL    HW2 1614   6.191   1.888   0.105
  239SOL     OW 1615   1.826   3.211   0.378
  239SOL    HW1 1616   1.824   3.302   0.418
  239SOL    HW2 1617   1.765   3.208   0.299
  240SOL     OW 1618   4.903   3.489   4.526
  240SOL    HW1 1619   4.906   3.442   4.438
  240SOL    HW2 1620   4.864   3.427   4.595
  241SOL     OW 1621   1.982   2.708   3.948
  241SOL    HW1 1622   2.080   2.697   3.965
  241SOL    HW2 1623   1.945   2.776   4.011
  242SOL     OW 1624   3.899   3.561   1.963
  242SOL    HW1 1625   3.968   3.625   1.999
  242SOL    HW2 1626   3.854   3.516   2.040
  243SOL     OW 1627   4.586   3.257   6.469
  243SOL    HW1 1628   4.675   3.303   6.468
  243SOL    HW2 1629   4.519   3.316   6.514
  244SOL     OW 1630   4.944   3.388   4.940
  244SOL    HW1 1631   4.925   3.350   5.030
  244SOL    HW2 1632   4.909   3.482   4.935
  245SOL     OW 1633   3.074   1.058   3.188
  245SOL    HW1 1634   3.057   1.014   3.276
  245SOL    HW2 1635   3.140   1.004   3.135
  246SOL     OW 1636   0.144   1.357   2.275
  246SOL    HW1 1637   0.108   1.386   2.364
  246SOL    HW2 1638   0.215   1.421   2.246
  247SOL     OW 1639   2.132   0.437   1.905
  247SOL    HW1 1640   2.162   0.527   1.873
  247SOL    HW2 1641   2.101   0.445   2.000
  248SOL     OW 1642   3.466   3.547   1.391
  248SOL    HW1 1643   3.463   3.453   1.423
  248SOL    HW2 1644   3.402   3.559   1.315
  249SOL     OW 1645   5.028   6.149   6.025
  249SOL    HW1 1646   5.039   6.139   5.926
  249SOL    HW2 1647   4.931   6.154   6.047
  250SOL     OW 1648   4.489   2.628   0.009
  250SOL    HW1 1649   4.466   2.650   6.940
  250SOL    HW2 1650   4.420   2.667   0.071
  251SOL     OW 1651   4.459   5.366   4.930
  251SOL    HW1 1652   4.496   5.279   4.896
  251SOL    HW2 1653   4.532   5.435   4.930
  252SOL     OW 1654   6.462   6.050   5.396
  252SOL    HW1 1655   6.436   5.954   5.408
  252SOL    HW2 1656   6.401   6.109   5.449
  253SOL     OW 1657   4.570   5.594   5.562
  253SOL    HW1 1658   4.472   5.613   5.567
  253SOL    HW2 1659   4.621   5.680   5.573
  254SOL     OW 1660   6.643   2.542   5.415
  254SOL    HW1 1661   6.572   2.573   5.478
  254SOL    HW2 1662   6.724   2.515   5.466
  255SOL     OW 1663   1.884   5.223   6.578
  255SOL    HW1 1664   1.958   5.211   6.511
  255SOL    HW2 1665   1.846   5.134   6.602
  256SOL     OW 1666   4.886   2.256   5.355
  256SOL    HW1 1667   4.970   2.204   5.372
  256SOL    HW2 1668   4.854   2.296   5.440
  257SOL     OW 1669   5.023   6.496   2.532
  257SOL    HW1 1670   4.955   6.434   2.570
  257SOL    HW2 1671   5.115   6.459   2.547
  258SOL     OW 1672   2.101   3.272   6.131
  258SOL    HW1 1673   2.159   3.190   6.132
  258SOL    HW2 1674   2.051   3.279   6.217
  259SOL     OW 1675   3.161   0.578   4.008
  259SOL    HW1 1676   3.259   0.557   4.002
  259SOL    HW2 1677   3.127   0.601   3.917
  260SOL     OW 1678   3.703   5.772   3.249
  260SOL    HW1 1679   3.742   5.841   3.188
  260SOL    HW2 1680   3.700   5.684   3.202
  261SOL     OW 1681   3.662   4.716   6.797
  261SOL    HW1 1682   3.744   4.663   6.772
  261SOL    HW2 1683   3.687   4.784   6.866
  262SOL     OW 1684   1.138   3.565   6.112
  262SOL    HW1 1685   1.040   3.557   6.126
  262SOL    HW2 1686   1.167   3.501   6.041
  263SOL     OW 1687   2.203   0.519   3.410
  263SOL    HW1 1688   2.193   0.522   3.509
  263SOL    HW2 1689   2.263   0.442   3.385
  264SOL     OW 1690   6.424   3.109   6.381
  264SOL    HW1 1691   6.404   3.184   6.443
  264SOL    HW2 1692   6.461   3.032   6.433
  265SOL     OW 1693   6.849   0.497   2.948
  265SOL    HW1 1694   6.757   0.512   2.984
  265SOL    HW2 1695   6.905   0.453   3.018
  266SOL     OW 1696   3.368   0.607   6.002
  266SOL    HW1 1697   3.343   0.554   5.921
  266SOL    HW2 1698   3.297   0.596   6.072
  267SOL     OW 1699   2.319   6.982   2.350
  267SOL    HW1 1700   2.224   6.955   2.340
  267SOL    HW2 1701   2.378   6.902   2.344
  268SOL     OW 1702   4.424   2.810   0.480
  268SOL    HW1 1703   4.439   2.716   0.509
  268SOL    HW2 1704   4.340   2.845   0.522
  269SOL     OW 1705   5.401   1.886   0.059
  269SOL    HW1 1706   5.317   1.832   0.067
  269SOL    HW2 1707   5.418   1.909   6.989
  270SOL     OW 1708   5.237   1.276   0.484
  270SOL    HW1 1709   5.307   1.304   0.550
  270SOL    HW2 1710   5.250   1.325   0.398
  271SOL     OW 1711   0.033   5.122   6.107
  271SOL    HW1 1712   0.098   5.048   6.095
  271SOL    HW2 1713   0.053   5.171   6.192
  272SOL     OW 1714   3.297   5.981   3.072
  272SOL    HW1 1715   3.215   5.948   3.026
  272SOL    HW2 1716   3.342   5.906   3.120
  273SOL     OW 1717   1.527   5.782   6.329
  273SOL    HW1 1718   1.598   5.767   6.260
  273SOL    HW2 1719   1.570   5.818   6.412
  274SOL     OW 1720   4.594   1.785   3.911
  274SOL    HW1 1721   4.669   1.760   3.850
  274SOL    HW2 1722   4.588   1.885   3.917
  275SOL     OW 1723   5.495   0.730   1.194
  275SOL    HW1 1724   5.461   0.818   1.229
  275SOL    HW2 1725   5.578   0.746   1.142
  276SOL     OW 1726   0.488   6.403   4.073
  276SOL    HW1 1727   0.485   6.342   4.152
  276SOL    HW2 1728   0.581   6.437   4.061
  277SOL     OW 1729   2.117   4.867   1.332
  277SOL    HW1 1730   2.198   4.875   1.390
  277SOL    HW2 1731   2.123   4.783   1.279
  278SOL     OW 1732   1.169   3.227   3.714
  278SOL    HW1 1733   1.225   3.224   3.798
  278SOL    HW2 1734   1.144   3.322   3.695
  279SOL     OW 1735   6.432   1.813   3.472
  279SOL    HW1 1736   6.439   1.762   3.558
  279SOL    HW2 1737   6.516   1.867   3.459
  280SOL     OW 1738   1.782   5.288   2.621
  280SOL    HW1 1739   1.747   5.320   2.533
  280SOL    HW2 1740   1.812   5.366   2.675
  281SOL     OW 1741   2.406   4.625   1.318
  281SOL    HW1 1742   2.424   4.588   1.227
  281SOL    HW2 1743   2.335   4.571   1.363
  282SOL     OW 1744   1.649   1.369   4.913
  282SOL    HW1 1745   1.620   1.446   4.971
  282SOL    HW2 1746   1.609   1.285   4.949
  283SOL     OW 1747   2.644   2.993   6.836
  283SOL    HW1 1748   2.637   3.012   6.738
  283SOL    HW2 1749   2.656   2.895   6.850
  284SOL     OW 1750   0.690   4.206   4.055
  284SOL    HW1 1751   0.744   4.164   4.129
  284SOL    HW2 1752   0.654   4.134   3.996
  285SOL     OW 1753   5.154   3.929   4.069
  285SOL    HW1 1754   5.170   4.015   4.116
  285SOL    HW2 1755   5.184   3.936   3.974
  286SOL     OW 1756   2.624   3.983   1.182
  286SOL    HW1 1757   2.696   4.052   1.177
  286SOL    HW2 1758   2.590   3.977   1.276
  287SOL     OW 1759   0.581   3.160   0.059
  287SOL    HW1 1760   0.491   3.160   0.015
  287SOL    HW2 1761   0.577   3.209   0.146
  288SOL     OW 1762   5.274   2.901   2.069
  288SOL    HW1 1763   5.220   2.982   2.093
  288SOL    HW2 1764   5.324   2.918   1.984
  289SOL     OW 1765   3.761   5.878   6.902
  289SOL    HW1 1766   3.685   5.909   6.959
  289SOL    HW2 1767   3.810   5.958   6.865
  290SOL     OW 1768   1.556   0.530   4.673
  290SOL    HW1 1769   1.595   0.449   4.629
  290SOL    HW2 1770   1.458   0.534   4.655
  291SOL     OW 1771   6.734   1.189   2.708
  291SOL    HW1 1772   6.719   1.233   2.619
  291SOL    HW2 1773   6.702   1.095   2.704
  292SOL     OW 1774   3.350   6.765   3.686
  292SOL    HW1 1775   3.299   6.719   3.759
  292SOL    HW2 1776   3.448   6.758   3.704
  293SOL     OW 1777   3.351   4.916   2.887
  293SOL    HW1 1778   3.349   4.854   2.966
  293SOL    HW2 1779   3.277   4.892   2.824
  294SOL     OW 1780   4.602   0.403   0.560
  294SOL    HW1 1781   4.519   0.421   0.507
  294SOL    HW2 1782   4.677   0.457   0.523
  295SOL     OW 1783   6.156   0.741   4.553
  295SOL    HW1 1784   6.152   0.809   4.627
  295SOL    HW2 1785   6.244   0.746   4.507
  296SOL     OW 1786   2.760   2.373   3.189
  296SOL    HW1 1787   2.704   2.454   3.206
  296SOL    HW2 1788   2.793   2.337   3.276
  297SOL     OW 1789   1.561   5.021   1.815
  297SOL    HW1 1790   1.595   5.102   1.863
  297SOL    HW2 1791   1.626   4.996   1.743
  298SOL     OW 1792   6.662   5.149   0.557
  298SOL    HW1 1793   6.572   5.117   0.529
  298SOL    HW2 1794   6.654   5.235   0.607
  299SOL     OW 1795   5.563   2.827   3.533
  299SOL    HW1 1796   5.618   2.870   3.606
  299SOL    HW2 1797   5.490   2.889   3.507
  300SOL     OW 1798   5.932   0.028   1.649
  300SOL    HW1 1799   5.934   0.012   1.747
  300SOL    HW2 1800   5.868   0.102   1.629
  301SOL     OW 1801   5.254   3.039   5.827
  301SOL    HW1 1802   5.318   3.004   5.759
  301SOL    HW2 1803   5.188   2.968   5.851
  302SOL     OW 1804   1.120   5.466   5.048
  302SOL    HW1 1805   1.183   5.435   4.976
  302SOL    HW2 1806   1.092   5.389   5.104
  303SOL     OW 1807   6.321   0.469   3.362
  303SOL    HW1 1808   6.368   0.400   3.306
  303SOL    HW2 1809   6.248   0.511   3.307
  304SOL     OW 1810   3.848   0.670   4.451
  304SOL    HW1 1811   3.757   0.670   4.491
  304SOL    HW2 1812   3.863   0.756   4.403
  305SOL     OW 1813   1.960   3.839   0.709
  305SOL    HW1 1814   2.056   3.819   0.692
  305SOL    HW2 1815   1.907   3.819   0.626
  306SOL     OW 1816   1.751   0.754   3.192
  306SOL    HW1 1817   1.723   0.767   3.287
  306SOL    HW2 1818   1.671   0.730   3.137
  307SOL     OW 1819   3.035   0.246   1.083
  307SOL    HW1 1820   3.015   0.264   1.180
  307SOL    HW2 1821   3.106   0.309   1.051
  308SOL     OW 1822   0.680   4.916   4.400
  308SOL    HW1 1823   0.598   4.877   4.358
  308SOL    HW2 1824   0.759   4.898   4.340
  309SOL     OW 1825   3.849   4.746   5.358
  309SOL    HW1 1826   3.916   4.754   5.431
  309SOL    HW2 1827   3.779   4.680   5.384
  310SOL     OW 1828   1.154   5.812   6.895
  310SOL    HW1 1829   1.245   5.773   6.909
  310SOL    HW2 1830   1.092   5.741   6.861
  311SOL     OW 1831   6.474   0.810   1.313
  311SOL    HW1 1832   6.377   0.793   1.295
  311SOL    HW2 1833   6.527   0.788   1.231
  312SOL     OW 1834   3.761   1.466   6.352
  312SOL    HW1 1835   3.750   1.504   6.444
  312SOL    HW2 1836   3.772   1.367   6.358
  313SOL     OW 1837   6.653   4.843   1.536
  313SOL    HW1 1838   6.697   4.786   1.604
  313SOL    HW2 1839   6.674   4.809   1.444
  314SOL     OW 1840   3.451   6.006   2.252
  314SOL    HW1 1841   3.545   6.031   2.274
  314SOL    HW2 1842   3.448   5.959   2.164
  315SOL     OW 1843   0.636   4.325   3.173
  315SOL    HW1 1844   0.625   4.342   3.271
  315SOL    HW2 1845   0.569   4.258   3.142
  316SOL     OW 1846   2.240   3.007   4.057
  316SOL    HW1 1847   2.324   2.955   4.070
  316SOL    HW2 1848   2.164   2.944   4.040
  317SOL     OW 1849   6.811   1.834   0.974
  317SOL    HW1 1850   6.762   1.771   1.035
  317SOL    HW2 1851   6.812   1.925   1.015
  318SOL     OW 1852   2.572   4.222   0.828
  318SOL    HW1 1853   2.608   4.182   0.912
  318SOL    HW2 1854   2.476   4.197   0.817
  319SOL     OW 1855   0.477   1.587   6.105
  319SOL    HW1 1856   0.534   1.531   6.164
  319SOL    HW2 1857   0.477   1.548   6.012
  320SOL     OW 1858   5.985   3.269   2.713
  320SOL    HW1 1859   5.954   3.258   2.808
  320SOL    HW2 1860   5.987   3.366   2.691
  321SOL     OW 1861   2.025   1.225   2.067
  321SOL    HW1 1862   2.095   1.196   2.001
  321SOL    HW2 1863   1.976   1.305   2.031
  322SOL     OW 1864   3.710   3.354   5.615
  322SOL    HW1 1865   3.643   3.358   5.689
  322SOL    HW2 1866   3.725   3.259   5.588
  323SOL     OW 1867   1.743   4.274   2.396
  323SOL    HW1 1868   1.683   4.345   2.359
  323SOL    HW2 1869   1.778   4.303   2.485
  324SOL     OW 1870   0.351   2.574   4.068
  324SOL    HW1 1871   0.441   2.574   4.023
  324SOL    HW2 1872   0.279   2.569   3.999
  325SOL     OW 1873   2.150   1.882   2.410
  325SOL    HW1 1874   2.200   1.956   2.456
  325SOL    HW2 1875   2.119   1.914   2.320
  326SOL     OW 1876   1.973   4.046   4.572
  326SOL    HW1 1877   2.042   4.026   4.642
  326SOL    HW2 1878   2.003   4.009   4.485
  327SOL     OW 1879   5.950   3.992   6.277
  327SOL    HW1 1880   5.997   4.014   6.362
  327SOL    HW2 1881   5.852   4.011   6.287
  328SOL     OW 1882   3.402   5.760   3.194
  328SOL    HW1 1883   3.371   5.678   3.242
  328SOL    HW2 1884   3.499   5.775   3.214
  329SOL     OW 1885   3.483   4.252   1.838
  329SOL    HW1 1886   3.387   4.223   1.836
  329SOL    HW2 1887   3.528   4.211   1.917
  330SOL     OW 1888   2.755   2.333   1.334
  330SOL    HW1 1889   2.802   2.257   1.378
  330SOL    HW2 1890   2.658   2.331   1.359
  331SOL     OW 1891   6.777   3.974   5.558
  331SOL    HW1 1892   6.737   3.947   5.470
  331SOL    HW2 1893   6.850   3.910   5.582
  332SOL     OW 1894   4.067   1.954   3.236
  332SOL    HW1 1895   3.979   1.942   3.190
  332SOL    HW2 1896   4.053   1.956   3.335
  333SOL     OW 1897   4.415   6.357   0.930
  333SOL    HW1 1898   4.470   6.291   0.981
  333SOL    HW2 1899   4.343   6.309   0.880
  334SOL     OW 1900   5.034   0.047   2.878
  334SOL    HW1 1901   5.120   0.042   2.828
  334SOL    HW2 1902   4.996   6.980   2.889
  335SOL     OW 1903   3.258   0.492   2.213
  335SOL    HW1 1904   3.271   0.400   2.250
  335SOL    HW2 1905   3.346   0.527   2.181
  336SOL     OW 1906   3.535   1.125   4.962
  336SOL    HW1 1907   3.520   1.034   5.001
  336SOL    HW2 1908   3.603   1.174   5.017
  337SOL     OW 1909   1.178   4.074   2.390
  337SOL    HW1 1910   1.209   4.145   2.326
  337SOL    HW2 1911   1.183   4.110   2.484
  338SOL     OW 1912   2.287   2.689   0.869
  338SOL    HW1 1913   2.323   2.782   0.869
  338SOL    HW2 1914   2.349   2.628   0.919
  339SOL     OW 1915   4.516   0.516   2.938
  339SOL    HW1 1916   4.464   0.557   3.013
  339SOL    HW2 1917   4.553   0.588   2.880
  340SOL     OW 1918   5.424   3.845   4.383
  340SOL    HW1 1919   5.331   3.826   4.353
  340SOL    HW2 1920   5.460   3.767   4.433
  341SOL     OW 1921   4.484   4.620   5.687
  341SOL    HW1 1922   4.413   4.558   5.656
  341SOL    HW2 1923   4.515   4.677   5.610
  342SOL     OW 1924   5.714   3.176   0.779
  342SOL    HW1 1925   5.792   3.182   0.841
  342SOL    HW2 1926   5.686   3.268   0.751
  343SOL     OW 1927   2.504   0.280   2.542
  343SOL    HW1 1928   2.583   0.339   2.527
  343SOL    HW2 1929   2.510   0.200   2.483
  344SOL     OW 1930   4.298   7.005   0.770
  344SOL    HW1 1931   4.319   0.052   0.704
  344SOL    HW2 1932   4.364   6.931   0.760
  345SOL     OW 1933   1.249   0.888   5.024
  345SOL    HW1 1934   1.205   0.974   4.997
  345SOL    HW2 1935   1.254   0.827   4.945
  346SOL     OW 1936   2.279   0.646   4.790
  346SOL    HW1 1937   2.261   0.744   4.797
  346SOL    HW2 1938   2.361   0.623   4.841
  347SOL     OW 1939   5.242   5.620   5.576
  347SOL    HW1 1940   5.329   5.605   5.529
  347SOL    HW2 1941   5.257   5.614   5.675
  348SOL     OW 1942   2.694   0.106   3.567
  348SOL    HW1 1943   2.755   0.155   3.628
  348SOL    HW2 1944   2.607   0.089   3.614
  349SOL     OW 1945   2.389   5.176   1.813
  349SOL    HW1 1946   2.386   5.204   1.717
  349SOL    HW2 1947   2.482   5.186   1.848
  350SOL     OW 1948   4.957   3.224   1.579
  350SOL    HW1 1949   4.961   3.207   1.677
  350SOL    HW2 1950   4.958   3.323   1.562
  351SOL     OW 1951   3.009   1.773   0.375
  351SOL    HW1 1952   3.081   1.840   0.394
  351SOL    HW2 1953   2.926   1.798   0.425
  352SOL     OW 1954   2.721   1.580   6.780
  352SOL    HW1 1955   2.808   1.604   6.736
  352SOL    HW2 1956   2.675   1.510   6.726
  353SOL     OW 1957   2.269   6.792   1.574
  353SOL    HW1 1958   2.356   6.814   1.617
  353SOL    HW2 1959   2.197   6.849   1.614
  354SOL     OW 1960   5.768   0.365   2.381
  354SOL    HW1 1961   5.725   0.275   2.374
  354SOL    HW2 1962   5.843   0.361   2.448
  355SOL     OW 1963   1.228   0.850   2.555
  355SOL    HW1 1964   1.175   0.905   2.619
  355SOL    HW2 1965   1.173   0.772   2.525
  356SOL     OW 1966   2.966   0.038   2.970
  356SOL    HW1 1967   3.006   7.005   3.042
  356SOL    HW2 1968   3.039   0.071   2.910
  357SOL     OW 1969   1.061   4.582   4.283
  357SOL    HW1 1970   1.013   4.602   4.368
  357SOL    HW2 1971   1.153   4.621   4.286
  358SOL     OW 1972   4.928   1.152   3.202
  358SOL    HW1 1973   5.017   1.179   3.240
  358SOL    HW2 1974   4.861   1.223   3.221
  359SOL     OW 1975   0.768   1.815   0.421
  359SOL    HW1 1976   0.848   1.868   0.394
  359SOL    HW2 1977   0.728   1.772   0.340
  360SOL     OW 1978   5.380   6.909   6.344
  360SOL    HW1 1979   5.346   6.829   6.394
  360SOL    HW2 1980   5.347   6.904   6.249
  361SOL     OW 1981   2.933   0.360   2.114
  361SOL    HW1 1982   2.997   0.435   2.100
  361SOL    HW2 1983   2.874   0.381   2.192
  362SOL     OW 1984   2.798   3.582   0.229
  362SOL    HW1 1985   2.735   3.607   0.302
  362SOL    HW2 1986   2.846   3.498   0.253
  363SOL     OW 1987   4.875   4.856   4.148
  363SOL    HW1 1988   4.809   4.783   4.133
  363SOL    HW2 1989   4.853   4.933   4.088
  364SOL     OW 1990   2.663   5.916   6.221
  364SOL    HW1 1991   2.676   6.003   6.172
  364SOL    HW2 1992   2.695   5.926   6.315
  365SOL     OW 1993   4.941   6.223   2.929
  365SOL    HW1 1994   4.878   6.207   3.005
  365SOL    HW2 1995   4.963   6.321   2.924
  366SOL     OW 1996   5.013   1.390   0.772
  366SOL    HW1 1997   5.071   1.429   0.844
  366SOL    HW2 1998   5.066   1.324   0.718
  367SOL     OW 1999   6.825   2.489   2.557
  367SOL    HW1 2000   6.779   2.572   2.524
  367SOL    HW2 2001   6.879   2.511   2.638
  368SOL     OW 2002   6.651   5.031   4.677
  368SOL    HW1 2003   6.673   4.964   4.606
  368SOL    HW2 2004   6.607   5.110   4.636
  369SOL     OW 2005   1.067   3.850   2.282
  369SOL    HW1 2006   1.099   3.929   2.334
  369SOL    HW2 2007   1.038   3.880   2.191
  370SOL     OW 2008   3.886   2.054   6.509
  370SOL    HW1 2009   3.929   2.093   6.590
  370SOL    HW2 2010   3.790   2.034   6.528
  371SOL     OW 2011   3.276   2.336   6.335
  371SOL    HW1 2012   3.348   2.363   6.398
  371SOL    HW2 2013   3.223   2.261   6.374
  372SOL     OW 2014   2.287   5.545   0.106
  372SOL    HW1 2015   2.219   5.609   0.143
  372SOL    HW2 2016   2.269   5.530   0.009
  373SOL     OW 2017   6.260   7.005   6.558
  373SOL    HW1 2018   6.320   6.995   6.479
  373SOL    HW2 2019   6.169   6.971   6.536
  374SOL     OW 2020   4.844   0.848   0.905
  374SOL    HW1 2021   4.912   0.781   0.934
  374SOL    HW2 2022   4.886   0.939   0.900
  375SOL     OW 2023   6.627   3.660   1.991
  375SOL    HW1 2024   6.673   3.625   1.909
  375SOL    HW2 2025   6.695   3.671   2.064
  376SOL     OW 2026   2.428   4.159   5.389
  376SOL    HW1 2027   2.456   4.253   5.373
  376SOL    HW2 2028   2.423   4.110   5.302
  377SOL     OW 2029   4.611   0.774   3.527
  377SOL    HW1 2030   4.657   0.715   3.460
  377SOL    HW2 2031   4.590   0.862   3.486
  378SOL     OW 2032   6.248   2.252   5.882
  378SOL    HW1 2033   6.309   2.214   5.951
  378SOL    HW2 2034   6.153   2.232   5.906
  379SOL     OW 2035   6.378   2.652   0.954
  379SOL    HW1 2036   6.382   2.562   0.999
  379SOL    HW2 2037   6.425   2.719   1.012
  380SOL     OW 2038   7.011   2.059   0.227
  380SOL    HW1 2039   0.059   2.115   0.189
  380SOL    HW2 2040   6.958   2.114   0.292
  381SOL     OW 2041   4.708   4.676   6.974
  381SOL    HW1 2042   4.800   4.652   7.007
  381SOL    HW2 2043   4.711   4.762   6.924
  382SOL     OW 2044   1.890   5.295   6.846
  382SOL    HW1 2045   1.895   5.289   6.746
  382SOL    HW2 2046   1.795   5.300   6.874
  383SOL     OW 2047   5.662   1.840   0.068
  383SOL    HW1 2048   5.677   1.797   7.004
  383SOL    HW2 2049   5.565   1.862   0.078
  384SOL     OW 2050   1.206   4.991   4.277
  384SOL    HW1 2051   1.275   4.941   4.328
  384SOL    HW2 2052   1.248   5.073   4.236
  385SOL     OW 2053   4.861   4.320   0.755
  385SOL    HW1 2054   4.939   4.378   0.773
  385SOL    HW2 2055   4.865   4.286   0.660
  386SOL     OW 2056   2.918   6.031   4.249
  386SOL    HW1 2057   2.935   5.975   4.168
  386SOL    HW2 2058   2.912   5.972   4.329
  387SOL     OW 2059   0.459   0.461   5.678
  387SOL    HW1 2060   0.469   0.530   5.607
  387SOL    HW2 2061   0.470   0.370   5.638
  388SOL     OW 2062   0.460   2.385   4.733
  388SOL    HW1 2063   0.532   2.335   4.685
  388SOL    HW2 2064   0.382   2.397   4.672
  389SOL     OW 2065   5.086   3.968   2.460
  389SOL    HW1 2066   5.051   4.048   2.508
  389SOL    HW2 2067   5.020   3.940   2.389
  390SOL     OW 2068   3.187   2.874   6.965
  390SOL    HW1 2069   3.209   2.919   6.878
  390SOL    HW2 2070   3.128   2.796   6.948
  391SOL     OW 2071   3.898   3.974   3.397
  391SOL    HW1 2072   3.839   3.968   3.477
  391SOL    HW2 2073   3.842   3.977   3.314
  392SOL     OW 2074   1.893   3.151   1.996
  392SOL    HW1 2075   1.923   3.058   1.973
  392SOL    HW2 2076   1.973   3.207   2.017
  393SOL     OW 2077   1.264   6.216   0.885
  393SOL    HW1 2078   1.253   6.312   0.861
  393SOL    HW2 2079   1.330   6.173   0.822
  394SOL     OW 2080   6.173   2.280   6.409
  394SOL    HW1 2081   6.247   2.292   6.475
  394SOL    HW2 2082   6.147   2.369   6.371
  395SOL     OW 2083   6.919   5.222   6.506
  395SOL    HW1 2084   7.001   5.208   6.450
  395SOL    HW2 2085   6.852   5.275   6.454
  396SOL     OW 2086   0.250   0.942   1.584
  396SOL    HW1 2087   0.159   0.905   1.601
  396SOL    HW2 2088   0.253   1.038   1.612
  397SOL     OW 2089   4.488   1.971   4.868
  397SOL    HW1 2090   4.473   2.059   4.823
  397SOL    HW2 2091   4.579   1.937   4.845
  398SOL     OW 2092   0.044   1.595   3.505
  398SOL    HW1 2093   6.971   1.578   3.498
  398SOL    HW2 2094   0.092   1.508   3.518
  399SOL     OW 2095   5.633   4.992   5.005
  399SOL    HW1 2096   5.536   5.015   4.999
  399SOL    HW2 2097   5.655   4.922   4.937
  400SOL     OW 2098   6.658   6.157   3.406
  400SOL    HW1 2099   6.657   6.255   3.391
  400SOL    HW2 2100   6.594   6.113   3.343
  401SOL     OW 2101   1.247   5.621   4.150
  401SOL    HW1 2102   1.171   5.558   4.167
  401SOL    HW2 2103   1.239   5.700   4.211
  402SOL     OW 2104   6.459   0.993   4.579
  402SOL    HW1 2105   6.364   1.003   4.548
  402SOL    HW2 2106   6.485   0.897   4.577
  403SOL     OW 2107   2.527   1.588   5.192
  403SOL    HW1 2108   2.445   1.559   5.144
  403SOL    HW2 2109   2.525   1.555   5.286
  404SOL     OW 2110   3.639   5.790   3.548
  404SOL    HW1 2111   3.700   5.769   3.472
  404SOL    HW2 2112   3.549   5.815   3.512
  405SOL     OW 2113   3.524   5.080   3.695
  405SOL    HW1 2114   3.556   5.064   3.788
  405SOL    HW2 2115   3.591   5.135   3.646
  406SOL     OW 2116   1.339   0.550   0.323
  406SOL    HW1 2117   1.415   0.603   0.287
  406SOL    HW2 2118   1.372   0.492   0.397
  407SOL     OW 2119   2.298   4.332   3.857
  407SOL    HW1 2120   2.211   4.331   3.906
  407SOL    HW2 2121   2.301   4.258   3.791
  408SOL     OW 2122   3.024   1.867   1.728
  408SOL    HW1 2123   3.104   1.897   1.676
  408SOL    HW2 2124   3.054   1.821   1.811
  409SOL     OW 2125   0.375   2.023   2.196
  409SOL    HW1 2126   0.416   2.113   2.183
  409SOL    HW2 2127   0.322   2.022   2.280
  410SOL     OW 2128   1.597   3.401   2.067
  410SOL    HW1 2129   1.572   3.385   1.972
  410SOL    HW2 2130   1.623   3.315   2.110
  411SOL     OW 2131   6.894   1.295   1.951
  411SOL    HW1 2132   6.824   1.223   1.948
  411SOL    HW2 2133   6.879   1.352   2.031
  412SOL     OW 2134   2.806   4.707   3.072
  412SOL    HW1 2135   2.840   4.624   3.029
  412SOL    HW2 2136   2.706   4.705   3.075
  413SOL     OW 2137   6.673   4.667   3.047
  413SOL    HW1 2138   6.620   4.737   2.999
  413SOL    HW2 2139   6.747   4.635   2.987
  414SOL     OW 2140   2.021   6.961   2.315
  414SOL    HW1 2141   2.028   7.019   2.234
  414SOL    HW2 2142   1.948   6.996   2.375
  415SOL     OW 2143   5.985   2.694   1.803
  415SOL    HW1 2144   6.013   2.654   1.891
  415SOL    HW2 2145   6.027   2.784   1.792
  416SOL     OW 2146   6.502   3.555   6.510
  416SOL    HW1 2147   6.538   3.574   6.602
  416SOL    HW2 2148   6.573   3.512   6.455
  417SOL     OW 2149   2.696   1.985   6.169
  417SOL    HW1 2150   2.700   1.993   6.070
  417SOL    HW2 2151   2.743   2.062   6.211
  418SOL     OW 2152   4.156   5.471   6.382
  418SOL    HW1 2153   4.187   5.423   6.300
  418SOL    HW2 2154   4.112   5.406   6.444
  419SOL     OW 2155   5.430   0.089   0.281
  419SOL    HW1 2156   5.494   0.156   0.244
  419SOL    HW2 2157   5.336   0.122   0.268
  420SOL     OW 2158   3.245   6.372   0.518
  420SOL    HW1 2159   3.283   6.279   0.518
  420SOL    HW2 2160   3.148   6.368   0.542
  421SOL     OW 2161   5.265   4.832   3.382
  421SOL    HW1 2162   5.338   4.890   3.418
  421SOL    HW2 2163   5.253   4.850   3.285
  422SOL     OW 2164   4.026   1.379   2.276
  422SOL    HW1 2165   4.047   1.312   2.205
  422SOL    HW2 2166   4.078   1.463   2.259
  423SOL     OW 2167   2.903   0.830   6.495
  423SOL    HW1 2168   2.898   0.929   6.485
  423SOL    HW2 2169   2.851   0.801   6.575
  424SOL     OW 2170   2.080   4.789   3.941
  424SOL    HW1 2171   2.138   4.816   3.865
  424SOL    HW2 2172   2.137   4.775   4.023
  425SOL     OW 2173   3.317   1.225   6.789
  425SOL    HW1 2174   3.341   1.139   6.744
  425SOL    HW2 2175   3.318   1.299   6.722
  426SOL     OW 2176   2.398   2.763   3.342
  426SOL    HW1 2177   2.320   2.700   3.331
  426SOL    HW2 2178   2.379   2.847   3.291
  427SOL     OW 2179   5.148   0.810   4.726
  427SOL    HW1 2180   5.077   0.761   4.776
  427SOL    HW2 2181   5.197   0.746   4.667
  428SOL     OW 2182   2.412   1.539   6.051
  428SOL    HW1 2183   2.479   1.486   6.000
  428SOL    HW2 2184   2.320   1.520   6.016
  429SOL     OW 2185   7.015   0.160   3.659
  429SOL    HW1 2186   0.077   0.140   3.616
  429SOL    HW2 2187   7.018   0.130   3.755
  430SOL     OW 2188   1.627   0.872   3.972
  430SOL    HW1 2189   1.642   0.877   4.071
  430SOL    HW2 2190   1.588   0.959   3.940
  431SOL     OW 2191   2.506   0.522   1.629
  431SOL    HW1 2192   2.573   0.525   1.555
  431SOL    HW2 2193   2.433   0.587   1.610
  432SOL     OW 2194   6.175   1.666   2.134
  432SOL    HW1 2195   6.268   1.665   2.100
  432SOL    HW2 2196   6.112   1.639   2.061
  433SOL     OW 2197   1.617   3.455   6.906
  433SOL    HW1 2198   1.533   3.475   6.958
  433SOL    HW2 2199   1.623   3.517   6.828
  434SOL     OW 2200   3.920   5.963   2.766
  434SOL    HW1 2201   3.974   6.013   2.832
  434SOL    HW2 2202   3.940   5.865   2.772
  435SOL     OW 2203   2.369   2.219   6.701
  435SOL    HW1 2204   2.407   2.151   6.764
  435SOL    HW2 2205   2.403   2.201   6.608
  436SOL     OW 2206   5.807   6.058   2.403
  436SOL    HW1 2207   5.718   6.084   2.365
  436SOL    HW2 2208   5.868   6.029   2.329
  437SOL     OW 2209   6.696   1.691   6.032
  437SOL    HW1 2210   6.770   1.628   6.056
  437SOL    HW2 2211   6.613   1.639   6.014
  438SOL     OW 2212   1.164   3.295   1.639
  438SOL    HW1 2213   1.228   3.261   1.570
  438SOL    HW2 2214   1.093   3.227   1.655
  439SOL     OW 2215   0.768   1.247   6.461
  439SOL    HW1 2216   0.820   1.246   6.376
  439SOL    HW2 2217   0.830   1.267   6.537
  440SOL     OW 2218   3.280   1.888   1.616
  440SOL    HW1 2219   3.365   1.839   1.636
  440SOL    HW2 2220   3.280   1.975   1.665
  441SOL     OW 2221   1.476   4.396   2.777
  441SOL    HW1 2222   1.503   4.332   2.849
  441SOL    HW2 2223   1.454   4.345   2.694
  442SOL     OW 2224   3.409   3.090   4.618
  442SOL    HW1 2225   3.371   3.181   4.632
  442SOL    HW2 2226   3.410   3.069   4.520
  443SOL     OW 2227   5.399   2.805   2.289
  443SOL    HW1 2228   5.350   2.718   2.289
  443SOL    HW2 2229   5.375   2.857   2.208
  444SOL     OW 2230   4.085   2.239   1.402
  444SOL    HW1 2231   4.104   2.337   1.400
  444SOL    HW2 2232   4.112   2.201   1.490
  445SOL     OW 2233   2.395   6.114   4.001
  445SOL    HW1 2234   2.374   6.085   3.907
  445SOL    HW2 2235   2.323   6.174   4.034
  446SOL     OW 2236   6.463   0.220   6.995
  446SOL    HW1 2237   6.544   0.246   6.941
  446SOL    HW2 2238   6.439   0.295   0.031
  447SOL     OW 2239   6.402   3.472   0.383
  447SOL    HW1 2240   6.333   3.469   0.456
  447SOL    HW2 2241   6.407   3.383   0.338
  448SOL     OW 2242   3.583   6.966   4.726
  448SOL    HW1 2243   3.598   6.881   4.676
  448SOL    HW2 2244   3.514   7.021   4.679
  449SOL     OW 2245   0.809   4.724   4.841
  449SOL    HW1 2246   0.844   4.769   4.923
  449SOL    HW2 2247   0.812   4.788   4.764
  450SOL     OW 2248   6.647   3.729   3.931
  450SOL    HW1 2249   6.678   3.645   3.974
  450SOL    HW2 2250   6.551   3.746   3.955
  451SOL     OW 2251   2.805   1.370   6.488
  451SOL    HW1 2252   2.726   1.354   6.547
  451SOL    HW2 2253   2.803   1.306   6.411
  452SOL     OW 2254   4.379   5.026   0.852
  452SOL    HW1 2255   4.425   5.048   0.766
  452SOL    HW2 2256   4.313   5.098   0.875
  453SOL     OW 2257   4.472   1.096   0.088
  453SOL    HW1 2258   4.436   1.005   0.113
  453SOL    HW2 2259   4.522   1.134   0.165
  454SOL     OW 2260   0.317   2.641   3.583
  454SOL    HW1 2261   0.406   2.602   3.559
  454SOL    HW2 2262   0.284   2.600   3.668
  455SOL     OW 2263   5.949   5.770   7.002
  455SOL    HW1 2264   5.944   5.841   6.932
  455SOL    HW2 2265   5.876   5.703   6.986
  456SOL     OW 2266   0.936   1.295   2.827
  456SOL    HW1 2267   0.877   1.221   2.793
  456SOL    HW2 2268   0.932   1.298   2.927
  457SOL     OW 2269   2.986   5.542   0.616
  457SOL    HW1 2270   3.033   5.523   0.702
  457SOL    HW2 2271   3.035   5.499   0.541
  458SOL     OW 2272   3.472   1.246   4.471
  458SOL    HW1 2273   3.466   1.218   4.567
  458SOL    HW2 2274   3.410   1.323   4.454
  459SOL     OW 2275   3.737   1.263   3.864
  459SOL    HW1 2276   3.779   1.333   3.806
  459SOL    HW2 2277   3.667   1.214   3.812
  460SOL     OW 2278   0.984   1.369   6.225
  460SOL    HW1 2279   0.972   1.461   6.189
  460SOL    HW2 2280   0.984   1.371   6.325
  461SOL     OW 2281   0.650   0.150   4.593
  461SOL    HW1 2282   0.551   0.143   4.603
  461SOL    HW2 2283   0.692   0.166   4.683
  462SOL     OW 2284   3.675   4.297   5.341
  462SOL    HW1 2285   3.717   4.279   5.253
  462SOL    HW2 2286   3.597   4.236   5.354
  463SOL     OW 2287   5.487   6.142   3.215
  463SOL    HW1 2288   5.570   6.161   3.163
  463SOL    HW2 2289   5.495   6.180   3.307
  464SOL     OW 2290   4.802   5.995   4.938
  464SOL    HW1 2291   4.803   6.077   4.882
  464SOL    HW2 2292   4.827   5.916   4.881
  465SOL     OW 2293   0.601   5.431   0.753
  465SOL    HW1 2294   0.522   5.374   0.730
  465SOL    HW2 2295   0.649   5.392   0.831
  466SOL     OW 2296   4.089   4.810   3.817
  466SOL    HW1 2297   3.994   4.834   3.837
  466SOL    HW2 2298   4.123   4.747   3.888
  467SOL     OW 2299   6.525   6.923   0.750
  467SOL    HW1 2300   6.430   6.893   0.750
  467SOL    HW2 2301   6.580   6.863   0.691
  468SOL     OW 2302   2.242   6.912   6.384
  468SOL    HW1 2303   2.288   7.000   6.394
  468SOL    HW2 2304   2.175   6.902   6.458
  469SOL     OW 2305   4.222   5.192   5.017
  469SOL    HW1 2306   4.154   5.119   5.023
  469SOL    HW2 2307   4.292   5.166   4.951
  470SOL     OW 2308   2.751   4.909   2.128
  470SOL    HW1 2309   2.843   4.946   2.144
  470SOL    HW2 2310   2.749   4.813   2.155
  471SOL     OW 2311   1.720   2.770   4.286
  471SOL    HW1 2312   1.789   2.810   4.225
  471SOL    HW2 2313   1.727   2.670   4.283
  472SOL     OW 2314   4.413   3.817   6.063
  472SOL    HW1 2315   4.365   3.737   6.027
  472SOL    HW2 2316   4.351   3.896   6.062
  473SOL     OW 2317   5.668   3.789   2.207
  473SOL    HW1 2318   5.705   3.873   2.248
  473SOL    HW2 2319   5.594   3.812   2.145
  474SOL     OW 2320   4.759   5.414   3.982
  474SOL    HW1 2321   4.743   5.350   4.057
  474SOL    HW2 2322   4.739   5.507   4.012
  475SOL     OW 2323   4.868   1.656   0.935
  475SOL    HW1 2324   4.876   1.739   0.989
  475SOL    HW2 2325   4.948   1.598   0.952
  476SOL     OW 2326   1.074   2.998   0.280
  476SOL    HW1 2327   1.150   2.969   0.338
  476SOL    HW2 2328   1.093   2.973   0.185
  477SOL     OW 2329   5.938   5.919   4.536
  477SOL    HW1 2330   5.912   5.841   4.593
  477SOL    HW2 2331   5.986   5.987   4.592
  478SOL     OW 2332   6.284   5.305   1.700
  478SOL    HW1 2333   6.256   5.396   1.729
  478SOL    HW2 2334   6.357   5.272   1.760
  479SOL     OW 2335   3.567   3.661   2.811
  479SOL    HW1 2336   3.546   3.563   2.814
  479SOL    HW2 2337   3.666   3.673   2.804
  480SOL     OW 2338   6.558   0.220   1.081
  480SOL    HW1 2339   6.592   0.297   1.027
  480SOL    HW2 2340   6.477   0.248   1.132
  481SOL     OW 2341   5.844   6.528   0.292
  481SOL    HW1 2342   5.819   6.624   0.299
  481SOL    HW2 2343   5.789   6.484   0.222
  482SOL     OW 2344   4.113   5.320   2.469
  482SOL    HW1 2345   4.151   5.314   2.561
  482SOL    HW2 2346   4.014   5.318   2.474
  483SOL     OW 2347   6.107   2.677   5.071
  483SOL    HW1 2348   6.087   2.584   5.102
  483SOL    HW2 2349   6.129   2.735   5.150
  484SOL     OW 2350   2.901   5.518   4.291
  484SOL    HW1 2351   2.907   5.438   4.231
  484SOL    HW2 2352   2.806   5.533   4.318
  485SOL     OW 2353   5.299   2.820   0.883
  485SOL    HW1 2354   5.372   2.856   0.942
  485SOL    HW2 2355   5.324   2.729   0.851
  486SOL     OW 2356   6.351   6.503   5.828
  486SOL    HW1 2357   6.405   6.528   5.748
  486SOL    HW2 2358   6.289   6.427   5.804
  487SOL     OW 2359   5.934   1.331   0.090
  487SOL    HW1 2360   5.947   1.343   7.017
  487SOL    HW2 2361   5.949   1.418   0.137
  488SOL     OW 2362   1.465   6.389   4.007
  488SOL    HW1 2363   1.556   6.363   4.041
  488SOL    HW2 2364   1.432   6.320   3.943
  489SOL     OW 2365   2.554   4.372   5.279
  489SOL    HW1 2366   2.637   4.315   5.277
  489SOL    HW2 2367   2.532   4.401   5.186
  490SOL     OW 2368   0.828   3.794   4.841
  490SOL    HW1 2369   0.892   3.838   4.903
  490SOL    HW2 2370   0.827   3.842   4.753
  491SOL     OW 2371   6.663   3.319   1.824
  491SOL    HW1 2372   6.695   3.413   1.825
  491SOL    HW2 2373   6.686   3.275   1.911
  492SOL     OW 2374   1.519   1.755   6.176
  492SOL    HW1 2375   1.498   1.825   6.107
  492SOL    HW2 2376   1.522   1.798   6.266
  493SOL     OW 2377   1.783   5.676   4.006
  493SOL    HW1 2378   1.734   5.606   4.059
  493SOL    HW2 2379   1.876   5.684   4.041
  494SOL     OW 2380   2.746   6.687   2.359
  494SOL    HW1 2381   2.807   6.663   2.283
  494SOL    HW2 2382   2.800   6.704   2.441
  495SOL     OW 2383   3.553   4.522   6.213
  495SOL    HW1 2384   3.514   4.431   6.227
  495SOL    HW2 2385   3.516   4.562   6.130
  496SOL     OW 2386   4.848   0.179   2.736
  496SOL    HW1 2387   4.913   0.131   2.795
  496SOL    HW2 2388   4.822   0.119   2.660
  497SOL     OW 2389   4.415   2.733   0.963
  497SOL    HW1 2390   4.508   2.730   0.999
  497SOL    HW2 2391   4.352   2.693   1.030
  498SOL     OW 2392   0.701   0.057   0.669
  498SOL    HW1 2393   0.669   6.991   0.643
  498SOL    HW2 2394   0.747   0.099   0.590
  499SOL     OW 2395   2.811   6.772   6.214
  499SOL    HW1 2396   2.736   6.735   6.159
  499SOL    HW2 2397   2.835   6.707   6.286
  500SOL     OW 2398   6.483   1.492   6.057
  500SOL    HW1 2399   6.453   1.411   6.007
  500SOL    HW2 2400   6.417   1.566   6.042
  501SOL     OW 2401   2.093   1.914   4.892
  501SOL    HW1 2402   2.129   1.945   4.805
  501SOL    HW2 2403   2.081   1.992   4.954
  502SOL     OW 2404   3.603   2.687   6.738
  502SOL    HW1 2405   3.522   2.651   6.783
  502SOL    HW2 2406   3.676   2.618   6.739
  503SOL     OW 2407   3.763   5.210   1.396
  503SOL    HW1 2408   3.712   5.246   1.318
  503SOL    HW2 2409   3.773   5.111   1.385
  504SOL     OW 2410   6.211   0.450   6.594
  504SOL    HW1 2411   6.203   0.499   6.681
  504SOL    HW2 2412   6.273   0.372   6.605
  505SOL     OW 2413   0.352   3.947   5.704
  505SOL    HW1 2414   0.294   3.966   5.624
  505SOL    HW2 2415   0.372   4.033   5.751
  506SOL     OW 2416   3.078   6.212   2.422
  506SOL    HW1 2417   3.005   6.145   2.432
  506SOL    HW2 2418   3.166   6.167   2.435
  507SOL     OW 2419   1.803   0.061   3.723
  507SOL    HW1 2420   1.731   0.085   3.658
  507SOL    HW2 2421   1.887   0.110   3.700
  508SOL     OW 2422   0.406   5.044   2.595
  508SOL    HW1 2423   0.500   5.070   2.571
  508SOL    HW2 2424   0.362   5.000   2.517
  509SOL     OW 2425   4.533   0.623   5.855
  509SOL    HW1 2426   4.625   0.658   5.869
  509SOL    HW2 2427   4.502   0.577   5.938
  510SOL     OW 2428   6.336   4.719   0.129
  510SOL    HW1 2429   6.346   4.782   0.052
  510SOL    HW2 2430   6.240   4.692   0.136
  511SOL     OW 2431   6.852   2.287   0.915
  511SOL    HW1 2432   6.911   2.211   0.941
  511SOL    HW2 2433   6.837   2.284   0.816
  512SOL     OW 2434   1.807   1.452   4.713
  512SOL    HW1 2435   1.819   1.548   4.738
  512SOL    HW2 2436   1.771   1.402   4.792
  513SOL     OW 2437   5.672   5.531   2.454
  513SOL    HW1 2438   5.676   5.499   2.359
  513SOL    HW2 2439   5.646   5.454   2.513
  514SOL     OW 2440   4.860   1.283   5.043
  514SOL    HW1 2441   4.846   1.381   5.045
  514SOL    HW2 2442   4.956   1.263   5.061
  515SOL     OW 2443   2.817   0.222   6.512
  515SOL    HW1 2444   2.800   0.124   6.512
  515SOL    HW2 2445   2.768   0.264   6.589
  516SOL     OW 2446   0.780   5.672   2.822
  516SOL    HW1 2447   0.691   5.707   2.793
  516SOL    HW2 2448   0.767   5.587   2.874
  517SOL     OW 2449   3.608   4.921   0.179
  517SOL    HW1 2450   3.554   5.001   0.155
  517SOL    HW2 2451   3.695   4.950   0.220
  518SOL     OW 2452   2.076   0.153   3.653
  518SOL    HW1 2453   2.112   0.241   3.683
  518SOL    HW2 2454   2.099   0.139   3.557
  519SOL     OW 2455   0.201   6.519   3.096
  519SOL    HW1 2456   0.300   6.531   3.086
  519SOL    HW2 2457   0.176   6.426   3.068
  520SOL     OW 2458   3.484   5.178   0.173
  520SOL    HW1 2459   3.579   5.200   0.197
  520SOL    HW2 2460   3.453   5.240   0.101
  521SOL     OW 2461   0.062   6.810   5.074
  521SOL    HW1 2462   7.022   6.885   5.058
  521SOL    HW2 2463   0.048   6.740   5.004
  522SOL     OW 2464   3.113   5.561   6.077
  522SOL    HW1 2465   3.110   5.511   6.163
  522SOL    HW2 2466   3.208   5.566   6.044
  523SOL     OW 2467   1.751   6.912   6.195
  523SOL    HW1 2468   1.731   6.896   6.099
  523SOL    HW2 2469   1.678   6.871   6.251
  524SOL     OW 2470   6.579   1.736   1.586
  524SOL    HW1 2471   6.500   1.796   1.593
  524SOL    HW2 2472   6.654   1.784   1.541
  525SOL     OW 2473   6.857   3.200   3.942
  525SOL    HW1 2474   6.781   3.183   3.879
  525SOL    HW2 2475   6.937   3.229   3.890
  526SOL     OW 2476   4.448   6.245   5.123
  526SOL    HW1 2477   4.479   6.326   5.172
  526SOL    HW2 2478   4.362   6.213   5.162
  527SOL     OW 2479   6.753   1.910   0.428
  527SOL    HW1 2480   6.754   1.930   0.526
  527SOL    HW2 2481   6.797   1.821   0.412
  528SOL     OW 2482   6.697   1.711   3.396
  528SOL    HW1 2483   6.705   1.655   3.313
  528SOL    HW2 2484   6.696   1.651   3.476
  529SOL     OW 2485   1.118   1.472   5.675
  529SOL    HW1 2486   1.033   1.522   5.663
  529SOL    HW2 2487   1.190   1.515   5.622
  530SOL     OW 2488   3.395   4.471   1.709
  530SOL    HW1 2489   3.420   4.382   1.747
  530SOL    HW2 2490   3.458   4.541   1.744
  531SOL     OW 2491   0.123   1.366   5.800
  531SOL    HW1 2492   0.035   1.380   5.847
  531SOL    HW2 2493   0.122   1.415   5.713
  532SOL     OW 2494   3.400   1.127   6.407
  532SOL    HW1 2495   3.452   1.073   6.473
  532SOL    HW2 2496   3.450   1.133   6.321
  533SOL     OW 2497   3.252   6.855   4.867
  533SOL    HW1 2498   3.329   6.808   4.824
  533SOL    HW2 2499   3.225   6.806   4.950
  534SOL     OW 2500   1.916   4.111   0.801
  534SOL    HW1 2501   1.946   4.118   0.896
  534SOL    HW2 2502   1.931   4.017   0.768
  535SOL     OW 2503   5.257   3.958   3.580
  535SOL    HW1 2504   5.233   4.034   3.520
  535SOL    HW2 2505   5.350   3.928   3.561
  536SOL     OW 2506   6.435   0.398   0.775
  536SOL    HW1 2507   6.379   0.321   0.806
  536SOL    HW2 2508   6.441   0.466   0.848
  537SOL     OW 2509   3.703   2.132   2.469
  537SOL    HW1 2510   3.685   2.037   2.441
  537SOL    HW2 2511   3.617   2.183   2.471
  538SOL     OW 2512   4.361   5.547   6.623
  538SOL    HW1 2513   4.280   5.548   6.681
  538SOL    HW2 2514   4.334   5.533   6.528
  539SOL     OW 2515   3.102   6.604   6.759
  539SOL    HW1 2516   3.010   6.627   6.791
  539SOL    HW2 2517   3.153   6.560   6.833
  540SOL     OW 2518   1.709   1.799   5.747
  540SOL    HW1 2519   1.726   1.732   5.820
  540SOL    HW2 2520   1.704   1.751   5.659
  541SOL     OW 2521   5.978   5.618   1.625
  541SOL    HW1 2522   5.878   5.617   1.635
  541SOL    HW2 2523   6.006   5.703   1.579
  542SOL     OW 2524   4.259   5.714   5.918
  542SOL    HW1 2525   4.259   5.751   5.825
  542SOL    HW2 2526   4.279   5.616   5.914
  543SOL     OW 2527   0.029   2.193   5.102
  543SOL    HW1 2528   0.024   2.162   5.197
  543SOL    HW2 2529   7.020   2.287   5.096
  544SOL     OW 2530   0.656   2.218   1.147
  544SOL    HW1 2531   0.657   2.127   1.187
  544SOL    HW2 2532   0.726   2.224   1.077
  545SOL     OW 2533   6.885   4.735   0.684
  545SOL    HW1 2534   6.879   4.833   0.663
  545SOL    HW2 2535   6.932   4.722   0.771
  546SOL     OW 2536   6.618   6.056   2.410
  546SOL    HW1 2537   6.675   6.135   2.385
  546SOL    HW2 2538   6.639   6.028   2.504
  547SOL     OW 2539   3.477   6.257   0.100
  547SOL    HW1 2540   3.485   6.357   0.096
  547SOL    HW2 2541   3.394   6.232   0.149
  548SOL     OW 2542   4.044   3.610   6.193
  548SOL    HW1 2543   3.957   3.561   6.196
  548SOL    HW2 2544   4.047   3.678   6.267
  549SOL     OW 2545   4.767   2.914   4.170
  549SOL    HW1 2546   4.751   2.900   4.072
  549SOL    HW2 2547   4.864   2.901   4.190
  550SOL     OW 2548   6.952   5.724   4.433
  550SOL    HW1 2549   7.000   5.810   4.414
  550SOL    HW2 2550   6.872   5.717   4.374
  551SOL     OW 2551   5.234   0.902   6.544
  551SOL    HW1 2552   5.301   0.830   6.557
  551SOL    HW2 2553   5.281   0.988   6.523
  552SOL     OW 2554   1.237   0.285   4.084
  552SOL    HW1 2555   1.315   0.229   4.110
  552SOL    HW2 2556   1.254   0.328   3.995
  553SOL     OW 2557   4.426   2.716   5.969
  553SOL    HW1 2558   4.453   2.660   5.892
  553SOL    HW2 2559   4.474   2.686   6.052
  554SOL     OW 2560   6.647   4.702   0.558
  554SOL    HW1 2561   6.635   4.606   0.533
  554SOL    HW2 2562   6.723   4.711   0.623
  555SOL     OW 2563   4.210   5.097   5.760
  555SOL    HW1 2564   4.143   5.047   5.815
  555SOL    HW2 2565   4.177   5.104   5.666
  556SOL     OW 2566   5.477   5.865   3.222
  556SOL    HW1 2567   5.474   5.962   3.195
  556SOL    HW2 2568   5.472   5.858   3.321
  557SOL     OW 2569   0.178   3.624   0.269
  557SOL    HW1 2570   0.209   3.700   0.211
  557SOL    HW2 2571   0.250   3.597   0.332
  558SOL     OW 2572   3.737   3.653   1.620
  558SOL    HW1 2573   3.711   3.590   1.694
  558SOL    HW2 2574   3.658   3.709   1.595
  559SOL     OW 2575   5.861   1.564   6.146
  559SOL    HW1 2576   5.920   1.600   6.074
  559SOL    HW2 2577   5.861   1.464   6.143
  560SOL     OW 2578   2.076   2.154   2.943
  560SOL    HW1 2579   2.159   2.124   2.897
  560SOL    HW2 2580   2.091   2.243   2.986
  561SOL     OW 2581   6.523   3.960   0.594
  561SOL    HW1 2582   6.568   3.880   0.635
  561SOL    HW2 2583   6.448   3.929   0.536
  562SOL     OW 2584   2.904   6.311   2.702
  562SOL    HW1 2585   2.984   6.274   2.749
  562SOL    HW2 2586   2.827   6.316   2.765
  563SOL     OW 2587   0.769   0.579   4.038
  563SOL    HW1 2588   0.715   0.627   3.969
  563SOL    HW2 2589   0.709   0.551   4.113
  564SOL     OW 2590   5.980   2.880   5.885
  564SOL    HW1 2591   6.009   2.874   5.789
  564SOL    HW2 2592   5.881   2.865   5.891
  565SOL     OW 2593   3.398   3.214   3.400
  565SOL    HW1 2594   3.450   3.161   3.466
  565SOL    HW2 2595   3.306   3.175   3.392
  566SOL     OW 2596   0.934   2.663   3.333
  566SOL    HW1 2597   0.968   2.712   3.253
  566SOL    HW2 2598   1.006   2.605   3.369
  567SOL     OW 2599   1.856   2.601   5.354
  567SOL    HW1 2600   1.876   2.697   5.333
  567SOL    HW2 2601   1.860   2.547   5.270
  568SOL     OW 2602   0.874   0.058   6.880
  568SOL    HW1 2603   0.799   0.125   6.875
  568SOL    HW2 2604   0.896   0.040   6.975
  569SOL     OW 2605   5.435   3.511   4.982
  569SOL    HW1 2606   5.387   3.471   4.905
  569SOL    HW2 2607   5.373   3.572   5.032
  570SOL     OW 2608   2.777   0.366   5.370
  570SOL    HW1 2609   2.860   0.343   5.320
  570SOL    HW2 2610   2.706   0.298   5.350
  571SOL     OW 2611   2.399   4.405   2.534
  571SOL    HW1 2612   2.381   4.363   2.444
  571SOL    HW2 2613   2.365   4.344   2.606
  572SOL     OW 2614   2.509   1.619   4.817
  572SOL    HW1 2615   2.561   1.704   4.818
  572SOL    HW2 2616   2.557   1.550   4.872
  573SOL     OW 2617   0.512   0.146   6.144
  573SOL    HW1 2618   0.488   0.073   6.207
  573SOL    HW2 2619   0.501   0.114   6.050
  574SOL     OW 2620   2.856   0.991   5.902
  574SOL    HW1 2621   2.914   0.920   5.863
  574SOL    HW2 2622   2.852   0.981   6.001
  575SOL     OW 2623   3.686   3.841   6.966
  575SOL    HW1 2624   3.717   3.868   0.032
  575SOL    HW2 2625   3.734   3.896   6.897
  576SOL     OW 2626   6.727   0.898   4.128
  576SOL    HW1 2627   6.739   0.924   4.033
  576SOL    HW2 2628   6.766   0.808   4.143
  577SOL     OW 2629   6.368   0.540   1.468
  577SOL    HW1 2630   6.460   0.550   1.430
  577SOL    HW2 2631   6.310   0.613   1.432
  578SOL     OW 2632   3.970   6.963   0.849
  578SOL    HW1 2633   4.023   6.878   0.852
  578SOL    HW2 2634   3.955   6.997   0.941
  579SOL     OW 2635   0.553   4.115   2.230
  579SOL    HW1 2636   0.587   4.189   2.172
  579SOL    HW2 2637   0.504   4.048   2.174
  580SOL     OW 2638   4.887   4.845   4.659
  580SOL    HW1 2639   4.830   4.894   4.725
  580SOL    HW2 2640   4.832   4.778   4.610
  581SOL     OW 2641   2.756   2.076   4.198
  581SOL    HW1 2642   2.794   2.019   4.271
  581SOL    HW2 2643   2.786   2.171   4.210
  582SOL     OW 2644   6.623   4.882   5.174
  582SOL    HW1 2645   6.617   4.861   5.076
  582SOL    HW2 2646   6.611   4.798   5.227
  583SOL     OW 2647   3.100   5.976   5.137
  583SOL    HW1 2648   3.058   5.910   5.200
  583SOL    HW2 2649   3.053   6.064   5.146
  584SOL     OW 2650   3.821   0.761   5.021
  584SOL    HW1 2651   3.858   0.751   5.113
  584SOL    HW2 2652   3.878   0.710   4.957
  585SOL     OW 2653   3.653   6.689   1.472
  585SOL    HW1 2654   3.650   6.598   1.430
  585SOL    HW2 2655   3.563   6.730   1.470
  586SOL     OW 2656   3.222   6.423   0.944
  586SOL    HW1 2657   3.221   6.421   1.044
  586SOL    HW2 2658   3.264   6.509   0.913
  587SOL     OW 2659   5.733   0.734   3.379
  587SOL    HW1 2660   5.719   0.704   3.285
  587SOL    HW2 2661   5.825   0.709   3.408
  588SOL     OW 2662   2.284   4.298   2.791
  588SOL    HW1 2663   2.350   4.373   2.792
  588SOL    HW2 2664   2.201   4.326   2.839
  589SOL     OW 2665   3.507   5.047   5.747
  589SOL    HW1 2666   3.490   4.984   5.671
  589SOL    HW2 2667   3.477   5.004   5.832
  590SOL     OW 2668   2.145   0.728   6.411
  590SOL    HW1 2669   2.150   0.828   6.418
  590SOL    HW2 2670   2.071   0.704   6.348
  591SOL     OW 2671   2.912   0.243   3.703
  591SOL    HW1 2672   2.998   0.196   3.723
  591SOL    HW2 2673   2.932   0.338   3.678
  592SOL     OW 2674   4.992   1.569   4.323
  592SOL    HW1 2675   4.918   1.628   4.355
  592SOL    HW2 2676   5.079   1.615   4.337
  593SOL     OW 2677   1.387   6.538   0.240
  593SOL    HW1 2678   1.358   6.502   0.151
  593SOL    HW2 2679   1.317   6.518   0.308
  594SOL     OW 2680   2.535   1.035   4.870
  594SOL    HW1 2681   2.442   1.021   4.903
  594SOL    HW2 2682   2.567   0.952   4.825
  595SOL     OW 2683   5.976   4.029   2.541
  595SOL    HW1 2684   5.945   3.936   2.559
  595SOL    HW2 2685   6.055   4.028   2.480
  596SOL     OW 2686   6.743   5.090   5.319
  596SOL    HW1 2687   6.684   5.027   5.268
  596SOL    HW2 2688   6.801   5.037   5.382
  597SOL     OW 2689   3.644   0.846   6.957
  597SOL    HW1 2690   3.659   0.864   6.859
  597SOL    HW2 2691   3.613   0.752   6.968
  598SOL     OW 2692   3.373   3.201   2.092
  598SOL    HW1 2693   3.358   3.198   1.993
  598SOL    HW2 2694   3.421   3.118   2.122
  599SOL     OW 2695   1.752   5.618   1.807
  599SOL    HW1 2696   1.757   5.712   1.842
  599SOL    HW2 2697   1.813   5.609   1.728
  600SOL     OW 2698   0.631   3.755   5.493
  600SOL    HW1 2699   0.654   3.670   5.540
  600SOL    HW2 2700   0.539   3.750   5.456
  601SOL     OW 2701   6.739   0.034   5.638
  601SOL    HW1 2702   6.667   0.102   5.650
  601SOL    HW2 2703   6.825   0.069   5.676
  602SOL     OW 2704   0.438   0.711   3.272
  602SOL    HW1 2705   0.396   0.749   3.190
  602SOL    HW2 2706   0.507   0.643   3.246
  603SOL     OW 2707   1.075   0.993   3.790
  603SOL    HW1 2708   1.111   1.043   3.711
  603SOL    HW2 2709   1.145   0.930   3.824
  604SOL     OW 2710   5.467   2.657   1.251
  604SOL    HW1 2711   5.553   2.628   1.292
  604SOL    HW2 2712   5.391   2.624   1.307
  605SOL     OW 2713   5.878   6.409   1.706
  605SOL    HW1 2714   5.800   6.461   1.671
  605SOL    HW2 2715   5.889   6.428   1.803
  606SOL     OW 2716   2.491   6.741   5.449
  606SOL    HW1 2717   2.405   6.766   5.403
  606SOL    HW2 2718   2.535   6.667   5.398
  607SOL     OW 2719   1.733   3.498   5.786
  607SOL    HW1 2720   1.749   3.524   5.881
  607SOL    HW2 2721   1.800   3.544   5.727
  608SOL     OW 2722   2.508   1.263   6.976
  608SOL    HW1 2723   2.412   1.252   6.953
  608SOL    HW2 2724   2.549   1.173   6.993
  609SOL     OW 2725   3.953   3.094   2.498
  609SOL    HW1 2726   3.973   3.077   2.595
  609SOL    HW2 2727   3.901   3.017   2.461
  610SOL     OW 2728   5.654   2.749   2.322
  610SOL    HW1 2729   5.710   2.819   2.367
  610SOL    HW2 2730   5.563   2.786   2.303
  611SOL     OW 2731   4.201   1.210   2.112
  611SOL    HW1 2732   4.294   1.180   2.092
  611SOL    HW2 2733   4.170   1.273   2.041
  612SOL     OW 2734   4.222   5.738   4.328
  612SOL    HW1 2735   4.244   5.644   4.356
  612SOL    HW2 2736   4.124   5.745   4.308
  613SOL     OW 2737   3.896   6.086   6.799
  613SOL    HW1 2738   3.947   6.147   6.860
  613SOL    HW2 2739   3.847   6.140   6.732
  614SOL     OW 2740   3.495   6.509   5.992
  614SOL    HW1 2741   3.409   6.535   5.949
  614SOL    HW2 2742   3.563   6.489   5.921
  615SOL     OW 2743   7.002   5.090   4.045
  615SOL    HW1 2744   0.028   5.059   4.125
  615SOL    HW2 2745   6.964   5.181   4.062
  616SOL     OW 2746   6.660   3.135   3.779
  616SOL    HW1 2747   6.650   3.061   3.713
  616SOL    HW2 2748   6.623   3.106   3.867
  617SOL     OW 2749   2.634   0.265   6.135
  617SOL    HW1 2750   2.578   0.264   6.217
  617SOL    HW2 2751   2.657   0.359   6.111
  618SOL     OW 2752   2.396   0.086   2.842
  618SOL    HW1 2753   2.489   0.118   2.827
  618SOL    HW2 2754   2.347   0.149   2.901
  619SOL     OW 2755   1.470   2.923   7.022
  619SOL    HW1 2756   1.516   2.834   7.014
  619SOL    HW2 2757   1.528   2.994   6.982
  620SOL     OW 2758   5.178   3.421   1.052
  620SOL    HW1 2759   5.083   3.451   1.047
  620SOL    HW2 2760   5.197   3.384   1.143
  621SOL     OW 2761   7.016   5.947   1.049
  621SOL    HW1 2762   0.029   5.976   0.961
  621SOL    HW2 2763   0.064   5.919   1.110
  622SOL     OW 2764   1.245   1.521   6.819
  622SOL    HW1 2765   1.185   1.470   6.882
  622SOL    HW2 2766   1.189   1.579   6.760
  623SOL     OW 2767   6.106   5.765   5.521
  623SOL    HW1 2768   6.033   5.791   5.583
  623SOL    HW2 2769   6.121   5.666   5.526
  624SOL     OW 2770   6.857   1.451   1.148
  624SOL    HW1 2771   6.824   1.370   1.197
  624SOL    HW2 2772   6.925   1.423   1.080
  625SOL     OW 2773   1.742   1.129   1.759
  625SOL    HW1 2774   1.771   1.224   1.766
  625SOL    HW2 2775   1.656   1.124   1.707
  626SOL     OW 2776   4.315   5.681   5.606
  626SOL    HW1 2777   4.287   5.730   5.524
  626SOL    HW2 2778   4.285   5.586   5.599
  627SOL     OW 2779   4.298   5.112   0.011
  627SOL    HW1 2780   4.311   5.031   0.069
  627SOL    HW2 2781   4.202   5.116   7.008
  628SOL     OW 2782   4.938   3.617   4.213
  628SOL    HW1 2783   4.921   3.527   4.254
  628SOL    HW2 2784   4.992   3.607   4.130
  629SOL     OW 2785   0.805   0.159   1.475
  629SOL    HW1 2786   0.720   0.202   1.447
  629SOL    HW2 2787   0.793   0.115   1.564
  630SOL     OW 2788   2.777   1.692   2.217
  630SOL    HW1 2789   2.686   1.653   2.203
  630SOL    HW2 2790   2.792   1.708   2.314
  631SOL     OW 2791   2.693   1.364   4.176
  631SOL    HW1 2792   2.742   1.426   4.237
  631SOL    HW2 2793   2.750   1.344   4.096
  632SOL     OW 2794   2.808   0.895   0.457
  632SOL    HW1 2795   2.847   0.976   0.501
  632SOL    HW2 2796   2.757   0.842   0.525
  633SOL     OW 2797   2.154   0.259   4.405
  633SOL    HW1 2798   2.248   0.249   4.374
  633SOL    HW2 2799   2.091   0.231   4.331
  634SOL     OW 2800   2.809   5.500   2.001
  634SOL    HW1 2801   2.817   5.580   1.943
  634SOL    HW2 2802   2.803   5.528   2.097
  635SOL     OW 2803   3.094   0.197   1.886
  635SOL    HW1 2804   3.032   0.275   1.878
  635SOL    HW2 2805   3.059   0.133   1.954
  636SOL     OW 2806   4.849   5.228   6.286
  636SOL    HW1 2807   4.876   5.194   6.196
  636SOL    HW2 2808   4.770   5.177   6.319
  637SOL     OW 2809   6.084   4.375   6.470
  637SOL    HW1 2810   6.108   4.412   6.380
  637SOL    HW2 2811   5.989   4.397   6.490
  638SOL     OW 2812   5.654   1.581   3.511
  638SOL    HW1 2813   5.733   1.616   3.561
  638SOL    HW2 2814   5.601   1.521   3.570
  639SOL     OW 2815   3.875   3.394   1.414
  639SOL    HW1 2816   3.900   3.443   1.498
  639SOL    HW2 2817   3.844   3.461   1.346
  640SOL     OW 2818   3.357   2.710   5.564
  640SOL    HW1 2819   3.342   2.620   5.523
  640SOL    HW2 2820   3.270   2.747   5.596
  641SOL     OW 2821   0.651   0.451   4.904
  641SOL    HW1 2822   0.613   0.539   4.876
  641SOL    HW2 2823   0.648   0.445   5.004
  642SOL     OW 2824   0.812   5.188   6.587
  642SOL    HW1 2825   0.828   5.213   6.491
  642SOL    HW2 2826   0.755   5.105   6.590
  643SOL     OW 2827   5.230   6.970   4.418
  643SOL    HW1 2828   5.268   6.968   4.326
  643SOL    HW2 2829   5.277   0.015   4.472
  644SOL     OW 2830   3.085   5.870   2.072
  644SOL    HW1 2831   3.179   5.853   2.045
  644SOL    HW2 2832   3.057   5.802   2.140
  645SOL     OW 2833   0.906   3.139   3.342
  645SOL    HW1 2834   0.959   3.121   3.425
  645SOL    HW2 2835   0.933   3.074   3.270
  646SOL     OW 2836   1.806   3.435   4.150
  646SOL    HW1 2837   1.853   3.355   4.111
  646SOL    HW2 2838   1.734   3.404   4.212
  647SOL     OW 2839   5.554   5.314   0.835
  647SOL    HW1 2840   5.492   5.304   0.912
  647SOL    HW2 2841   5.620   5.238   0.835
  648SOL     OW 2842   4.190   2.285   4.079
  648SOL    HW1 2843   4.251   2.311   4.003
  648SOL    HW2 2844   4.102   2.257   4.042
  649SOL     OW 2845   4.176   4.384   1.360
  649SOL    HW1 2846   4.135   4.474   1.356
  649SOL    HW2 2847   4.104   4.314   1.363
  650SOL     OW 2848   5.914   5.684   0.528
  650SOL    HW1 2849   5.958   5.767   0.493
  650SOL    HW2 2850   5.836   5.661   0.470
  651SOL     OW 2851   1.107   5.375   6.630
  651SOL    HW1 2852   1.184   5.353   6.571
  651SOL    HW2 2853   1.026   5.324   6.601
  652SOL     OW 2854   4.838   2.818   1.442
  652SOL    HW1 2855   4.912   2.882   1.421
  652SOL    HW2 2856   4.786   2.851   1.520
  653SOL     OW 2857   3.605   5.616   2.524
  653SOL    HW1 2858   3.701   5.636   2.507
  653SOL    HW2 2859   3.596   5.521   2.555
  654SOL     OW 2860   6.773   4.341   0.098
  654SOL    HW1 2861   6.873   4.336   0.092
  654SOL    HW2 2862   6.733   4.337   0.007
  655SOL     OW 2863   1.979   1.338   0.663
  655SOL    HW1 2864   1.962   1.435   0.682
  655SOL    HW2 2865   2.073   1.326   0.633
  656SOL     OW 2866   2.199   6.133   0.905
  656SOL    HW1 2867   2.127   6.069   0.878
  656SOL    HW2 2868   2.208   6.131   1.005
  657SOL     OW 2869   3.800   0.485   6.216
  657SOL    HW1 2870   3.708   0.465   6.181
  657SOL    HW2 2871   3.862   0.498   6.139
  658SOL     OW 2872   4.023   5.446   0.234
  658SOL    HW1 2873   4.098   5.452   0.300
  658SOL    HW2 2874   3.959   5.521   0.248
  659SOL     OW 2875   3.337   0.950   6.121
  659SOL    HW1 2876   3.313   0.954   6.024
  659SOL    HW2 2877   3.260   0.913   6.173
  660SOL     OW 2878   3.020   6.257   3.680
  660SOL    HW1 2879   3.052   6.268   3.586
  660SOL    HW2 2880   3.090   6.208   3.733
  661SOL     OW 2881   0.425   4.986   3.008
  661SOL    HW1 2882   0.453   4.903   3.055
  661SOL    HW2 2883   0.507   5.038   2.980
  662SOL     OW 2884   3.730   2.222   6.988
  662SOL    HW1 2885   3.798   2.149   6.993
  662SOL    HW2 2886   3.708   2.252   0.055
  663SOL     OW 2887   1.456   3.720   4.796
  663SOL    HW1 2888   1.526   3.763   4.740
  663SOL    HW2 2889   1.494   3.638   4.839
  664SOL     OW 2890   5.503   0.260   5.788
  664SOL    HW1 2891   5.477   0.165   5.808
  664SOL    HW2 2892   5.602   0.270   5.796
  665SOL     OW 2893   1.727   4.100   2.030
  665SOL    HW1 2894   1.779   4.015   2.020
  665SOL    HW2 2895   1.709   4.117   2.127
  666SOL     OW 2896   3.970   0.788   3.061
  666SOL    HW1 2897   3.875   0.765   3.083
  666SOL    HW2 2898   3.989   0.765   2.966
  667SOL     OW 2899   6.299   7.018   1.096
  667SOL    HW1 2900   6.247   0.036   1.169
  667SOL    HW2 2901   6.389   6.992   1.131
  668SOL     OW 2902   4.999   3.599   6.751
  668SOL    HW1 2903   5.068   3.541   6.794
  668SOL    HW2 2904   4.965   3.666   6.817
  669SOL     OW 2905   5.982   0.644   3.444
  669SOL    HW1 2906   5.988   0.567   3.508
  669SOL    HW2 2907   6.048   0.631   3.370
  670SOL     OW 2908   4.175   1.858   1.982
  670SOL    HW1 2909   4.225   1.772   1.993
  670SOL    HW2 2910   4.135   1.885   2.069
  671SOL     OW 2911   0.813   5.388   1.693
  671SOL    HW1 2912   0.782   5.432   1.609
  671SOL    HW2 2913   0.735   5.370   1.753
  672SOL     OW 2914   0.179   0.237   1.148
  672SOL    HW1 2915   0.125   0.201   1.072
  672SOL    HW2 2916   0.219   0.325   1.123
  673SOL     OW 2917   6.366   6.728   6.365
  673SOL    HW1 2918   6.432   6.781   6.419
  673SOL    HW2 2919   6.325   6.657   6.422
  674SOL     OW 2920   4.703   6.833   4.383
  674SOL    HW1 2921   4.655   6.751   4.416
  674SOL    HW2 2922   4.647   6.913   4.403
  675SOL     OW 2923   0.588   5.173   2.133
  675SOL    HW1 2924   0.559   5.205   2.224
  675SOL    HW2 2925   0.513   5.121   2.092
  676SOL     OW 2926   2.232   6.003   6.683
  676SOL    HW1 2927   2.219   5.956   6.596
  676SOL    HW2 2928   2.291   5.948   6.742
  677SOL     OW 2929   5.103   1.023   0.905
  677SOL    HW1 2930   5.070   0.993   0.816
  677SOL    HW2 2931   5.135   0.944   0.957
  678SOL     OW 2932   0.552   5.311   4.056
  678SOL    HW1 2933   0.511   5.402   4.046
  678SOL    HW2 2934   0.547   5.263   3.968
  679SOL     OW 2935   5.446   0.612   6.190
  679SOL    HW1 2936   5.456   0.548   6.267
  679SOL    HW2 2937   5.430   0.560   6.106
  680SOL     OW 2938   6.237   0.391   3.830
  680SOL    HW1 2939   6.233   0.293   3.809
  680SOL    HW2 2940   6.330   0.416   3.856
  681SOL     OW 2941   4.693   4.761   3.096
  681SOL    HW1 2942   4.671   4.755   2.999
  681SOL    HW2 2943   4.777   4.814   3.108
  682SOL     OW 2944   6.227   2.185   3.448
  682SOL    HW1 2945   6.253   2.266   3.501
  682SOL    HW2 2946   6.216   2.211   3.352
  683SOL     OW 2947   3.222   5.664   0.072
  683SOL    HW1 2948   3.249   5.637   0.164
  683SOL    HW2 2949   3.303   5.691   0.019
  684SOL     OW 2950   5.713   2.384   6.243
  684SOL    HW1 2951   5.735   2.431   6.157
  684SOL    HW2 2952   5.633   2.326   6.229
  685SOL     OW 2953   3.173   6.578   3.116
  685SOL    HW1 2954   3.120   6.498   3.086
  685SOL    HW2 2955   3.166   6.589   3.215
  686SOL     OW 2956   2.377   0.465   5.312
  686SOL    HW1 2957   2.439   0.462   5.391
  686SOL    HW2 2958   2.365   0.372   5.276
  687SOL     OW 2959   0.344   1.093   4.807
  687SOL    HW1 2960   0.326   1.002   4.768
  687SOL    HW2 2961   0.437   1.095   4.845
  688SOL     OW 2962   4.812   3.648   6.555
  688SOL    HW1 2963   4.891   3.667   6.614
  688SOL    HW2 2964   4.838   3.662   6.460
  689SOL     OW 2965   2.269   6.194   0.168
  689SOL    HW1 2966   2.340   6.247   0.214
  689SOL    HW2 2967   2.183   6.244   0.170
  690SOL     OW 2968   5.712   3.450   4.183
  690SOL    HW1 2969   5.736   3.446   4.086
  690SOL    HW2 2970   5.783   3.405   4.237
  691SOL     OW 2971   5.550   0.439   3.124
  691SOL    HW1 2972   5.599   0.385   3.056
  691SOL    HW2 2973   5.468   0.389   3.154
  692SOL     OW 2974   1.511   6.860   3.633
  692SOL    HW1 2975   1.442   6.861   3.706
  692SOL    HW2 2976   1.533   6.954   3.607
  693SOL     OW 2977   6.111   4.303   1.799
  693SOL    HW1 2978   6.023   4.336   1.764
  693SOL    HW2 2979   6.128   4.210   1.766
  694SOL     OW 2980   4.016   4.831   4.350
  694SOL    HW1 2981   4.057   4.782   4.426
  694SOL    HW2 2982   3.963   4.908   4.385
  695SOL     OW 2983   4.822   0.137   4.246
  695SOL    HW1 2984   4.820   0.236   4.231
  695SOL    HW2 2985   4.735   0.107   4.285
  696SOL     OW 2986   6.675   4.442   2.128
  696SOL    HW1 2987   6.677   4.494   2.213
  696SOL    HW2 2988   6.766   4.403   2.111
  697SOL     OW 2989   0.468   6.525   3.138
  697SOL    HW1 2990   0.504   6.433   3.123
  697SOL    HW2 2991   0.542   6.585   3.168
  698SOL     OW 2992   6.026   6.857   5.761
  698SOL    HW1 2993   6.036   6.926   5.689
  698SOL    HW2 2994   6.033   6.901   5.850
  699SOL     OW 2995   4.201   2.899   0.896
  699SOL    HW1 2996   4.291   2.856   0.904
  699SOL    HW2 2997   4.131   2.837   0.932
  700SOL     OW 2998   3.734   6.751   5.194
  700SOL    HW1 2999   3.714   6.659   5.160
  700SOL    HW2 3000   3.650   6.805   5.197
  701SOL     OW 3001   4.422   4.376   1.643
  701SOL    HW1 3002   4.390   4.329   1.561
  701SOL    HW2 3003   4.436   4.309   1.716
  702SOL     OW 3004   3.181   0.827   5.380
  702SOL    HW1 3005   3.201   0.921   5.351
  702SOL    HW2 3006   3.206   0.816   5.476
  703SOL     OW 3007   3.881   2.923   0.658
  703SOL    HW1 3008   3.811   2.922   0.587
  703SOL    HW2 3009   3.931   3.009   0.655
  704SOL     OW 3010   3.525   1.256   0.359
  704SOL    HW1 3011   3.471   1.290   0.436
  704SOL    HW2 3012   3.534   1.157   0.365
  705SOL     OW 3013   6.798   6.714   5.959
  705SOL    HW1 3014   6.716   6.737   6.011
  705SOL    HW2 3015   6.816   6.616   5.965
  706SOL     OW 3016   3.520   0.526   4.934
  706SOL    HW1 3017   3.559   0.492   4.848
  706SOL    HW2 3018   3.527   0.625   4.937
  707SOL     OW 3019   3.797   5.017   4.421
  707SOL    HW1 3020   3.847   5.097   4.454
  707SOL    HW2 3021   3.699   5.037   4.419
  708SOL     OW 3022   2.785   5.772   4.054
  708SOL    HW1 3023   2.877   5.791   4.089
  708SOL    HW2 3024   2.727   5.741   4.129
  709SOL     OW 3025   1.906   6.672   1.766
  709SOL    HW1 3026   1.831   6.695   1.704
  709SOL    HW2 3027   1.884   6.704   1.858
  710SOL     OW 3028   4.876   2.999   3.188
  710SOL    HW1 3029   4.965   2.966   3.157
  710SOL    HW2 3030   4.805   2.936   3.158
  711SOL     OW 3031   6.548   1.155   0.598
  711SOL    HW1 3032   6.636   1.126   0.559
  711SOL    HW2 3033   6.494   1.074   0.622
  712SOL     OW 3034   4.922   4.605   6.603
  712SOL    HW1 3035   4.974   4.636   6.683
  712SOL    HW2 3036   4.960   4.519   6.570
  713SOL     OW 3037   2.469   2.784   5.307
  713SOL    HW1 3038   2.523   2.801   5.389
  713SOL    HW2 3039   2.461   2.869   5.254
  714SOL     OW 3040   4.094   6.853   2.791
  714SOL    HW1 3041   4.031   6.868   2.715
  714SOL    HW2 3042   4.163   6.926   2.791
  715SOL     OW 3043   6.107   4.191   6.123
  715SOL    HW1 3044   6.205   4.172   6.125
  715SOL    HW2 3045   6.057   4.115   6.164
  716SOL     OW 3046   3.271   0.900   3.521
  716SOL    HW1 3047   3.339   0.902   3.448
  716SOL    HW2 3048   3.199   0.966   3.501
  717SOL     OW 3049   5.491   4.558   3.351
  717SOL    HW1 3050   5.481   4.465   3.385
  717SOL    HW2 3051   5.401   4.598   3.335
  718SOL     OW 3052   6.914   2.287   5.369
  718SOL    HW1 3053   6.922   2.232   5.451
  718SOL    HW2 3054   6.920   2.384   5.393
  719SOL     OW 3055   4.472   5.433   2.254
  719SOL    HW1 3056   4.565   5.400   2.241
  719SOL    HW2 3057   4.421   5.368   2.311
  720SOL     OW 3058   3.332   1.500   1.065
  720SOL    HW1 3059   3.297   1.557   1.139
  720SOL    HW2 3060   3.262   1.433   1.039
  721SOL     OW 3061   0.094   2.295   2.762
  721SOL    HW1 3062   0.163   2.354   2.721
  721SOL    HW2 3063   0.029   2.350   2.815
  722SOL     OW 3064   5.550   6.105   2.281
  722SOL    HW1 3065   5.501   6.185   2.317
  722SOL    HW2 3066   5.513   6.079   2.192
  723SOL     OW 3067   2.147   0.252   4.692
  723SOL    HW1 3068   2.051   0.257   4.718
  723SOL    HW2 3069   2.154   0.257   4.592
  724SOL     OW 3070   1.537   2.360   4.527
  724SOL    HW1 3071   1.590   2.293   4.476
  724SOL    HW2 3072   1.495   2.426   4.464
  725SOL     OW 3073   1.934   3.926   3.602
  725SOL    HW1 3074   1.899   3.899   3.512
  725SOL    HW2 3075   1.882   3.880   3.674
  726SOL     OW 3076   2.070   3.071   0.311
  726SOL    HW1 3077   1.983   3.114   0.336
  726SOL    HW2 3078   2.058   3.018   0.227
  727SOL     OW 3079   3.669   4.965   5.279
  727SOL    HW1 3080   3.735   4.896   5.309
  727SOL    HW2 3081   3.584   4.954   5.330
  728SOL     OW 3082   6.243   3.275   3.330
  728SOL    HW1 3083   6.276   3.215   3.402
  728SOL    HW2 3084   6.273   3.239   3.241
  729SOL     OW 3085   0.161   4.538   0.637
  729SOL    HW1 3086   0.241   4.480   0.653
  729SOL    HW2 3087   0.119   4.513   0.550
  730SOL     OW 3088   3.099   1.164   3.791
  730SOL    HW1 3089   3.163   1.162   3.715
  730SOL    HW2 3090   3.148   1.182   3.877
  731SOL     OW 3091   5.082   4.524   4.814
  731SOL    HW1 3092   5.114   4.494   4.904
  731SOL    HW2 3093   5.006   4.466   4.784
  732SOL     OW 3094   4.901   0.489   4.493
  732SOL    HW1 3095   4.983   0.498   4.436
  732SOL    HW2 3096   4.859   0.579   4.506
  733SOL     OW 3097   0.356   5.211   4.406
  733SOL    HW1 3098   0.367   5.158   4.321
  733SOL    HW2 3099   0.313   5.154   4.476
  734SOL     OW 3100   6.760   5.503   3.399
  734SOL    HW1 3101   6.748   5.450   3.315
  734SOL    HW2 3102   6.696   5.470   3.468
  735SOL     OW 3103   4.974   0.403   2.648
  735SOL    HW1 3104   4.912   0.338   2.691
  735SOL    HW2 3105   5.053   0.354   2.611
  736SOL     OW 3106   1.830   1.247   3.107
  736SOL    HW1 3107   1.773   1.182   3.057
  736SOL    HW2 3108   1.779   1.281   3.186
  737SOL     OW 3109   3.498   1.767   6.505
  737SOL    HW1 3110   3.457   1.768   6.414
  737SOL    HW2 3111   3.428   1.787   6.573
  738SOL     OW 3112   1.583   5.373   0.616
  738SOL    HW1 3113   1.612   5.277   0.610
  738SOL    HW2 3114   1.485   5.376   0.635
  739SOL     OW 3115   1.983   0.904   2.574
  739SOL    HW1 3116   2.037   0.984   2.598
  739SOL    HW2 3117   2.043   0.831   2.541
  740SOL     OW 3118   4.706   2.594   2.791
  740SOL    HW1 3119   4.759   2.533   2.732
  740SOL    HW2 3120   4.691   2.681   2.744
  741SOL     OW 3121   3.477   1.182   2.390
  741SOL    HW1 3122   3.406   1.252   2.382
  741SOL    HW2 3123   3.531   1.200   2.472
  742SOL     OW 3124   2.356   0.314   2.260
  742SOL    HW1 3125   2.265   0.280   2.282
  742SOL    HW2 3126   2.364   0.410   2.288
  743SOL     OW 3127   6.842   6.638   2.822
  743SOL    HW1 3128   6.856   6.652   2.920
  743SOL    HW2 3129   6.858   6.724   2.773
  744SOL     OW 3130   5.869   1.018   0.729
  744SOL    HW1 3131   5.954   1.009   0.781
  744SOL    HW2 3132   5.871   1.101   0.674
  745SOL     OW 3133   0.745   6.357   5.551
  745SOL    HW1 3134   0.758   6.303   5.634
  745SOL    HW2 3135   0.800   6.319   5.477
  746SOL     OW 3136   6.580   5.531   6.069
  746SOL    HW1 3137   6.665   5.487   6.099
  746SOL    HW2 3138   6.563   5.509   5.973
  747SOL     OW 3139   3.230   4.965   2.234
  747SOL    HW1 3140   3.169   4.910   2.176
  747SOL    HW2 3141   3.215   5.062   2.215
  748SOL     OW 3142   6.500   5.223   3.112
  748SOL    HW1 3143   6.442   5.220   3.030
  748SOL    HW2 3144   6.445   5.249   3.191
  749SOL     OW 3145   4.791   4.330   4.816
  749SOL    HW1 3146   4.705   4.376   4.791
  749SOL    HW2 3147   4.830   4.372   4.897
  750SOL     OW 3148   2.964   1.781   2.799
  750SOL    HW1 3149   2.912   1.698   2.817
  750SOL    HW2 3150   3.053   1.757   2.761
  751SOL     OW 3151   4.358   0.181   0.290
  751SOL    HW1 3152   4.406   0.097   0.264
  751SOL    HW2 3153   4.259   0.168   0.281
  752SOL     OW 3154   2.940   3.258   3.785
  752SOL    HW1 3155   2.858   3.214   3.749
  752SOL    HW2 3156   3.018   3.196   3.778
  753SOL     OW 3157   3.075   3.946   3.763
  753SOL    HW1 3158   3.139   3.991   3.701
  753SOL    HW2 3159   3.055   4.007   3.840
  754SOL     OW 3160   4.400   0.561   5.637
  754SOL    HW1 3161   4.455   0.581   5.718
  754SOL    HW2 3162   4.459   0.523   5.566
  755SOL     OW 3163   5.110   4.433   5.080
  755SOL    HW1 3164   5.029   4.383   5.111
  755SOL    HW2 3165   5.126   4.511   5.141
  756SOL     OW 3166   2.984   5.859   6.086
  756SOL    HW1 3167   2.935   5.922   6.026
  756SOL    HW2 3168   3.003   5.774   6.038
  757SOL     OW 3169   0.399   0.001   1.510
  757SOL    HW1 3170   0.408   0.069   1.437
  757SOL    HW2 3171   0.315   0.018   1.561
  758SOL     OW 3172   3.900   1.178   5.955
  758SOL    HW1 3173   3.831   1.249   5.939
  758SOL    HW2 3174   3.858   1.088   5.949
  759SOL     OW 3175   0.010   2.337   3.657
  759SOL    HW1 3176   6.988   2.389   3.586
  759SOL    HW2 3177   0.089   2.389   3.689
  760SOL     OW 3178   6.664   6.165   4.559
  760SOL    HW1 3179   6.689   6.195   4.651
  760SOL    HW2 3180   6.594   6.225   4.522
  761SOL     OW 3181   4.974   4.420   5.985
  761SOL    HW1 3182   5.027   4.461   5.911
  761SOL    HW2 3183   4.907   4.357   5.947
  762SOL     OW 3184   3.951   5.991   3.785
  762SOL    HW1 3185   3.875   5.974   3.848
  762SOL    HW2 3186   3.928   5.955   3.695
  763SOL     OW 3187   5.566   0.919   0.251
  763SOL    HW1 3188   5.553   0.985   0.176
  763SOL    HW2 3189   5.640   0.856   0.227
  764SOL     OW 3190   4.886   6.442   4.356
  764SOL    HW1 3191   4.828   6.478   4.283
  764SOL    HW2 3192   4.876   6.343   4.360
  765SOL     OW 3193   5.356   6.310   7.003
  765SOL    HW1 3194   5.406   6.289   6.918
  765SOL    HW2 3195   5.377   6.403   0.006
  766SOL     OW 3196   3.126   1.464   3.774
  766SOL    HW1 3197   3.218   1.446   3.808
  766SOL    HW2 3198   3.125   1.455   3.675
  767SOL     OW 3199   6.448   6.753   3.340
  767SOL    HW1 3200   6.353   6.739   3.366
  767SOL    HW2 3201   6.507   6.691   3.392
  768SOL     OW 3202   2.927   5.585   0.970
  768SOL    HW1 3203   2.852   5.521   0.983
  768SOL    HW2 3204   3.012   5.535   0.952
  769SOL     OW 3205   3.672   2.112   5.557
  769SOL    HW1 3206   3.738   2.134   5.629
  769SOL    HW2 3207   3.642   2.197   5.513
  770SOL     OW 3208   0.271   4.738   5.961
  770SOL    HW1 3209   0.328   4.733   5.879
  770SOL    HW2 3210   0.248   4.645   5.991
  771SOL     OW 3211   1.795   4.981   2.643
  771SOL    HW1 3212   1.776   4.903   2.583
  771SOL    HW2 3213   1.832   5.056   2.588
  772SOL     OW 3214   5.950   4.867   0.198
  772SOL    HW1 3215   5.877   4.935   0.189
  772SOL    HW2 3216   6.019   4.881   0.127
  773SOL     OW 3217   1.419   4.800   3.619
  773SOL    HW1 3218   1.341   4.772   3.563
  773SOL    HW2 3219   1.449   4.891   3.592
  774SOL     OW 3220   1.814   2.718   3.399
  774SOL    HW1 3221   1.721   2.688   3.419
  774SOL    HW2 3222   1.873   2.701   3.478
  775SOL     OW 3223   0.931   5.221   2.490
  775SOL    HW1 3224   0.942   5.211   2.392
  775SOL    HW2 3225   0.987   5.152   2.537
  776SOL     OW 3226   2.054   4.399   0.513
  776SOL    HW1 3227   2.012   4.335   0.449
  776SOL    HW2 3228   2.021   4.492   0.494
  777SOL     OW 3229   1.477   3.416   6.463
  777SOL    HW1 3230   1.408   3.383   6.527
  777SOL    HW2 3231   1.449   3.394   6.369
  778SOL     OW 3232   3.504   5.947   0.271
  778SOL    HW1 3233   3.561   5.864   0.268
  778SOL    HW2 3234   3.546   6.014   0.332
  779SOL     OW 3235   5.899   2.295   3.893
  779SOL    HW1 3236   5.989   2.274   3.930
  779SOL    HW2 3237   5.884   2.244   3.809
  780SOL     OW 3238   6.201   2.014   5.207
  780SOL    HW1 3239   6.228   1.920   5.186
  780SOL    HW2 3240   6.210   2.030   5.305
  781SOL     OW 3241   6.950   4.980   6.715
  781SOL    HW1 3242   6.957   5.076   6.688
  781SOL    HW2 3243   0.014   4.948   6.747
  782SOL     OW 3244   2.133   4.133   5.478
  782SOL    HW1 3245   2.220   4.139   5.429
  782SOL    HW2 3246   2.098   4.226   5.496
  783SOL     OW 3247   0.457   5.102   5.632
  783SOL    HW1 3248   0.516   5.093   5.713
  783SOL    HW2 3249   0.361   5.098   5.661
  784SOL     OW 3250   1.030   6.162   5.907
  784SOL    HW1 3251   1.021   6.101   5.986
  784SOL    HW2 3252   1.071   6.112   5.830
  785SOL     OW 3253   0.600   0.146   3.642
  785SOL    HW1 3254   0.553   0.099   3.717
  785SOL    HW2 3255   0.562   0.116   3.554
  786SOL     OW 3256   6.437   2.086   4.935
  786SOL    HW1 3257   6.391   2.148   4.999
  786SOL    HW2 3258   6.427   2.121   4.842
  787SOL     OW 3259   2.385   6.532   0.612
  787SOL    HW1 3260   2.482   6.554   0.622
  787SOL    HW2 3261   2.363   6.452   0.667
  788SOL     OW 3262   2.090   2.985   2.486
  788SOL    HW1 3263   2.141   3.034   2.557
  788SOL    HW2 3264   2.011   3.040   2.458
  789SOL     OW 3265   3.163   5.570   1.648
  789SOL    HW1 3266   3.100   5.647   1.660
  789SOL    HW2 3267   3.122   5.487   1.686
  790SOL     OW 3268   6.731   3.396   2.916
  790SOL    HW1 3269   6.701   3.379   3.009
  790SOL    HW2 3270   6.830   3.411   2.915
  791SOL     OW 3271   3.637   0.515   4.063
  791SOL    HW1 3272   3.624   0.594   4.003
  791SOL    HW2 3273   3.571   0.444   4.039
  792SOL     OW 3274   3.177   0.717   0.712
  792SOL    HW1 3275   3.125   0.679   0.788
  792SOL    HW2 3276   3.274   0.692   0.722
  793SOL     OW 3277   2.341   5.528   4.685
  793SOL    HW1 3278   2.352   5.468   4.605
  793SOL    HW2 3279   2.247   5.562   4.687
  794SOL     OW 3280   3.779   3.056   1.837
  794SOL    HW1 3281   3.754   3.143   1.879
  794SOL    HW2 3282   3.723   3.042   1.755
  795SOL     OW 3283   3.632   6.161   6.167
  795SOL    HW1 3284   3.694   6.127   6.097
  795SOL    HW2 3285   3.549   6.197   6.124
  796SOL     OW 3286   1.083   2.382   6.623
  796SOL    HW1 3287   1.049   2.466   6.580
  796SOL    HW2 3288   1.109   2.317   6.552
  797SOL     OW 3289   2.876   6.623   6.902
  797SOL    HW1 3290   2.912   6.568   6.978
  797SOL    HW2 3291   2.776   6.622   6.905
  798SOL     OW 3292   5.484   4.267   1.922
  798SOL    HW1 3293   5.400   4.291   1.971
  798SOL    HW2 3294   5.482   4.308   1.831
  799SOL     OW 3295   3.310   3.361   4.570
  799SOL    HW1 3296   3.390   3.414   4.595
  799SOL    HW2 3297   3.279   3.387   4.479
  800SOL     OW 3298   5.154   3.153   3.406
  800SOL    HW1 3299   5.192   3.213   3.477
  800SOL    HW2 3300   5.060   3.180   3.386
  801SOL     OW 3301   2.049   4.446   0.162
  801SOL    HW1 3302   2.091   4.369   0.210
  801SOL    HW2 3303   1.952   4.451   0.185
  802SOL     OW 3304   4.174   2.777   6.016
  802SOL    HW1 3305   4.124   2.815   5.938
  802SOL    HW2 3306   4.266   2.752   5.987
  803SOL     OW 3307   3.655   2.055   3.399
  803SOL    HW1 3308   3.666   2.113   3.319
  803SOL    HW2 3309   3.674   1.960   3.375
  804SOL     OW 3310   4.517   0.057   2.772
  804SOL    HW1 3311   4.461   0.079   2.692
  804SOL    HW2 3312   4.602   0.110   2.768
  805SOL     OW 3313   3.777   1.652   3.826
  805SOL    HW1 3314   3.726   1.697   3.899
  805SOL    HW2 3315   3.751   1.691   3.738
  806SOL     OW 3316   4.722   6.400   5.718
  806SOL    HW1 3317   4.626   6.402   5.744
  806SOL    HW2 3318   4.775   6.458   5.780
  807SOL     OW 3319   1.252   6.653   6.103
  807SOL    HW1 3320   1.227   6.694   6.190
  807SOL    HW2 3321   1.191   6.577   6.082
  808SOL     OW 3322   5.367   1.960   5.248
  808SOL    HW1 3323   5.306   1.913   5.312
  808SOL    HW2 3324   5.427   1.894   5.203
  809SOL     OW 3325   2.416   6.301   4.526
  809SOL    HW1 3326   2.335   6.359   4.512
  809SOL    HW2 3327   2.438   6.299   4.624
  810SOL     OW 3328   3.142   3.839   6.220
  810SOL    HW1 3329   3.208   3.788   6.275
  810SOL    HW2 3330   3.163   3.937   6.224
  811SOL     OW 3331   6.055   5.170   5.482
  811SOL    HW1 3332   6.071   5.181   5.384
  811SOL    HW2 3333   6.137   5.131   5.525
  812SOL     OW 3334   1.492   2.029   0.496
  812SOL    HW1 3335   1.564   2.097   0.507
  812SOL    HW2 3336   1.527   1.953   0.441
  813SOL     OW 3337   2.679   1.470   4.987
  813SOL    HW1 3338   2.639   1.503   5.072
  813SOL    HW2 3339   2.774   1.501   4.982
  814SOL     OW 3340   1.091   4.519   1.628
  814SOL    HW1 3341   1.175   4.502   1.576
  814SOL    HW2 3342   1.107   4.590   1.696
  815SOL     OW 3343   3.905   0.515   3.919
  815SOL    HW1 3344   3.875   0.518   3.823
  815SOL    HW2 3345   3.826   0.503   3.978
  816SOL     OW 3346   4.516   3.692   6.547
  816SOL    HW1 3347   4.612   3.677   6.523
  816SOL    HW2 3348   4.483   3.775   6.502
  817SOL     OW 3349   6.470   5.563   0.692
  817SOL    HW1 3350   6.460   5.463   0.699
  817SOL    HW2 3351   6.511   5.586   0.604
  818SOL     OW 3352   6.518   1.123   5.394
  818SOL    HW1 3353   6.419   1.128   5.387
  818SOL    HW2 3354   6.559   1.208   5.360
  819SOL     OW 3355   5.416   3.644   1.649
  819SOL    HW1 3356   5.365   3.668   1.732
  819SOL    HW2 3357   5.500   3.697   1.646
  820SOL     OW 3358   2.042   1.837   5.438
  820SOL    HW1 3359   2.008   1.863   5.348
  820SOL    HW2 3360   2.140   1.817   5.431
  821SOL     OW 3361   4.729   3.994   6.409
  821SOL    HW1 3362   4.773   3.911   6.374
  821SOL    HW2 3363   4.629   3.984   6.403
  822SOL     OW 3364   0.214   4.079   2.967
  822SOL    HW1 3365   0.159   4.141   2.911
  822SOL    HW2 3366   0.154   4.033   3.033
  823SOL     OW 3367   1.527   2.975   4.537
  823SOL    HW1 3368   1.519   2.943   4.631
  823SOL    HW2 3369   1.478   3.062   4.527
  824SOL     OW 3370   5.135   0.737   6.224
  824SOL    HW1 3371   5.138   0.834   6.199
  824SOL    HW2 3372   5.214   0.690   6.185
  825SOL     OW 3373   6.275   6.450   1.608
  825SOL    HW1 3374   6.362   6.444   1.559
  825SOL    HW2 3375   6.292   6.459   1.706
  826SOL     OW 3376   3.459   1.973   0.398
  826SOL    HW1 3377   3.502   2.021   0.474
  826SOL    HW2 3378   3.526   1.957   0.325
  827SOL     OW 3379   3.868   3.331   4.976
  827SOL    HW1 3380   3.918   3.277   5.043
  827SOL    HW2 3381   3.797   3.275   4.934
  828SOL     OW 3382   0.287   6.351   6.196
  828SOL    HW1 3383   0.205   6.376   6.249
  828SOL    HW2 3384   0.266   6.270   6.141
  829SOL     OW 3385   3.596   3.028   1.637
  829SOL    HW1 3386   3.668   3.013   1.569
  829SOL    HW2 3387   3.537   2.947   1.642
  830SOL     OW 3388   0.552   4.098   5.980
  830SOL    HW1 3389   0.614   4.172   6.007
  830SOL    HW2 3390   0.593   4.045   5.906
  831SOL     OW 3391   5.534   1.933   3.766
  831SOL    HW1 3392   5.569   1.864   3.830
  831SOL    HW2 3393   5.494   1.887   3.687
  832SOL     OW 3394   3.035   2.120   4.853
  832SOL    HW1 3395   3.093   2.187   4.899
  832SOL    HW2 3396   3.012   2.046   4.917
  833SOL     OW 3397   3.298   2.680   6.534
  833SOL    HW1 3398   3.372   2.613   6.531
  833SOL    HW2 3399   3.229   2.657   6.466
  834SOL     OW 3400   6.198   3.558   1.400
  834SOL    HW1 3401   6.219   3.496   1.324
  834SOL    HW2 3402   6.098   3.565   1.411
  835SOL     OW 3403   6.466   6.329   5.202
  835SOL    HW1 3404   6.428   6.237   5.206
  835SOL    HW2 3405   6.565   6.324   5.216
  836SOL     OW 3406   6.613   0.140   3.741
  836SOL    HW1 3407   6.650   0.124   3.649
  836SOL    HW2 3408   6.677   0.197   3.793
  837SOL     OW 3409   0.690   6.918   6.704
  837SOL    HW1 3410   0.636   6.861   6.642
  837SOL    HW2 3411   0.710   6.866   6.787
  838SOL     OW 3412   0.846   6.082   3.089
  838SOL    HW1 3413   0.824   6.103   2.993
  838SOL    HW2 3414   0.912   6.007   3.092
  839SOL     OW 3415   1.641   1.957   6.999
  839SOL    HW1 3416   1.624   1.903   6.916
  839SOL    HW2 3417   1.739   1.970   7.012
  840SOL     OW 3418   5.000   5.220   0.475
  840SOL    HW1 3419   5.082   5.173   0.442
  840SOL    HW2 3420   4.954   5.265   0.399
  841SOL     OW 3421   2.938   4.409   6.955
  841SOL    HW1 3422   3.009   4.474   6.926
  841SOL    HW2 3423   2.929   4.336   6.886
  842SOL     OW 3424   3.794   5.625   1.039
  842SOL    HW1 3425   3.815   5.663   1.129
  842SOL    HW2 3426   3.868   5.565   1.010
  843SOL     OW 3427   1.938   6.660   2.063
  843SOL    HW1 3428   1.944   6.749   2.017
  843SOL    HW2 3429   1.979   6.667   2.154
  844SOL     OW 3430   0.111   6.613   1.437
  844SOL    HW1 3431   0.176   6.610   1.361
  844SOL    HW2 3432   0.031   6.667   1.410
  845SOL     OW 3433   4.045   1.608   1.637
  845SOL    HW1 3434   4.142   1.620   1.617
  845SOL    HW2 3435   3.992   1.614   1.552
  846SOL     OW 3436   1.311   0.414   1.302
  846SOL    HW1 3437   1.399   0.368   1.309
  846SOL    HW2 3438   1.242   0.362   1.352
  847SOL     OW 3439   2.676   2.822   1.616
  847SOL    HW1 3440   2.721   2.760   1.679
  847SOL    HW2 3441   2.731   2.832   1.533
  848SOL     OW 3442   6.489   6.226   0.959
  848SOL    HW1 3443   6.529   6.196   0.873
  848SOL    HW2 3444   6.389   6.220   0.954
  849SOL     OW 3445   5.412   3.426   6.267
  849SOL    HW1 3446   5.469   3.346   6.252
  849SOL    HW2 3447   5.388   3.467   6.179
  850SOL     OW 3448   2.274   0.811   3.931
  850SOL    HW1 3449   2.214   0.889   3.949
  850SOL    HW2 3450   2.348   0.809   3.998
  851SOL     OW 3451   4.825   2.662   6.262
  851SOL    HW1 3452   4.870   2.598   6.325
  851SOL    HW2 3453   4.823   2.753   6.303
  852SOL     OW 3454   0.571   4.458   1.301
  852SOL    HW1 3455   0.549   4.421   1.392
  852SOL    HW2 3456   0.570   4.383   1.234
  853SOL     OW 3457   3.694   2.889   0.460
  853SOL    HW1 3458   3.612   2.900   0.515
  853SOL    HW2 3459   3.679   2.819   0.390
  854SOL     OW 3460   6.580   1.038   6.201
  854SOL    HW1 3461   6.661   1.018   6.146
  854SOL    HW2 3462   6.600   1.020   6.297
  855SOL     OW 3463   4.160   1.951   6.477
  855SOL    HW1 3464   4.065   1.925   6.491
  855SOL    HW2 3465   4.165   2.050   6.458
  856SOL     OW 3466   1.202   5.761   1.609
  856SOL    HW1 3467   1.168   5.681   1.659
  856SOL    HW2 3468   1.125   5.810   1.569
  857SOL     OW 3469   6.866   6.428   5.489
  857SOL    HW1 3470   6.772   6.452   5.513
  857SOL    HW2 3471   6.927   6.505   5.509
  858SOL     OW 3472   2.865   4.334   0.476
  858SOL    HW1 3473   2.767   4.316   0.490
  858SOL    HW2 3474   2.876   4.403   0.404
  859SOL     OW 3475   4.749   6.116   6.019
  859SOL    HW1 3476   4.682   6.116   6.093
  859SOL    HW2 3477   4.726   6.045   5.953
  860SOL     OW 3478   4.335   2.907   0.052
  860SOL    HW1 3479   4.334   2.985   0.114
  860SOL    HW2 3480   4.342   2.939   6.983
  861SOL     OW 3481   0.795   5.464   2.506
  861SOL    HW1 3482   0.843   5.546   2.537
  861SOL    HW2 3483   0.849   5.383   2.529
  862SOL     OW 3484   0.892   4.644   4.507
  862SOL    HW1 3485   0.860   4.710   4.575
  862SOL    HW2 3486   0.844   4.557   4.519
  863SOL     OW 3487   4.921   0.440   1.406
  863SOL    HW1 3488   4.881   0.452   1.315
  863SOL    HW2 3489   4.948   0.345   1.419
  864SOL     OW 3490   5.615   3.615   3.704
  864SOL    HW1 3491   5.534   3.659   3.741
  864SOL    HW2 3492   5.590   3.561   3.623
  865SOL     OW 3493   1.991   4.735   4.881
  865SOL    HW1 3494   1.994   4.648   4.831
  865SOL    HW2 3495   2.072   4.789   4.859
  866SOL     OW 3496   3.599   6.509   0.881
  866SOL    HW1 3497   3.568   6.603   0.894
  866SOL    HW2 3498   3.621   6.469   0.970
  867SOL     OW 3499   5.699   3.446   4.631
  867SOL    HW1 3500   5.776   3.500   4.597
  867SOL    HW2 3501   5.714   3.424   4.727
  868SOL     OW 3502   0.247   1.716   1.864
  868SOL    HW1 3503   0.257   1.717   1.765
  868SOL    HW2 3504   0.197   1.634   1.892
  869SOL     OW 3505   0.997   2.493   2.037
  869SOL    HW1 3506   1.050   2.501   1.953
  869SOL    HW2 3507   0.973   2.397   2.052
  870SOL     OW 3508   3.821   4.710   1.718
  870SOL    HW1 3509   3.732   4.674   1.746
  870SOL    HW2 3510   3.879   4.635   1.687
  871SOL     OW 3511   4.777   1.681   3.745
  871SOL    HW1 3512   4.843   1.741   3.701
  871SOL    HW2 3513   4.816   1.589   3.754
  872SOL     OW 3514   2.246   2.541   5.836
  872SOL    HW1 3515   2.181   2.470   5.861
  872SOL    HW2 3516   2.197   2.625   5.813
  873SOL     OW 3517   4.044   1.041   5.770
  873SOL    HW1 3518   4.032   1.123   5.827
  873SOL    HW2 3519   4.066   0.963   5.829
  874SOL     OW 3520   5.583   3.998   2.763
  874SOL    HW1 3521   5.516   4.018   2.834
  874SOL    HW2 3522   5.557   3.913   2.715
  875SOL     OW 3523   4.976   5.305   2.469
  875SOL    HW1 3524   4.966   5.393   2.516
  875SOL    HW2 3525   4.917   5.303   2.389
  876SOL     OW 3526   6.266   1.654   6.104
  876SOL    HW1 3527   6.288   1.726   6.170
  876SOL    HW2 3528   6.233   1.573   6.152
  877SOL     OW 3529   1.184   3.373   5.924
  877SOL    HW1 3530   1.190   3.396   5.827
  877SOL    HW2 3531   1.232   3.287   5.941
  878SOL     OW 3532   4.620   6.582   4.870
  878SOL    HW1 3533   4.530   6.550   4.838
  878SOL    HW2 3534   4.692   6.531   4.823
  879SOL     OW 3535   5.938   0.008   5.976
  879SOL    HW1 3536   5.989   0.060   6.044
  879SOL    HW2 3537   5.869   6.977   6.021
  880SOL     OW 3538   3.460   2.980   3.131
  880SOL    HW1 3539   3.500   3.072   3.129
  880SOL    HW2 3540   3.462   2.942   3.039
  881SOL     OW 3541   5.128   2.158   0.325
  881SOL    HW1 3542   5.096   2.065   0.340
  881SOL    HW2 3543   5.053   2.215   0.293
  882SOL     OW 3544   1.735   2.480   4.213
  882SOL    HW1 3545   1.664   2.419   4.246
  882SOL    HW2 3546   1.825   2.444   4.239
  883SOL     OW 3547   2.812   6.342   3.203
  883SOL    HW1 3548   2.804   6.429   3.252
  883SOL    HW2 3549   2.783   6.355   3.108
  884SOL     OW 3550   2.638   3.245   5.595
  884SOL    HW1 3551   2.615   3.328   5.646
  884SOL    HW2 3552   2.619   3.260   5.498
  885SOL     OW 3553   4.383   3.290   6.772
  885SOL    HW1 3554   4.313   3.259   6.836
  885SOL    HW2 3555   4.464   3.318   6.823
  886SOL     OW 3556   3.566   1.659   6.016
  886SOL    HW1 3557   3.580   1.741   5.961
  886SOL    HW2 3558   3.654   1.616   6.036
  887SOL     OW 3559   3.448   0.755   5.631
  887SOL    HW1 3560   3.475   0.685   5.564
  887SOL    HW2 3561   3.527   0.810   5.656
  888SOL     OW 3562   0.152   6.627   2.072
  888SOL    HW1 3563   0.216   6.608   1.998
  888SOL    HW2 3564   0.202   6.666   2.150
  889SOL     OW 3565   0.717   4.188   1.482
  889SOL    HW1 3566   0.780   4.122   1.522
  889SOL    HW2 3567   0.735   4.278   1.521
  890SOL     OW 3568   2.628   6.375   4.370
  890SOL    HW1 3569   2.543   6.338   4.407
  890SOL    HW2 3570   2.653   6.458   4.421
  891SOL     OW 3571   4.496   4.709   2.167
  891SOL    HW1 3572   4.566   4.779   2.157
  891SOL    HW2 3573   4.538   4.624   2.198
  892SOL     OW 3574   2.452   4.026   0.969
  892SOL    HW1 3575   2.506   4.014   1.052
  892SOL    HW2 3576   2.355   4.036   0.993
  893SOL     OW 3577   1.351   5.327   2.331
  893SOL    HW1 3578   1.351   5.249   2.393
  893SOL    HW2 3579   1.258   5.342   2.296
  894SOL     OW 3580   1.471   4.158   1.128
  894SOL    HW1 3581   1.554   4.109   1.155
  894SOL    HW2 3582   1.406   4.093   1.087
  895SOL     OW 3583   6.636   5.996   5.781
  895SOL    HW1 3584   6.657   6.054   5.702
  895SOL    HW2 3585   6.692   5.913   5.776
  896SOL     OW 3586   6.794   0.660   5.919
  896SOL    HW1 3587   6.700   0.693   5.917
  896SOL    HW2 3588   6.811   0.612   6.005
  897SOL     OW 3589   5.847   0.908   0.443
  897SOL    HW1 3590   5.852   0.966   0.524
  897SOL    HW2 3591   5.816   0.816   0.469
  898SOL     OW 3592   3.980   1.879   4.007
  898SOL    HW1 3593   4.042   1.823   3.951
  898SOL    HW2 3594   3.956   1.962   3.957
  899SOL     OW 3595   6.552   6.948   6.498
  899SOL    HW1 3596   6.621   6.914   6.434
  899SOL    HW2 3597   6.565   6.905   6.587
  900SOL     OW 3598   5.153   4.558   5.771
  900SOL    HW1 3599   5.148   4.482   5.706
  900SOL    HW2 3600   5.248   4.573   5.797
  901SOL     OW 3601   1.045   0.668   2.424
  901SOL    HW1 3602   1.103   0.622   2.357
  901SOL    HW2 3603   0.975   0.722   2.375
  902SOL     OW 3604   0.086   2.616   2.690
  902SOL    HW1 3605   0.059   2.657   2.603
  902SOL    HW2 3606   0.183   2.591   2.685
  903SOL     OW 3607   5.727   1.169   0.259
  903SOL    HW1 3608   5.818   1.195   0.225
  903SOL    HW2 3609   5.736   1.095   0.326
  904SOL     OW 3610   3.005   1.007   3.456
  904SOL    HW1 3611   2.937   0.938   3.482
  904SOL    HW2 3612   2.959   1.092   3.432
  905SOL     OW 3613   4.954   2.244   6.246
  905SOL    HW1 3614   5.027   2.209   6.304
  905SOL    HW2 3615   4.990   2.263   6.155
  906SOL     OW 3616   6.034   2.975   1.743
  906SOL    HW1 3617   6.110   3.035   1.770
  906SOL    HW2 3618   5.949   3.029   1.741
  907SOL     OW 3619   5.774   4.871   0.456
  907SOL    HW1 3620   5.857   4.911   0.496
  907SOL    HW2 3621   5.795   4.838   0.364
  908SOL     OW 3622   1.035   4.001   3.589
  908SOL    HW1 3623   1.045   4.004   3.688
  908SOL    HW2 3624   1.028   3.906   3.559
  909SOL     OW 3625   5.107   4.238   5.408
  909SOL    HW1 3626   5.178   4.284   5.462
  909SOL    HW2 3627   5.056   4.175   5.467
  910SOL     OW 3628   3.438   4.720   0.226
  910SOL    HW1 3629   3.404   4.730   0.320
  910SOL    HW2 3630   3.499   4.796   0.204
  911SOL     OW 3631   1.147   4.501   5.838
  911SOL    HW1 3632   1.157   4.587   5.888
  911SOL    HW2 3633   1.216   4.497   5.765
  912SOL     OW 3634   5.519   1.470   5.042
  912SOL    HW1 3635   5.514   1.375   5.074
  912SOL    HW2 3636   5.613   1.503   5.048
  913SOL     OW 3637   5.798   5.825   3.627
  913SOL    HW1 3638   5.823   5.748   3.685
  913SOL    HW2 3639   5.750   5.894   3.681
  914SOL     OW 3640   2.529   6.334   4.773
  914SOL    HW1 3641   2.490   6.377   4.854
  914SOL    HW2 3642   2.620   6.372   4.757
  915SOL     OW 3643   5.397   5.009   2.356
  915SOL    HW1 3644   5.318   5.048   2.402
  915SOL    HW2 3645   5.396   5.035   2.259
  916SOL     OW 3646   1.230   4.192   2.928
  916SOL    HW1 3647   1.283   4.120   2.973
  916SOL    HW2 3648   1.268   4.281   2.952
  917SOL     OW 3649   0.128   6.832   6.813
  917SOL    HW1 3650   0.076   6.865   6.734
  917SOL    HW2 3651   0.196   6.900   6.840
  918SOL     OW 3652   3.348   5.529   5.928
  918SOL    HW1 3653   3.326   5.599   5.860
  918SOL    HW2 3654   3.325   5.439   5.892
  919SOL     OW 3655   4.369   0.193   5.972
  919SOL    HW1 3656   4.333   0.189   5.878
  919SOL    HW2 3657   4.293   0.195   6.036
  920SOL     OW 3658   3.230   4.504   1.098
  920SOL    HW1 3659   3.317   4.480   1.054
  920SOL    HW2 3660   3.205   4.431   1.162
  921SOL     OW 3661   5.166   5.926   5.379
  921SOL    HW1 3662   5.255   5.921   5.335
  921SOL    HW2 3663   5.097   5.958   5.314
  922SOL     OW 3664   3.335   3.920   3.024
  922SOL    HW1 3665   3.342   3.890   2.929
  922SOL    HW2 3666   3.361   3.846   3.086
  923SOL     OW 3667   2.798   3.821   5.577
  923SOL    HW1 3668   2.729   3.893   5.569
  923SOL    HW2 3669   2.758   3.734   5.551
  924SOL     OW 3670   0.456   2.403   1.239
  924SOL    HW1 3671   0.527   2.342   1.274
  924SOL    HW2 3672   0.495   2.464   1.171
  925SOL     OW 3673   1.019   1.423   0.163
  925SOL    HW1 3674   1.002   1.512   0.120
  925SOL    HW2 3675   0.956   1.355   0.126
  926SOL     OW 3676   1.761   2.073   1.365
  926SOL    HW1 3677   1.758   2.160   1.317
  926SOL    HW2 3678   1.738   1.999   1.302
  927SOL     OW 3679   0.537   4.033   5.430
  927SOL    HW1 3680   0.582   3.945   5.443
  927SOL    HW2 3681   0.606   4.106   5.432
  928SOL     OW 3682   2.886   5.242   5.984
  928SOL    HW1 3683   2.975   5.216   6.022
  928SOL    HW2 3684   2.829   5.280   6.056
  929SOL     OW 3685   1.974   2.385   4.680
  929SOL    HW1 3686   1.956   2.354   4.774
  929SOL    HW2 3687   1.939   2.478   4.668
  930SOL     OW 3688   5.925   5.817   5.763
  930SOL    HW1 3689   6.010   5.787   5.807
  930SOL    HW2 3690   5.848   5.763   5.798
  931SOL     OW 3691   6.103   0.483   2.831
  931SOL    HW1 3692   6.151   0.412   2.883
  931SOL    HW2 3693   6.162   0.563   2.822
  932SOL     OW 3694   4.269   0.012   3.666
  932SOL    HW1 3695   4.361   7.002   3.682
  932SOL    HW2 3696   4.204   6.990   3.725
  933SOL     OW 3697   0.781   5.819   2.112
  933SOL    HW1 3698   0.718   5.749   2.080
  933SOL    HW2 3699   0.762   5.905   2.064
  934SOL     OW 3700   1.891   2.759   1.061
  934SOL    HW1 3701   1.890   2.852   1.097
  934SOL    HW2 3702   1.800   2.737   1.026
  935SOL     OW 3703   5.580   3.148   5.751
  935SOL    HW1 3704   5.593   3.154   5.851
  935SOL    HW2 3705   5.538   3.061   5.728
  936SOL     OW 3706   1.222   1.103   6.124
  936SOL    HW1 3707   1.262   1.021   6.083
  936SOL    HW2 3708   1.163   1.149   6.058
  937SOL     OW 3709   3.498   1.981   6.227
  937SOL    HW1 3710   3.534   1.888   6.221
  937SOL    HW2 3711   3.472   2.000   6.322
  938SOL     OW 3712   5.149   6.713   4.275
  938SOL    HW1 3713   5.197   6.648   4.334
  938SOL    HW2 3714   5.154   6.680   4.180
  939SOL     OW 3715   1.703   6.790   4.753
  939SOL    HW1 3716   1.700   6.695   4.784
  939SOL    HW2 3717   1.742   6.795   4.661
  940SOL     OW 3718   1.882   5.019   0.655
  940SOL    HW1 3719   1.906   4.936   0.604
  940SOL    HW2 3720   1.965   5.057   0.696
  941SOL     OW 3721   3.847   0.091   1.632
  941SOL    HW1 3722   3.831   0.020   1.563
  941SOL    HW2 3723   3.774   0.090   1.699
  942SOL     OW 3724   0.196   4.523   0.106
  942SOL    HW1 3725   0.257   4.517   0.185
  942SOL    HW2 3726   0.137   4.603   0.116
  943SOL     OW 3727   3.342   0.067   1.378
  943SOL    HW1 3728   3.382   0.053   1.468
  943SOL    HW2 3729   3.413   0.056   1.308
  944SOL     OW 3730   6.312   5.603   3.787
  944SOL    HW1 3731   6.272   5.683   3.743
  944SOL    HW2 3732   6.267   5.588   3.875
  945SOL     OW 3733   0.433   4.965   6.577
  945SOL    HW1 3734   0.347   4.916   6.567
  945SOL    HW2 3735   0.416   5.055   6.619
  946SOL     OW 3736   6.089   1.672   4.207
  946SOL    HW1 3737   6.141   1.588   4.188
  946SOL    HW2 3738   6.123   1.713   4.292
  947SOL     OW 3739   3.197   4.081   3.190
  947SOL    HW1 3740   3.116   4.025   3.208
  947SOL    HW2 3741   3.248   4.042   3.113
  948SOL     OW 3742   4.104   2.213   3.813
  948SOL    HW1 3743   4.187   2.268   3.801
  948SOL    HW2 3744   4.127   2.116   3.799
  949SOL     OW 3745   1.705   0.687   5.387
  949SOL    HW1 3746   1.623   0.649   5.345
  949SOL    HW2 3747   1.714   0.654   5.481
  950SOL     OW 3748   6.355   0.304   1.232
  950SOL    HW1 3749   6.392   0.301   1.325
  950SOL    HW2 3750   6.255   0.313   1.237
  951SOL     OW 3751   1.250   0.363   2.388
  951SOL    HW1 3752   1.236   0.418   2.306
  951SOL    HW2 3753   1.201   0.405   2.465
  952SOL     OW 3754   3.472   1.630   2.891
  952SOL    HW1 3755   3.474   1.548   2.834
  952SOL    HW2 3756   3.408   1.696   2.852
  953SOL     OW 3757   0.090   5.871   5.280
  953SOL    HW1 3758   0.093   5.872   5.380
  953SOL    HW2 3759   0.101   5.964   5.245
  954SOL     OW 3760   4.315   6.854   2.340
  954SOL    HW1 3761   4.314   6.848   2.240
  954SOL    HW2 3762   4.330   6.764   2.379
  955SOL     OW 3763   3.459   4.137   1.321
  955SOL    HW1 3764   3.552   4.165   1.294
  955SOL    HW2 3765   3.460   4.109   1.417
  956SOL     OW 3766   3.502   6.946   0.724
  956SOL    HW1 3767   3.585   6.895   0.746
  956SOL    HW2 3768   3.438   6.886   0.675
  957SOL     OW 3769   6.383   0.261   3.200
  957SOL    HW1 3770   6.352   0.275   3.106
  957SOL    HW2 3771   6.377   0.164   3.223
  958SOL     OW 3772   5.308   5.128   2.105
  958SOL    HW1 3773   5.264   5.053   2.055
  958SOL    HW2 3774   5.368   5.178   2.043
  959SOL     OW 3775   5.274   5.759   1.828
  959SOL    HW1 3776   5.337   5.835   1.813
  959SOL    HW2 3777   5.285   5.724   1.921
  960SOL     OW 3778   0.914   6.836   6.445
  960SOL    HW1 3779   0.833   6.782   6.425
  960SOL    HW2 3780   0.890   6.933   6.448
  961SOL     OW 3781   4.661   1.039   4.145
  961SOL    HW1 3782   4.642   1.132   4.176
  961SOL    HW2 3783   4.578   0.998   4.109
  962SOL     OW 3784   0.012   0.970   4.934
  962SOL    HW1 3785   0.091   1.022   4.965
  962SOL    HW2 3786   6.958   0.993   4.989
  963SOL     OW 3787   5.743   2.482   1.717
  963SOL    HW1 3788   5.838   2.510   1.728
  963SOL    HW2 3789   5.695   2.547   1.659
  964SOL     OW 3790   3.665   6.346   4.721
  964SOL    HW1 3791   3.644   6.299   4.807
  964SOL    HW2 3792   3.759   6.381   4.725
  965SOL     OW 3793   5.238   1.264   4.535
  965SOL    HW1 3794   5.191   1.273   4.623
  965SOL    HW2 3795   5.288   1.348   4.515
  966SOL     OW 3796   5.140   1.328   3.079
  966SOL    HW1 3797   5.061   1.366   3.127
  966SOL    HW2 3798   5.108   1.269   3.005
  967SOL     OW 3799   4.698   5.526   6.122
  967SOL    HW1 3800   4.664   5.620   6.118
  967SOL    HW2 3801   4.794   5.527   6.150
  968SOL     OW 3802   4.351   6.988   1.424
  968SOL    HW1 3803   4.408   6.911   1.394
  968SOL    HW2 3804   4.257   6.972   1.396
  969SOL     OW 3805   3.344   3.548   6.849
  969SOL    HW1 3806   3.415   3.495   6.803
  969SOL    HW2 3807   3.373   3.643   6.857
  970SOL     OW 3808   4.127   5.982   5.710
  970SOL    HW1 3809   4.099   5.903   5.656
  970SOL    HW2 3810   4.172   6.049   5.651
  971SOL     OW 3811   4.827   3.861   3.685
  971SOL    HW1 3812   4.846   3.767   3.658
  971SOL    HW2 3813   4.774   3.906   3.613
  972SOL     OW 3814   1.135   1.033   0.775
  972SOL    HW1 3815   1.162   1.113   0.722
  972SOL    HW2 3816   1.035   1.024   0.773
  973SOL     OW 3817   6.710   3.113   4.958
  973SOL    HW1 3818   6.794   3.167   4.968
  973SOL    HW2 3819   6.684   3.077   5.047
  974SOL     OW 3820   1.612   3.385   1.473
  974SOL    HW1 3821   1.617   3.294   1.514
  974SOL    HW2 3822   1.526   3.394   1.422
  975SOL     OW 3823   3.347   0.490   2.530
  975SOL    HW1 3824   3.349   0.537   2.442
  975SOL    HW2 3825   3.439   0.491   2.570
  976SOL     OW 3826   0.178   3.448   3.660
  976SOL    HW1 3827   0.271   3.420   3.637
  976SOL    HW2 3828   0.178   3.544   3.687
  977SOL     OW 3829   6.973   1.687   2.296
  977SOL    HW1 3830   7.009   1.711   2.386
  977SOL    HW2 3831   0.019   1.697   2.228
  978SOL     OW 3832   5.964   1.815   0.491
  978SOL    HW1 3833   6.028   1.758   0.543
  978SOL    HW2 3834   6.009   1.900   0.466
  979SOL     OW 3835   0.395   5.207   6.726
  979SOL    HW1 3836   0.484   5.230   6.764
  979SOL    HW2 3837   0.324   5.223   6.796
  980SOL     OW 3838   5.114   1.816   4.189
  980SOL    HW1 3839   5.069   1.747   4.131
  980SOL    HW2 3840   5.060   1.900   4.187
  981SOL     OW 3841   0.475   5.838   6.200
  981SOL    HW1 3842   0.380   5.807   6.188
  981SOL    HW2 3843   0.515   5.856   6.110
  982SOL     OW 3844   6.835   0.750   6.403
  982SOL    HW1 3845   6.860   0.740   6.499
  982SOL    HW2 3846   6.768   0.679   6.379
  983SOL     OW 3847   0.129   3.693   2.006
  983SOL    HW1 3848   0.127   3.720   1.910
  983SOL    HW2 3849   0.090   3.767   2.062
  984SOL     OW 3850   0.522   3.992   4.604
  984SOL    HW1 3851   0.491   4.083   4.576
  984SOL    HW2 3852   0.505   3.980   4.702
  985SOL     OW 3853   5.229   4.851   6.046
  985SOL    HW1 3854   5.301   4.904   6.093
  985SOL    HW2 3855   5.143   4.861   6.096
  986SOL     OW 3856   3.537   5.401   1.751
  986SOL    HW1 3857   3.508   5.485   1.799
  986SOL    HW2 3858   3.482   5.390   1.669
  987SOL     OW 3859   4.561   4.935   4.209
  987SOL    HW1 3860   4.588   4.861   4.148
  987SOL    HW2 3861   4.464   4.927   4.232
  988SOL     OW 3862   3.137   4.661   1.751
  988SOL    HW1 3863   3.212   4.602   1.722
  988SOL    HW2 3864   3.060   4.605   1.783
  989SOL     OW 3865   0.600   1.927   1.255
  989SOL    HW1 3866   0.651   1.846   1.284
  989SOL    HW2 3867   0.545   1.905   1.176
  990SOL     OW 3868   3.568   0.225   5.030
  990SOL    HW1 3869   3.484   0.206   4.980
  990SOL    HW2 3870   3.545   0.256   5.123
  991SOL     OW 3871   1.222   6.333   4.180
  991SOL    HW1 3872   1.286   6.341   4.257
  991SOL    HW2 3873   1.269   6.352   4.094
  992SOL     OW 3874   6.495   3.507   1.489
  992SOL    HW1 3875   6.422   3.532   1.424
  992SOL    HW2 3876   6.454   3.476   1.574
  993SOL     OW 3877   2.151   4.532   6.915
  993SOL    HW1 3878   2.117   4.515   7.007
  993SOL    HW2 3879   2.243   4.495   6.906
  994SOL     OW 3880   2.619   6.488   1.682
  994SOL    HW1 3881   2.523   6.476   1.705
  994SOL    HW2 3882   2.628   6.512   1.585
  995SOL     OW 3883   5.314   4.391   4.744
  995SOL    HW1 3884   5.360   4.350   4.824
  995SOL    HW2 3885   5.221   4.416   4.769
  996SOL     OW 3886   4.005   6.725   5.227
  996SOL    HW1 3887   3.906   6.714   5.231
  996SOL    HW2 3888   4.029   6.789   5.154
  997SOL     OW 3889   1.050   6.357   3.524
  997SOL    HW1 3890   0.997   6.336   3.442
  997SOL    HW2 3891   1.004   6.320   3.605
  998SOL     OW 3892   4.562   6.965   0.018
  998SOL    HW1 3893   4.496   6.963   0.093
  998SOL    HW2 3894   4.612   0.026   0.020
  999SOL     OW 3895   6.059   3.027   2.518
  999SOL    HW1 3896   6.155   3.020   2.490
  999SOL    HW2 3897   6.047   3.107   2.577
 1000SOL     OW 3898   6.265   1.535   2.418
 1000SOL    HW1 3899   6.361   1.511   2.431
 1000SOL    HW2 3900   6.249   1.559   2.323
 1001SOL     OW 3901   2.610   0.013   3.199
 1001SOL    HW1 3902   2.525   0.011   3.252
 1001SOL    HW2 3903   2.622   0.103   3.157
 1002SOL     OW 3904   4.646   2.455   0.205
 1002SOL    HW1 3905   4.664   2.367   0.161
 1002SOL    HW2 3906   4.591   2.512   0.144
 1003SOL     OW 3907   1.551   1.703   3.947
 1003SOL    HW1 3908   1.477   1.756   3.904
 1003SOL    HW2 3909   1.586   1.754   4.026
 1004SOL     OW 3910   4.122   1.748   4.966
 1004SOL    HW1 3911   4.179   1.698   4.900
 1004SOL    HW2 3912   4.122   1.698   5.054
 1005SOL     OW 3913   0.454   6.040   1.872
 1005SOL    HW1 3914   0.376   6.015   1.929
 1005SOL    HW2 3915   0.483   5.960   1.820
 1006SOL     OW 3916   1.882   3.847   2.295
 1006SOL    HW1 3917   1.853   3.884   2.208
 1006SOL    HW2 3918   1.982   3.848   2.300
 1007SOL     OW 3919   4.691   0.566   6.374
 1007SOL    HW1 3920   4.758   0.570   6.300
 1007SOL    HW2 3921   4.695   0.651   6.427
 1008SOL     OW 3922   0.390   4.212   4.437
 1008SOL    HW1 3923   0.458   4.267   4.388
 1008SOL    HW2 3924   0.361   4.136   4.379
 1009SOL     OW 3925   6.558   6.100   6.573
 1009SOL    HW1 3926   6.631   6.034   6.593
 1009SOL    HW2 3927   6.566   6.130   6.478
 1010SOL     OW 3928   3.029   3.813   0.268
 1010SOL    HW1 3929   2.974   3.828   0.186
 1010SOL    HW2 3930   3.075   3.725   0.262
 1011SOL     OW 3931   6.441   5.126   2.596
 1011SOL    HW1 3932   6.381   5.177   2.534
 1011SOL    HW2 3933   6.474   5.187   2.668
 1012SOL     OW 3934   5.252   6.220   3.095
 1012SOL    HW1 3935   5.343   6.188   3.122
 1012SOL    HW2 3936   5.258   6.314   3.062
 1013SOL     OW 3937   0.421   1.093   6.263
 1013SOL    HW1 3938   0.328   1.120   6.238
 1013SOL    HW2 3939   0.445   1.137   6.350
 1014SOL     OW 3940   0.732   4.428   4.548
 1014SOL    HW1 3941   0.753   4.380   4.633
 1014SOL    HW2 3942   0.637   4.461   4.552
 1015SOL     OW 3943   2.985   6.183   6.353
 1015SOL    HW1 3944   3.012   6.087   6.349
 1015SOL    HW2 3945   3.063   6.240   6.326
 1016SOL     OW 3946   6.929   4.222   0.465
 1016SOL    HW1 3947   6.963   4.288   0.398
 1016SOL    HW2 3948   6.847   4.177   0.430
 1017SOL     OW 3949   1.158   0.259   1.924
 1017SOL    HW1 3950   1.115   0.331   1.978
 1017SOL    HW2 3951   1.239   0.296   1.878
 1018SOL     OW 3952   5.747   5.766   6.601
 1018SOL    HW1 3953   5.677   5.695   6.586
 1018SOL    HW2 3954   5.752   5.825   6.521
 1019SOL     OW 3955   6.773   3.600   2.253
 1019SOL    HW1 3956   6.870   3.603   2.229
 1019SOL    HW2 3957   6.740   3.506   2.249
 1020SOL     OW 3958   5.396   1.525   1.324
 1020SOL    HW1 3959   5.364   1.466   1.251
 1020SOL    HW2 3960   5.370   1.486   1.413
 1021SOL     OW 3961   1.113   6.690   0.963
 1021SOL    HW1 3962   1.203   6.661   0.929
 1021SOL    HW2 3963   1.050   6.698   0.885
 1022SOL     OW 3964   2.037   5.149   5.943
 1022SOL    HW1 3965   2.032   5.123   6.040
 1022SOL    HW2 3966   2.132   5.153   5.914
 1023SOL     OW 3967   0.894   2.319   2.568
 1023SOL    HW1 3968   0.958   2.395   2.557
 1023SOL    HW2 3969   0.831   2.317   2.490
 1024SOL     OW 3970   1.823   2.995   4.760
 1024SOL    HW1 3971   1.812   2.952   4.671
 1024SOL    HW2 3972   1.778   2.939   4.830
 1025SOL     OW 3973   4.171   4.227   0.819
 1025SOL    HW1 3974   4.215   4.138   0.827
 1025SOL    HW2 3975   4.201   4.286   0.895
 1026SOL     OW 3976   3.376   2.852   1.652
 1026SOL    HW1 3977   3.405   2.760   1.624
 1026SOL    HW2 3978   3.307   2.844   1.723
 1027SOL     OW 3979   6.288   0.512   0.576
 1027SOL    HW1 3980   6.337   0.473   0.654
 1027SOL    HW2 3981   6.233   0.590   0.607
 1028SOL     OW 3982   0.845   5.472   3.967
 1028SOL    HW1 3983   0.887   5.389   3.932
 1028SOL    HW2 3984   0.913   5.546   3.965
 1029SOL     OW 3985   1.029   0.231   4.789
 1029SOL    HW1 3986   1.051   0.230   4.691
 1029SOL    HW2 3987   0.934   0.202   4.801
 1030SOL     OW 3988   4.657   3.280   0.512
 1030SOL    HW1 3989   4.578   3.219   0.517
 1030SOL    HW2 3990   4.715   3.265   0.592
 1031SOL     OW 3991   4.335   2.696   0.248
 1031SOL    HW1 3992   4.316   2.758   0.172
 1031SOL    HW2 3993   4.373   2.748   0.325
 1032SOL     OW 3994   1.161   1.275   1.299
 1032SOL    HW1 3995   1.149   1.306   1.393
 1032SOL    HW2 3996   1.258   1.256   1.283
 1033SOL     OW 3997   6.209   0.052   1.823
 1033SOL    HW1 3998   6.289   0.003   1.786
 1033SOL    HW2 3999   6.240   0.121   1.889
 1034SOL     OW 4000   2.065   0.526   4.883
 1034SOL    HW1 4001   2.033   0.613   4.919
 1034SOL    HW2 4002   2.162   0.533   4.860
 1035SOL     OW 4003   1.369   6.963   0.038
 1035SOL    HW1 4004   1.298   6.932   7.000
 1035SOL    HW2 4005   1.418   6.883   0.074
 1036SOL     OW 4006   5.392   1.551   2.518
 1036SOL    HW1 4007   5.313   1.569   2.459
 1036SOL    HW2 4008   5.389   1.613   2.597
 1037SOL     OW 4009   0.675   3.950   2.679
 1037SOL    HW1 4010   0.683   3.857   2.716
 1037SOL    HW2 4011   0.705   4.016   2.748
 1038SOL     OW 4012   1.394   6.232   6.733
 1038SOL    HW1 4013   1.482   6.267   6.700
 1038SOL    HW2 4014   1.375   6.144   6.690
 1039SOL     OW 4015   3.006   3.677   3.006
 1039SOL    HW1 4016   2.962   3.594   3.040
 1039SOL    HW2 4017   3.104   3.674   3.029
 1040SOL     OW 4018   4.244   1.379   3.111
 1040SOL    HW1 4019   4.319   1.364   3.048
 1040SOL    HW2 4020   4.269   1.345   3.202
 1041SOL     OW 4021   0.045   0.435   6.551
 1041SOL    HW1 4022   0.117   0.408   6.615
 1041SOL    HW2 4023   0.086   0.473   6.468
 1042SOL     OW 4024   5.566   3.060   4.109
 1042SOL    HW1 4025   5.537   3.156   4.115
 1042SOL    HW2 4026   5.523   3.008   4.182
 1043SOL     OW 4027   2.377   2.403   3.885
 1043SOL    HW1 4028   2.316   2.405   3.806
 1043SOL    HW2 4029   2.326   2.374   3.966
 1044SOL     OW 4030   5.029   4.210   2.215
 1044SOL    HW1 4031   4.959   4.165   2.161
 1044SOL    HW2 4032   5.012   4.194   2.312
 1045SOL     OW 4033   1.737   0.252   2.858
 1045SOL    HW1 4034   1.689   0.302   2.785
 1045SOL    HW2 4035   1.681   0.252   2.941
 1046SOL     OW 4036   3.908   2.574   0.558
 1046SOL    HW1 4037   3.943   2.660   0.596
 1046SOL    HW2 4038   3.895   2.507   0.631
 1047SOL     OW 4039   4.337   0.952   4.280
 1047SOL    HW1 4040   4.258   1.011   4.298
 1047SOL    HW2 4041   4.361   0.959   4.183
 1048SOL     OW 4042   6.707   0.370   1.952
 1048SOL    HW1 4043   6.696   0.414   1.863
 1048SOL    HW2 4044   6.784   0.306   1.948
 1049SOL     OW 4045   3.632   6.492   0.421
 1049SOL    HW1 4046   3.710   6.483   0.483
 1049SOL    HW2 4047   3.551   6.517   0.474
 1050SOL     OW 4048   2.724   1.698   4.377
 1050SOL    HW1 4049   2.745   1.609   4.418
 1050SOL    HW2 4050   2.705   1.687   4.279
 1051SOL     OW 4051   1.656   2.285   6.289
 1051SOL    HW1 4052   1.667   2.299   6.190
 1051SOL    HW2 4053   1.746   2.272   6.331
 1052SOL     OW 4054   4.484   2.374   6.111
 1052SOL    HW1 4055   4.479   2.292   6.167
 1052SOL    HW2 4056   4.392   2.399   6.080
 1053SOL     OW 4057   4.554   2.634   4.809
 1053SOL    HW1 4058   4.583   2.584   4.727
 1053SOL    HW2 4059   4.508   2.571   4.872
 1054SOL     OW 4060   5.221   5.179   6.906
 1054SOL    HW1 4061   5.295   5.242   6.929
 1054SOL    HW2 4062   5.144   5.194   6.968
 1055SOL     OW 4063   5.337   5.674   6.266
 1055SOL    HW1 4064   5.286   5.655   6.182
 1055SOL    HW2 4065   5.344   5.590   6.320
 1056SOL     OW 4066   3.620   3.175   0.086
 1056SOL    HW1 4067   3.661   3.265   0.094
 1056SOL    HW2 4068   3.522   3.180   0.104
 1057SOL     OW 4069   2.903   3.804   6.621
 1057SOL    HW1 4070   2.888   3.707   6.637
 1057SOL    HW2 4071   2.995   3.829   6.651
 1058SOL     OW 4072   3.078   1.695   1.970
 1058SOL    HW1 4073   3.053   1.626   2.038
 1058SOL    HW2 4074   3.012   1.770   1.973
 1059SOL     OW 4075   1.955   6.386   2.658
 1059SOL    HW1 4076   1.933   6.336   2.574
 1059SOL    HW2 4077   2.054   6.388   2.670
 1060SOL     OW 4078   6.479   6.568   5.055
 1060SOL    HW1 4079   6.485   6.649   5.113
 1060SOL    HW2 4080   6.501   6.486   5.108
 1061SOL     OW 4081   0.336   4.002   6.551
 1061SOL    HW1 4082   0.420   3.954   6.528
 1061SOL    HW2 4083   0.283   3.947   6.616
 1062SOL     OW 4084   4.000   4.796   5.619
 1062SOL    HW1 4085   4.004   4.894   5.599
 1062SOL    HW2 4086   4.085   4.753   5.589
 1063SOL     OW 4087   3.166   5.951   3.779
 1063SOL    HW1 4088   3.068   5.961   3.791
 1063SOL    HW2 4089   3.188   5.947   3.681
 1064SOL     OW 4090   1.029   4.017   0.316
 1064SOL    HW1 4091   1.076   4.046   0.399
 1064SOL    HW2 4092   1.060   4.073   0.239
 1065SOL     OW 4093   5.767   1.367   5.859
 1065SOL    HW1 4094   5.855   1.414   5.869
 1065SOL    HW2 4095   5.696   1.433   5.839
 1066SOL     OW 4096   4.515   6.184   1.149
 1066SOL    HW1 4097   4.610   6.191   1.179
 1066SOL    HW2 4098   4.464   6.125   1.212
 1067SOL     OW 4099   4.314   0.961   0.778
 1067SOL    HW1 4100   4.396   0.971   0.834
 1067SOL    HW2 4101   4.285   1.051   0.745
 1068SOL     OW 4102   6.203   2.299   3.197
 1068SOL    HW1 4103   6.212   2.232   3.123
 1068SOL    HW2 4104   6.286   2.355   3.202
 1069SOL     OW 4105   0.541   1.254   2.978
 1069SOL    HW1 4106   0.516   1.347   3.005
 1069SOL    HW2 4107   0.574   1.205   3.059
 1070SOL     OW 4108   1.653   0.264   1.997
 1070SOL    HW1 4109   1.566   0.302   1.966
 1070SOL    HW2 4110   1.674   0.299   2.088
 1071SOL     OW 4111   1.278   3.006   5.538
 1071SOL    HW1 4112   1.350   3.046   5.595
 1071SOL    HW2 4113   1.230   3.079   5.490
 1072SOL     OW 4114   2.106   1.258   1.727
 1072SOL    HW1 4115   2.205   1.271   1.730
 1072SOL    HW2 4116   2.071   1.294   1.640
 1073SOL     OW 4117   5.322   2.130   2.706
 1073SOL    HW1 4118   5.274   2.216   2.689
 1073SOL    HW2 4119   5.366   2.099   2.622
 1074SOL     OW 4120   3.307   6.374   1.552
 1074SOL    HW1 4121   3.272   6.462   1.585
 1074SOL    HW2 4122   3.347   6.386   1.461
 1075SOL     OW 4123   6.835   4.064   4.900
 1075SOL    HW1 4124   6.924   4.020   4.913
 1075SOL    HW2 4125   6.846   4.147   4.846
 1076SOL     OW 4126   2.640   4.505   5.640
 1076SOL    HW1 4127   2.657   4.408   5.657
 1076SOL    HW2 4128   2.673   4.529   5.549
 1077SOL     OW 4129   6.709   6.692   0.667
 1077SOL    HW1 4130   6.709   6.677   0.569
 1077SOL    HW2 4131   6.616   6.681   0.703
 1078SOL     OW 4132   5.702   6.773   3.734
 1078SOL    HW1 4133   5.708   6.864   3.692
 1078SOL    HW2 4134   5.727   6.780   3.831
 1079SOL     OW 4135   1.274   5.147   1.243
 1079SOL    HW1 4136   1.324   5.090   1.178
 1079SOL    HW2 4137   1.251   5.093   1.324
 1080SOL     OW 4138   5.172   6.361   0.405
 1080SOL    HW1 4139   5.157   6.419   0.485
 1080SOL    HW2 4140   5.139   6.408   0.323
 1081SOL     OW 4141   6.726   6.940   3.304
 1081SOL    HW1 4142   6.758   6.854   3.265
 1081SOL    HW2 4143   6.671   6.990   3.236
 1082SOL     OW 4144   4.721   6.726   0.187
 1082SOL    HW1 4145   4.631   6.719   0.145
 1082SOL    HW2 4146   4.746   6.822   0.198
 1083SOL     OW 4147   6.661   4.010   2.295
 1083SOL    HW1 4148   6.707   3.951   2.361
 1083SOL    HW2 4149   6.700   3.995   2.204
 1084SOL     OW 4150   4.221   6.958   5.530
 1084SOL    HW1 4151   4.293   7.014   5.489
 1084SOL    HW2 4152   4.132   6.983   5.492
 1085SOL     OW 4153   2.121   3.337   4.635
 1085SOL    HW1 4154   2.170   3.406   4.582
 1085SOL    HW2 4155   2.044   3.380   4.683
 1086SOL     OW 4156   4.884   4.420   2.618
 1086SOL    HW1 4157   4.850   4.357   2.688
 1086SOL    HW2 4158   4.948   4.485   2.660
 1087SOL     OW 4159   3.323   0.315   5.800
 1087SOL    HW1 4160   3.261   0.393   5.793
 1087SOL    HW2 4161   3.275   0.231   5.775
 1088SOL     OW 4162   5.864   5.486   4.250
 1088SOL    HW1 4163   5.866   5.479   4.150
 1088SOL    HW2 4164   5.950   5.526   4.283
 1089SOL     OW 4165   5.962   4.732   4.698
 1089SOL    HW1 4166   6.031   4.702   4.633
 1089SOL    HW2 4167   5.888   4.665   4.702
 1090SOL     OW 4168   6.034   2.886   4.895
 1090SOL    HW1 4169   6.026   2.801   4.947
 1090SOL    HW2 4170   5.978   2.957   4.938
 1091SOL     OW 4171   2.117   3.393   3.862
 1091SOL    HW1 4172   2.038   3.453   3.875
 1091SOL    HW2 4173   2.099   3.330   3.787
 1092SOL     OW 4174   0.681   6.032   0.400
 1092SOL    HW1 4175   0.599   6.027   0.344
 1092SOL    HW2 4176   0.761   6.038   0.340
 1093SOL     OW 4177   1.796   0.358   3.161
 1093SOL    HW1 4178   1.838   0.403   3.081
 1093SOL    HW2 4179   1.704   0.328   3.137
 1094SOL     OW 4180   0.419   0.589   3.586
 1094SOL    HW1 4181   0.435   0.515   3.522
 1094SOL    HW2 4182   0.360   0.658   3.543
 1095SOL     OW 4183   6.797   4.828   0.978
 1095SOL    HW1 4184   6.723   4.886   0.944
 1095SOL    HW2 4185   6.776   4.733   0.959
 1096SOL     OW 4186   1.945   6.118   2.040
 1096SOL    HW1 4187   2.035   6.160   2.030
 1096SOL    HW2 4188   1.953   6.034   2.094
 1097SOL     OW 4189   3.077   5.265   4.558
 1097SOL    HW1 4190   3.142   5.207   4.607
 1097SOL    HW2 4191   3.049   5.220   4.473
 1098SOL     OW 4192   0.253   4.003   0.363
 1098SOL    HW1 4193   0.185   4.008   0.436
 1098SOL    HW2 4194   0.286   4.095   0.342
 1099SOL     OW 4195   5.613   0.174   6.776
 1099SOL    HW1 4196   5.515   0.173   6.800
 1099SOL    HW2 4197   5.664   0.219   6.849
 1100SOL     OW 4198   5.117   0.741   3.973
 1100SOL    HW1 4199   5.054   0.798   3.921
 1100SOL    HW2 4200   5.109   0.762   4.070
 1101SOL     OW 4201   4.925   2.351   0.272
 1101SOL    HW1 4202   4.951   2.399   0.357
 1101SOL    HW2 4203   4.826   2.338   0.270
 1102SOL     OW 4204   4.297   1.359   4.634
 1102SOL    HW1 4205   4.335   1.390   4.721
 1102SOL    HW2 4206   4.297   1.259   4.630
 1103SOL     OW 4207   2.998   6.253   0.481
 1103SOL    HW1 4208   2.966   6.174   0.533
 1103SOL    HW2 4209   3.022   6.224   0.388
 1104SOL     OW 4210   6.178   1.012   4.021
 1104SOL    HW1 4211   6.225   0.972   3.942
 1104SOL    HW2 4212   6.232   0.994   4.104
 1105SOL     OW 4213   4.675   6.969   5.528
 1105SOL    HW1 4214   4.636   0.034   5.515
 1105SOL    HW2 4215   4.621   6.919   5.597
 1106SOL     OW 4216   6.626   1.423   2.195
 1106SOL    HW1 4217   6.608   1.329   2.223
 1106SOL    HW2 4218   6.725   1.438   2.187
 1107SOL     OW 4219   1.250   2.503   6.803
 1107SOL    HW1 4220   1.225   2.600   6.797
 1107SOL    HW2 4221   1.214   2.455   6.723
 1108SOL     OW 4222   2.514   1.604   2.201
 1108SOL    HW1 4223   2.470   1.682   2.246
 1108SOL    HW2 4224   2.443   1.546   2.160
 1109SOL     OW 4225   5.177   1.527   5.452
 1109SOL    HW1 4226   5.261   1.504   5.401
 1109SOL    HW2 4227   5.105   1.552   5.387
 1110SOL     OW 4228   1.710   0.006   1.915
 1110SOL    HW1 4229   1.645   6.981   1.859
 1110SOL    HW2 4230   1.661   0.068   1.976
 1111SOL     OW 4231   5.085   3.567   6.210
 1111SOL    HW1 4232   5.045   3.477   6.190
 1111SOL    HW2 4233   5.131   3.563   6.299
 1112SOL     OW 4234   5.877   0.558   2.684
 1112SOL    HW1 4235   5.930   0.572   2.600
 1112SOL    HW2 4236   5.939   0.545   2.761
 1113SOL     OW 4237   0.490   1.076   2.770
 1113SOL    HW1 4238   0.526   1.138   2.839
 1113SOL    HW2 4239   0.470   1.127   2.686
 1114SOL     OW 4240   3.728   3.413   4.377
 1114SOL    HW1 4241   3.735   3.323   4.420
 1114SOL    HW2 4242   3.818   3.455   4.372
 1115SOL     OW 4243   1.899   5.599   6.152
 1115SOL    HW1 4244   1.820   5.542   6.131
 1115SOL    HW2 4245   1.981   5.560   6.111
 1116SOL     OW 4246   4.407   6.936   0.234
 1116SOL    HW1 4247   4.407   6.851   0.287
 1116SOL    HW2 4248   4.313   6.959   0.208
 1117SOL     OW 4249   2.069   2.510   1.614
 1117SOL    HW1 4250   2.155   2.519   1.663
 1117SOL    HW2 4251   2.087   2.495   1.517
 1118SOL     OW 4252   4.412   6.604   0.273
 1118SOL    HW1 4253   4.320   6.621   0.309
 1118SOL    HW2 4254   4.406   6.545   0.193
 1119SOL     OW 4255   3.260   6.230   3.911
 1119SOL    HW1 4256   3.290   6.156   3.971
 1119SOL    HW2 4257   3.187   6.282   3.957
 1120SOL     OW 4258   0.547   3.249   1.851
 1120SOL    HW1 4259   0.557   3.267   1.753
 1120SOL    HW2 4260   0.638   3.239   1.892
 1121SOL     OW 4261   5.454   4.658   5.769
 1121SOL    HW1 4262   5.436   4.653   5.867
 1121SOL    HW2 4263   5.479   4.567   5.736
 1122SOL     OW 4264   6.128   0.892   2.444
 1122SOL    HW1 4265   6.173   0.812   2.485
 1122SOL    HW2 4266   6.054   0.922   2.503
 1123SOL     OW 4267   3.333   2.123   4.934
 1123SOL    HW1 4268   3.370   2.073   5.013
 1123SOL    HW2 4269   3.276   2.198   4.967
 1124SOL     OW 4270   2.770   2.276   3.705
 1124SOL    HW1 4271   2.864   2.258   3.677
 1124SOL    HW2 4272   2.768   2.358   3.762
 1125SOL     OW 4273   1.138   3.076   3.515
 1125SOL    HW1 4274   1.151   3.140   3.591
 1125SOL    HW2 4275   1.226   3.053   3.474
 1126SOL     OW 4276   4.995   4.766   3.522
 1126SOL    HW1 4277   5.082   4.772   3.473
 1126SOL    HW2 4278   5.012   4.748   3.618
 1127SOL     OW 4279   5.215   0.178   0.830
 1127SOL    HW1 4280   5.189   0.263   0.784
 1127SOL    HW2 4281   5.137   0.115   0.829
 1128SOL     OW 4282   2.912   1.753   4.616
 1128SOL    HW1 4283   2.901   1.656   4.596
 1128SOL    HW2 4284   3.009   1.774   4.628
 1129SOL     OW 4285   1.313   0.517   6.945
 1129SOL    HW1 4286   1.409   0.507   6.917
 1129SOL    HW2 4287   1.255   0.529   6.864
 1130SOL     OW 4288   2.505   5.557   0.769
 1130SOL    HW1 4289   2.540   5.507   0.848
 1130SOL    HW2 4290   2.570   5.549   0.693
 1131SOL     OW 4291   1.461   5.683   3.486
 1131SOL    HW1 4292   1.539   5.730   3.445
 1131SOL    HW2 4293   1.480   5.668   3.584
 1132SOL     OW 4294   1.184   2.515   3.397
 1132SOL    HW1 4295   1.245   2.592   3.385
 1132SOL    HW2 4296   1.234   2.429   3.383
 1133SOL     OW 4297   1.265   5.824   0.209
 1133SOL    HW1 4298   1.171   5.835   0.240
 1133SOL    HW2 4299   1.306   5.914   0.194
 1134SOL     OW 4300   3.988   5.425   0.842
 1134SOL    HW1 4301   4.039   5.453   0.924
 1134SOL    HW2 4302   4.010   5.487   0.767
 1135SOL     OW 4303   1.926   6.710   2.711
 1135SOL    HW1 4304   1.949   6.613   2.722
 1135SOL    HW2 4305   1.859   6.721   2.637
 1136SOL     OW 4306   1.872   5.040   3.199
 1136SOL    HW1 4307   1.798   5.085   3.150
 1136SOL    HW2 4308   1.893   5.091   3.283
 1137SOL     OW 4309   1.160   4.815   4.037
 1137SOL    HW1 4310   1.197   4.889   4.093
 1137SOL    HW2 4311   1.234   4.751   4.014
 1138SOL     OW 4312   2.735   4.710   4.375
 1138SOL    HW1 4313   2.655   4.682   4.320
 1138SOL    HW2 4314   2.816   4.662   4.341
 1139SOL     OW 4315   3.453   5.702   4.799
 1139SOL    HW1 4316   3.526   5.767   4.816
 1139SOL    HW2 4317   3.378   5.748   4.750
 1140SOL     OW 4318   1.841   3.019   1.099
 1140SOL    HW1 4319   1.797   3.073   1.028
 1140SOL    HW2 4320   1.780   3.011   1.178
 1141SOL     OW 4321   5.964   4.881   5.779
 1141SOL    HW1 4322   5.894   4.879   5.707
 1141SOL    HW2 4323   5.962   4.795   5.829
 1142SOL     OW 4324   0.572   6.257   3.126
 1142SOL    HW1 4325   0.564   6.281   3.223
 1142SOL    HW2 4326   0.668   6.253   3.100
 1143SOL     OW 4327   6.853   3.819   1.705
 1143SOL    HW1 4328   6.780   3.887   1.704
 1143SOL    HW2 4329   6.863   3.779   1.614
 1144SOL     OW 4330   5.309   4.665   0.071
 1144SOL    HW1 4331   5.266   4.662   7.006
 1144SOL    HW2 4332   5.354   4.578   0.090
 1145SOL     OW 4333   5.849   0.452   1.075
 1145SOL    HW1 4334   5.777   0.382   1.070
 1145SOL    HW2 4335   5.811   0.541   1.052
 1146SOL     OW 4336   1.539   0.332   1.376
 1146SOL    HW1 4337   1.562   0.423   1.343
 1146SOL    HW2 4338   1.621   0.286   1.410
 1147SOL     OW 4339   1.189   5.871   0.525
 1147SOL    HW1 4340   1.227   5.782   0.547
 1147SOL    HW2 4341   1.100   5.860   0.480
 1148SOL     OW 4342   3.731   5.616   1.750
 1148SOL    HW1 4343   3.829   5.598   1.739
 1148SOL    HW2 4344   3.681   5.531   1.734
 1149SOL     OW 4345   5.889   2.318   2.283
 1149SOL    HW1 4346   5.858   2.330   2.378
 1149SOL    HW2 4347   5.849   2.390   2.226
 1150SOL     OW 4348   1.067   1.498   0.931
 1150SOL    HW1 4349   0.994   1.525   0.868
 1150SOL    HW2 4350   1.104   1.579   0.977
 1151SOL     OW 4351   5.765   5.567   4.590
 1151SOL    HW1 4352   5.844   5.623   4.614
 1151SOL    HW2 4353   5.788   5.507   4.513
 1152SOL     OW 4354   3.211   6.495   5.595
 1152SOL    HW1 4355   3.180   6.501   5.689
 1152SOL    HW2 4356   3.289   6.431   5.590
 1153SOL     OW 4357   5.410   0.405   1.035
 1153SOL    HW1 4358   5.400   0.372   0.941
 1153SOL    HW2 4359   5.321   0.407   1.080
 1154SOL     OW 4360   1.624   2.913   0.901
 1154SOL    HW1 4361   1.569   2.922   0.984
 1154SOL    HW2 4362   1.716   2.948   0.918
 1155SOL     OW 4363   4.035   5.587   3.636
 1155SOL    HW1 4364   4.118   5.541   3.667
 1155SOL    HW2 4365   4.040   5.600   3.537
 1156SOL     OW 4366   3.127   0.287   1.339
 1156SOL    HW1 4367   3.183   0.292   1.421
 1156SOL    HW2 4368   3.182   0.309   1.259
 1157SOL     OW 4369   2.205   2.163   0.710
 1157SOL    HW1 4370   2.295   2.206   0.710
 1157SOL    HW2 4371   2.200   2.096   0.783
 1158SOL     OW 4372   5.455   4.977   4.005
 1158SOL    HW1 4373   5.395   4.927   4.067
 1158SOL    HW2 4374   5.541   4.927   3.994
 1159SOL     OW 4375   5.399   4.669   0.447
 1159SOL    HW1 4376   5.321   4.700   0.392
 1159SOL    HW2 4377   5.384   4.694   0.542
 1160SOL     OW 4378   4.386   2.168   0.920
 1160SOL    HW1 4379   4.311   2.108   0.894
 1160SOL    HW2 4380   4.361   2.217   1.004
 1161SOL     OW 4381   0.601   4.264   1.062
 1161SOL    HW1 4382   0.527   4.310   1.013
 1161SOL    HW2 4383   0.614   4.172   1.024
 1162SOL     OW 4384   2.184   3.122   4.951
 1162SOL    HW1 4385   2.161   3.127   4.854
 1162SOL    HW2 4386   2.272   3.077   4.962
 1163SOL     OW 4387   4.597   1.642   2.358
 1163SOL    HW1 4388   4.665   1.683   2.298
 1163SOL    HW2 4389   4.607   1.542   2.358
 1164SOL     OW 4390   3.903   2.163   6.275
 1164SOL    HW1 4391   3.920   2.125   6.365
 1164SOL    HW2 4392   3.968   2.237   6.256
 1165SOL     OW 4393   4.146   0.403   2.620
 1165SOL    HW1 4394   4.129   0.476   2.686
 1165SOL    HW2 4395   4.244   0.383   2.617
 1166SOL     OW 4396   4.267   3.832   0.151
 1166SOL    HW1 4397   4.294   3.851   0.246
 1166SOL    HW2 4398   4.293   3.909   0.094
 1167SOL     OW 4399   5.107   3.842   3.758
 1167SOL    HW1 4400   5.167   3.873   3.684
 1167SOL    HW2 4401   5.012   3.844   3.727
 1168SOL     OW 4402   6.986   0.021   0.249
 1168SOL    HW1 4403   6.898   0.058   0.218
 1168SOL    HW2 4404   6.996   0.039   0.347
 1169SOL     OW 4405   5.151   1.623   5.699
 1169SOL    HW1 4406   5.189   1.716   5.705
 1169SOL    HW2 4407   5.145   1.596   5.603
 1170SOL     OW 4408   5.181   4.281   2.966
 1170SOL    HW1 4409   5.243   4.335   2.909
 1170SOL    HW2 4410   5.162   4.330   3.051
 1171SOL     OW 4411   0.067   6.459   0.694
 1171SOL    HW1 4412   0.046   6.555   0.677
 1171SOL    HW2 4413   0.167   6.447   0.696
 1172SOL     OW 4414   5.479   2.567   6.746
 1172SOL    HW1 4415   5.522   2.547   6.834
 1172SOL    HW2 4416   5.445   2.661   6.746
 1173SOL     OW 4417   4.766   2.903   1.686
 1173SOL    HW1 4418   4.836   2.891   1.757
 1173SOL    HW2 4419   4.689   2.955   1.724
 1174SOL     OW 4420   2.758   5.351   6.971
 1174SOL    HW1 4421   2.769   5.380   6.876
 1174SOL    HW2 4422   2.800   5.419   0.006
 1175SOL     OW 4423   3.125   3.748   3.986
 1175SOL    HW1 4424   3.168   3.804   3.916
 1175SOL    HW2 4425   3.152   3.653   3.974
 1176SOL     OW 4426   5.656   3.483   0.063
 1176SOL    HW1 4427   5.738   3.425   0.072
 1176SOL    HW2 4428   5.597   3.468   0.143
 1177SOL     OW 4429   1.250   0.711   4.459
 1177SOL    HW1 4430   1.349   0.714   4.441
 1177SOL    HW2 4431   1.200   0.720   4.373
 1178SOL     OW 4432   4.070   6.592   6.848
 1178SOL    HW1 4433   4.051   6.542   6.764
 1178SOL    HW2 4434   4.139   6.662   6.831
 1179SOL     OW 4435   0.427   5.998   1.266
 1179SOL    HW1 4436   0.466   5.912   1.298
 1179SOL    HW2 4437   0.497   6.069   1.269
 1180SOL     OW 4438   3.779   6.552   0.669
 1180SOL    HW1 4439   3.714   6.541   0.744
 1180SOL    HW2 4440   3.841   6.474   0.666
 1181SOL     OW 4441   5.998   6.529   6.013
 1181SOL    HW1 4442   5.917   6.487   6.054
 1181SOL    HW2 4443   6.075   6.465   6.021
 1182SOL     OW 4444   5.169   3.772   4.326
 1182SOL    HW1 4445   5.156   3.800   4.231
 1182SOL    HW2 4446   5.080   3.763   4.371
 1183SOL     OW 4447   1.407   4.062   0.219
 1183SOL    HW1 4448   1.398   4.148   0.168
 1183SOL    HW2 4449   1.421   4.083   0.316
 1184SOL     OW 4450   0.509   1.898   4.923
 1184SOL    HW1 4451   0.499   1.837   5.002
 1184SOL    HW2 4452   0.431   1.960   4.919
 1185SOL     OW 4453   6.960   1.872   6.580
 1185SOL    HW1 4454   6.920   1.922   6.503
 1185SOL    HW2 4455   0.029   1.848   6.558
 1186SOL     OW 4456   4.770   6.318   3.705
 1186SOL    HW1 4457   4.720   6.380   3.765
 1186SOL    HW2 4458   4.846   6.367   3.662
 1187SOL     OW 4459   6.074   1.975   6.864
 1187SOL    HW1 4460   5.996   1.975   6.802
 1187SOL    HW2 4461   6.072   2.058   6.919
 1188SOL     OW 4462   4.393   2.052   6.108
 1188SOL    HW1 4463   4.472   2.031   6.051
 1188SOL    HW2 4464   4.415   2.035   6.204
 1189SOL     OW 4465   6.179   3.778   3.720
 1189SOL    HW1 4466   6.151   3.874   3.718
 1189SOL    HW2 4467   6.188   3.748   3.815
 1190SOL     OW 4468   2.321   1.064   3.737
 1190SOL    HW1 4469   2.252   1.065   3.809
 1190SOL    HW2 4470   2.276   1.070   3.648
 1191SOL     OW 4471   3.313   0.209   2.995
 1191SOL    HW1 4472   3.257   0.164   2.925
 1191SOL    HW2 4473   3.400   0.162   3.004
 1192SOL     OW 4474   5.838   5.415   3.980
 1192SOL    HW1 4475   5.912   5.405   3.914
 1192SOL    HW2 4476   5.800   5.325   4.002
 1193SOL     OW 4477   6.610   6.075   4.194
 1193SOL    HW1 4478   6.538   6.090   4.126
 1193SOL    HW2 4479   6.629   6.161   4.243
 1194SOL     OW 4480   3.742   0.231   1.163
 1194SOL    HW1 4481   3.730   0.242   1.262
 1194SOL    HW2 4482   3.755   0.321   1.121
 1195SOL     OW 4483   5.203   3.314   3.109
 1195SOL    HW1 4484   5.129   3.274   3.054
 1195SOL    HW2 4485   5.251   3.384   3.056
 1196SOL     OW 4486   0.079   6.283   5.377
 1196SOL    HW1 4487   0.097   6.380   5.395
 1196SOL    HW2 4488   0.054   6.237   5.462
 1197SOL     OW 4489   2.855   6.575   6.390
 1197SOL    HW1 4490   2.938   6.622   6.421
 1197SOL    HW2 4491   2.810   6.532   6.468
 1198SOL     OW 4492   1.280   2.644   0.528
 1198SOL    HW1 4493   1.271   2.669   0.432
 1198SOL    HW2 4494   1.190   2.641   0.571
 1199SOL     OW 4495   5.597   4.386   3.016
 1199SOL    HW1 4496   5.527   4.452   3.042
 1199SOL    HW2 4497   5.583   4.358   2.921
 1200SOL     OW 4498   3.112   4.030   2.047
 1200SOL    HW1 4499   3.051   4.032   2.126
 1200SOL    HW2 4500   3.058   4.028   1.963
 1201SOL     OW 4501   1.391   2.453   5.083
 1201SOL    HW1 4502   1.472   2.512   5.088
 1201SOL    HW2 4503   1.392   2.403   4.996
 1202SOL     OW 4504   0.795   6.420   4.936
 1202SOL    HW1 4505   0.854   6.493   4.903
 1202SOL    HW2 4506   0.845   6.333   4.934
 1203SOL     OW 4507   4.461   5.447   5.204
 1203SOL    HW1 4508   4.452   5.398   5.117
 1203SOL    HW2 4509   4.430   5.541   5.193
 1204SOL     OW 4510   2.122   0.604   2.557
 1204SOL    HW1 4511   2.194   0.556   2.606
 1204SOL    HW2 4512   2.034   0.590   2.603
 1205SOL     OW 4513   6.073   3.455   2.293
 1205SOL    HW1 4514   6.006   3.471   2.365
 1205SOL    HW2 4515   6.028   3.414   2.214
 1206SOL     OW 4516   3.312   3.048   3.918
 1206SOL    HW1 4517   3.339   3.140   3.945
 1206SOL    HW2 4518   3.387   2.984   3.938
 1207SOL     OW 4519   1.130   5.960   3.462
 1207SOL    HW1 4520   1.156   5.979   3.556
 1207SOL    HW2 4521   1.180   6.021   3.400
 1208SOL     OW 4522   3.431   2.365   6.678
 1208SOL    HW1 4523   3.489   2.390   6.601
 1208SOL    HW2 4524   3.464   2.280   6.719
 1209SOL     OW 4525   4.308   6.685   5.264
 1209SOL    HW1 4526   4.367   6.766   5.257
 1209SOL    HW2 4527   4.220   6.710   5.304
 1210SOL     OW 4528   2.606   1.185   3.519
 1210SOL    HW1 4529   2.550   1.264   3.545
 1210SOL    HW2 4530   2.679   1.173   3.586
 1211SOL     OW 4531   0.903   2.846   0.834
 1211SOL    HW1 4532   0.983   2.869   0.778
 1211SOL    HW2 4533   0.826   2.905   0.807
 1212SOL     OW 4534   0.669   6.709   0.407
 1212SOL    HW1 4535   0.630   6.619   0.383
 1212SOL    HW2 4536   0.740   6.733   0.341
 1213SOL     OW 4537   6.350   2.713   2.666
 1213SOL    HW1 4538   6.330   2.659   2.584
 1213SOL    HW2 4539   6.437   2.760   2.655
 1214SOL     OW 4540   1.168   2.617   2.240
 1214SOL    HW1 4541   1.138   2.576   2.154
 1214SOL    HW2 4542   1.093   2.671   2.279
 1215SOL     OW 4543   2.480   5.509   2.827
 1215SOL    HW1 4544   2.410   5.454   2.873
 1215SOL    HW2 4545   2.435   5.577   2.768
 1216SOL     OW 4546   4.013   0.024   1.931
 1216SOL    HW1 4547   4.006   0.124   1.932
 1216SOL    HW2 4548   4.062   7.021   1.849
 1217SOL     OW 4549   2.582   4.237   0.076
 1217SOL    HW1 4550   2.504   4.257   0.136
 1217SOL    HW2 4551   2.647   4.313   0.079
 1218SOL     OW 4552   2.468   4.838   4.060
 1218SOL    HW1 4553   2.491   4.905   3.989
 1218SOL    HW2 4554   2.435   4.754   4.017
 1219SOL     OW 4555   3.181   5.301   1.782
 1219SOL    HW1 4556   3.102   5.241   1.769
 1219SOL    HW2 4557   3.254   5.251   1.828
 1220SOL     OW 4558   0.946   4.806   2.068
 1220SOL    HW1 4559   1.003   4.802   2.150
 1220SOL    HW2 4560   0.859   4.850   2.090
 1221SOL     OW 4561   4.489   4.133   6.683
 1221SOL    HW1 4562   4.558   4.069   6.717
 1221SOL    HW2 4563   4.534   4.217   6.652
 1222SOL     OW 4564   6.588   1.597   6.461
 1222SOL    HW1 4565   6.569   1.546   6.378
 1222SOL    HW2 4566   6.568   1.540   6.541
 1223SOL     OW 4567   4.249   5.706   1.094
 1223SOL    HW1 4568   4.193   5.624   1.081
 1223SOL    HW2 4569   4.274   5.743   1.004
 1224SOL     OW 4570   2.965   1.162   1.595
 1224SOL    HW1 4571   2.944   1.125   1.686
 1224SOL    HW2 4572   3.042   1.112   1.556
 1225SOL     OW 4573   3.743   4.471   5.891
 1225SOL    HW1 4574   3.651   4.432   5.891
 1225SOL    HW2 4575   3.760   4.519   5.805
 1226SOL     OW 4576   2.107   5.464   0.947
 1226SOL    HW1 4577   2.032   5.409   0.909
 1226SOL    HW2 4578   2.150   5.415   1.022
 1227SOL     OW 4579   1.313   4.470   5.622
 1227SOL    HW1 4580   1.320   4.372   5.642
 1227SOL    HW2 4581   1.401   4.503   5.589
 1228SOL     OW 4582   3.441   2.473   0.781
 1228SOL    HW1 4583   3.487   2.427   0.705
 1228SOL    HW2 4584   3.352   2.429   0.798
 1229SOL     OW 4585   2.684   4.025   6.941
 1229SOL    HW1 4586   2.640   4.085   7.008
 1229SOL    HW2 4587   2.671   4.062   6.849
 1230SOL     OW 4588   4.185   0.213   3.465
 1230SOL    HW1 4589   4.217   0.161   3.544
 1230SOL    HW2 4590   4.263   0.241   3.409
 1231SOL     OW 4591   0.661   3.286   3.343
 1231SOL    HW1 4592   0.641   3.281   3.245
 1231SOL    HW2 4593   0.747   3.239   3.362
 1232SOL     OW 4594   2.045   1.989   2.162
 1232SOL    HW1 4595   2.011   1.896   2.173
 1232SOL    HW2 4596   1.991   2.051   2.218
 1233SOL     OW 4597   0.848   2.440   4.544
 1233SOL    HW1 4598   0.843   2.431   4.644
 1233SOL    HW2 4599   0.942   2.426   4.514
 1234SOL     OW 4600   6.682   4.426   4.357
 1234SOL    HW1 4601   6.669   4.453   4.453
 1234SOL    HW2 4602   6.727   4.500   4.308
 1235SOL     OW 4603   0.208   4.980   3.400
 1235SOL    HW1 4604   0.286   5.031   3.364
 1235SOL    HW2 4605   0.188   4.903   3.340
 1236SOL     OW 4606   5.773   0.565   6.850
 1236SOL    HW1 4607   5.780   0.606   6.941
 1236SOL    HW2 4608   5.856   0.513   6.830
 1237SOL     OW 4609   2.342   4.043   6.959
 1237SOL    HW1 4610   2.380   4.130   6.926
 1237SOL    HW2 4611   2.253   4.059   7.000
 1238SOL     OW 4612   2.025   1.142   1.341
 1238SOL    HW1 4613   2.037   1.231   1.384
 1238SOL    HW2 4614   2.021   1.071   1.412
 1239SOL     OW 4615   1.087   0.565   5.118
 1239SOL    HW1 4616   1.006   0.581   5.173
 1239SOL    HW2 4617   1.168   0.596   5.169
 1240SOL     OW 4618   6.205   5.442   0.902
 1240SOL    HW1 4619   6.123   5.475   0.856
 1240SOL    HW2 4620   6.260   5.521   0.931
 1241SOL     OW 4621   0.849   1.905   4.353
 1241SOL    HW1 4622   0.761   1.863   4.328
 1241SOL    HW2 4623   0.834   1.973   4.425
 1242SOL     OW 4624   1.949   2.170   6.629
 1242SOL    HW1 4625   2.001   2.253   6.648
 1242SOL    HW2 4626   2.009   2.091   6.638
 1243SOL     OW 4627   3.223   5.099   5.419
 1243SOL    HW1 4628   3.140   5.046   5.402
 1243SOL    HW2 4629   3.202   5.196   5.419
 1244SOL     OW 4630   1.178   1.381   3.101
 1244SOL    HW1 4631   1.267   1.335   3.101
 1244SOL    HW2 4632   1.190   1.477   3.075
 1245SOL     OW 4633   3.667   2.989   4.875
 1245SOL    HW1 4634   3.580   2.944   4.854
 1245SOL    HW2 4635   3.650   3.085   4.898
 1246SOL     OW 4636   1.306   6.560   1.698
 1246SOL    HW1 4637   1.362   6.560   1.615
 1246SOL    HW2 4638   1.318   6.473   1.746
 1247SOL     OW 4639   0.578   6.424   6.702
 1247SOL    HW1 4640   0.480   6.416   6.714
 1247SOL    HW2 4641   0.605   6.388   6.613
 1248SOL     OW 4642   2.184   6.967   4.248
 1248SOL    HW1 4643   2.274   6.925   4.261
 1248SOL    HW2 4644   2.189   0.011   4.177
 1249SOL     OW 4645   6.461   2.883   3.412
 1249SOL    HW1 4646   6.372   2.840   3.426
 1249SOL    HW2 4647   6.463   2.927   3.322
 1250SOL     OW 4648   6.528   3.578   4.843
 1250SOL    HW1 4649   6.575   3.654   4.888
 1250SOL    HW2 4650   6.594   3.505   4.823
 1251SOL     OW 4651   2.945   0.794   0.050
 1251SOL    HW1 4652   3.009   0.823   7.003
 1251SOL    HW2 4653   2.911   0.874   0.098
 1252SOL     OW 4654   3.896   3.971   0.083
 1252SOL    HW1 4655   3.995   3.968   0.091
 1252SOL    HW2 4656   3.857   4.024   0.159
 1253SOL     OW 4657   5.123   1.861   3.273
 1253SOL    HW1 4658   5.210   1.815   3.255
 1253SOL    HW2 4659   5.078   1.882   3.187
 1254SOL     OW 4660   5.580   0.763   3.608
 1254SOL    HW1 4661   5.635   0.773   3.525
 1254SOL    HW2 4662   5.529   0.677   3.604
 1255SOL     OW 4663   5.462   0.516   1.373
 1255SOL    HW1 4664   5.452   0.556   1.282
 1255SOL    HW2 4665   5.389   0.550   1.432
 1256SOL     OW 4666   5.572   3.147   3.456
 1256SOL    HW1 4667   5.659   3.169   3.500
 1256SOL    HW2 4668   5.588   3.083   3.380
 1257SOL     OW 4669   6.001   1.599   4.535
 1257SOL    HW1 4670   6.005   1.622   4.633
 1257SOL    HW2 4671   5.979   1.503   4.524
 1258SOL     OW 4672   0.206   5.029   3.858
 1258SOL    HW1 4673   0.119   5.043   3.905
 1258SOL    HW2 4674   0.260   5.112   3.861
 1259SOL     OW 4675   5.678   2.627   5.000
 1259SOL    HW1 4676   5.675   2.586   5.091
 1259SOL    HW2 4677   5.752   2.585   4.948
 1260SOL     OW 4678   0.853   1.365   4.581
 1260SOL    HW1 4679   0.931   1.353   4.642
 1260SOL    HW2 4680   0.811   1.454   4.597
 1261SOL     OW 4681   6.605   2.857   1.320
 1261SOL    HW1 4682   6.628   2.948   1.352
 1261SOL    HW2 4683   6.543   2.813   1.384
 1262SOL     OW 4684   5.180   5.702   1.589
 1262SOL    HW1 4685   5.225   5.692   1.678
 1262SOL    HW2 4686   5.246   5.736   1.522
 1263SOL     OW 4687   1.280   2.292   2.863
 1263SOL    HW1 4688   1.256   2.209   2.812
 1263SOL    HW2 4689   1.375   2.317   2.842
 1264SOL     OW 4690   1.620   2.947   5.499
 1264SOL    HW1 4691   1.608   2.885   5.576
 1264SOL    HW2 4692   1.668   2.899   5.424
 1265SOL     OW 4693   6.501   1.303   6.310
 1265SOL    HW1 4694   6.561   1.237   6.266
 1265SOL    HW2 4695   6.448   1.351   6.240
 1266SOL     OW 4696   3.847   2.064   6.012
 1266SOL    HW1 4697   3.815   2.135   6.074
 1266SOL    HW2 4698   3.905   1.999   6.061
 1267SOL     OW 4699   3.101   1.231   2.003
 1267SOL    HW1 4700   3.149   1.167   2.063
 1267SOL    HW2 4701   3.039   1.180   1.943
 1268SOL     OW 4702   4.192   2.118   5.276
 1268SOL    HW1 4703   4.244   2.070   5.347
 1268SOL    HW2 4704   4.209   2.074   5.188
 1269SOL     OW 4705   5.624   2.116   3.569
 1269SOL    HW1 4706   5.712   2.135   3.611
 1269SOL    HW2 4707   5.571   2.055   3.629
 1270SOL     OW 4708   6.023   5.543   3.605
 1270SOL    HW1 4709   6.036   5.615   3.537
 1270SOL    HW2 4710   6.111   5.505   3.631
 1271SOL     OW 4711   1.360   0.013   2.007
 1271SOL    HW1 4712   1.269   0.053   2.021
 1271SOL    HW2 4713   1.350   6.948   1.965
 1272SOL     OW 4714   5.747   2.114   1.263
 1272SOL    HW1 4715   5.655   2.119   1.223
 1272SOL    HW2 4716   5.813   2.150   1.197
 1273SOL     OW 4717   2.116   4.402   5.201
 1273SOL    HW1 4718   2.189   4.431   5.262
 1273SOL    HW2 4719   2.053   4.478   5.185
 1274SOL     OW 4720   7.008   4.515   4.459
 1274SOL    HW1 4721   7.008   4.582   4.533
 1274SOL    HW2 4722   0.062   4.456   4.467
 1275SOL     OW 4723   2.141   1.633   2.557
 1275SOL    HW1 4724   2.224   1.582   2.576
 1275SOL    HW2 4725   2.157   1.694   2.479
 1276SOL     OW 4726   5.810   3.845   3.731
 1276SOL    HW1 4727   5.750   3.766   3.724
 1276SOL    HW2 4728   5.825   3.868   3.827
 1277SOL     OW 4729   1.520   6.253   6.090
 1277SOL    HW1 4730   1.531   6.352   6.100
 1277SOL    HW2 4731   1.422   6.232   6.081
 1278SOL     OW 4732   6.955   6.279   2.678
 1278SOL    HW1 4733   6.973   6.189   2.637
 1278SOL    HW2 4734   6.974   6.275   2.776
 1279SOL     OW 4735   3.059   2.591   0.675
 1279SOL    HW1 4736   2.973   2.541   0.682
 1279SOL    HW2 4737   3.121   2.562   0.747
 1280SOL     OW 4738   2.903   2.271   2.957
 1280SOL    HW1 4739   2.859   2.220   2.883
 1280SOL    HW2 4740   2.834   2.300   3.023
 1281SOL     OW 4741   5.574   5.689   5.764
 1281SOL    HW1 4742   5.640   5.686   5.839
 1281SOL    HW2 4743   5.487   5.652   5.794
 1282SOL     OW 4744   0.736   2.359   1.421
 1282SOL    HW1 4745   0.709   2.264   1.434
 1282SOL    HW2 4746   0.793   2.366   1.339
 1283SOL     OW 4747   1.466   0.405   4.950
 1283SOL    HW1 4748   1.408   0.326   4.933
 1283SOL    HW2 4749   1.525   0.421   4.871
 1284SOL     OW 4750   4.107   2.540   1.660
 1284SOL    HW1 4751   4.053   2.464   1.695
 1284SOL    HW2 4752   4.204   2.525   1.682
 1285SOL     OW 4753   3.935   1.586   4.453
 1285SOL    HW1 4754   3.845   1.565   4.413
 1285SOL    HW2 4755   3.962   1.678   4.426
 1286SOL     OW 4756   5.274   0.774   2.121
 1286SOL    HW1 4757   5.240   0.805   2.209
 1286SOL    HW2 4758   5.280   0.851   2.058
 1287SOL     OW 4759   6.008   4.984   6.725
 1287SOL    HW1 4760   6.031   5.034   6.642
 1287SOL    HW2 4761   5.945   5.038   6.781
 1288SOL     OW 4762   4.910   4.625   5.733
 1288SOL    HW1 4763   4.876   4.539   5.696
 1288SOL    HW2 4764   5.008   4.616   5.752
 1289SOL     OW 4765   1.448   6.645   0.912
 1289SOL    HW1 4766   1.392   6.699   0.974
 1289SOL    HW2 4767   1.469   6.699   0.830
 1290SOL     OW 4768   1.442   6.658   4.285
 1290SOL    HW1 4769   1.510   6.715   4.329
 1290SOL    HW2 4770   1.473   6.635   4.192
 1291SOL     OW 4771   5.083   6.100   3.773
 1291SOL    HW1 4772   5.066   6.051   3.858
 1291SOL    HW2 4773   5.009   6.083   3.709
 1292SOL     OW 4774   0.089   6.652   2.641
 1292SOL    HW1 4775   0.007   6.702   2.612
 1292SOL    HW2 4776   0.093   6.650   2.741
 1293SOL     OW 4777   4.549   0.136   1.332
 1293SOL    HW1 4778   4.462   0.104   1.371
 1293SOL    HW2 4779   4.543   0.134   1.233
 1294SOL     OW 4780   2.343   4.581   5.269
 1294SOL    HW1 4781   2.374   4.505   5.326
 1294SOL    HW2 4782   2.419   4.613   5.212
 1295SOL     OW 4783   0.063   4.452   0.384
 1295SOL    HW1 4784   0.013   4.534   0.355
 1295SOL    HW2 4785   0.134   4.432   0.317
 1296SOL     OW 4786   3.966   0.819   5.958
 1296SOL    HW1 4787   3.867   0.820   5.946
 1296SOL    HW2 4788   3.999   0.725   5.958
 1297SOL     OW 4789   6.079   6.550   0.144
 1297SOL    HW1 4790   6.110   6.455   0.143
 1297SOL    HW2 4791   5.991   6.556   0.192
 1298SOL     OW 4792   4.678   6.745   2.577
 1298SOL    HW1 4793   4.778   6.745   2.582
 1298SOL    HW2 4794   4.648   6.801   2.500
 1299SOL     OW 4795   1.271   4.873   5.297
 1299SOL    HW1 4796   1.305   4.927   5.221
 1299SOL    HW2 4797   1.347   4.826   5.342
 1300SOL     OW 4798   1.212   5.614   0.672
 1300SOL    HW1 4799   1.158   5.648   0.749
 1300SOL    HW2 4800   1.244   5.521   0.692
 1301SOL     OW 4801   6.324   1.923   6.785
 1301SOL    HW1 4802   6.361   1.869   6.860
 1301SOL    HW2 4803   6.238   1.966   6.813
 1302SOL     OW 4804   6.841   6.990   5.158
 1302SOL    HW1 4805   6.754   7.024   5.194
 1302SOL    HW2 4806   6.901   6.965   5.234
 1303SOL     OW 4807   2.606   6.484   1.414
 1303SOL    HW1 4808   2.647   6.541   1.343
 1303SOL    HW2 4809   2.509   6.505   1.421
 1304SOL     OW 4810   6.674   1.177   0.053
 1304SOL    HW1 4811   6.758   1.151   0.101
 1304SOL    HW2 4812   6.597   1.170   0.115
 1305SOL     OW 4813   3.411   4.251   6.452
 1305SOL    HW1 4814   3.393   4.196   6.533
 1305SOL    HW2 4815   3.433   4.191   6.375
 1306SOL     OW 4816   2.376   6.565   4.017
 1306SOL    HW1 4817   2.406   6.653   3.980
 1306SOL    HW2 4818   2.311   6.522   3.954
 1307SOL     OW 4819   2.154   3.500   3.129
 1307SOL    HW1 4820   2.247   3.469   3.110
 1307SOL    HW2 4821   2.156   3.582   3.186
 1308SOL     OW 4822   0.621   3.999   5.729
 1308SOL    HW1 4823   0.536   3.954   5.704
 1308SOL    HW2 4824   0.698   3.938   5.709
 1309SOL     OW 4825   6.120   4.000   0.094
 1309SOL    HW1 4826   6.039   3.951   0.062
 1309SOL    HW2 4827   6.201   3.941   0.084
 1310SOL     OW 4828   2.565   2.403   3.521
 1310SOL    HW1 4829   2.479   2.447   3.545
 1310SOL    HW2 4830   2.597   2.348   3.598
 1311SOL     OW 4831   6.256   5.398   7.021
 1311SOL    HW1 4832   6.346   5.414   0.038
 1311SOL    HW2 4833   6.223   5.484   6.981
 1312SOL     OW 4834   2.342   1.717   6.701
 1312SOL    HW1 4835   2.334   1.767   6.614
 1312SOL    HW2 4836   2.435   1.725   6.735
 1313SOL     OW 4837   4.742   5.037   3.235
 1313SOL    HW1 4838   4.651   4.996   3.240
 1313SOL    HW2 4839   4.786   5.031   3.325
 1314SOL     OW 4840   3.064   1.787   3.695
 1314SOL    HW1 4841   2.995   1.720   3.721
 1314SOL    HW2 4842   3.071   1.856   3.767
 1315SOL     OW 4843   5.466   0.424   3.703
 1315SOL    HW1 4844   5.416   0.417   3.790
 1315SOL    HW2 4845   5.410   0.472   3.636
 1316SOL     OW 4846   5.121   0.278   6.162
 1316SOL    HW1 4847   5.160   0.267   6.071
 1316SOL    HW2 4848   5.022   0.265   6.159
 1317SOL     OW 4849   3.873   3.033   4.130
 1317SOL    HW1 4850   3.833   3.121   4.106
 1317SOL    HW2 4851   3.950   3.047   4.193
 1318SOL     OW 4852   1.619   1.115   0.189
 1318SOL    HW1 4853   1.694   1.052   0.211
 1318SOL    HW2 4854   1.655   1.208   0.183
 1319SOL     OW 4855   6.548   1.475   0.181
 1319SOL    HW1 4856   6.614   1.433   0.243
 1319SOL    HW2 4857   6.488   1.536   0.233
 1320SOL     OW 4858   3.083   2.784   5.631
 1320SOL    HW1 4859   3.094   2.882   5.610
 1320SOL    HW2 4860   2.990   2.768   5.664
 1321SOL     OW 4861   7.017   2.327   1.518
 1321SOL    HW1 4862   0.010   2.405   1.577
 1321SOL    HW2 4863   0.074   2.303   1.468
 1322SOL     OW 4864   1.945   2.624   0.379
 1322SOL    HW1 4865   1.953   2.560   0.455
 1322SOL    HW2 4866   2.012   2.697   0.390
 1323SOL     OW 4867   4.459   0.847   1.459
 1323SOL    HW1 4868   4.408   0.921   1.415
 1323SOL    HW2 4869   4.498   0.787   1.389
 1324SOL     OW 4870   2.628   3.849   5.848
 1324SOL    HW1 4871   2.645   3.768   5.791
 1324SOL    HW2 4872   2.587   3.921   5.792
 1325SOL     OW 4873   4.605   5.054   4.447
 1325SOL    HW1 4874   4.621   5.015   4.357
 1325SOL    HW2 4875   4.533   5.003   4.493
 1326SOL     OW 4876   3.729   1.416   5.253
 1326SOL    HW1 4877   3.792   1.494   5.253
 1326SOL    HW2 4878   3.658   1.431   5.323
 1327SOL     OW 4879   4.619   5.634   1.962
 1327SOL    HW1 4880   4.686   5.671   2.026
 1327SOL    HW2 4881   4.662   5.620   1.873
 1328SOL     OW 4882   1.152   2.441   5.608
 1328SOL    HW1 4883   1.094   2.419   5.529
 1328SOL    HW2 4884   1.100   2.499   5.671
 1329SOL     OW 4885   1.437   2.594   4.389
 1329SOL    HW1 4886   1.452   2.583   4.290
 1329SOL    HW2 4887   1.472   2.683   4.418
 1330SOL     OW 4888   6.297   2.864   2.409
 1330SOL    HW1 4889   6.338   2.837   2.322
 1330SOL    HW2 4890   6.367   2.863   2.481
 1331SOL     OW 4891   4.356   1.607   3.228
 1331SOL    HW1 4892   4.288   1.540   3.196
 1331SOL    HW2 4893   4.332   1.637   3.320
 1332SOL     OW 4894   2.270   6.576   6.737
 1332SOL    HW1 4895   2.238   6.540   6.650
 1332SOL    HW2 4896   2.200   6.560   6.808
 1333SOL     OW 4897   3.505   3.441   2.443
 1333SOL    HW1 4898   3.521   3.538   2.421
 1333SOL    HW2 4899   3.438   3.435   2.518
 1334SOL     OW 4900   0.413   4.309   1.750
 1334SOL    HW1 4901   0.481   4.241   1.776
 1334SOL    HW2 4902   0.454   4.400   1.752
 1335SOL     OW 4903   6.929   3.600   3.232
 1335SOL    HW1 4904   6.982   3.652   3.165
 1335SOL    HW2 4905   6.991   3.561   3.300
 1336SOL     OW 4906   2.085   6.375   5.630
 1336SOL    HW1 4907   2.147   6.396   5.706
 1336SOL    HW2 4908   2.030   6.295   5.653
 1337SOL     OW 4909   6.928   6.761   1.403
 1337SOL    HW1 4910   6.932   6.859   1.420
 1337SOL    HW2 4911   6.837   6.727   1.425
 1338SOL     OW 4912   0.793   4.282   5.253
 1338SOL    HW1 4913   0.864   4.325   5.197
 1338SOL    HW2 4914   0.721   4.246   5.193
 1339SOL     OW 4915   5.125   1.258   6.738
 1339SOL    HW1 4916   5.065   1.306   6.675
 1339SOL    HW2 4917   5.198   1.319   6.769
 1340SOL     OW 4918   2.697   2.781   0.769
 1340SOL    HW1 4919   2.622   2.838   0.800
 1340SOL    HW2 4920   2.757   2.760   0.846
 1341SOL     OW 4921   6.156   6.041   0.121
 1341SOL    HW1 4922   6.221   5.993   0.181
 1341SOL    HW2 4923   6.071   6.057   0.171
 1342SOL     OW 4924   1.815   5.867   0.945
 1342SOL    HW1 4925   1.717   5.885   0.939
 1342SOL    HW2 4926   1.866   5.946   0.910
 1343SOL     OW 4927   5.050   5.944   2.880
 1343SOL    HW1 4928   5.088   5.951   2.973
 1343SOL    HW2 4929   5.003   6.029   2.858
 1344SOL     OW 4930   1.576   0.518   3.360
 1344SOL    HW1 4931   1.549   0.529   3.265
 1344SOL    HW2 4932   1.611   0.605   3.396
 1345SOL     OW 4933   0.969   6.654   5.374
 1345SOL    HW1 4934   1.048   6.716   5.382
 1345SOL    HW2 4935   0.983   6.574   5.433
 1346SOL     OW 4936   3.613   6.138   3.654
 1346SOL    HW1 4937   3.690   6.200   3.651
 1346SOL    HW2 4938   3.645   6.044   3.644
 1347SOL     OW 4939   0.076   0.962   6.019
 1347SOL    HW1 4940   0.149   0.964   5.951
 1347SOL    HW2 4941   0.054   0.867   6.042
 1348SOL     OW 4942   1.488   6.598   4.706
 1348SOL    HW1 4943   1.529   6.644   4.627
 1348SOL    HW2 4944   1.559   6.554   4.760
 1349SOL     OW 4945   4.853   3.890   4.133
 1349SOL    HW1 4946   4.943   3.925   4.105
 1349SOL    HW2 4947   4.862   3.795   4.163
 1350SOL     OW 4948   5.597   4.485   6.934
 1350SOL    HW1 4949   5.621   4.573   6.894
 1350SOL    HW2 4950   5.551   4.499   7.022
 1351SOL     OW 4951   6.663   3.749   6.989
 1351SOL    HW1 4952   6.592   3.767   0.031
 1351SOL    HW2 4953   6.729   3.683   0.001
 1352SOL     OW 4954   6.872   1.102   3.958
 1352SOL    HW1 4955   6.787   1.076   3.913
 1352SOL    HW2 4956   6.852   1.148   4.044
 1353SOL     OW 4957   6.685   3.312   6.104
 1353SOL    HW1 4958   6.692   3.243   6.033
 1353SOL    HW2 4959   6.746   3.288   6.180
 1354SOL     OW 4960   4.955   4.986   3.080
 1354SOL    HW1 4961   4.906   4.972   2.994
 1354SOL    HW2 4962   4.889   4.998   3.155
 1355SOL     OW 4963   3.652   3.556   4.081
 1355SOL    HW1 4964   3.566   3.604   4.097
 1355SOL    HW2 4965   3.681   3.568   3.986
 1356SOL     OW 4966   3.062   3.164   6.946
 1356SOL    HW1 4967   3.135   3.096   6.956
 1356SOL    HW2 4968   3.102   3.253   6.923
 1357SOL     OW 4969   0.310   3.572   4.831
 1357SOL    HW1 4970   0.340   3.499   4.769
 1357SOL    HW2 4971   0.365   3.569   4.915
 1358SOL     OW 4972   2.605   6.459   6.096
 1358SOL    HW1 4973   2.524   6.422   6.142
 1358SOL    HW2 4974   2.688   6.426   6.141
 1359SOL     OW 4975   6.093   5.279   0.221
 1359SOL    HW1 4976   6.058   5.248   0.133
 1359SOL    HW2 4977   6.157   5.355   0.207
 1360SOL     OW 4978   2.444   2.201   6.431
 1360SOL    HW1 4979   2.462   2.104   6.410
 1360SOL    HW2 4980   2.490   2.258   6.363
 1361SOL     OW 4981   6.011   5.002   4.665
 1361SOL    HW1 4982   5.927   5.043   4.629
 1361SOL    HW2 4983   5.996   4.905   4.683
 1362SOL     OW 4984   3.049   3.948   4.551
 1362SOL    HW1 4985   3.030   3.952   4.650
 1362SOL    HW2 4986   2.962   3.944   4.501
 1363SOL     OW 4987   6.830   6.508   3.442
 1363SOL    HW1 4988   6.910   6.567   3.431
 1363SOL    HW2 4989   6.855   6.414   3.421
 1364SOL     OW 4990   3.285   4.371   6.978
 1364SOL    HW1 4991   3.283   4.271   6.972
 1364SOL    HW2 4992   3.376   4.404   6.951
 1365SOL     OW 4993   5.769   2.547   6.026
 1365SOL    HW1 4994   5.784   2.644   6.006
 1365SOL    HW2 4995   5.814   2.491   5.957
 1366SOL     OW 4996   1.435   0.957   4.551
 1366SOL    HW1 4997   1.390   0.963   4.462
 1366SOL    HW2 4998   1.455   1.050   4.585
 1367SOL     OW 4999   2.368   1.299   1.792
 1367SOL    HW1 5000   2.441   1.366   1.775
 1367SOL    HW2 5001   2.371   1.270   1.887
 1368SOL     OW 5002   0.068   0.881   3.112
 1368SOL    HW1 5003   0.057   0.790   3.152
 1368SOL    HW2 5004   0.112   0.941   3.179
 1369SOL     OW 5005   0.281   6.929   2.626
 1369SOL    HW1 5006   0.311   6.968   2.713
 1369SOL    HW2 5007   0.336   6.847   2.606
 1370SOL     OW 5008   0.799   1.087   2.711
 1370SOL    HW1 5009   0.770   1.030   2.788
 1370SOL    HW2 5010   0.724   1.097   2.646
 1371SOL     OW 5011   1.726   6.937   4.982
 1371SOL    HW1 5012   1.664   6.950   5.060
 1371SOL    HW2 5013   1.688   6.868   4.920
 1372SOL     OW 5014   3.107   1.897   1.390
 1372SOL    HW1 5015   3.177   1.891   1.462
 1372SOL    HW2 5016   3.086   1.805   1.357
 1373SOL     OW 5017   1.372   5.556   6.399
 1373SOL    HW1 5018   1.438   5.624   6.368
 1373SOL    HW2 5019   1.370   5.554   6.499
 1374SOL     OW 5020   5.608   3.192   4.568
 1374SOL    HW1 5021   5.510   3.210   4.569
 1374SOL    HW2 5022   5.658   3.277   4.585
 1375SOL     OW 5023   0.950   4.513   3.702
 1375SOL    HW1 5024   0.944   4.542   3.607
 1375SOL    HW2 5025   1.017   4.570   3.750
 1376SOL     OW 5026   5.259   0.254   2.325
 1376SOL    HW1 5027   5.355   0.235   2.307
 1376SOL    HW2 5028   5.216   0.175   2.369
 1377SOL     OW 5029   7.010   3.857   5.653
 1377SOL    HW1 5030   6.992   3.783   5.589
 1377SOL    HW2 5031   0.018   3.819   5.739
 1378SOL     OW 5032   1.814   1.908   0.696
 1378SOL    HW1 5033   1.816   1.985   0.631
 1378SOL    HW2 5034   1.880   1.839   0.668
 1379SOL     OW 5035   4.325   5.126   1.547
 1379SOL    HW1 5036   4.262   5.145   1.471
 1379SOL    HW2 5037   4.347   5.211   1.595
 1380SOL     OW 5038   6.321   5.273   2.908
 1380SOL    HW1 5039   6.404   5.291   2.855
 1380SOL    HW2 5040   6.262   5.354   2.904
 1381SOL     OW 5041   4.001   6.983   2.197
 1381SOL    HW1 5042   4.059   0.017   2.253
 1381SOL    HW2 5043   4.031   6.986   2.102
 1382SOL     OW 5044   6.558   3.722   0.397
 1382SOL    HW1 5045   6.499   3.646   0.424
 1382SOL    HW2 5046   6.629   3.735   0.467
 1383SOL     OW 5047   3.731   6.805   0.754
 1383SOL    HW1 5048   3.793   6.853   0.816
 1383SOL    HW2 5049   3.778   6.725   0.715
 1384SOL     OW 5050   0.928   1.541   2.692
 1384SOL    HW1 5051   0.953   1.451   2.727
 1384SOL    HW2 5052   0.832   1.559   2.713
 1385SOL     OW 5053   4.908   3.284   4.685
 1385SOL    HW1 5054   4.906   3.341   4.768
 1385SOL    HW2 5055   4.917   3.188   4.711
 1386SOL     OW 5056   2.548   2.555   3.212
 1386SOL    HW1 5057   2.526   2.459   3.231
 1386SOL    HW2 5058   2.506   2.613   3.282
 1387SOL     OW 5059   3.799   1.062   4.614
 1387SOL    HW1 5060   3.779   1.124   4.538
 1387SOL    HW2 5061   3.730   0.990   4.617
 1388SOL     OW 5062   4.849   2.384   3.661
 1388SOL    HW1 5063   4.822   2.397   3.566
 1388SOL    HW2 5064   4.917   2.311   3.667
 1389SOL     OW 5065   0.105   1.355   5.084
 1389SOL    HW1 5066   0.118   1.450   5.056
 1389SOL    HW2 5067   0.189   1.304   5.069
 1390SOL     OW 5068   6.088   2.362   2.870
 1390SOL    HW1 5069   6.048   2.281   2.826
 1390SOL    HW2 5070   6.117   2.427   2.799
 1391SOL     OW 5071   5.780   1.041   5.294
 1391SOL    HW1 5072   5.795   1.130   5.337
 1391SOL    HW2 5073   5.682   1.021   5.289
 1392SOL     OW 5074   2.867   6.893   4.996
 1392SOL    HW1 5075   2.933   6.907   4.922
 1392SOL    HW2 5076   2.774   6.900   4.959
 1393SOL     OW 5077   4.255   6.709   7.025
 1393SOL    HW1 5078   4.333   6.649   7.006
 1393SOL    HW2 5079   4.287   6.804   0.006
 1394SOL     OW 5080   3.961   0.999   4.995
 1394SOL    HW1 5081   3.915   1.085   5.020
 1394SOL    HW2 5082   3.894   0.936   4.955
 1395SOL     OW 5083   0.971   4.950   2.366
 1395SOL    HW1 5084   1.041   4.889   2.328
 1395SOL    HW2 5085   0.998   4.980   2.457
 1396SOL     OW 5086   1.709   1.925   3.113
 1396SOL    HW1 5087   1.808   1.917   3.105
 1396SOL    HW2 5088   1.677   1.869   3.189
 1397SOL     OW 5089   2.294   5.453   5.606
 1397SOL    HW1 5090   2.350   5.387   5.556
 1397SOL    HW2 5091   2.353   5.523   5.646
 1398SOL     OW 5092   3.001   6.957   6.132
 1398SOL    HW1 5093   2.933   6.889   6.157
 1398SOL    HW2 5094   2.963   7.019   6.063
 1399SOL     OW 5095   3.711   0.158   0.197
 1399SOL    HW1 5096   3.756   0.068   0.200
 1399SOL    HW2 5097   3.613   0.146   0.179
 1400SOL     OW 5098   0.395   2.115   5.865
 1400SOL    HW1 5099   0.472   2.066   5.906
 1400SOL    HW2 5100   0.381   2.084   5.771
 1401SOL     OW 5101   4.420   6.868   2.897
 1401SOL    HW1 5102   4.451   6.936   2.831
 1401SOL    HW2 5103   4.377   6.792   2.849
 1402SOL     OW 5104   4.920   3.804   2.733
 1402SOL    HW1 5105   4.948   3.884   2.785
 1402SOL    HW2 5106   4.871   3.833   2.651
 1403SOL     OW 5107   2.975   2.953   6.617
 1403SOL    HW1 5108   2.976   2.998   6.527
 1403SOL    HW2 5109   2.908   2.879   6.616
 1404SOL     OW 5110   3.941   5.874   0.089
 1404SOL    HW1 5111   3.871   5.889   0.019
 1404SOL    HW2 5112   4.015   5.940   0.077
 1405SOL     OW 5113   1.328   5.029   6.878
 1405SOL    HW1 5114   1.238   5.052   6.915
 1405SOL    HW2 5115   1.360   5.102   6.819
 1406SOL     OW 5116   1.582   2.299   0.513
 1406SOL    HW1 5117   1.570   2.391   0.478
 1406SOL    HW2 5118   1.518   2.283   0.588
 1407SOL     OW 5119   6.404   3.274   1.742
 1407SOL    HW1 5120   6.497   3.285   1.776
 1407SOL    HW2 5121   6.361   3.196   1.786
 1408SOL     OW 5122   5.844   6.072   1.645
 1408SOL    HW1 5123   5.918   6.124   1.601
 1408SOL    HW2 5124   5.878   6.031   1.729
 1409SOL     OW 5125   5.909   2.449   5.837
 1409SOL    HW1 5126   5.931   2.513   5.764
 1409SOL    HW2 5127   5.941   2.358   5.812
 1410SOL     OW 5128   3.689   0.489   0.632
 1410SOL    HW1 5129   3.646   0.567   0.586
 1410SOL    HW2 5130   3.728   0.427   0.564
 1411SOL     OW 5131   3.351   0.336   6.974
 1411SOL    HW1 5132   3.447   0.350   6.997
 1411SOL    HW2 5133   3.304   0.424   6.971
 1412SOL     OW 5134   1.630   1.159   6.403
 1412SOL    HW1 5135   1.575   1.138   6.484
 1412SOL    HW2 5136   1.571   1.197   6.331
 1413SOL     OW 5137   1.577   1.210   4.430
 1413SOL    HW1 5138   1.540   1.134   4.376
 1413SOL    HW2 5139   1.652   1.253   4.380
 1414SOL     OW 5140   0.320   5.334   2.776
 1414SOL    HW1 5141   0.371   5.266   2.723
 1414SOL    HW2 5142   0.267   5.288   2.847
 1415SOL     OW 5143   3.249   1.857   5.115
 1415SOL    HW1 5144   3.207   1.787   5.056
 1415SOL    HW2 5145   3.320   1.814   5.171
 1416SOL     OW 5146   4.120   0.487   5.320
 1416SOL    HW1 5147   4.032   0.440   5.328
 1416SOL    HW2 5148   4.127   0.557   5.391
 1417SOL     OW 5149   3.847   3.674   4.231
 1417SOL    HW1 5150   3.836   3.697   4.327
 1417SOL    HW2 5151   3.762   3.635   4.196
 1418SOL     OW 5152   3.051   3.765   5.920
 1418SOL    HW1 5153   3.092   3.783   6.010
 1418SOL    HW2 5154   3.042   3.667   5.906
 1419SOL     OW 5155   0.364   5.258   1.888
 1419SOL    HW1 5156   0.270   5.226   1.875
 1419SOL    HW2 5157   0.428   5.193   1.847
 1420SOL     OW 5158   2.526   6.575   3.538
 1420SOL    HW1 5159   2.611   6.556   3.587
 1420SOL    HW2 5160   2.509   6.503   3.471
 1421SOL     OW 5161   1.738   4.882   1.169
 1421SOL    HW1 5162   1.708   4.960   1.114
 1421SOL    HW2 5163   1.834   4.862   1.147
 1422SOL     OW 5164   1.651   3.560   6.647
 1422SOL    HW1 5165   1.737   3.595   6.609
 1422SOL    HW2 5166   1.604   3.505   6.579
 1423SOL     OW 5167   4.855   0.864   5.201
 1423SOL    HW1 5168   4.853   0.935   5.271
 1423SOL    HW2 5169   4.855   0.906   5.110
 1424SOL     OW 5170   6.191   4.062   1.458
 1424SOL    HW1 5171   6.182   4.130   1.530
 1424SOL    HW2 5172   6.254   4.096   1.387
 1425SOL     OW 5173   5.668   0.314   2.898
 1425SOL    HW1 5174   5.649   0.361   2.812
 1425SOL    HW2 5175   5.622   0.225   2.898
 1426SOL     OW 5176   3.814   0.861   0.780
 1426SOL    HW1 5177   3.789   0.770   0.813
 1426SOL    HW2 5178   3.898   0.855   0.727
 1427SOL     OW 5179   1.309   0.464   3.889
 1427SOL    HW1 5180   1.376   0.534   3.911
 1427SOL    HW2 5181   1.332   0.422   3.801
 1428SOL     OW 5182   2.418   4.534   3.705
 1428SOL    HW1 5183   2.377   4.457   3.754
 1428SOL    HW2 5184   2.390   4.620   3.748
 1429SOL     OW 5185   5.723   0.823   1.006
 1429SOL    HW1 5186   5.694   0.733   0.974
 1429SOL    HW2 5187   5.714   0.889   0.931
 1430SOL     OW 5188   2.046   3.973   4.321
 1430SOL    HW1 5189   2.101   3.890   4.333
 1430SOL    HW2 5190   2.044   3.999   4.225
 1431SOL     OW 5191   3.540   1.733   0.663
 1431SOL    HW1 5192   3.541   1.643   0.706
 1431SOL    HW2 5193   3.558   1.724   0.565
 1432SOL     OW 5194   2.729   6.943   2.580
 1432SOL    HW1 5195   2.691   6.978   2.494
 1432SOL    HW2 5196   2.829   6.944   2.575
 1433SOL     OW 5197   3.758   1.751   3.563
 1433SOL    HW1 5198   3.854   1.771   3.543
 1433SOL    HW2 5199   3.707   1.745   3.478
 1434SOL     OW 5200   6.179   3.361   1.144
 1434SOL    HW1 5201   6.171   3.262   1.134
 1434SOL    HW2 5202   6.249   3.395   1.082
 1435SOL     OW 5203   6.777   5.790   4.152
 1435SOL    HW1 5204   6.860   5.758   4.106
 1435SOL    HW2 5205   6.763   5.887   4.132
 1436SOL     OW 5206   6.202   0.715   6.522
 1436SOL    HW1 5207   6.184   0.768   6.605
 1436SOL    HW2 5208   6.206   0.618   6.544
 1437SOL     OW 5209   4.047   0.874   0.652
 1437SOL    HW1 5210   4.134   0.916   0.678
 1437SOL    HW2 5211   4.059   0.824   0.566
 1438SOL     OW 5212   2.550   6.370   3.355
 1438SOL    HW1 5213   2.627   6.432   3.339
 1438SOL    HW2 5214   2.478   6.388   3.289
 1439SOL     OW 5215   6.637   5.292   4.412
 1439SOL    HW1 5216   6.561   5.306   4.348
 1439SOL    HW2 5217   6.626   5.353   4.490
 1440SOL     OW 5218   3.717   3.225   2.031
 1440SOL    HW1 5219   3.620   3.219   2.053
 1440SOL    HW2 5220   3.770   3.194   2.110
 1441SOL     OW 5221   0.355   2.467   6.580
 1441SOL    HW1 5222   0.454   2.453   6.583
 1441SOL    HW2 5223   0.329   2.534   6.650
 1442SOL     OW 5224   5.541   5.927   0.370
 1442SOL    HW1 5225   5.480   5.912   0.292
 1442SOL    HW2 5226   5.515   6.011   0.417
 1443SOL     OW 5227   2.072   3.059   4.704
 1443SOL    HW1 5228   2.073   3.159   4.695
 1443SOL    HW2 5229   1.978   3.026   4.699
 1444SOL     OW 5230   4.701   6.798   5.051
 1444SOL    HW1 5231   4.765   6.860   5.005
 1444SOL    HW2 5232   4.657   6.740   4.983
 1445SOL     OW 5233   6.583   2.856   6.930
 1445SOL    HW1 5234   6.648   2.896   6.994
 1445SOL    HW2 5235   6.491   2.860   6.969
 1446SOL     OW 5236   2.795   6.084   2.560
 1446SOL    HW1 5237   2.846   6.008   2.600
 1446SOL    HW2 5238   2.786   6.157   2.628
 1447SOL     OW 5239   6.480   1.061   4.919
 1447SOL    HW1 5240   6.467   1.004   4.837
 1447SOL    HW2 5241   6.466   1.005   5.001
 1448SOL     OW 5242   5.167   1.551   0.956
 1448SOL    HW1 5243   5.206   1.489   1.025
 1448SOL    HW2 5244   5.232   1.623   0.935
 1449SOL     OW 5245   4.992   5.956   6.789
 1449SOL    HW1 5246   5.090   5.970   6.776
 1449SOL    HW2 5247   4.941   6.032   6.747
 1450SOL     OW 5248   5.508   1.395   4.133
 1450SOL    HW1 5249   5.468   1.437   4.051
 1450SOL    HW2 5250   5.574   1.457   4.174
 1451SOL     OW 5251   0.136   6.355   2.502
 1451SOL    HW1 5252   0.100   6.263   2.516
 1451SOL    HW2 5253   0.087   6.420   2.560
 1452SOL     OW 5254   1.570   0.267   6.160
 1452SOL    HW1 5255   1.493   0.274   6.223
 1452SOL    HW2 5256   1.655   0.290   6.207
 1453SOL     OW 5257   6.198   4.309   4.227
 1453SOL    HW1 5258   6.175   4.213   4.239
 1453SOL    HW2 5259   6.289   4.317   4.186
 1454SOL     OW 5260   6.319   4.712   1.761
 1454SOL    HW1 5261   6.257   4.700   1.684
 1454SOL    HW2 5262   6.390   4.778   1.736
 1455SOL     OW 5263   2.228   1.581   1.877
 1455SOL    HW1 5264   2.305   1.591   1.815
 1455SOL    HW2 5265   2.143   1.578   1.824
 1456SOL     OW 5266   5.452   4.695   5.035
 1456SOL    HW1 5267   5.510   4.744   5.100
 1456SOL    HW2 5268   5.508   4.631   4.983
 1457SOL     OW 5269   2.266   1.722   4.551
 1457SOL    HW1 5270   2.257   1.650   4.620
 1457SOL    HW2 5271   2.361   1.749   4.542
 1458SOL     OW 5272   6.164   5.554   6.594
 1458SOL    HW1 5273   6.168   5.620   6.669
 1458SOL    HW2 5274   6.112   5.593   6.517
 1459SOL     OW 5275   3.509   6.816   1.035
 1459SOL    HW1 5276   3.608   6.822   1.050
 1459SOL    HW2 5277   3.470   6.908   1.036
 1460SOL     OW 5278   0.748   1.547   6.827
 1460SOL    HW1 5279   0.691   1.555   6.909
 1460SOL    HW2 5280   0.696   1.580   6.748
 1461SOL     OW 5281   5.336   3.959   2.254
 1461SOL    HW1 5282   5.358   3.897   2.329
 1461SOL    HW2 5283   5.241   3.990   2.263
 1462SOL     OW 5284   5.822   0.243   4.933
 1462SOL    HW1 5285   5.871   0.211   5.014
 1462SOL    HW2 5286   5.880   0.308   4.883
 1463SOL     OW 5287   0.774   2.658   5.678
 1463SOL    HW1 5288   0.836   2.664   5.756
 1463SOL    HW2 5289   0.790   2.572   5.629
 1464SOL     OW 5290   0.379   0.624   1.397
 1464SOL    HW1 5291   0.336   0.709   1.365
 1464SOL    HW2 5292   0.456   0.646   1.456
 1465SOL     OW 5293   2.196   0.776   3.685
 1465SOL    HW1 5294   2.236   0.789   3.775
 1465SOL    HW2 5295   2.097   0.789   3.691
 1466SOL     OW 5296   6.330   6.145   4.832
 1466SOL    HW1 5297   6.385   6.061   4.831
 1466SOL    HW2 5298   6.339   6.190   4.921
 1467SOL     OW 5299   0.926   4.265   4.435
 1467SOL    HW1 5300   1.024   4.271   4.450
 1467SOL    HW2 5301   0.879   4.334   4.490
 1468SOL     OW 5302   5.045   0.076   2.413
 1468SOL    HW1 5303   4.962   0.115   2.453
 1468SOL    HW2 5304   5.022   0.026   2.330
 1469SOL     OW 5305   6.549   0.172   2.074
 1469SOL    HW1 5306   6.619   0.102   2.087
 1469SOL    HW2 5307   6.586   0.246   2.018
 1470SOL     OW 5308   6.964   0.759   2.132
 1470SOL    HW1 5309   0.037   0.773   2.120
 1470SOL    HW2 5310   6.919   0.847   2.143
 1471SOL     OW 5311   6.621   1.166   1.037
 1471SOL    HW1 5312   6.533   1.155   1.084
 1471SOL    HW2 5313   6.691   1.192   1.104
 1472SOL     OW 5314   4.736   5.091   4.693
 1472SOL    HW1 5315   4.659   5.099   4.755
 1472SOL    HW2 5316   4.703   5.084   4.599
 1473SOL     OW 5317   0.418   3.221   3.843
 1473SOL    HW1 5318   0.470   3.257   3.920
 1473SOL    HW2 5319   0.463   3.139   3.808
 1474SOL     OW 5320   4.608   6.313   2.407
 1474SOL    HW1 5321   4.703   6.342   2.400
 1474SOL    HW2 5322   4.556   6.382   2.458
 1475SOL     OW 5323   6.614   6.902   2.737
 1475SOL    HW1 5324   6.625   6.831   2.667
 1475SOL    HW2 5325   6.517   6.922   2.749
 1476SOL     OW 5326   1.073   2.160   0.966
 1476SOL    HW1 5327   1.130   2.226   1.017
 1476SOL    HW2 5328   1.104   2.156   0.871
 1477SOL     OW 5329   2.596   6.404   4.089
 1477SOL    HW1 5330   2.617   6.383   4.184
 1477SOL    HW2 5331   2.517   6.467   4.086
 1478SOL     OW 5332   6.989   4.266   1.031
 1478SOL    HW1 5333   6.995   4.277   1.130
 1478SOL    HW2 5334   7.004   4.354   0.987
 1479SOL     OW 5335   1.433   4.883   0.065
 1479SOL    HW1 5336   1.392   4.793   0.046
 1479SOL    HW2 5337   1.394   4.951   0.003
 1480SOL     OW 5338   3.337   0.705   0.001
 1480SOL    HW1 5339   3.256   0.647   0.004
 1480SOL    HW2 5340   3.400   0.677   0.073
 1481SOL     OW 5341   6.893   2.746   1.054
 1481SOL    HW1 5342   6.945   2.827   1.081
 1481SOL    HW2 5343   6.851   2.704   1.134
 1482SOL     OW 5344   6.320   0.465   5.543
 1482SOL    HW1 5345   6.412   0.469   5.583
 1482SOL    HW2 5346   6.302   0.550   5.494
 1483SOL     OW 5347   0.249   1.758   0.800
 1483SOL    HW1 5348   0.192   1.692   0.847
 1483SOL    HW2 5349   0.198   1.843   0.786
 1484SOL     OW 5350   5.567   0.048   2.943
 1484SOL    HW1 5351   5.615   0.058   3.030
 1484SOL    HW2 5352   5.554   6.976   2.924
 1485SOL     OW 5353   5.556   4.032   4.692
 1485SOL    HW1 5354   5.583   4.013   4.597
 1485SOL    HW2 5355   5.556   3.946   4.743
 1486SOL     OW 5356   5.069   2.765   1.924
 1486SOL    HW1 5357   5.135   2.819   1.977
 1486SOL    HW2 5358   5.091   2.772   1.827
 1487SOL     OW 5359   0.477   6.829   5.756
 1487SOL    HW1 5360   0.386   6.795   5.781
 1487SOL    HW2 5361   0.501   6.796   5.664
 1488SOL     OW 5362   4.532   2.184   4.135
 1488SOL    HW1 5363   4.575   2.269   4.166
 1488SOL    HW2 5364   4.438   2.179   4.170
 1489SOL     OW 5365   3.565   5.489   4.445
 1489SOL    HW1 5366   3.531   5.399   4.419
 1489SOL    HW2 5367   3.494   5.538   4.496
 1490SOL     OW 5368   2.964   2.950   0.704
 1490SOL    HW1 5369   2.903   2.871   0.699
 1490SOL    HW2 5370   3.025   2.941   0.783
 1491SOL     OW 5371   2.033   1.686   3.682
 1491SOL    HW1 5372   1.943   1.661   3.718
 1491SOL    HW2 5373   2.100   1.682   3.756
 1492SOL     OW 5374   6.920   2.140   1.703
 1492SOL    HW1 5375   6.956   2.167   1.792
 1492SOL    HW2 5376   6.944   2.210   1.635
 1493SOL     OW 5377   6.919   3.468   4.850
 1493SOL    HW1 5378   6.850   3.416   4.799
 1493SOL    HW2 5379   6.878   3.503   4.934
 1494SOL     OW 5380   5.866   1.862   4.465
 1494SOL    HW1 5381   5.877   1.891   4.370
 1494SOL    HW2 5382   5.922   1.781   4.483
 1495SOL     OW 5383   1.123   3.877   1.659
 1495SOL    HW1 5384   1.092   3.839   1.572
 1495SOL    HW2 5385   1.047   3.883   1.723
 1496SOL     OW 5386   6.599   0.144   2.581
 1496SOL    HW1 5387   6.675   0.197   2.543
 1496SOL    HW2 5388   6.607   0.049   2.552
 1497SOL     OW 5389   5.319   4.223   5.922
 1497SOL    HW1 5390   5.302   4.140   5.869
 1497SOL    HW2 5391   5.239   4.244   5.978
 1498SOL     OW 5392   3.008   5.711   6.485
 1498SOL    HW1 5393   3.057   5.769   6.419
 1498SOL    HW2 5394   3.073   5.649   6.528
 1499SOL     OW 5395   1.718   4.024   3.944
 1499SOL    HW1 5396   1.656   4.025   4.023
 1499SOL    HW2 5397   1.808   3.993   3.973
 1500SOL     OW 5398   4.037   5.894   5.418
 1500SOL    HW1 5399   3.964   5.928   5.359
 1500SOL    HW2 5400   4.109   5.853   5.361
 1501SOL     OW 5401   3.643   1.548   1.483
 1501SOL    HW1 5402   3.587   1.589   1.555
 1501SOL    HW2 5403   3.584   1.493   1.423
 1502SOL     OW 5404   6.744   0.514   6.257
 1502SOL    HW1 5405   6.645   0.505   6.245
 1502SOL    HW2 5406   6.779   0.432   6.304
 1503SOL     OW 5407   3.492   3.418   5.294
 1503SOL    HW1 5408   3.482   3.320   5.283
 1503SOL    HW2 5409   3.562   3.452   5.232
 1504SOL     OW 5410   2.504   0.774   3.048
 1504SOL    HW1 5411   2.430   0.731   2.995
 1504SOL    HW2 5412   2.504   0.738   3.141
 1505SOL     OW 5413   5.980   6.078   3.256
 1505SOL    HW1 5414   5.920   6.145   3.212
 1505SOL    HW2 5415   6.074   6.110   3.253
 1506SOL     OW 5416   6.478   0.483   3.892
 1506SOL    HW1 5417   6.550   0.460   3.826
 1506SOL    HW2 5418   6.519   0.500   3.981
 1507SOL     OW 5419   2.291   1.844   6.456
 1507SOL    HW1 5420   2.387   1.834   6.432
 1507SOL    HW2 5421   2.247   1.908   6.394
 1508SOL     OW 5422   4.113   6.244   0.981
 1508SOL    HW1 5423   4.063   6.174   1.033
 1508SOL    HW2 5424   4.180   6.200   0.921
 1509SOL     OW 5425   4.986   2.297   5.962
 1509SOL    HW1 5426   4.998   2.205   5.924
 1509SOL    HW2 5427   4.889   2.312   5.981
 1510SOL     OW 5428   6.903   1.922   2.602
 1510SOL    HW1 5429   6.947   2.011   2.600
 1510SOL    HW2 5430   6.847   1.911   2.519
 1511SOL     OW 5431   7.016   2.380   0.607
 1511SOL    HW1 5432   6.992   2.475   0.586
 1511SOL    HW2 5433   6.933   2.324   0.609
 1512SOL     OW 5434   0.496   0.323   3.035
 1512SOL    HW1 5435   0.433   0.275   3.096
 1512SOL    HW2 5436   0.524   0.262   2.961
 1513SOL     OW 5437   2.716   0.319   2.863
 1513SOL    HW1 5438   2.801   0.363   2.836
 1513SOL    HW2 5439   2.723   0.220   2.847
 1514SOL     OW 5440   4.252   0.349   5.646
 1514SOL    HW1 5441   4.276   0.293   5.566
 1514SOL    HW2 5442   4.305   0.433   5.644
 1515SOL     OW 5443   5.434   5.607   5.130
 1515SOL    HW1 5444   5.354   5.565   5.173
 1515SOL    HW2 5445   5.517   5.561   5.164
 1516SOL     OW 5446   6.392   2.105   2.667
 1516SOL    HW1 5447   6.310   2.049   2.661
 1516SOL    HW2 5448   6.469   2.049   2.700
 1517SOL     OW 5449   2.688   5.291   1.865
 1517SOL    HW1 5450   2.722   5.360   1.928
 1517SOL    HW2 5451   2.747   5.210   1.870
 1518SOL     OW 5452   1.193   4.703   0.608
 1518SOL    HW1 5453   1.121   4.694   0.540
 1518SOL    HW2 5454   1.176   4.638   0.683
 1519SOL     OW 5455   1.054   4.162   1.702
 1519SOL    HW1 5456   1.016   4.070   1.711
 1519SOL    HW2 5457   1.128   4.161   1.636
 1520SOL     OW 5458   1.790   4.001   2.939
 1520SOL    HW1 5459   1.886   3.982   2.922
 1520SOL    HW2 5460   1.733   3.941   2.883
 1521SOL     OW 5461   1.905   5.820   5.448
 1521SOL    HW1 5462   1.854   5.836   5.533
 1521SOL    HW2 5463   1.961   5.737   5.458
 1522SOL     OW 5464   1.485   1.978   6.030
 1522SOL    HW1 5465   1.444   1.976   5.939
 1522SOL    HW2 5466   1.546   2.058   6.037
 1523SOL     OW 5467   4.906   1.241   0.316
 1523SOL    HW1 5468   4.959   1.261   0.233
 1523SOL    HW2 5469   4.915   1.317   0.380
 1524SOL     OW 5470   1.337   2.080   1.858
 1524SOL    HW1 5471   1.275   2.018   1.905
 1524SOL    HW2 5472   1.419   2.092   1.912
 1525SOL     OW 5473   4.588   2.119   5.441
 1525SOL    HW1 5474   4.574   2.218   5.435
 1525SOL    HW2 5475   4.686   2.099   5.443
 1526SOL     OW 5476   5.976   2.622   1.193
 1526SOL    HW1 5477   6.054   2.649   1.250
 1526SOL    HW2 5478   6.003   2.546   1.134
 1527SOL     OW 5479   1.689   0.144   4.822
 1527SOL    HW1 5480   1.599   0.173   4.854
 1527SOL    HW2 5481   1.724   0.072   4.882
 1528SOL     OW 5482   5.074   5.805   3.535
 1528SOL    HW1 5483   5.042   5.814   3.629
 1528SOL    HW2 5484   5.027   5.728   3.491
 1529SOL     OW 5485   1.066   6.597   5.723
 1529SOL    HW1 5486   1.116   6.544   5.792
 1529SOL    HW2 5487   0.968   6.575   5.729
 1530SOL     OW 5488   3.733   7.005   1.397
 1530SOL    HW1 5489   3.690   6.916   1.378
 1530SOL    HW2 5490   3.663   0.050   1.402
 1531SOL     OW 5491   5.178   1.576   6.672
 1531SOL    HW1 5492   5.142   1.620   6.589
 1531SOL    HW2 5493   5.278   1.577   6.669
 1532SOL     OW 5494   2.754   1.189   4.992
 1532SOL    HW1 5495   2.671   1.138   4.968
 1532SOL    HW2 5496   2.734   1.287   4.989
 1533SOL     OW 5497   4.410   2.937   1.537
 1533SOL    HW1 5498   4.478   2.901   1.474
 1533SOL    HW2 5499   4.371   2.861   1.591
 1534SOL     OW 5500   5.805   0.496   0.226
 1534SOL    HW1 5501   5.709   0.470   0.223
 1534SOL    HW2 5502   5.817   0.587   0.185
 1535SOL     OW 5503   4.679   4.431   4.177
 1535SOL    HW1 5504   4.642   4.371   4.248
 1535SOL    HW2 5505   4.629   4.416   4.091
 1536SOL     OW 5506   2.465   6.303   2.978
 1536SOL    HW1 5507   2.448   6.251   3.062
 1536SOL    HW2 5508   2.560   6.331   2.975
 1537SOL     OW 5509   1.691   5.371   4.809
 1537SOL    HW1 5510   1.619   5.331   4.866
 1537SOL    HW2 5511   1.757   5.418   4.867
 1538SOL     OW 5512   3.665   6.186   0.379
 1538SOL    HW1 5513   3.628   6.244   0.452
 1538SOL    HW2 5514   3.637   6.223   0.290
 1539SOL     OW 5515   1.951   6.755   1.446
 1539SOL    HW1 5516   2.017   6.763   1.521
 1539SOL    HW2 5517   1.859   6.746   1.483
 1540SOL     OW 5518   5.994   1.151   5.940
 1540SOL    HW1 5519   6.026   1.226   5.883
 1540SOL    HW2 5520   5.964   1.075   5.881
 1541SOL     OW 5521   5.162   1.910   2.416
 1541SOL    HW1 5522   5.111   1.835   2.457
 1541SOL    HW2 5523   5.099   1.971   2.367
 1542SOL     OW 5524   0.171   5.279   0.746
 1542SOL    HW1 5525   0.106   5.217   0.791
 1542SOL    HW2 5526   0.145   5.373   0.765
 1543SOL     OW 5527   3.703   3.002   2.790
 1543SOL    HW1 5528   3.625   2.968   2.843
 1543SOL    HW2 5529   3.692   2.976   2.694
 1544SOL     OW 5530   3.273   3.669   1.217
 1544SOL    HW1 5531   3.250   3.748   1.161
 1544SOL    HW2 5532   3.222   3.672   1.303
 1545SOL     OW 5533   0.645   6.156   6.089
 1545SOL    HW1 5534   0.641   6.248   6.050
 1545SOL    HW2 5535   0.732   6.144   6.137
 1546SOL     OW 5536   6.847   6.255   1.029
 1546SOL    HW1 5537   6.930   6.220   1.072
 1546SOL    HW2 5538   6.815   6.335   1.078
 1547SOL     OW 5539   2.673   6.596   0.636
 1547SOL    HW1 5540   2.717   6.537   0.569
 1547SOL    HW2 5541   2.647   6.682   0.591
 1548SOL     OW 5542   6.220   4.077   3.132
 1548SOL    HW1 5543   6.154   4.140   3.091
 1548SOL    HW2 5544   6.221   4.090   3.231
 1549SOL     OW 5545   6.098   2.035   1.591
 1549SOL    HW1 5546   6.003   2.022   1.560
 1549SOL    HW2 5547   6.122   1.962   1.655
 1550SOL     OW 5548   2.623   4.591   2.240
 1550SOL    HW1 5549   2.643   4.564   2.334
 1550SOL    HW2 5550   2.696   4.560   2.179
 1551SOL     OW 5551   1.230   1.671   2.220
 1551SOL    HW1 5552   1.229   1.696   2.123
 1551SOL    HW2 5553   1.164   1.597   2.236
 1552SOL     OW 5554   1.563   6.231   2.270
 1552SOL    HW1 5555   1.634   6.270   2.212
 1552SOL    HW2 5556   1.490   6.195   2.213
 1553SOL     OW 5557   6.007   1.767   5.281
 1553SOL    HW1 5558   6.105   1.763   5.262
 1553SOL    HW2 5559   5.980   1.862   5.298
 1554SOL     OW 5560   2.450   3.134   6.996
 1554SOL    HW1 5561   2.477   3.227   7.020
 1554SOL    HW2 5562   2.523   3.089   6.945
 1555SOL     OW 5563   4.326   1.064   1.365
 1555SOL    HW1 5564   4.234   1.070   1.405
 1555SOL    HW2 5565   4.318   1.050   1.266
 1556SOL     OW 5566   2.447   2.096   0.297
 1556SOL    HW1 5567   2.492   2.184   0.284
 1556SOL    HW2 5568   2.363   2.109   0.350
 1557SOL     OW 5569   2.476   2.217   1.166
 1557SOL    HW1 5570   2.408   2.246   1.099
 1557SOL    HW2 5571   2.456   2.259   1.255
 1558SOL     OW 5572   4.676   1.474   0.174
 1558SOL    HW1 5573   4.697   1.505   0.266
 1558SOL    HW2 5574   4.715   1.538   0.108
 1559SOL     OW 5575   2.415   5.758   3.865
 1559SOL    HW1 5576   2.494   5.709   3.829
 1559SOL    HW2 5577   2.332   5.724   3.821
 1560SOL     OW 5578   4.704   3.131   1.468
 1560SOL    HW1 5579   4.780   3.114   1.532
 1560SOL    HW2 5580   4.624   3.162   1.519
 1561SOL     OW 5581   5.948   6.906   1.137
 1561SOL    HW1 5582   5.949   6.819   1.187
 1561SOL    HW2 5583   5.974   6.889   1.042
 1562SOL     OW 5584   2.645   6.834   3.056
 1562SOL    HW1 5585   2.627   6.863   2.962
 1562SOL    HW2 5586   2.642   6.913   3.117
 1563SOL     OW 5587   2.529   4.573   4.248
 1563SOL    HW1 5588   2.501   4.542   4.340
 1563SOL    HW2 5589   2.474   4.524   4.179
 1564SOL     OW 5590   2.092   2.065   3.273
 1564SOL    HW1 5591   2.059   2.086   3.181
 1564SOL    HW2 5592   2.117   1.968   3.279
 1565SOL     OW 5593   5.965   2.019   5.373
 1565SOL    HW1 5594   5.892   2.063   5.320
 1565SOL    HW2 5595   6.048   2.075   5.369
 1566SOL     OW 5596   1.012   3.420   3.270
 1566SOL    HW1 5597   0.996   3.322   3.260
 1566SOL    HW2 5598   1.052   3.457   3.186
 1567SOL     OW 5599   5.292   1.093   3.628
 1567SOL    HW1 5600   5.366   1.053   3.682
 1567SOL    HW2 5601   5.331   1.150   3.555
 1568SOL     OW 5602   2.108   4.804   0.663
 1568SOL    HW1 5603   2.093   4.816   0.762
 1568SOL    HW2 5604   2.202   4.828   0.640
 1569SOL     OW 5605   2.314   1.063   2.252
 1569SOL    HW1 5606   2.371   1.134   2.293
 1569SOL    HW2 5607   2.217   1.087   2.264
 1570SOL     OW 5608   2.521   5.936   5.765
 1570SOL    HW1 5609   2.579   5.917   5.845
 1570SOL    HW2 5610   2.442   5.990   5.793
 1571SOL     OW 5611   1.645   1.807   4.388
 1571SOL    HW1 5612   1.645   1.897   4.431
 1571SOL    HW2 5613   1.556   1.763   4.402
 1572SOL     OW 5614   2.587   5.398   4.149
 1572SOL    HW1 5615   2.512   5.332   4.141
 1572SOL    HW2 5616   2.672   5.348   4.168
 1573SOL     OW 5617   5.954   5.984   6.835
 1573SOL    HW1 5618   6.022   5.939   6.777
 1573SOL    HW2 5619   5.928   6.071   6.794
 1574SOL     OW 5620   0.877   2.679   3.598
 1574SOL    HW1 5621   0.863   2.666   3.500
 1574SOL    HW2 5622   0.823   2.612   3.648
 1575SOL     OW 5623   6.814   2.192   0.655
 1575SOL    HW1 5624   6.735   2.226   0.605
 1575SOL    HW2 5625   6.802   2.094   0.674
 1576SOL     OW 5626   1.009   6.459   2.589
 1576SOL    HW1 5627   1.081   6.422   2.648
 1576SOL    HW2 5628   1.006   6.558   2.599
 1577SOL     OW 5629   4.601   5.975   4.100
 1577SOL    HW1 5630   4.543   5.898   4.127
 1577SOL    HW2 5631   4.648   6.011   4.181
 1578SOL     OW 5632   5.501   1.671   2.272
 1578SOL    HW1 5633   5.474   1.624   2.356
 1578SOL    HW2 5634   5.422   1.720   2.235
 1579SOL     OW 5635   2.037   4.021   2.537
 1579SOL    HW1 5636   2.071   4.007   2.444
 1579SOL    HW2 5637   2.114   4.026   2.601
 1580SOL     OW 5638   3.479   3.319   4.303
 1580SOL    HW1 5639   3.417   3.397   4.297
 1580SOL    HW2 5640   3.567   3.350   4.339
 1581SOL     OW 5641   5.533   4.090   5.072
 1581SOL    HW1 5642   5.608   4.025   5.061
 1581SOL    HW2 5643   5.445   4.041   5.064
 1582SOL     OW 5644   4.118   6.708   4.225
 1582SOL    HW1 5645   4.164   6.765   4.293
 1582SOL    HW2 5646   4.186   6.663   4.168
 1583SOL     OW 5647   0.158   4.981   4.216
 1583SOL    HW1 5648   0.246   5.029   4.212
 1583SOL    HW2 5649   0.158   4.904   4.152
 1584SOL     OW 5650   0.584   4.648   0.593
 1584SOL    HW1 5651   0.487   4.649   0.616
 1584SOL    HW2 5652   0.595   4.670   0.495
 1585SOL     OW 5653   4.153   6.427   4.556
 1585SOL    HW1 5654   4.197   6.358   4.499
 1585SOL    HW2 5655   4.068   6.457   4.513
 1586SOL     OW 5656   2.808   6.080   3.122
 1586SOL    HW1 5657   2.814   6.164   3.176
 1586SOL    HW2 5658   2.754   6.012   3.172
 1587SOL     OW 5659   4.340   0.518   6.940
 1587SOL    HW1 5660   4.255   0.468   6.950
 1587SOL    HW2 5661   4.409   0.459   6.898
 1588SOL     OW 5662   6.475   1.660   4.003
 1588SOL    HW1 5663   6.464   1.566   3.971
 1588SOL    HW2 5664   6.455   1.724   3.929
 1589SOL     OW 5665   6.962   1.012   3.718
 1589SOL    HW1 5666   7.007   0.924   3.732
 1589SOL    HW2 5667   6.955   1.060   3.805
 1590SOL     OW 5668   5.415   6.726   3.876
 1590SOL    HW1 5669   5.483   6.759   3.942
 1590SOL    HW2 5670   5.458   6.660   3.815
 1591SOL     OW 5671   6.564   4.941   0.833
 1591SOL    HW1 5672   6.513   4.879   0.893
 1591SOL    HW2 5673   6.522   4.942   0.742
 1592SOL     OW 5674   6.986   4.517   4.054
 1592SOL    HW1 5675   7.016   4.425   4.080
 1592SOL    HW2 5676   6.928   4.512   3.973
 1593SOL     OW 5677   4.172   5.074   1.115
 1593SOL    HW1 5678   4.240   5.004   1.135
 1593SOL    HW2 5679   4.180   5.104   1.020
 1594SOL     OW 5680   5.459   1.133   2.832
 1594SOL    HW1 5681   5.472   1.200   2.759
 1594SOL    HW2 5682   5.483   1.174   2.920
 1595SOL     OW 5683   0.027   3.915   0.864
 1595SOL    HW1 5684   0.026   3.935   0.766
 1595SOL    HW2 5685   6.988   3.976   0.911
 1596SOL     OW 5686   5.539   4.238   4.425
 1596SOL    HW1 5687   5.516   4.167   4.358
 1596SOL    HW2 5688   5.637   4.238   4.441
 1597SOL     OW 5689   4.238   6.670   1.128
 1597SOL    HW1 5690   4.267   6.579   1.158
 1597SOL    HW2 5691   4.224   6.728   1.208
 1598SOL     OW 5692   0.916   6.062   6.156
 1598SOL    HW1 5693   0.926   5.963   6.163
 1598SOL    HW2 5694   0.992   6.107   6.204
 1599SOL     OW 5695   4.996   5.662   4.111
 1599SOL    HW1 5696   5.060   5.661   4.188
 1599SOL    HW2 5697   4.902   5.668   4.146
 1600SOL     OW 5698   5.121   1.099   1.538
 1600SOL    HW1 5699   5.090   1.004   1.535
 1600SOL    HW2 5700   5.069   1.153   1.471
 1601SOL     OW 5701   5.920   0.810   5.399
 1601SOL    HW1 5702   5.887   0.905   5.399
 1601SOL    HW2 5703   5.898   0.768   5.311
 1602SOL     OW 5704   3.768   6.074   3.343
 1602SOL    HW1 5705   3.671   6.090   3.322
 1602SOL    HW2 5706   3.822   6.150   3.310
 1603SOL     OW 5707   2.987   5.577   1.431
 1603SOL    HW1 5708   2.968   5.486   1.468
 1603SOL    HW2 5709   2.982   5.645   1.504
 1604SOL     OW 5710   4.389   5.388   1.681
 1604SOL    HW1 5711   4.477   5.381   1.728
 1604SOL    HW2 5712   4.358   5.483   1.683
 1605SOL     OW 5713   3.794   4.794   0.009
 1605SOL    HW1 5714   3.716   4.830   0.060
 1605SOL    HW2 5715   3.823   4.707   0.049
 1606SOL     OW 5716   5.031   5.576   5.115
 1606SOL    HW1 5717   5.080   5.633   5.049
 1606SOL    HW2 5718   4.944   5.619   5.139
 1607SOL     OW 5719   4.556   4.408   3.944
 1607SOL    HW1 5720   4.517   4.478   3.883
 1607SOL    HW2 5721   4.606   4.340   3.890
 1608SOL     OW 5722   6.215   3.449   3.000
 1608SOL    HW1 5723   6.231   3.388   2.923
 1608SOL    HW2 5724   6.219   3.397   3.085
 1609SOL     OW 5725   1.127   6.964   0.839
 1609SOL    HW1 5726   1.173   6.915   0.912
 1609SOL    HW2 5727   1.028   6.966   0.856
 1610SOL     OW 5728   5.144   5.144   0.742
 1610SOL    HW1 5729   5.118   5.168   0.648
 1610SOL    HW2 5730   5.241   5.165   0.756
 1611SOL     OW 5731   0.866   4.548   0.302
 1611SOL    HW1 5732   0.779   4.508   0.329
 1611SOL    HW2 5733   0.891   4.620   0.368
 1612SOL     OW 5734   4.965   6.930   2.229
 1612SOL    HW1 5735   5.058   6.895   2.217
 1612SOL    HW2 5736   4.931   6.966   2.143
 1613SOL     OW 5737   6.663   6.218   2.900
 1613SOL    HW1 5738   6.752   6.241   2.861
 1613SOL    HW2 5739   6.592   6.276   2.860
 1614SOL     OW 5740   6.111   1.399   5.844
 1614SOL    HW1 5741   6.210   1.387   5.842
 1614SOL    HW2 5742   6.089   1.490   5.879
 1615SOL     OW 5743   6.356   3.537   5.995
 1615SOL    HW1 5744   6.264   3.538   5.954
 1615SOL    HW2 5745   6.367   3.454   6.049
 1616SOL     OW 5746   1.837   0.964   3.515
 1616SOL    HW1 5747   1.886   0.957   3.428
 1616SOL    HW2 5748   1.777   1.044   3.514
 1617SOL     OW 5749   6.914   6.377   4.291
 1617SOL    HW1 5750   6.913   6.294   4.348
 1617SOL    HW2 5751   7.009   6.400   4.269
 1618SOL     OW 5752   3.206   5.445   2.713
 1618SOL    HW1 5753   3.295   5.451   2.758
 1618SOL    HW2 5754   3.134   5.469   2.779
 1619SOL     OW 5755   1.189   4.102   6.325
 1619SOL    HW1 5756   1.154   4.065   6.239
 1619SOL    HW2 5757   1.163   4.198   6.333
 1620SOL     OW 5758   3.014   6.958   4.765
 1620SOL    HW1 5759   3.019   0.026   4.729
 1620SOL    HW2 5760   3.106   6.926   4.788
 1621SOL     OW 5761   4.993   4.972   0.888
 1621SOL    HW1 5762   4.905   4.975   0.840
 1621SOL    HW2 5763   5.056   5.037   0.846
 1622SOL     OW 5764   6.533   3.490   4.091
 1622SOL    HW1 5765   6.612   3.448   4.136
 1622SOL    HW2 5766   6.458   3.424   4.087
 1623SOL     OW 5767   0.399   2.240   4.120
 1623SOL    HW1 5768   0.319   2.260   4.063
 1623SOL    HW2 5769   0.376   2.170   4.187
 1624SOL     OW 5770   4.640   3.058   6.908
 1624SOL    HW1 5771   4.564   3.010   6.865
 1624SOL    HW2 5772   4.618   3.155   6.916
 1625SOL     OW 5773   1.066   6.234   0.325
 1625SOL    HW1 5774   1.101   6.189   0.243
 1625SOL    HW2 5775   1.021   6.319   0.300
 1626SOL     OW 5776   3.001   1.532   2.154
 1626SOL    HW1 5777   2.987   1.446   2.202
 1626SOL    HW2 5778   2.934   1.599   2.184
 1627SOL     OW 5779   4.309   0.833   5.830
 1627SOL    HW1 5780   4.408   0.833   5.848
 1627SOL    HW2 5781   4.285   0.916   5.780
 1628SOL     OW 5782   5.680   5.650   1.173
 1628SOL    HW1 5783   5.603   5.598   1.209
 1628SOL    HW2 5784   5.664   5.747   1.188
 1629SOL     OW 5785   1.677   6.179   1.994
 1629SOL    HW1 5786   1.659   6.242   1.919
 1629SOL    HW2 5787   1.776   6.171   2.008
 1630SOL     OW 5788   0.193   4.974   5.757
 1630SOL    HW1 5789   0.114   5.033   5.736
 1630SOL    HW2 5790   0.207   4.973   5.856
 1631SOL     OW 5791   4.984   4.340   6.526
 1631SOL    HW1 5792   4.989   4.242   6.506
 1631SOL    HW2 5793   4.956   4.390   6.444
 1632SOL     OW 5794   5.941   5.191   2.154
 1632SOL    HW1 5795   5.892   5.171   2.239
 1632SOL    HW2 5796   6.039   5.182   2.170
 1633SOL     OW 5797   6.601   4.364   5.432
 1633SOL    HW1 5798   6.525   4.317   5.388
 1633SOL    HW2 5799   6.630   4.441   5.375
 1634SOL     OW 5800   1.119   4.310   6.006
 1634SOL    HW1 5801   1.138   4.385   5.942
 1634SOL    HW2 5802   1.197   4.299   6.068
 1635SOL     OW 5803   2.853   1.359   3.917
 1635SOL    HW1 5804   2.950   1.344   3.898
 1635SOL    HW2 5805   2.838   1.456   3.936
 1636SOL     OW 5806   6.956   6.224   1.853
 1636SOL    HW1 5807   6.943   6.225   1.952
 1636SOL    HW2 5808   0.029   6.223   1.832
 1637SOL     OW 5809   1.515   1.002   1.614
 1637SOL    HW1 5810   1.560   1.036   1.531
 1637SOL    HW2 5811   1.417   1.023   1.609
 1638SOL     OW 5812   5.484   1.410   3.687
 1638SOL    HW1 5813   5.446   1.372   3.772
 1638SOL    HW2 5814   5.449   1.359   3.609
 1639SOL     OW 5815   5.034   2.079   1.114
 1639SOL    HW1 5816   5.108   2.137   1.148
 1639SOL    HW2 5817   4.977   2.131   1.050
 1640SOL     OW 5818   6.811   1.315   6.428
 1640SOL    HW1 5819   6.866   1.284   6.351
 1640SOL    HW2 5820   6.715   1.292   6.412
 1641SOL     OW 5821   6.251   1.127   2.710
 1641SOL    HW1 5822   6.218   1.158   2.800
 1641SOL    HW2 5823   6.203   1.177   2.638
 1642SOL     OW 5824   0.158   3.619   6.658
 1642SOL    HW1 5825   0.157   3.523   6.684
 1642SOL    HW2 5826   0.235   3.636   6.596
 1643SOL     OW 5827   2.311   5.343   4.210
 1643SOL    HW1 5828   2.282   5.271   4.146
 1643SOL    HW2 5829   2.249   5.421   4.203
 1644SOL     OW 5830   5.889   1.746   2.131
 1644SOL    HW1 5831   5.896   1.676   2.201
 1644SOL    HW2 5832   5.801   1.739   2.084
 1645SOL     OW 5833   2.150   1.045   4.009
 1645SOL    HW1 5834   2.202   1.077   4.089
 1645SOL    HW2 5835   2.056   1.079   4.015
 1646SOL     OW 5836   0.014   5.459   1.594
 1646SOL    HW1 5837   0.034   5.552   1.624
 1646SOL    HW2 5838   6.974   5.461   1.518
 1647SOL     OW 5839   6.677   4.118   5.283
 1647SOL    HW1 5840   6.692   4.201   5.337
 1647SOL    HW2 5841   6.764   4.074   5.264
 1648SOL     OW 5842   5.696   5.709   1.798
 1648SOL    HW1 5843   5.645   5.787   1.836
 1648SOL    HW2 5844   5.718   5.727   1.702
 1649SOL     OW 5845   3.480   0.760   3.654
 1649SOL    HW1 5846   3.417   0.831   3.622
 1649SOL    HW2 5847   3.429   0.691   3.706
 1650SOL     OW 5848   2.659   2.973   5.706
 1650SOL    HW1 5849   2.608   2.986   5.791
 1650SOL    HW2 5850   2.655   3.057   5.651
 1651SOL     OW 5851   1.824   2.250   4.488
 1651SOL    HW1 5852   1.910   2.224   4.443
 1651SOL    HW2 5853   1.845   2.309   4.566
 1652SOL     OW 5854   0.183   4.412   1.878
 1652SOL    HW1 5855   0.250   4.420   1.804
 1652SOL    HW2 5856   0.228   4.373   1.959
 1653SOL     OW 5857   5.583   3.962   1.420
 1653SOL    HW1 5858   5.638   4.038   1.383
 1653SOL    HW2 5859   5.631   3.920   1.496
 1654SOL     OW 5860   0.409   2.847   1.712
 1654SOL    HW1 5861   0.507   2.828   1.709
 1654SOL    HW2 5862   0.390   2.933   1.666
 1655SOL     OW 5863   6.546   0.704   6.020
 1655SOL    HW1 5864   6.498   0.704   6.108
 1655SOL    HW2 5865   6.501   0.641   5.957
 1656SOL     OW 5866   2.002   4.772   2.882
 1656SOL    HW1 5867   2.058   4.855   2.884
 1656SOL    HW2 5868   2.041   4.704   2.945
 1657SOL     OW 5869   0.428   1.856   6.181
 1657SOL    HW1 5870   0.450   1.759   6.168
 1657SOL    HW2 5871   0.348   1.864   6.241
 1658SOL     OW 5872   4.342   0.151   5.442
 1658SOL    HW1 5873   4.344   0.224   5.374
 1658SOL    HW2 5874   4.428   0.151   5.494
 1659SOL     OW 5875   2.660   0.956   6.828
 1659SOL    HW1 5876   2.706   0.875   6.793
 1659SOL    HW2 5877   2.713   1.037   6.804
 1660SOL     OW 5878   2.589   0.841   1.469
 1660SOL    HW1 5879   2.522   0.780   1.427
 1660SOL    HW2 5880   2.578   0.840   1.568
 1661SOL     OW 5881   4.484   4.950   3.307
 1661SOL    HW1 5882   4.396   4.923   3.267
 1661SOL    HW2 5883   4.468   5.008   3.387
 1662SOL     OW 5884   0.753   2.447   4.269
 1662SOL    HW1 5885   0.712   2.538   4.276
 1662SOL    HW2 5886   0.769   2.411   4.362
 1663SOL     OW 5887   6.728   3.918   1.307
 1663SOL    HW1 5888   6.753   3.839   1.249
 1663SOL    HW2 5889   6.698   3.885   1.396
 1664SOL     OW 5890   1.070   0.839   6.935
 1664SOL    HW1 5891   1.077   0.770   6.862
 1664SOL    HW2 5892   0.983   0.826   6.983
 1665SOL     OW 5893   1.559   3.454   0.440
 1665SOL    HW1 5894   1.656   3.462   0.416
 1665SOL    HW2 5895   1.548   3.466   0.539
 1666SOL     OW 5896   6.122   6.280   5.360
 1666SOL    HW1 5897   6.101   6.361   5.306
 1666SOL    HW2 5898   6.069   6.202   5.325
 1667SOL     OW 5899   6.576   5.642   1.172
 1667SOL    HW1 5900   6.500   5.668   1.114
 1667SOL    HW2 5901   6.659   5.688   1.142
 1668SOL     OW 5902   6.937   2.885   2.333
 1668SOL    HW1 5903   6.875   2.832   2.391
 1668SOL    HW2 5904   6.915   2.869   2.237
 1669SOL     OW 5905   6.265   2.886   5.256
 1669SOL    HW1 5906   6.244   2.970   5.305
 1669SOL    HW2 5907   6.347   2.844   5.296
 1670SOL     OW 5908   3.097   4.391   5.267
 1670SOL    HW1 5909   3.117   4.322   5.197
 1670SOL    HW2 5910   3.023   4.450   5.235
 1671SOL     OW 5911   5.851   2.579   0.409
 1671SOL    HW1 5912   5.913   2.576   0.488
 1671SOL    HW2 5913   5.872   2.504   0.347
 1672SOL     OW 5914   1.002   1.944   1.851
 1672SOL    HW1 5915   0.958   1.855   1.867
 1672SOL    HW2 5916   1.055   1.939   1.766
 1673SOL     OW 5917   0.990   0.890   6.493
 1673SOL    HW1 5918   1.028   0.938   6.572
 1673SOL    HW2 5919   1.058   0.826   6.458
 1674SOL     OW 5920   5.099   2.724   3.414
 1674SOL    HW1 5921   5.115   2.633   3.454
 1674SOL    HW2 5922   5.031   2.772   3.468
 1675SOL     OW 5923   4.933   0.924   2.056
 1675SOL    HW1 5924   4.975   0.904   1.967
 1675SOL    HW2 5925   4.953   1.018   2.081
 1676SOL     OW 5926   2.545   1.615   3.684
 1676SOL    HW1 5927   2.502   1.526   3.670
 1676SOL    HW2 5928   2.474   1.685   3.695
 1677SOL     OW 5929   2.781   3.195   1.768
 1677SOL    HW1 5930   2.703   3.255   1.781
 1677SOL    HW2 5931   2.855   3.222   1.830
 1678SOL     OW 5932   6.562   6.807   1.042
 1678SOL    HW1 5933   6.579   6.862   1.124
 1678SOL    HW2 5934   6.567   6.865   0.961
 1679SOL     OW 5935   6.694   2.243   6.776
 1679SOL    HW1 5936   6.718   2.210   6.867
 1679SOL    HW2 5937   6.777   2.257   6.723
 1680SOL     OW 5938   5.665   1.678   3.922
 1680SOL    HW1 5939   5.729   1.608   3.889
 1680SOL    HW2 5940   5.714   1.742   3.981
 1681SOL     OW 5941   4.630   6.716   4.074
 1681SOL    HW1 5942   4.726   6.742   4.065
 1681SOL    HW2 5943   4.572   6.796   4.060
 1682SOL     OW 5944   4.373   1.765   5.241
 1682SOL    HW1 5945   4.407   1.851   5.280
 1682SOL    HW2 5946   4.400   1.758   5.145
 1683SOL     OW 5947   1.105   4.270   3.895
 1683SOL    HW1 5948   1.103   4.310   3.987
 1683SOL    HW2 5949   1.086   4.341   3.828
 1684SOL     OW 5950   3.334   5.933   1.472
 1684SOL    HW1 5951   3.271   5.911   1.398
 1684SOL    HW2 5952   3.381   6.019   1.452
 1685SOL     OW 5953   6.872   1.894   5.708
 1685SOL    HW1 5954   6.789   1.910   5.654
 1685SOL    HW2 5955   6.846   1.867   5.801
 1686SOL     OW 5956   3.077   6.213   1.084
 1686SOL    HW1 5957   3.003   6.280   1.092
 1686SOL    HW2 5958   3.080   6.178   0.991
 1687SOL     OW 5959   4.817   4.269   6.740
 1687SOL    HW1 5960   4.871   4.306   6.664
 1687SOL    HW2 5961   4.817   4.169   6.734
 1688SOL     OW 5962   2.673   0.853   2.760
 1688SOL    HW1 5963   2.668   0.868   2.858
 1688SOL    HW2 5964   2.632   0.764   2.737
 1689SOL     OW 5965   4.414   1.071   2.040
 1689SOL    HW1 5966   4.483   1.104   1.975
 1689SOL    HW2 5967   4.420   0.971   2.046
 1690SOL     OW 5968   0.337   4.508   4.147
 1690SOL    HW1 5969   0.411   4.455   4.188
 1690SOL    HW2 5970   0.285   4.450   4.084
 1691SOL     OW 5971   4.771   2.938   5.408
 1691SOL    HW1 5972   4.782   3.033   5.378
 1691SOL    HW2 5973   4.714   2.889   5.341
 1692SOL     OW 5974   5.870   5.493   2.843
 1692SOL    HW1 5975   5.807   5.510   2.919
 1692SOL    HW2 5976   5.864   5.397   2.816
 1693SOL     OW 5977   5.436   0.472   5.957
 1693SOL    HW1 5978   5.444   0.381   5.916
 1693SOL    HW2 5979   5.399   0.536   5.889
 1694SOL     OW 5980   4.507   1.219   6.435
 1694SOL    HW1 5981   4.417   1.260   6.448
 1694SOL    HW2 5982   4.497   1.130   6.390
 1695SOL     OW 5983   5.796   1.421   5.545
 1695SOL    HW1 5984   5.780   1.385   5.453
 1695SOL    HW2 5985   5.721   1.394   5.605
 1696SOL     OW 5986   5.163   6.884   1.097
 1696SOL    HW1 5987   5.185   6.944   1.173
 1696SOL    HW2 5988   5.217   6.910   1.017
 1697SOL     OW 5989   4.073   4.006   1.704
 1697SOL    HW1 5990   4.001   4.064   1.742
 1697SOL    HW2 5991   4.033   3.939   1.642
 1698SOL     OW 5992   4.899   2.385   1.186
 1698SOL    HW1 5993   4.828   2.456   1.191
 1698SOL    HW2 5994   4.900   2.344   1.095
 1699SOL     OW 5995   1.710   0.378   1.003
 1699SOL    HW1 5996   1.686   0.307   0.937
 1699SOL    HW2 5997   1.628   0.410   1.050
 1700SOL     OW 5998   5.883   3.210   2.975
 1700SOL    HW1 5999   5.937   3.231   3.056
 1700SOL    HW2 6000   5.871   3.111   2.967
 1701SOL     OW 6001   1.221   5.825   5.056
 1701SOL    HW1 6002   1.261   5.880   4.982
 1701SOL    HW2 6003   1.153   5.763   5.018
 1702SOL     OW 6004   2.008   2.418   6.902
 1702SOL    HW1 6005   2.068   2.431   6.981
 1702SOL    HW2 6006   2.061   2.382   6.825
 1703SOL     OW 6007   1.914   1.473   2.009
 1703SOL    HW1 6008   1.936   1.509   1.919
 1703SOL    HW2 6009   1.816   1.455   2.015
 1704SOL     OW 6010   3.076   2.529   6.691
 1704SOL    HW1 6011   3.026   2.571   6.767
 1704SOL    HW2 6012   3.167   2.570   6.685
 1705SOL     OW 6013   5.867   3.131   1.039
 1705SOL    HW1 6014   5.794   3.144   1.106
 1705SOL    HW2 6015   5.904   3.039   1.047
 1706SOL     OW 6016   6.135   0.605   5.803
 1706SOL    HW1 6017   6.224   0.649   5.814
 1706SOL    HW2 6018   6.108   0.607   5.707
 1707SOL     OW 6019   2.839   1.185   2.492
 1707SOL    HW1 6020   2.882   1.238   2.419
 1707SOL    HW2 6021   2.749   1.224   2.513
 1708SOL     OW 6022   2.530   4.532   1.565
 1708SOL    HW1 6023   2.554   4.594   1.639
 1708SOL    HW2 6024   2.484   4.584   1.492
 1709SOL     OW 6025   5.763   5.219   2.352
 1709SOL    HW1 6026   5.728   5.238   2.443
 1709SOL    HW2 6027   5.691   5.234   2.284
 1710SOL     OW 6028   4.824   2.807   2.057
 1710SOL    HW1 6029   4.807   2.905   2.043
 1710SOL    HW2 6030   4.915   2.784   2.023
 1711SOL     OW 6031   3.885   5.287   0.542
 1711SOL    HW1 6032   3.983   5.271   0.534
 1711SOL    HW2 6033   3.843   5.209   0.589
 1712SOL     OW 6034   0.545   2.595   2.425
 1712SOL    HW1 6035   0.587   2.531   2.490
 1712SOL    HW2 6036   0.448   2.574   2.416
 1713SOL     OW 6037   2.616   1.462   2.875
 1713SOL    HW1 6038   2.534   1.447   2.930
 1713SOL    HW2 6039   2.663   1.375   2.859
 1714SOL     OW 6040   3.452   4.996   1.119
 1714SOL    HW1 6041   3.399   5.045   1.189
 1714SOL    HW2 6042   3.390   4.963   1.048
 1715SOL     OW 6043   1.374   5.611   1.015
 1715SOL    HW1 6044   1.382   5.707   1.042
 1715SOL    HW2 6045   1.383   5.553   1.096
 1716SOL     OW 6046   4.995   1.434   2.375
 1716SOL    HW1 6047   4.972   1.395   2.464
 1716SOL    HW2 6048   4.911   1.452   2.324
 1717SOL     OW 6049   3.643   6.887   4.385
 1717SOL    HW1 6050   3.736   6.925   4.384
 1717SOL    HW2 6051   3.577   6.960   4.366
 1718SOL     OW 6052   1.577   3.828   1.941
 1718SOL    HW1 6053   1.498   3.888   1.927
 1718SOL    HW2 6054   1.581   3.760   1.869
 1719SOL     OW 6055   1.512   4.971   2.947
 1719SOL    HW1 6056   1.611   4.983   2.942
 1719SOL    HW2 6057   1.467   5.031   2.881
 1720SOL     OW 6058   1.572   2.664   5.494
 1720SOL    HW1 6059   1.653   2.639   5.441
 1720SOL    HW2 6060   1.494   2.611   5.461
 1721SOL     OW 6061   2.111   2.346   0.397
 1721SOL    HW1 6062   2.151   2.255   0.407
 1721SOL    HW2 6063   2.011   2.337   0.394
 1722SOL     OW 6064   3.964   2.196   2.966
 1722SOL    HW1 6065   3.951   2.104   3.004
 1722SOL    HW2 6066   3.903   2.208   2.888
 1723SOL     OW 6067   6.209   5.583   1.809
 1723SOL    HW1 6068   6.282   5.643   1.773
 1723SOL    HW2 6069   6.121   5.612   1.771
 1724SOL     OW 6070   5.897   3.857   1.289
 1724SOL    HW1 6071   5.900   3.946   1.336
 1724SOL    HW2 6072   5.909   3.784   1.356
 1725SOL     OW 6073   1.894   6.523   4.703
 1725SOL    HW1 6074   1.951   6.456   4.655
 1725SOL    HW2 6075   1.950   6.602   4.728
 1726SOL     OW 6076   5.819   5.183   3.111
 1726SOL    HW1 6077   5.826   5.085   3.127
 1726SOL    HW2 6078   5.890   5.211   3.045
 1727SOL     OW 6079   2.898   3.574   3.857
 1727SOL    HW1 6080   2.918   3.476   3.861
 1727SOL    HW2 6081   2.819   3.594   3.915
 1728SOL     OW 6082   5.399   2.391   4.475
 1728SOL    HW1 6083   5.444   2.329   4.410
 1728SOL    HW2 6084   5.345   2.337   4.539
 1729SOL     OW 6085   1.723   3.364   2.644
 1729SOL    HW1 6086   1.759   3.436   2.585
 1729SOL    HW2 6087   1.624   3.376   2.654
 1730SOL     OW 6088   2.930   0.637   4.377
 1730SOL    HW1 6089   2.859   0.656   4.308
 1730SOL    HW2 6090   2.891   0.581   4.450
 1731SOL     OW 6091   6.711   5.143   2.842
 1731SOL    HW1 6092   6.723   5.235   2.804
 1731SOL    HW2 6093   6.740   5.142   2.937
 1732SOL     OW 6094   3.936   3.020   4.811
 1732SOL    HW1 6095   3.965   2.928   4.785
 1732SOL    HW2 6096   3.836   3.022   4.820
 1733SOL     OW 6097   1.043   1.920   0.032
 1733SOL    HW1 6098   1.026   2.003   7.004
 1733SOL    HW2 6099   1.112   1.939   0.102
 1734SOL     OW 6100   0.727   4.854   2.450
 1734SOL    HW1 6101   0.819   4.872   2.415
 1734SOL    HW2 6102   0.731   4.780   2.517
 1735SOL     OW 6103   3.298   5.726   5.724
 1735SOL    HW1 6104   3.342   5.724   5.634
 1735SOL    HW2 6105   3.209   5.680   5.719
 1736SOL     OW 6106   4.250   1.989   4.995
 1736SOL    HW1 6107   4.197   1.906   4.978
 1736SOL    HW2 6108   4.337   1.983   4.947
 1737SOL     OW 6109   1.778   0.419   6.992
 1737SOL    HW1 6110   1.780   0.349   0.038
 1737SOL    HW2 6111   1.852   0.485   7.008
 1738SOL     OW 6112   1.022   3.509   2.062
 1738SOL    HW1 6113   1.078   3.522   2.144
 1738SOL    HW2 6114   0.926   3.498   2.087
 1739SOL     OW 6115   4.356   5.871   3.011
 1739SOL    HW1 6116   4.341   5.957   3.061
 1739SOL    HW2 6117   4.419   5.888   2.934
 1740SOL     OW 6118   0.276   2.382   4.928
 1740SOL    HW1 6119   0.343   2.417   4.863
 1740SOL    HW2 6120   0.199   2.342   4.878
 1741SOL     OW 6121   1.328   2.216   4.274
 1741SOL    HW1 6122   1.366   2.125   4.288
 1741SOL    HW2 6123   1.399   2.278   4.243
 1742SOL     OW 6124   6.050   0.490   6.198
 1742SOL    HW1 6125   6.089   0.531   6.280
 1742SOL    HW2 6126   5.950   0.496   6.202
 1743SOL     OW 6127   0.897   1.876   2.727
 1743SOL    HW1 6128   0.863   1.871   2.633
 1743SOL    HW2 6129   0.932   1.968   2.744
 1744SOL     OW 6130   2.787   2.011   5.572
 1744SOL    HW1 6131   2.794   2.029   5.473
 1744SOL    HW2 6132   2.865   2.052   5.619
 1745SOL     OW 6133   5.660   0.091   0.873
 1745SOL    HW1 6134   5.673   0.160   0.945
 1745SOL    HW2 6135   5.698   0.125   0.787
 1746SOL     OW 6136   2.967   5.319   2.173
 1746SOL    HW1 6137   2.879   5.279   2.200
 1746SOL    HW2 6138   2.956   5.367   2.086
 1747SOL     OW 6139   2.642   6.582   2.096
 1747SOL    HW1 6140   2.643   6.680   2.111
 1747SOL    HW2 6141   2.559   6.543   2.135
 1748SOL     OW 6142   6.560   1.083   4.236
 1748SOL    HW1 6143   6.641   1.044   4.192
 1748SOL    HW2 6144   6.546   1.176   4.203
 1749SOL     OW 6145   6.496   5.593   2.230
 1749SOL    HW1 6146   6.428   5.599   2.157
 1749SOL    HW2 6147   6.568   5.528   2.204
 1750SOL     OW 6148   2.717   2.105   0.511
 1750SOL    HW1 6149   2.702   2.133   0.605
 1750SOL    HW2 6150   2.668   2.167   0.449
 1751SOL     OW 6151   6.427   4.108   4.374
 1751SOL    HW1 6152   6.365   4.165   4.427
 1751SOL    HW2 6153   6.508   4.160   4.348
 1752SOL     OW 6154   6.220   0.258   2.965
 1752SOL    HW1 6155   6.262   0.195   2.900
 1752SOL    HW2 6156   6.136   0.218   3.001
 1753SOL     OW 6157   6.895   1.546   0.673
 1753SOL    HW1 6158   6.930   1.465   0.720
 1753SOL    HW2 6159   6.811   1.523   0.625
 1754SOL     OW 6160   1.949   4.570   3.839
 1754SOL    HW1 6161   2.000   4.488   3.863
 1754SOL    HW2 6162   1.984   4.648   3.892
 1755SOL     OW 6163   4.832   7.014   5.261
 1755SOL    HW1 6164   4.811   6.936   5.203
 1755SOL    HW2 6165   4.919   6.997   5.308
 1756SOL     OW 6166   4.495   5.325   1.065
 1756SOL    HW1 6167   4.549   5.248   1.099
 1756SOL    HW2 6168   4.486   5.317   0.966
 1757SOL     OW 6169   2.949   5.261   5.176
 1757SOL    HW1 6170   2.869   5.232   5.229
 1757SOL    HW2 6171   2.988   5.183   5.128
 1758SOL     OW 6172   7.022   6.236   3.942
 1758SOL    HW1 6173   0.003   6.140   3.970
 1758SOL    HW2 6174   0.078   6.285   3.973
 1759SOL     OW 6175   1.713   5.802   6.151
 1759SOL    HW1 6176   1.797   5.750   6.132
 1759SOL    HW2 6177   1.674   5.834   6.065
 1760SOL     OW 6178   5.965   1.369   4.187
 1760SOL    HW1 6179   5.899   1.423   4.240
 1760SOL    HW2 6180   6.046   1.425   4.167
 1761SOL     OW 6181   4.647   2.396   4.323
 1761SOL    HW1 6182   4.624   2.304   4.354
 1761SOL    HW2 6183   4.745   2.413   4.340
 1762SOL     OW 6184   0.798   1.401   5.152
 1762SOL    HW1 6185   0.803   1.439   5.245
 1762SOL    HW2 6186   0.871   1.441   5.096
 1763SOL     OW 6187   1.044   5.108   4.505
 1763SOL    HW1 6188   0.950   5.142   4.499
 1763SOL    HW2 6189   1.066   5.057   4.422
 1764SOL     OW 6190   0.641   5.177   2.967
 1764SOL    HW1 6191   0.704   5.206   3.040
 1764SOL    HW2 6192   0.668   5.220   2.881
 1765SOL     OW 6193   5.304   3.805   2.483
 1765SOL    HW1 6194   5.242   3.882   2.497
 1765SOL    HW2 6195   5.261   3.737   2.425
 1766SOL     OW 6196   3.837   4.887   3.824
 1766SOL    HW1 6197   3.747   4.914   3.861
 1766SOL    HW2 6198   3.833   4.886   3.725
 1767SOL     OW 6199   2.584   4.742   1.720
 1767SOL    HW1 6200   2.679   4.774   1.719
 1767SOL    HW2 6201   2.548   4.750   1.813
 1768SOL     OW 6202   3.834   5.347   2.417
 1768SOL    HW1 6203   3.782   5.387   2.341
 1768SOL    HW2 6204   3.790   5.262   2.447
 1769SOL     OW 6205   5.130   0.149   0.230
 1769SOL    HW1 6206   5.065   0.104   0.168
 1769SOL    HW2 6207   5.107   0.126   0.324
 1770SOL     OW 6208   2.154   3.374   0.295
 1770SOL    HW1 6209   2.122   3.425   0.375
 1770SOL    HW2 6210   2.228   3.312   0.322
 1771SOL     OW 6211   1.742   3.200   6.406
 1771SOL    HW1 6212   1.766   3.107   6.433
 1771SOL    HW2 6213   1.680   3.239   6.474
 1772SOL     OW 6214   2.428   5.224   1.496
 1772SOL    HW1 6215   2.499   5.163   1.460
 1772SOL    HW2 6216   2.471   5.295   1.552
 1773SOL     OW 6217   2.148   5.707   4.568
 1773SOL    HW1 6218   2.210   5.756   4.506
 1773SOL    HW2 6219   2.067   5.677   4.517
 1774SOL     OW 6220   5.867   4.711   1.845
 1774SOL    HW1 6221   5.919   4.725   1.930
 1774SOL    HW2 6222   5.770   4.706   1.866
 1775SOL     OW 6223   1.910   6.353   0.777
 1775SOL    HW1 6224   1.897   6.302   0.692
 1775SOL    HW2 6225   1.928   6.449   0.757
 1776SOL     OW 6226   4.435   3.245   5.997
 1776SOL    HW1 6227   4.377   3.325   6.007
 1776SOL    HW2 6228   4.467   3.215   6.088
 1777SOL     OW 6229   4.914   4.899   6.136
 1777SOL    HW1 6230   4.912   4.997   6.116
 1777SOL    HW2 6231   4.847   4.852   6.079
 1778SOL     OW 6232   7.018   0.181   2.739
 1778SOL    HW1 6233   0.040   0.159   2.654
 1778SOL    HW2 6234   0.056   0.228   2.801
 1779SOL     OW 6235   6.925   6.442   5.057
 1779SOL    HW1 6236   6.901   6.537   5.037
 1779SOL    HW2 6237   7.000   6.413   4.998
 1780SOL     OW 6238   2.594   6.932   4.887
 1780SOL    HW1 6239   2.530   6.988   4.939
 1780SOL    HW2 6240   2.552   6.907   4.799
 1781SOL     OW 6241   3.742   1.148   5.438
 1781SOL    HW1 6242   3.664   1.141   5.376
 1781SOL    HW2 6243   3.714   1.193   5.522
 1782SOL     OW 6244   6.098   0.199   2.161
 1782SOL    HW1 6245   6.154   0.196   2.078
 1782SOL    HW2 6246   6.002   0.209   2.136
 1783SOL     OW 6247   1.190   2.976   6.580
 1783SOL    HW1 6248   1.201   3.069   6.616
 1783SOL    HW2 6249   1.175   2.980   6.481
 1784SOL     OW 6250   1.601   5.949   1.285
 1784SOL    HW1 6251   1.591   5.924   1.381
 1784SOL    HW2 6252   1.678   6.013   1.275
 1785SOL     OW 6253   2.496   5.212   5.147
 1785SOL    HW1 6254   2.544   5.189   5.232
 1785SOL    HW2 6255   2.541   5.290   5.104
 1786SOL     OW 6256   0.612   5.558   2.324
 1786SOL    HW1 6257   0.687   5.543   2.389
 1786SOL    HW2 6258   0.542   5.489   2.338
 1787SOL     OW 6259   2.754   1.457   6.168
 1787SOL    HW1 6260   2.778   1.361   6.183
 1787SOL    HW2 6261   2.678   1.482   6.229
 1788SOL     OW 6262   3.620   4.041   0.513
 1788SOL    HW1 6263   3.587   4.107   0.580
 1788SOL    HW2 6264   3.555   4.034   0.437
 1789SOL     OW 6265   6.167   3.387   3.890
 1789SOL    HW1 6266   6.069   3.367   3.897
 1789SOL    HW2 6267   6.205   3.395   3.982
 1790SOL     OW 6268   2.562   2.476   4.708
 1790SOL    HW1 6269   2.510   2.538   4.650
 1790SOL    HW2 6270   2.628   2.426   4.652
 1791SOL     OW 6271   6.603   0.527   3.033
 1791SOL    HW1 6272   6.567   0.469   2.959
 1791SOL    HW2 6273   6.537   0.599   3.053
 1792SOL     OW 6274   0.167   3.561   5.936
 1792SOL    HW1 6275   0.259   3.565   5.975
 1792SOL    HW2 6276   0.103   3.526   6.004
 1793SOL     OW 6277   1.019   2.381   5.386
 1793SOL    HW1 6278   0.949   2.389   5.315
 1793SOL    HW2 6279   1.104   2.347   5.345
 1794SOL     OW 6280   6.966   2.296   6.673
 1794SOL    HW1 6281   6.953   2.325   6.578
 1794SOL    HW2 6282   0.036   2.274   6.688
 1795SOL     OW 6283   5.680   3.443   1.019
 1795SOL    HW1 6284   5.688   3.457   0.920
 1795SOL    HW2 6285   5.770   3.448   1.061
 1796SOL     OW 6286   6.462   6.393   6.105
 1796SOL    HW1 6287   6.489   6.489   6.118
 1796SOL    HW2 6288   6.502   6.337   6.177
 1797SOL     OW 6289   3.055   6.361   5.415
 1797SOL    HW1 6290   3.120   6.388   5.485
 1797SOL    HW2 6291   2.963   6.389   5.441
 1798SOL     OW 6292   2.541   4.475   6.871
 1798SOL    HW1 6293   2.556   4.473   6.969
 1798SOL    HW2 6294   2.610   4.532   6.827
 1799SOL     OW 6295   3.765   1.902   1.625
 1799SOL    HW1 6296   3.817   1.869   1.704
 1799SOL    HW2 6297   3.768   2.002   1.623
 1800SOL     OW 6298   5.501   2.523   5.935
 1800SOL    HW1 6299   5.600   2.512   5.946
 1800SOL    HW2 6300   5.482   2.586   5.860
 1801SOL     OW 6301   1.011   2.121   2.734
 1801SOL    HW1 6302   1.073   2.106   2.657
 1801SOL    HW2 6303   0.945   2.192   2.710
 1802SOL     OW 6304   6.185   4.277   4.856
 1802SOL    HW1 6305   6.225   4.357   4.812
 1802SOL    HW2 6306   6.086   4.287   4.861
 1803SOL     OW 6307   5.729   6.403   3.499
 1803SOL    HW1 6308   5.689   6.324   3.453
 1803SOL    HW2 6309   5.780   6.372   3.579
 1804SOL     OW 6310   1.531   2.974   6.022
 1804SOL    HW1 6311   1.559   2.920   5.943
 1804SOL    HW2 6312   1.610   3.025   6.057
 1805SOL     OW 6313   6.690   5.240   6.035
 1805SOL    HW1 6314   6.732   5.290   5.959
 1805SOL    HW2 6315   6.660   5.150   6.003
 1806SOL     OW 6316   0.238   1.120   2.439
 1806SOL    HW1 6317   0.207   1.190   2.375
 1806SOL    HW2 6318   0.160   1.076   2.481
 1807SOL     OW 6319   6.733   2.752   2.477
 1807SOL    HW1 6320   6.695   2.776   2.566
 1807SOL    HW2 6321   6.685   2.803   2.405
 1808SOL     OW 6322   5.458   1.075   6.934
 1808SOL    HW1 6323   5.468   1.132   6.852
 1808SOL    HW2 6324   5.488   1.127   7.014
 1809SOL     OW 6325   4.361   0.826   4.920
 1809SOL    HW1 6326   4.305   0.851   4.999
 1809SOL    HW2 6327   4.434   0.893   4.909
 1810SOL     OW 6328   0.971   1.074   4.065
 1810SOL    HW1 6329   0.892   1.133   4.049
 1810SOL    HW2 6330   0.986   1.017   3.985
 1811SOL     OW 6331   2.959   5.299   1.492
 1811SOL    HW1 6332   2.952   5.221   1.555
 1811SOL    HW2 6333   2.967   5.265   1.398
 1812SOL     OW 6334   3.702   0.726   6.348
 1812SOL    HW1 6335   3.606   0.753   6.350
 1812SOL    HW2 6336   3.712   0.637   6.304
 1813SOL     OW 6337   5.309   3.254   1.643
 1813SOL    HW1 6338   5.379   3.311   1.600
 1813SOL    HW2 6339   5.289   3.290   1.734
 1814SOL     OW 6340   6.370   5.711   1.564
 1814SOL    HW1 6341   6.452   5.756   1.530
 1814SOL    HW2 6342   6.334   5.649   1.495
 1815SOL     OW 6343   6.315   5.983   1.134
 1815SOL    HW1 6344   6.279   6.030   1.053
 1815SOL    HW2 6345   6.288   6.032   1.216
 1816SOL     OW 6346   3.845   5.311   4.936
 1816SOL    HW1 6347   3.766   5.372   4.932
 1816SOL    HW2 6348   3.817   5.221   4.969
 1817SOL     OW 6349   6.615   2.577   4.719
 1817SOL    HW1 6350   6.619   2.496   4.779
 1817SOL    HW2 6351   6.582   2.655   4.772
 1818SOL     OW 6352   2.239   2.514   0.228
 1818SOL    HW1 6353   2.169   2.467   0.282
 1818SOL    HW2 6354   2.324   2.519   0.281
 1819SOL     OW 6355   0.960   3.181   0.638
 1819SOL    HW1 6356   1.049   3.218   0.612
 1819SOL    HW2 6357   0.905   3.252   0.681
 1820SOL     OW 6358   3.551   6.491   4.510
 1820SOL    HW1 6359   3.592   6.483   4.419
 1820SOL    HW2 6360   3.597   6.428   4.573
 1821SOL     OW 6361   4.130   1.343   2.784
 1821SOL    HW1 6362   4.097   1.331   2.878
 1821SOL    HW2 6363   4.188   1.424   2.778
 1822SOL     OW 6364   2.538   4.664   5.122
 1822SOL    HW1 6365   2.560   4.649   5.026
 1822SOL    HW2 6366   2.610   4.718   5.165
 1823SOL     OW 6367   4.802   0.063   4.646
 1823SOL    HW1 6368   4.719   0.022   4.608
 1823SOL    HW2 6369   4.876   7.020   4.644
 1824SOL     OW 6370   4.474   2.779   1.783
 1824SOL    HW1 6371   4.509   2.869   1.810
 1824SOL    HW2 6372   4.377   2.785   1.762
 1825SOL     OW 6373   1.559   3.540   0.176
 1825SOL    HW1 6374   1.555   3.503   0.269
 1825SOL    HW2 6375   1.556   3.640   0.180
 1826SOL     OW 6376   4.181   3.153   6.913
 1826SOL    HW1 6377   4.085   3.146   6.886
 1826SOL    HW2 6378   4.187   3.176   7.010
 1827SOL     OW 6379   5.275   4.423   0.643
 1827SOL    HW1 6380   5.262   4.489   0.569
 1827SOL    HW2 6381   5.187   4.400   0.683
 1828SOL     OW 6382   2.717   6.144   5.017
 1828SOL    HW1 6383   2.709   6.088   5.100
 1828SOL    HW2 6384   2.650   6.114   4.950
 1829SOL     OW 6385   2.234   6.011   2.466
 1829SOL    HW1 6386   2.304   6.019   2.536
 1829SOL    HW2 6387   2.248   5.926   2.414
 1830SOL     OW 6388   4.328   1.614   6.696
 1830SOL    HW1 6389   4.261   1.544   6.669
 1830SOL    HW2 6390   4.392   1.630   6.620
 1831SOL     OW 6391   3.152   3.860   6.746
 1831SOL    HW1 6392   3.238   3.812   6.761
 1831SOL    HW2 6393   3.115   3.892   6.833
 1832SOL     OW 6394   2.346   2.227   5.707
 1832SOL    HW1 6395   2.367   2.240   5.804
 1832SOL    HW2 6396   2.361   2.313   5.658
 1833SOL     OW 6397   5.698   1.683   0.302
 1833SOL    HW1 6398   5.684   1.737   0.385
 1833SOL    HW2 6399   5.680   1.740   0.222
 1834SOL     OW 6400   1.448   3.688   6.482
 1834SOL    HW1 6401   1.527   3.738   6.447
 1834SOL    HW2 6402   1.455   3.591   6.455
 1835SOL     OW 6403   6.275   0.619   6.116
 1835SOL    HW1 6404   6.198   0.562   6.147
 1835SOL    HW2 6405   6.240   0.704   6.077
 1836SOL     OW 6406   5.543   0.920   5.204
 1836SOL    HW1 6407   5.546   0.828   5.243
 1836SOL    HW2 6408   5.508   0.914   5.110
 1837SOL     OW 6409   1.351   1.724   1.497
 1837SOL    HW1 6410   1.302   1.685   1.418
 1837SOL    HW2 6411   1.419   1.790   1.464
 1838SOL     OW 6412   4.896   0.531   0.112
 1838SOL    HW1 6413   4.807   0.495   0.084
 1838SOL    HW2 6414   4.913   0.617   0.065
 1839SOL     OW 6415   0.215   2.238   6.704
 1839SOL    HW1 6416   0.275   2.308   6.666
 1839SOL    HW2 6417   0.261   2.190   6.778
 1840SOL     OW 6418   1.862   6.726   5.410
 1840SOL    HW1 6419   1.936   6.762   5.353
 1840SOL    HW2 6420   1.815   6.802   5.455
 1841SOL     OW 6421   1.787   0.268   1.471
 1841SOL    HW1 6422   1.793   0.223   1.560
 1841SOL    HW2 6423   1.853   0.344   1.468
 1842SOL     OW 6424   0.294   4.898   1.622
 1842SOL    HW1 6425   0.367   4.839   1.587
 1842SOL    HW2 6426   0.216   4.842   1.650
 1843SOL     OW 6427   3.566   0.484   6.737
 1843SOL    HW1 6428   3.572   0.427   6.820
 1843SOL    HW2 6429   3.499   0.445   6.675
 1844SOL     OW 6430   5.020   3.008   1.439
 1844SOL    HW1 6431   4.985   3.095   1.474
 1844SOL    HW2 6432   5.047   3.020   1.343
 1845SOL     OW 6433   0.563   2.651   4.767
 1845SOL    HW1 6434   0.501   2.573   4.764
 1845SOL    HW2 6435   0.615   2.656   4.682
 1846SOL     OW 6436   3.872   1.065   1.897
 1846SOL    HW1 6437   3.955   1.014   1.916
 1846SOL    HW2 6438   3.879   1.108   1.806
 1847SOL     OW 6439   2.897   5.808   6.948
 1847SOL    HW1 6440   2.893   5.886   7.011
 1847SOL    HW2 6441   2.963   5.826   6.876
 1848SOL     OW 6442   2.823   5.896   4.473
 1848SOL    HW1 6443   2.727   5.919   4.488
 1848SOL    HW2 6444   2.845   5.812   4.522
 1849SOL     OW 6445   4.786   2.886   2.435
 1849SOL    HW1 6446   4.769   2.978   2.399
 1849SOL    HW2 6447   4.755   2.818   2.368
 1850SOL     OW 6448   4.742   1.118   0.705
 1850SOL    HW1 6449   4.661   1.091   0.653
 1850SOL    HW2 6450   4.741   1.217   0.720
 1851SOL     OW 6451   2.097   4.919   3.597
 1851SOL    HW1 6452   2.131   4.935   3.505
 1851SOL    HW2 6453   2.062   4.825   3.604
 1852SOL     OW 6454   0.116   0.542   4.661
 1852SOL    HW1 6455   0.053   0.614   4.687
 1852SOL    HW2 6456   0.098   0.514   4.567
 1853SOL     OW 6457   1.064   1.897   4.980
 1853SOL    HW1 6458   1.127   1.826   5.011
 1853SOL    HW2 6459   1.021   1.940   5.060
 1854SOL     OW 6460   1.306   6.824   3.796
 1854SOL    HW1 6461   1.341   6.762   3.867
 1854SOL    HW2 6462   1.230   6.877   3.834
 1855SOL     OW 6463   6.191   1.386   5.205
 1855SOL    HW1 6464   6.262   1.438   5.253
 1855SOL    HW2 6465   6.229   1.347   5.121
 1856SOL     OW 6466   4.365   3.706   6.942
 1856SOL    HW1 6467   4.464   3.720   6.946
 1856SOL    HW2 6468   4.326   3.715   0.009
 1857SOL     OW 6469   4.638   1.147   6.742
 1857SOL    HW1 6470   4.634   1.050   6.716
 1857SOL    HW2 6471   4.546   1.186   6.738
 1858SOL     OW 6472   4.078   1.910   4.615
 1858SOL    HW1 6473   4.080   2.007   4.638
 1858SOL    HW2 6474   4.073   1.856   4.699
 1859SOL     OW 6475   6.678   5.784   3.338
 1859SOL    HW1 6476   6.706   5.693   3.368
 1859SOL    HW2 6477   6.747   5.852   3.366
 1860SOL     OW 6478   1.520   6.811   0.285
 1860SOL    HW1 6479   1.483   6.718   0.285
 1860SOL    HW2 6480   1.476   6.864   0.357
 1861SOL     OW 6481   6.336   6.982   5.199
 1861SOL    HW1 6482   6.408   6.981   5.131
 1861SOL    HW2 6483   6.294   6.892   5.205
 1862SOL     OW 6484   4.268   4.754   4.804
 1862SOL    HW1 6485   4.289   4.679   4.867
 1862SOL    HW2 6486   4.199   4.813   4.845
 1863SOL     OW 6487   6.917   1.262   0.691
 1863SOL    HW1 6488   6.999   1.238   0.640
 1863SOL    HW2 6489   6.870   1.179   0.720
 1864SOL     OW 6490   2.762   5.520   2.797
 1864SOL    HW1 6491   2.771   5.539   2.699
 1864SOL    HW2 6492   2.666   5.522   2.823
 1865SOL     OW 6493   6.066   2.798   6.263
 1865SOL    HW1 6494   6.090   2.766   6.172
 1865SOL    HW2 6495   5.966   2.803   6.272
 1866SOL     OW 6496   6.995   4.353   5.273
 1866SOL    HW1 6497   7.005   4.395   5.363
 1866SOL    HW2 6498   0.015   4.264   5.272
 1867SOL     OW 6499   1.373   6.942   0.499
 1867SOL    HW1 6500   1.394   0.007   0.462
 1867SOL    HW2 6501   1.276   6.938   0.524
 1868SOL     OW 6502   5.914   3.787   6.059
 1868SOL    HW1 6503   5.970   3.706   6.042
 1868SOL    HW2 6504   5.970   3.858   6.102
 1869SOL     OW 6505   4.327   1.358   5.452
 1869SOL    HW1 6506   4.356   1.300   5.375
 1869SOL    HW2 6507   4.248   1.317   5.497
 1870SOL     OW 6508   5.665   1.756   6.167
 1870SOL    HW1 6509   5.733   1.825   6.192
 1870SOL    HW2 6510   5.711   1.669   6.149
 1871SOL     OW 6511   2.704   4.468   0.076
 1871SOL    HW1 6512   2.773   4.443   0.008
 1871SOL    HW2 6513   2.702   4.567   0.087
 1872SOL     OW 6514   2.142   3.855   6.454
 1872SOL    HW1 6515   2.232   3.815   6.436
 1872SOL    HW2 6516   2.154   3.946   6.494
 1873SOL     OW 6517   5.554   0.932   2.318
 1873SOL    HW1 6518   5.538   0.891   2.228
 1873SOL    HW2 6519   5.509   0.877   2.388
 1874SOL     OW 6520   2.278   5.177   6.579
 1874SOL    HW1 6521   2.343   5.106   6.609
 1874SOL    HW2 6522   2.218   5.201   6.655
 1875SOL     OW 6523   1.430   6.512   2.049
 1875SOL    HW1 6524   1.380   6.557   2.123
 1875SOL    HW2 6525   1.469   6.581   1.988
 1876SOL     OW 6526   1.658   5.053   5.105
 1876SOL    HW1 6527   1.708   5.135   5.133
 1876SOL    HW2 6528   1.698   5.015   5.022
 1877SOL     OW 6529   0.049   1.329   3.743
 1877SOL    HW1 6530   0.066   1.284   3.831
 1877SOL    HW2 6531   0.129   1.381   3.716
 1878SOL     OW 6532   5.510   4.018   3.217
 1878SOL    HW1 6533   5.458   3.954   3.272
 1878SOL    HW2 6534   5.592   3.974   3.180
 1879SOL     OW 6535   3.814   6.455   5.161
 1879SOL    HW1 6536   3.843   6.433   5.254
 1879SOL    HW2 6537   3.752   6.384   5.128
 1880SOL     OW 6538   2.042   3.955   4.044
 1880SOL    HW1 6539   2.058   3.857   4.055
 1880SOL    HW2 6540   2.083   3.986   3.958
 1881SOL     OW 6541   3.298   2.159   2.821
 1881SOL    HW1 6542   3.258   2.180   2.910
 1881SOL    HW2 6543   3.244   2.203   2.749
 1882SOL     OW 6544   4.343   0.374   6.328
 1882SOL    HW1 6545   4.437   0.346   6.348
 1882SOL    HW2 6546   4.321   0.456   6.381
 1883SOL     OW 6547   2.073   3.900   2.887
 1883SOL    HW1 6548   2.099   3.929   2.979
 1883SOL    HW2 6549   2.133   3.943   2.820
 1884SOL     OW 6550   4.668   0.855   0.451
 1884SOL    HW1 6551   4.600   0.804   0.504
 1884SOL    HW2 6552   4.675   0.948   0.486
 1885SOL     OW 6553   6.903   1.859   1.308
 1885SOL    HW1 6554   6.973   1.833   1.375
 1885SOL    HW2 6555   6.830   1.790   1.309
 1886SOL     OW 6556   3.763   3.009   5.178
 1886SOL    HW1 6557   3.772   2.991   5.080
 1886SOL    HW2 6558   3.750   2.923   5.226
 1887SOL     OW 6559   0.695   5.968   5.583
 1887SOL    HW1 6560   0.759   5.898   5.552
 1887SOL    HW2 6561   0.639   5.998   5.506
 1888SOL     OW 6562   2.146   1.371   5.512
 1888SOL    HW1 6563   2.216   1.370   5.583
 1888SOL    HW2 6564   2.098   1.283   5.511
 1889SOL     OW 6565   3.762   3.558   6.930
 1889SOL    HW1 6566   3.855   3.572   6.895
 1889SOL    HW2 6567   3.717   3.646   6.942
 1890SOL     OW 6568   6.183   6.836   6.173
 1890SOL    HW1 6569   6.235   6.811   6.255
 1890SOL    HW2 6570   6.229   6.801   6.092
 1891SOL     OW 6571   5.174   3.576   0.123
 1891SOL    HW1 6572   5.144   3.614   0.035
 1891SOL    HW2 6573   5.168   3.476   0.119
 1892SOL     OW 6574   2.708   0.327   3.380
 1892SOL    HW1 6575   2.709   0.245   3.437
 1892SOL    HW2 6576   2.676   0.305   3.288
 1893SOL     OW 6577   2.787   2.717   6.629
 1893SOL    HW1 6578   2.835   2.643   6.583
 1893SOL    HW2 6579   2.727   2.680   6.699
 1894SOL     OW 6580   5.532   3.132   1.045
 1894SOL    HW1 6581   5.433   3.127   1.029
 1894SOL    HW2 6582   5.575   3.180   0.969
 1895SOL     OW 6583   4.210   6.343   3.100
 1895SOL    HW1 6584   4.139   6.298   3.154
 1895SOL    HW2 6585   4.176   6.359   3.007
 1896SOL     OW 6586   0.327   2.048   4.288
 1896SOL    HW1 6587   0.249   2.012   4.237
 1896SOL    HW2 6588   0.312   2.033   4.386
 1897SOL     OW 6589   4.952   5.603   3.388
 1897SOL    HW1 6590   4.911   5.589   3.298
 1897SOL    HW2 6591   4.925   5.529   3.449
 1898SOL     OW 6592   5.028   6.074   0.214
 1898SOL    HW1 6593   5.057   5.984   0.180
 1898SOL    HW2 6594   5.035   6.077   0.313
 1899SOL     OW 6595   1.877   3.185   4.047
 1899SOL    HW1 6596   1.942   3.205   3.973
 1899SOL    HW2 6597   1.826   3.102   4.024
 1900SOL     OW 6598   2.561   5.622   1.479
 1900SOL    HW1 6599   2.554   5.534   1.526
 1900SOL    HW2 6600   2.475   5.642   1.432
 1901SOL     OW 6601   0.410   1.579   7.021
 1901SOL    HW1 6602   0.340   1.631   0.045
 1901SOL    HW2 6603   0.381   1.567   6.926
 1902SOL     OW 6604   1.703   2.764   4.946
 1902SOL    HW1 6605   1.802   2.755   4.943
 1902SOL    HW2 6606   1.665   2.697   5.010
 1903SOL     OW 6607   6.952   5.980   3.968
 1903SOL    HW1 6608   0.009   5.933   3.938
 1903SOL    HW2 6609   6.896   6.004   3.889
 1904SOL     OW 6610   0.624   0.913   3.950
 1904SOL    HW1 6611   0.708   0.961   3.922
 1904SOL    HW2 6612   0.597   0.944   4.041
 1905SOL     OW 6613   5.769   3.122   6.433
 1905SOL    HW1 6614   5.827   3.192   6.390
 1905SOL    HW2 6615   5.768   3.137   6.532
 1906SOL     OW 6616   2.414   5.651   6.044
 1906SOL    HW1 6617   2.453   5.619   6.130
 1906SOL    HW2 6618   2.488   5.681   5.983
 1907SOL     OW 6619   4.136   0.896   2.545
 1907SOL    HW1 6620   4.200   0.973   2.543
 1907SOL    HW2 6621   4.042   0.930   2.540
 1908SOL     OW 6622   5.881   4.420   0.870
 1908SOL    HW1 6623   5.964   4.371   0.843
 1908SOL    HW2 6624   5.839   4.461   0.789
 1909SOL     OW 6625   4.859   5.222   4.436
 1909SOL    HW1 6626   4.862   5.155   4.510
 1909SOL    HW2 6627   4.826   5.309   4.473
 1910SOL     OW 6628   5.035   4.231   4.353
 1910SOL    HW1 6629   5.019   4.134   4.374
 1910SOL    HW2 6630   5.123   4.259   4.391
 1911SOL     OW 6631   1.021   2.540   5.840
 1911SOL    HW1 6632   1.056   2.467   5.899
 1911SOL    HW2 6633   0.957   2.597   5.891
 1912SOL     OW 6634   3.574   0.612   2.099
 1912SOL    HW1 6635   3.594   0.702   2.060
 1912SOL    HW2 6636   3.616   0.604   2.189
 1913SOL     OW 6637   2.939   3.548   6.876
 1913SOL    HW1 6638   3.022   3.498   6.902
 1913SOL    HW2 6639   2.910   3.605   6.953
 1914SOL     OW 6640   4.614   1.505   5.174
 1914SOL    HW1 6641   4.558   1.575   5.129
 1914SOL    HW2 6642   4.709   1.517   5.149
 1915SOL     OW 6643   2.614   6.647   4.948
 1915SOL    HW1 6644   2.673   6.574   4.912
 1915SOL    HW2 6645   2.626   6.730   4.894
 1916SOL     OW 6646   3.775   6.764   2.840
 1916SOL    HW1 6647   3.701   6.761   2.907
 1916SOL    HW2 6648   3.838   6.688   2.857
 1917SOL     OW 6649   3.614   4.037   3.315
 1917SOL    HW1 6650   3.528   4.083   3.338
 1917SOL    HW2 6651   3.607   3.940   3.337
 1918SOL     OW 6652   0.625   6.776   6.359
 1918SOL    HW1 6653   0.585   6.709   6.296
 1918SOL    HW2 6654   0.596   6.756   6.452
 1919SOL     OW 6655   5.216   0.840   1.717
 1919SOL    HW1 6656   5.278   0.875   1.787
 1919SOL    HW2 6657   5.122   0.861   1.742
 1920SOL     OW 6658   5.726   6.330   4.413
 1920SOL    HW1 6659   5.651   6.267   4.434
 1920SOL    HW2 6660   5.710   6.373   4.325
 1921SOL     OW 6661   2.333   6.807   0.324
 1921SOL    HW1 6662   2.273   6.753   0.383
 1921SOL    HW2 6663   2.291   6.818   0.234
 1922SOL     OW 6664   3.603   5.129   6.784
 1922SOL    HW1 6665   3.543   5.138   6.863
 1922SOL    HW2 6666   3.568   5.183   6.708
 1923SOL     OW 6667   1.413   2.693   1.580
 1923SOL    HW1 6668   1.440   2.654   1.668
 1923SOL    HW2 6669   1.370   2.782   1.595
 1924SOL     OW 6670   1.152   3.713   1.888
 1924SOL    HW1 6671   1.106   3.656   1.957
 1924SOL    HW2 6672   1.177   3.656   1.810
 1925SOL     OW 6673   2.935   4.804   0.308
 1925SOL    HW1 6674   2.922   4.903   0.319
 1925SOL    HW2 6675   2.999   4.786   0.233
 1926SOL     OW 6676   0.128   0.329   2.899
 1926SOL    HW1 6677   0.091   0.397   2.835
 1926SOL    HW2 6678   0.160   0.375   2.982
 1927SOL     OW 6679   5.613   3.106   1.304
 1927SOL    HW1 6680   5.533   3.088   1.362
 1927SOL    HW2 6681   5.586   3.105   1.208
 1928SOL     OW 6682   0.203   4.670   4.670
 1928SOL    HW1 6683   0.107   4.696   4.657
 1928SOL    HW2 6684   0.243   4.647   4.581
 1929SOL     OW 6685   1.733   4.636   3.188
 1929SOL    HW1 6686   1.750   4.633   3.089
 1929SOL    HW2 6687   1.733   4.542   3.224
 1930SOL     OW 6688   6.041   6.078   6.302
 1930SOL    HW1 6689   6.139   6.073   6.285
 1930SOL    HW2 6690   5.991   6.054   6.219
 1931SOL     OW 6691   2.317   2.799   3.593
 1931SOL    HW1 6692   2.367   2.799   3.507
 1931SOL    HW2 6693   2.264   2.884   3.601
 1932SOL     OW 6694   5.839   2.683   2.887
 1932SOL    HW1 6695   5.776   2.607   2.870
 1932SOL    HW2 6696   5.930   2.659   2.854
 1933SOL     OW 6697   2.118   5.143   0.400
 1933SOL    HW1 6698   2.126   5.241   0.419
 1933SOL    HW2 6699   2.178   5.092   0.461
 1934SOL     OW 6700   0.212   6.262   2.877
 1934SOL    HW1 6701   0.309   6.238   2.876
 1934SOL    HW2 6702   0.158   6.190   2.832
 1935SOL     OW 6703   0.846   1.453   2.418
 1935SOL    HW1 6704   0.749   1.433   2.431
 1935SOL    HW2 6705   0.882   1.497   2.500
 1936SOL     OW 6706   0.238   6.120   4.924
 1936SOL    HW1 6707   0.166   6.118   4.994
 1936SOL    HW2 6708   0.254   6.027   4.890
 1937SOL     OW 6709   4.958   1.823   3.639
 1937SOL    HW1 6710   4.951   1.912   3.594
 1937SOL    HW2 6711   5.046   1.817   3.687
 1938SOL     OW 6712   4.527   0.384   3.657
 1938SOL    HW1 6713   4.503   0.361   3.751
 1938SOL    HW2 6714   4.576   0.307   3.616
 1939SOL     OW 6715   2.476   1.101   4.205
 1939SOL    HW1 6716   2.502   1.156   4.126
 1939SOL    HW2 6717   2.553   1.095   4.269
 1940SOL     OW 6718   6.447   0.977   6.828
 1940SOL    HW1 6719   6.433   1.048   6.759
 1940SOL    HW2 6720   6.450   0.887   6.783
 1941SOL     OW 6721   4.655   4.732   2.564
 1941SOL    HW1 6722   4.587   4.800   2.534
 1941SOL    HW2 6723   4.733   4.734   2.502
 1942SOL     OW 6724   0.039   3.282   2.608
 1942SOL    HW1 6725   0.075   3.366   2.567
 1942SOL    HW2 6726   0.115   3.226   2.640
 1943SOL     OW 6727   3.857   5.175   3.719
 1943SOL    HW1 6728   3.836   5.085   3.682
 1943SOL    HW2 6729   3.954   5.195   3.706
 1944SOL     OW 6730   6.433   6.493   2.014
 1944SOL    HW1 6731   6.342   6.458   1.992
 1944SOL    HW2 6732   6.502   6.434   1.972
 1945SOL     OW 6733   3.578   5.362   2.599
 1945SOL    HW1 6734   3.537   5.293   2.540
 1945SOL    HW2 6735   3.645   5.319   2.660
 1946SOL     OW 6736   1.207   6.434   6.697
 1946SOL    HW1 6737   1.226   6.485   6.614
 1946SOL    HW2 6738   1.258   6.347   6.696
 1947SOL     OW 6739   4.367   1.288   3.981
 1947SOL    HW1 6740   4.430   1.307   3.906
 1947SOL    HW2 6741   4.418   1.263   4.063
 1948SOL     OW 6742   6.242   3.016   5.004
 1948SOL    HW1 6743   6.149   3.004   4.970
 1948SOL    HW2 6744   6.255   2.961   5.086
 1949SOL     OW 6745   4.611   3.794   6.991
 1949SOL    HW1 6746   4.704   3.798   6.956
 1949SOL    HW2 6747   4.603   3.852   0.046
 1950SOL     OW 6748   2.383   4.799   0.865
 1950SOL    HW1 6749   2.401   4.711   0.909
 1950SOL    HW2 6750   2.320   4.852   0.921
 1951SOL     OW 6751   5.540   2.943   6.655
 1951SOL    HW1 6752   5.471   2.905   6.716
 1951SOL    HW2 6753   5.503   2.951   6.562
 1952SOL     OW 6754   3.138   3.306   3.133
 1952SOL    HW1 6755   3.144   3.246   3.053
 1952SOL    HW2 6756   3.145   3.251   3.216
 1953SOL     OW 6757   1.198   2.146   4.958
 1953SOL    HW1 6758   1.164   2.060   4.920
 1953SOL    HW2 6759   1.164   2.222   4.904
 1954SOL     OW 6760   2.512   1.691   3.999
 1954SOL    HW1 6761   2.519   1.780   4.044
 1954SOL    HW2 6762   2.582   1.684   3.928
 1955SOL     OW 6763   6.697   5.448   3.138
 1955SOL    HW1 6764   6.783   5.419   3.098
 1955SOL    HW2 6765   6.635   5.370   3.146
 1956SOL     OW 6766   3.827   6.293   3.650
 1956SOL    HW1 6767   3.907   6.271   3.706
 1956SOL    HW2 6768   3.855   6.352   3.574
 1957SOL     OW 6769   2.300   6.080   5.847
 1957SOL    HW1 6770   2.255   6.079   5.759
 1957SOL    HW2 6771   2.293   6.171   5.888
 1958SOL     OW 6772   3.917   3.518   5.953
 1958SOL    HW1 6773   3.961   3.428   5.953
 1958SOL    HW2 6774   3.986   3.590   5.946
 1959SOL     OW 6775   3.479   0.150   0.878
 1959SOL    HW1 6776   3.380   0.147   0.892
 1959SOL    HW2 6777   3.506   0.079   0.812
 1960SOL     OW 6778   4.518   5.671   3.107
 1960SOL    HW1 6779   4.444   5.737   3.110
 1960SOL    HW2 6780   4.541   5.651   3.012
 1961SOL     OW 6781   5.806   5.286   5.431
 1961SOL    HW1 6782   5.778   5.254   5.340
 1961SOL    HW2 6783   5.895   5.248   5.454
 1962SOL     OW 6784   0.372   6.518   4.418
 1962SOL    HW1 6785   0.397   6.609   4.452
 1962SOL    HW2 6786   0.455   6.464   4.403
 1963SOL     OW 6787   2.759   1.903   3.964
 1963SOL    HW1 6788   2.696   1.959   3.910
 1963SOL    HW2 6789   2.798   1.959   4.038
 1964SOL     OW 6790   6.522   2.501   2.289
 1964SOL    HW1 6791   6.512   2.402   2.292
 1964SOL    HW2 6792   6.614   2.526   2.318
 1965SOL     OW 6793   1.470   6.330   3.359
 1965SOL    HW1 6794   1.520   6.297   3.439
 1965SOL    HW2 6795   1.445   6.426   3.373
 1966SOL     OW 6796   6.812   6.491   0.285
 1966SOL    HW1 6797   6.734   6.539   0.324
 1966SOL    HW2 6798   6.797   6.392   0.290
 1967SOL     OW 6799   0.018   2.592   4.883
 1967SOL    HW1 6800   6.966   2.591   4.821
 1967SOL    HW2 6801   0.004   2.526   4.956
 1968SOL     OW 6802   4.535   5.725   4.730
 1968SOL    HW1 6803   4.503   5.819   4.719
 1968SOL    HW2 6804   4.458   5.662   4.716
 1969SOL     OW 6805   5.812   0.989   1.218
 1969SOL    HW1 6806   5.744   1.059   1.198
 1969SOL    HW2 6807   5.804   0.914   1.153
 1970SOL     OW 6808   2.049   1.353   4.805
 1970SOL    HW1 6809   1.959   1.395   4.792
 1970SOL    HW2 6810   2.121   1.420   4.784
 1971SOL     OW 6811   0.074   1.473   5.561
 1971SOL    HW1 6812   0.107   1.410   5.491
 1971SOL    HW2 6813   7.001   1.487   5.550
 1972SOL     OW 6814   0.929   6.341   4.234
 1972SOL    HW1 6815   1.027   6.357   4.236
 1972SOL    HW2 6816   0.893   6.339   4.327
 1973SOL     OW 6817   3.862   2.679   0.033
 1973SOL    HW1 6818   3.828   2.603   7.003
 1973SOL    HW2 6819   3.950   2.710   7.023
 1974SOL     OW 6820   6.180   6.244   3.898
 1974SOL    HW1 6821   6.139   6.153   3.890
 1974SOL    HW2 6822   6.153   6.300   3.820
 1975SOL     OW 6823   2.451   0.336   3.729
 1975SOL    HW1 6824   2.392   0.371   3.801
 1975SOL    HW2 6825   2.532   0.394   3.720
 1976SOL     OW 6826   6.197   4.416   6.715
 1976SOL    HW1 6827   6.151   4.413   6.804
 1976SOL    HW2 6828   6.128   4.411   6.642
 1977SOL     OW 6829   3.045   2.039   5.138
 1977SOL    HW1 6830   3.085   2.130   5.127
 1977SOL    HW2 6831   3.118   1.971   5.143
 1978SOL     OW 6832   0.479   2.755   5.191
 1978SOL    HW1 6833   0.560   2.720   5.145
 1978SOL    HW2 6834   0.397   2.718   5.148
 1979SOL     OW 6835   6.570   4.248   2.400
 1979SOL    HW1 6836   6.560   4.163   2.348
 1979SOL    HW2 6837   6.637   4.306   2.355
 1980SOL     OW 6838   2.770   0.796   3.064
 1980SOL    HW1 6839   2.782   0.895   3.068
 1980SOL    HW2 6840   2.676   0.775   3.035
 1981SOL     OW 6841   5.541   3.146   2.438
 1981SOL    HW1 6842   5.478   3.174   2.511
 1981SOL    HW2 6843   5.592   3.066   2.468
 1982SOL     OW 6844   0.341   6.813   5.390
 1982SOL    HW1 6845   0.436   6.843   5.400
 1982SOL    HW2 6846   0.281   6.894   5.386
 1983SOL     OW 6847   0.938   4.974   1.370
 1983SOL    HW1 6848   0.915   4.877   1.359
 1983SOL    HW2 6849   0.939   4.998   1.467
 1984SOL     OW 6850   3.715   0.199   5.767
 1984SOL    HW1 6851   3.700   0.128   5.836
 1984SOL    HW2 6852   3.809   0.194   5.734
 1985SOL     OW 6853   1.175   5.223   2.021
 1985SOL    HW1 6854   1.263   5.183   2.044
 1985SOL    HW2 6855   1.187   5.319   1.996
 1986SOL     OW 6856   5.615   2.344   1.387
 1986SOL    HW1 6857   5.535   2.304   1.431
 1986SOL    HW2 6858   5.687   2.275   1.378
 1987SOL     OW 6859   1.832   3.020   0.570
 1987SOL    HW1 6860   1.843   3.107   0.523
 1987SOL    HW2 6861   1.906   3.008   0.637
 1988SOL     OW 6862   5.281   2.604   1.448
 1988SOL    HW1 6863   5.312   2.611   1.542
 1988SOL    HW2 6864   5.181   2.604   1.446
 1989SOL     OW 6865   2.449   2.302   3.294
 1989SOL    HW1 6866   2.351   2.322   3.298
 1989SOL    HW2 6867   2.491   2.325   3.382
 1990SOL     OW 6868   1.404   6.749   3.037
 1990SOL    HW1 6869   1.413   6.823   2.971
 1990SOL    HW2 6870   1.494   6.725   3.073
 1991SOL     OW 6871   5.166   5.666   2.368
 1991SOL    HW1 6872   5.206   5.613   2.293
 1991SOL    HW2 6873   5.240   5.711   2.419
 1992SOL     OW 6874   2.111   5.979   5.526
 1992SOL    HW1 6875   2.067   6.052   5.578
 1992SOL    HW2 6876   2.056   5.896   5.532
 1993SOL     OW 6877   3.416   3.290   3.985
 1993SOL    HW1 6878   3.383   3.383   3.966
 1993SOL    HW2 6879   3.421   3.276   4.084
 1994SOL     OW 6880   6.192   1.882   1.373
 1994SOL    HW1 6881   6.118   1.883   1.306
 1994SOL    HW2 6882   6.230   1.974   1.382
 1995SOL     OW 6883   4.210   2.795   1.662
 1995SOL    HW1 6884   4.127   2.850   1.659
 1995SOL    HW2 6885   4.187   2.698   1.660
 1996SOL     OW 6886   2.193   5.479   6.104
 1996SOL    HW1 6887   2.239   5.554   6.056
 1996SOL    HW2 6888   2.257   5.402   6.114
 1997SOL     OW 6889   6.066   6.076   4.729
 1997SOL    HW1 6890   6.008   6.088   4.809
 1997SOL    HW2 6891   6.160   6.058   4.758
 1998SOL     OW 6892   3.324   5.204   4.699
 1998SOL    HW1 6893   3.347   5.125   4.756
 1998SOL    HW2 6894   3.317   5.286   4.756
 1999SOL     OW 6895   3.425   0.903   2.130
 1999SOL    HW1 6896   3.525   0.915   2.137
 1999SOL    HW2 6897   3.380   0.979   2.176
 2000SOL     OW 6898   3.066   0.850   6.091
 2000SOL    HW1 6899   3.049   0.804   6.005
 2000SOL    HW2 6900   3.030   0.795   6.166
 2001SOL     OW 6901   1.979   3.293   0.119
 2001SOL    HW1 6902   2.028   3.296   0.032
 2001SOL    HW2 6903   2.044   3.301   0.194
 2002SOL     OW 6904   2.161   4.980   5.146
 2002SOL    HW1 6905   2.202   4.935   5.068
 2002SOL    HW2 6906   2.186   5.077   5.146
 2003SOL     OW 6907   6.132   4.059   3.716
 2003SOL    HW1 6908   6.078   4.057   3.800
 2003SOL    HW2 6909   6.092   4.125   3.653
 2004SOL     OW 6910   3.250   6.900   6.605
 2004SOL    HW1 6911   3.157   6.932   6.623
 2004SOL    HW2 6912   3.312   6.979   6.603
 2005SOL     OW 6913   2.664   6.941   5.411
 2005SOL    HW1 6914   2.712   6.961   5.497
 2005SOL    HW2 6915   2.585   6.882   5.429
 2006SOL     OW 6916   5.026   0.395   2.318
 2006SOL    HW1 6917   5.107   0.336   2.318
 2006SOL    HW2 6918   5.035   0.464   2.247
 2007SOL     OW 6919   6.700   5.269   0.153
 2007SOL    HW1 6920   6.605   5.249   0.131
 2007SOL    HW2 6921   6.757   5.254   0.072
 2008SOL     OW 6922   0.257   5.692   5.905
 2008SOL    HW1 6923   0.330   5.757   5.886
 2008SOL    HW2 6924   0.217   5.712   5.995
 2009SOL     OW 6925   1.098   0.243   6.839
 2009SOL    HW1 6926   1.176   0.222   6.897
 2009SOL    HW2 6927   1.031   0.169   6.844
 2010SOL     OW 6928   2.715   0.984   0.788
 2010SOL    HW1 6929   2.787   1.026   0.732
 2010SOL    HW2 6930   2.704   0.888   0.762
 2011SOL     OW 6931   0.186   1.891   4.721
 2011SOL    HW1 6932   0.192   1.961   4.792
 2011SOL    HW2 6933   0.108   1.831   4.739
 2012SOL     OW 6934   7.001   3.482   2.240
 2012SOL    HW1 6935   6.966   3.392   2.266
 2012SOL    HW2 6936   0.023   3.523   2.318
 2013SOL     OW 6937   3.417   2.336   1.722
 2013SOL    HW1 6938   3.502   2.311   1.769
 2013SOL    HW2 6939   3.438   2.385   1.638
 2014SOL     OW 6940   3.763   4.963   3.554
 2014SOL    HW1 6941   3.676   5.001   3.522
 2014SOL    HW2 6942   3.805   4.909   3.481
 2015SOL     OW 6943   2.862   5.133   6.876
 2015SOL    HW1 6944   2.823   5.046   6.905
 2015SOL    HW2 6945   2.825   5.207   6.931
 2016SOL     OW 6946   6.698   5.537   5.122
 2016SOL    HW1 6947   6.646   5.487   5.190
 2016SOL    HW2 6948   6.700   5.485   5.036
 2017SOL     OW 6949   2.159   5.022   1.806
 2017SOL    HW1 6950   2.253   5.050   1.826
 2017SOL    HW2 6951   2.142   4.932   1.845
 2018SOL     OW 6952   0.544   4.530   4.810
 2018SOL    HW1 6953   0.641   4.516   4.830
 2018SOL    HW2 6954   0.529   4.523   4.712
 2019SOL     OW 6955   5.740   0.797   2.727
 2019SOL    HW1 6956   5.798   0.717   2.715
 2019SOL    HW2 6957   5.670   0.799   2.657
 2020SOL     OW 6958   2.146   5.245   3.364
 2020SOL    HW1 6959   2.090   5.296   3.429
 2020SOL    HW2 6960   2.099   5.243   3.275
 2021SOL     OW 6961   1.672   6.320   1.490
 2021SOL    HW1 6962   1.738   6.266   1.438
 2021SOL    HW2 6963   1.615   6.260   1.546
 2022SOL     OW 6964   3.985   5.389   1.568
 2022SOL    HW1 6965   3.899   5.360   1.527
 2022SOL    HW2 6966   4.012   5.324   1.639
 2023SOL     OW 6967   0.217   2.563   6.027
 2023SOL    HW1 6968   0.266   2.493   5.975
 2023SOL    HW2 6969   0.186   2.635   5.965
 2024SOL     OW 6970   5.440   6.566   3.421
 2024SOL    HW1 6971   5.499   6.641   3.390
 2024SOL    HW2 6972   5.344   6.593   3.412
 2025SOL     OW 6973   6.344   0.907   1.006
 2025SOL    HW1 6974   6.349   0.966   1.086
 2025SOL    HW2 6975   6.416   0.932   0.941
 2026SOL     OW 6976   2.371   2.028   4.984
 2026SOL    HW1 6977   2.345   2.125   4.990
 2026SOL    HW2 6978   2.298   1.972   5.023
 2027SOL     OW 6979   6.176   6.897   2.043
 2027SOL    HW1 6980   6.086   6.854   2.047
 2027SOL    HW2 6981   6.180   6.958   1.964
 2028SOL     OW 6982   3.701   4.154   5.730
 2028SOL    HW1 6983   3.626   4.089   5.722
 2028SOL    HW2 6984   3.665   4.247   5.724
 2029SOL     OW 6985   2.165   0.375   6.981
 2029SOL    HW1 6986   2.080   0.419   6.953
 2029SOL    HW2 6987   2.237   0.444   6.990
 2030SOL     OW 6988   1.913   2.715   2.855
 2030SOL    HW1 6989   1.945   2.638   2.911
 2030SOL    HW2 6990   1.955   2.709   2.765
 2031SOL     OW 6991   6.180   7.025   2.340
 2031SOL    HW1 6992   6.132   6.939   2.327
 2031SOL    HW2 6993   6.172   0.054   2.256
 2032SOL     OW 6994   4.366   6.340   2.665
 2032SOL    HW1 6995   4.363   6.245   2.635
 2032SOL    HW2 6996   4.359   6.401   2.586
 2033SOL     OW 6997   0.437   4.769   0.093
 2033SOL    HW1 6998   0.346   4.746   0.127
 2033SOL    HW2 6999   0.437   4.862   0.058
 2034SOL     OW 7000   2.054   5.436   3.917
 2034SOL    HW1 7001   1.984   5.371   3.947
 2034SOL    HW2 7002   2.142   5.389   3.909
 2035SOL     OW 7003   0.902   0.783   2.837
 2035SOL    HW1 7004   0.983   0.827   2.798
 2035SOL    HW2 7005   0.928   0.694   2.875
 2036SOL     OW 7006   1.157   4.167   1.946
 2036SOL    HW1 7007   1.095   4.222   2.003
 2036SOL    HW2 7008   1.119   4.158   1.854
 2037SOL     OW 7009   1.058   2.934   5.983
 2037SOL    HW1 7010   0.970   2.890   6.003
 2037SOL    HW2 7011   1.099   2.892   5.903
 2038SOL     OW 7012   1.904   6.259   5.022
 2038SOL    HW1 7013   1.886   6.186   5.087
 2038SOL    HW2 7014   1.915   6.220   4.930
 2039SOL     OW 7015   1.101   5.128   1.748
 2039SOL    HW1 7016   1.003   5.137   1.729
 2039SOL    HW2 7017   1.120   5.161   1.841
 2040SOL     OW 7018   4.007   3.164   4.571
 2040SOL    HW1 7019   4.076   3.232   4.593
 2040SOL    HW2 7020   3.991   3.105   4.651
 2041SOL     OW 7021   5.157   3.087   0.409
 2041SOL    HW1 7022   5.146   3.002   0.358
 2041SOL    HW2 7023   5.249   3.092   0.447
 2042SOL     OW 7024   3.623   6.672   0.212
 2042SOL    HW1 7025   3.637   6.620   0.296
 2042SOL    HW2 7026   3.697   6.651   0.148
 2043SOL     OW 7027   4.981   5.003   2.639
 2043SOL    HW1 7028   4.958   5.073   2.571
 2043SOL    HW2 7029   5.026   4.926   2.594
 2044SOL     OW 7030   6.041   0.815   1.706
 2044SOL    HW1 7031   5.988   0.874   1.768
 2044SOL    HW2 7032   6.066   0.866   1.624
 2045SOL     OW 7033   3.617   6.524   5.556
 2045SOL    HW1 7034   3.644   6.604   5.609
 2045SOL    HW2 7035   3.566   6.553   5.475
 2046SOL     OW 7036   6.205   0.768   5.499
 2046SOL    HW1 7037   6.114   0.771   5.457
 2046SOL    HW2 7038   6.213   0.842   5.566
 2047SOL     OW 7039   5.477   3.358   0.241
 2047SOL    HW1 7040   5.449   3.398   0.329
 2047SOL    HW2 7041   5.397   3.317   0.197
 2048SOL     OW 7042   4.871   6.431   5.085
 2048SOL    HW1 7043   4.969   6.411   5.089
 2048SOL    HW2 7044   4.840   6.428   4.990
 2049SOL     OW 7045   5.680   5.921   6.833
 2049SOL    HW1 7046   5.712   5.867   6.755
 2049SOL    HW2 7047   5.753   5.981   6.864
 2050SOL     OW 7048   5.725   0.898   3.800
 2050SOL    HW1 7049   5.812   0.940   3.774
 2050SOL    HW2 7050   5.685   0.853   3.721
 2051SOL     OW 7051   3.151   5.815   0.974
 2051SOL    HW1 7052   3.122   5.722   0.951
 2051SOL    HW2 7053   3.090   5.853   1.042
 2052SOL     OW 7054   0.810   2.246   0.954
 2052SOL    HW1 7055   0.769   2.259   0.864
 2052SOL    HW2 7056   0.905   2.217   0.944
 2053SOL     OW 7057   5.248   0.560   0.041
 2053SOL    HW1 7058   5.277   0.656   0.041
 2053SOL    HW2 7059   5.188   0.543   6.988
 2054SOL     OW 7060   0.637   2.812   0.368
 2054SOL    HW1 7061   0.679   2.722   0.379
 2054SOL    HW2 7062   0.703   2.883   0.393
 2055SOL     OW 7063   6.216   1.088   4.469
 2055SOL    HW1 7064   6.230   1.187   4.475
 2055SOL    HW2 7065   6.118   1.068   4.471
 2056SOL     OW 7066   6.772   0.010   2.077
 2056SOL    HW1 7067   6.839   0.074   2.037
 2056SOL    HW2 7068   6.820   6.969   2.133
 2057SOL     OW 7069   4.855   3.197   4.010
 2057SOL    HW1 7070   4.844   3.149   3.923
 2057SOL    HW2 7071   4.821   3.139   4.084
 2058SOL     OW 7072   0.919   1.143   1.645
 2058SOL    HW1 7073   0.888   1.079   1.575
 2058SOL    HW2 7074   0.954   1.092   1.724
 2059SOL     OW 7075   1.752   0.194   0.133
 2059SOL    HW1 7076   1.795   0.227   0.217
 2059SOL    HW2 7077   1.733   0.096   0.141
 2060SOL     OW 7078   0.861   4.905   3.407
 2060SOL    HW1 7079   0.901   4.905   3.498
 2060SOL    HW2 7080   0.927   4.942   3.341
 2061SOL     OW 7081   1.149   0.551   0.130
 2061SOL    HW1 7082   1.212   0.522   0.058
 2061SOL    HW2 7083   1.198   0.556   0.217
 2062SOL     OW 7084   3.794   0.143   3.647
 2062SOL    HW1 7085   3.744   0.124   3.562
 2062SOL    HW2 7086   3.826   0.238   3.646
 2063SOL     OW 7087   2.417   3.093   1.024
 2063SOL    HW1 7088   2.435   3.145   1.108
 2063SOL    HW2 7089   2.422   2.996   1.044
 2064SOL     OW 7090   0.595   1.631   1.024
 2064SOL    HW1 7091   0.654   1.707   1.000
 2064SOL    HW2 7092   0.533   1.659   1.097
 2065SOL     OW 7093   0.102   3.223   3.229
 2065SOL    HW1 7094   0.132   3.147   3.287
 2065SOL    HW2 7095   0.036   3.279   3.279
 2066SOL     OW 7096   0.687   6.109   3.482
 2066SOL    HW1 7097   0.747   6.045   3.436
 2066SOL    HW2 7098   0.594   6.099   3.448
 2067SOL     OW 7099   6.682   0.579   0.928
 2067SOL    HW1 7100   6.747   0.504   0.913
 2067SOL    HW2 7101   6.620   0.586   0.850
 2068SOL     OW 7102   2.291   2.065   5.503
 2068SOL    HW1 7103   2.318   1.970   5.520
 2068SOL    HW2 7104   2.312   2.120   5.584
 2069SOL     OW 7105   1.987   2.212   1.774
 2069SOL    HW1 7106   1.897   2.183   1.742
 2069SOL    HW2 7107   2.021   2.146   1.841
 2070SOL     OW 7108   0.566   1.817   2.630
 2070SOL    HW1 7109   0.594   1.725   2.655
 2070SOL    HW2 7110   0.638   1.860   2.575
 2071SOL     OW 7111   2.768   5.965   5.587
 2071SOL    HW1 7112   2.753   6.035   5.657
 2071SOL    HW2 7113   2.681   5.923   5.564
 2072SOL     OW 7114   5.645   4.254   2.761
 2072SOL    HW1 7115   5.620   4.158   2.771
 2072SOL    HW2 7116   5.576   4.301   2.706
 2073SOL     OW 7117   3.531   6.689   4.887
 2073SOL    HW1 7118   3.617   6.651   4.920
 2073SOL    HW2 7119   3.547   6.737   4.801
 2074SOL     OW 7120   4.525   1.828   3.546
 2074SOL    HW1 7121   4.588   1.750   3.549
 2074SOL    HW2 7122   4.547   1.886   3.468
 2075SOL     OW 7123   3.802   2.773   5.935
 2075SOL    HW1 7124   3.723   2.817   5.892
 2075SOL    HW2 7125   3.835   2.829   6.010
 2076SOL     OW 7126   4.938   6.639   0.683
 2076SOL    HW1 7127   4.913   6.685   0.598
 2076SOL    HW2 7128   4.855   6.612   0.732
 2077SOL     OW 7129   3.786   1.232   5.040
 2077SOL    HW1 7130   3.812   1.280   4.956
 2077SOL    HW2 7131   3.766   1.299   5.112
 2078SOL     OW 7132   4.026   6.331   3.943
 2078SOL    HW1 7133   4.090   6.347   4.018
 2078SOL    HW2 7134   3.945   6.388   3.956
 2079SOL     OW 7135   5.270   6.918   3.740
 2079SOL    HW1 7136   5.322   6.837   3.767
 2079SOL    HW2 7137   5.308   6.999   3.786
 2080SOL     OW 7138   3.284   1.874   2.790
 2080SOL    HW1 7139   3.207   1.880   2.852
 2080SOL    HW2 7140   3.323   1.966   2.777
 2081SOL     OW 7141   1.219   5.715   3.381
 2081SOL    HW1 7142   1.308   5.710   3.428
 2081SOL    HW2 7143   1.188   5.810   3.378
 2082SOL     OW 7144   4.607   0.689   2.764
 2082SOL    HW1 7145   4.705   0.671   2.757
 2082SOL    HW2 7146   4.583   0.765   2.704
 2083SOL     OW 7147   3.840   4.725   5.953
 2083SOL    HW1 7148   3.818   4.630   5.977
 2083SOL    HW2 7149   3.877   4.728   5.861
 2084SOL     OW 7150   0.452   2.329   3.351
 2084SOL    HW1 7151   0.432   2.408   3.293
 2084SOL    HW2 7152   0.477   2.251   3.294
 2085SOL     OW 7153   5.965   6.848   0.498
 2085SOL    HW1 7154   5.904   6.811   0.568
 2085SOL    HW2 7155   6.060   6.840   0.529
 2086SOL     OW 7156   3.551   5.909   6.729
 2086SOL    HW1 7157   3.640   5.896   6.773
 2086SOL    HW2 7158   3.520   6.003   6.742
 2087SOL     OW 7159   6.142   5.496   2.783
 2087SOL    HW1 7160   6.189   5.557   2.847
 2087SOL    HW2 7161   6.044   5.519   2.781
 2088SOL     OW 7162   1.993   6.467   1.062
 2088SOL    HW1 7163   1.924   6.398   1.040
 2088SOL    HW2 7164   2.002   6.474   1.162
 2089SOL     OW 7165   2.389   0.999   6.701
 2089SOL    HW1 7166   2.313   1.017   6.764
 2089SOL    HW2 7167   2.475   1.005   6.752
 2090SOL     OW 7168   2.965   3.601   3.398
 2090SOL    HW1 7169   3.055   3.581   3.361
 2090SOL    HW2 7170   2.973   3.620   3.496
 2091SOL     OW 7171   2.526   4.050   1.420
 2091SOL    HW1 7172   2.520   4.138   1.375
 2091SOL    HW2 7173   2.560   4.062   1.514
 2092SOL     OW 7174   6.032   0.204   0.406
 2092SOL    HW1 7175   6.074   0.169   0.490
 2092SOL    HW2 7176   5.999   0.297   0.422
 2093SOL     OW 7177   1.320   1.391   1.887
 2093SOL    HW1 7178   1.398   1.329   1.898
 2093SOL    HW2 7179   1.350   1.474   1.841
 2094SOL     OW 7180   0.305   0.792   2.415
 2094SOL    HW1 7181   0.347   0.862   2.356
 2094SOL    HW2 7182   0.209   0.782   2.390
 2095SOL     OW 7183   6.400   4.248   5.311
 2095SOL    HW1 7184   6.384   4.161   5.356
 2095SOL    HW2 7185   6.410   4.234   5.213
 2096SOL     OW 7186   4.972   4.354   3.584
 2096SOL    HW1 7187   5.008   4.322   3.672
 2096SOL    HW2 7188   4.876   4.379   3.594
 2097SOL     OW 7189   6.773   3.355   5.465
 2097SOL    HW1 7190   6.844   3.346   5.395
 2097SOL    HW2 7191   6.699   3.290   5.445
 2098SOL     OW 7192   4.514   0.430   4.466
 2098SOL    HW1 7193   4.448   0.357   4.483
 2098SOL    HW2 7194   4.606   0.391   4.458
 2099SOL     OW 7195   2.835   1.639   3.959
 2099SOL    HW1 7196   2.833   1.614   4.056
 2099SOL    HW2 7197   2.860   1.735   3.951
 2100SOL     OW 7198   4.786   4.379   5.666
 2100SOL    HW1 7199   4.750   4.328   5.745
 2100SOL    HW2 7200   4.717   4.381   5.594
 2101SOL     OW 7201   5.588   0.098   1.754
 2101SOL    HW1 7202   5.540   0.078   1.669
 2101SOL    HW2 7203   5.522   0.100   1.829
 2102SOL     OW 7204   0.016   5.095   0.913
 2102SOL    HW1 7205   0.091   5.084   0.978
 2102SOL    HW2 7206   6.964   5.138   0.958
 2103SOL     OW 7207   3.546   3.619   6.612
 2103SOL    HW1 7208   3.557   3.537   6.668
 2103SOL    HW2 7209   3.634   3.646   6.574
 2104SOL     OW 7210   0.485   4.965   6.282
 2104SOL    HW1 7211   0.527   5.053   6.258
 2104SOL    HW2 7212   0.450   4.970   6.376
 2105SOL     OW 7213   4.909   6.214   2.132
 2105SOL    HW1 7214   5.005   6.203   2.106
 2105SOL    HW2 7215   4.855   6.143   2.086
 2106SOL     OW 7216   6.348   6.496   6.543
 2106SOL    HW1 7217   6.303   6.471   6.457
 2106SOL    HW2 7218   6.296   6.460   6.620
 2107SOL     OW 7219   2.640   5.108   0.068
 2107SOL    HW1 7220   2.555   5.113   0.015
 2107SOL    HW2 7221   2.673   5.201   0.087
 2108SOL     OW 7222   5.403   4.585   6.696
 2108SOL    HW1 7223   5.393   4.629   6.607
 2108SOL    HW2 7224   5.480   4.626   6.745
 2109SOL     OW 7225   5.449   5.731   2.895
 2109SOL    HW1 7226   5.396   5.772   2.821
 2109SOL    HW2 7227   5.416   5.765   2.983
 2110SOL     OW 7228   1.416   5.175   5.670
 2110SOL    HW1 7229   1.406   5.273   5.659
 2110SOL    HW2 7230   1.506   5.154   5.709
 2111SOL     OW 7231   1.665   1.840   6.730
 2111SOL    HW1 7232   1.734   1.774   6.700
 2111SOL    HW2 7233   1.662   1.916   6.666
 2112SOL     OW 7234   4.984   4.020   0.177
 2112SOL    HW1 7235   5.040   3.996   0.099
 2112SOL    HW2 7236   4.947   3.937   0.219
 2113SOL     OW 7237   6.500   1.331   4.147
 2113SOL    HW1 7238   6.558   1.375   4.216
 2113SOL    HW2 7239   6.536   1.352   4.056
 2114SOL     OW 7240   1.429   3.660   6.110
 2114SOL    HW1 7241   1.345   3.607   6.123
 2114SOL    HW2 7242   1.507   3.597   6.102
 2115SOL     OW 7243   4.027   5.011   1.569
 2115SOL    HW1 7244   4.090   4.950   1.618
 2115SOL    HW2 7245   3.964   5.054   1.635
 2116SOL     OW 7246   0.727   4.092   4.342
 2116SOL    HW1 7247   0.653   4.153   4.371
 2116SOL    HW2 7248   0.815   4.132   4.367
 2117SOL     OW 7249   6.158   5.716   5.865
 2117SOL    HW1 7250   6.187   5.804   5.903
 2117SOL    HW2 7251   6.228   5.684   5.801
 2118SOL     OW 7252   0.175   2.943   2.376
 2118SOL    HW1 7253   0.186   2.979   2.283
 2118SOL    HW2 7254   0.078   2.921   2.391
 2119SOL     OW 7255   4.008   6.767   0.067
 2119SOL    HW1 7256   4.087   6.725   0.021
 2119SOL    HW2 7257   3.926   6.712   0.048
 2120SOL     OW 7258   6.405   4.048   2.224
 2120SOL    HW1 7259   6.404   4.130   2.166
 2120SOL    HW2 7260   6.500   4.020   2.239
 2121SOL     OW 7261   0.753   3.685   4.294
 2121SOL    HW1 7262   0.825   3.740   4.336
 2121SOL    HW2 7263   0.668   3.737   4.292
 2122SOL     OW 7264   3.882   5.521   5.520
 2122SOL    HW1 7265   3.812   5.504   5.590
 2122SOL    HW2 7266   3.844   5.504   5.430
 2123SOL     OW 7267   3.928   6.285   3.254
 2123SOL    HW1 7268   3.874   6.362   3.288
 2123SOL    HW2 7269   4.008   6.272   3.313
 2124SOL     OW 7270   2.347   2.505   1.726
 2124SOL    HW1 7271   2.381   2.596   1.701
 2124SOL    HW2 7272   2.373   2.439   1.655
 2125SOL     OW 7273   5.248   5.982   6.753
 2125SOL    HW1 7274   5.287   5.937   6.672
 2125SOL    HW2 7275   5.310   6.054   6.784
 2126SOL     OW 7276   3.018   1.661   1.278
 2126SOL    HW1 7277   3.046   1.654   1.182
 2126SOL    HW2 7278   2.918   1.671   1.282
 2127SOL     OW 7279   5.802   2.436   4.520
 2127SOL    HW1 7280   5.822   2.513   4.459
 2127SOL    HW2 7281   5.740   2.372   4.474
 2128SOL     OW 7282   1.029   3.547   4.835
 2128SOL    HW1 7283   1.065   3.636   4.806
 2128SOL    HW2 7284   0.934   3.538   4.806
 2129SOL     OW 7285   4.419   2.427   4.918
 2129SOL    HW1 7286   4.464   2.358   4.976
 2129SOL    HW2 7287   4.320   2.421   4.931
 2130SOL     OW 7288   4.613   6.325   2.787
 2130SOL    HW1 7289   4.531   6.318   2.731
 2130SOL    HW2 7290   4.610   6.255   2.859
 2131SOL     OW 7291   4.863   1.718   6.680
 2131SOL    HW1 7292   4.936   1.786   6.673
 2131SOL    HW2 7293   4.902   1.631   6.712
 2132SOL     OW 7294   0.713   2.883   1.601
 2132SOL    HW1 7295   0.734   2.786   1.584
 2132SOL    HW2 7296   0.634   2.910   1.546
 2133SOL     OW 7297   2.403   4.294   5.865
 2133SOL    HW1 7298   2.494   4.265   5.836
 2133SOL    HW2 7299   2.411   4.366   5.934
 2134SOL     OW 7300   0.258   6.817   0.580
 2134SOL    HW1 7301   0.195   6.790   0.507
 2134SOL    HW2 7302   0.225   6.900   0.625
 2135SOL     OW 7303   6.397   5.269   5.578
 2135SOL    HW1 7304   6.373   5.219   5.495
 2135SOL    HW2 7305   6.482   5.232   5.616
 2136SOL     OW 7306   1.692   5.155   0.104
 2136SOL    HW1 7307   1.671   5.207   0.021
 2136SOL    HW2 7308   1.695   5.057   0.082
 2137SOL     OW 7309   1.592   6.178   3.539
 2137SOL    HW1 7310   1.665   6.210   3.600
 2137SOL    HW2 7311   1.547   6.100   3.581
 2138SOL     OW 7312   4.783   2.228   1.859
 2138SOL    HW1 7313   4.702   2.253   1.911
 2138SOL    HW2 7314   4.755   2.191   1.770
 2139SOL     OW 7315   2.517   6.180   5.396
 2139SOL    HW1 7316   2.419   6.169   5.382
 2139SOL    HW2 7317   2.565   6.098   5.366
 2140SOL     OW 7318   2.142   2.642   3.316
 2140SOL    HW1 7319   2.081   2.563   3.322
 2140SOL    HW2 7320   2.091   2.722   3.287
 2141SOL     OW 7321   6.634   3.163   2.785
 2141SOL    HW1 7322   6.540   3.137   2.765
 2141SOL    HW2 7323   6.635   3.240   2.848
 2142SOL     OW 7324   1.960   1.639   1.786
 2142SOL    HW1 7325   1.928   1.731   1.808
 2142SOL    HW2 7326   1.968   1.631   1.686
 2143SOL     OW 7327   6.878   5.329   5.863
 2143SOL    HW1 7328   6.863   5.373   5.774
 2143SOL    HW2 7329   6.972   5.347   5.894
 2144SOL     OW 7330   6.007   4.659   2.900
 2144SOL    HW1 7331   6.097   4.643   2.860
 2144SOL    HW2 7332   6.008   4.632   2.996
 2145SOL     OW 7333   3.462   1.132   3.041
 2145SOL    HW1 7334   3.405   1.053   3.060
 2145SOL    HW2 7335   3.416   1.191   2.974
 2146SOL     OW 7336   1.936   1.479   0.009
 2146SOL    HW1 7337   1.961   1.569   0.044
 2146SOL    HW2 7338   1.889   1.489   6.947
 2147SOL     OW 7339   5.827   0.191   5.227
 2147SOL    HW1 7340   5.853   0.107   5.179
 2147SOL    HW2 7341   5.793   0.168   5.318
 2148SOL     OW 7342   2.010   2.457   5.184
 2148SOL    HW1 7343   2.085   2.396   5.211
 2148SOL    HW2 7344   2.047   2.547   5.162
 2149SOL     OW 7345   0.024   6.663   7.007
 2149SOL    HW1 7346   6.966   6.639   6.957
 2149SOL    HW2 7347   0.085   6.716   6.948
 2150SOL     OW 7348   1.051   2.382   0.304
 2150SOL    HW1 7349   1.142   2.378   0.344
 2150SOL    HW2 7350   0.983   2.358   0.373
 2151SOL     OW 7351   0.771   5.392   0.075
 2151SOL    HW1 7352   0.689   5.354   0.117
 2151SOL    HW2 7353   0.761   5.491   0.066
 2152SOL     OW 7354   5.227   6.318   4.012
 2152SOL    HW1 7355   5.156   6.378   3.975
 2152SOL    HW2 7356   5.311   6.330   3.958
 2153SOL     OW 7357   4.647   0.147   3.574
 2153SOL    HW1 7358   4.637   0.121   3.478
 2153SOL    HW2 7359   4.744   0.167   3.592
 2154SOL     OW 7360   2.394   6.488   2.197
 2154SOL    HW1 7361   2.352   6.507   2.286
 2154SOL    HW2 7362   2.358   6.552   2.128
 2155SOL     OW 7363   5.313   0.723   0.512
 2155SOL    HW1 7364   5.323   0.821   0.529
 2155SOL    HW2 7365   5.245   0.708   0.441
 2156SOL     OW 7366   6.495   1.626   4.294
 2156SOL    HW1 7367   6.417   1.662   4.346
 2156SOL    HW2 7368   6.480   1.641   4.196
 2157SOL     OW 7369   4.321   6.080   3.155
 2157SOL    HW1 7370   4.299   6.070   3.252
 2157SOL    HW2 7371   4.271   6.158   3.117
 2158SOL     OW 7372   3.259   0.245   0.326
 2158SOL    HW1 7373   3.162   0.255   0.306
 2158SOL    HW2 7374   3.273   0.231   0.424
 2159SOL     OW 7375   0.867   2.207   5.812
 2159SOL    HW1 7376   0.938   2.185   5.879
 2159SOL    HW2 7377   0.897   2.178   5.722
 2160SOL     OW 7378   5.468   6.737   6.651
 2160SOL    HW1 7379   5.533   6.667   6.621
 2160SOL    HW2 7380   5.517   6.823   6.665
 2161SOL     OW 7381   1.292   3.666   7.002
 2161SOL    HW1 7382   1.232   3.692   0.052
 2161SOL    HW2 7383   1.372   3.726   7.000
 2162SOL     OW 7384   1.922   6.572   0.350
 2162SOL    HW1 7385   1.897   6.638   0.279
 2162SOL    HW2 7386   1.850   6.570   0.420
 2163SOL     OW 7387   0.777   3.217   4.337
 2163SOL    HW1 7388   0.866   3.178   4.312
 2163SOL    HW2 7389   0.719   3.222   4.256
 2164SOL     OW 7390   1.602   4.716   1.915
 2164SOL    HW1 7391   1.660   4.798   1.911
 2164SOL    HW2 7392   1.657   4.638   1.944
 2165SOL     OW 7393   6.241   2.025   5.704
 2165SOL    HW1 7394   6.210   2.104   5.755
 2165SOL    HW2 7395   6.314   1.978   5.755
 2166SOL     OW 7396   6.692   2.230   2.078
 2166SOL    HW1 7397   6.592   2.221   2.074
 2166SOL    HW2 7398   6.718   2.272   2.164
 2167SOL     OW 7399   1.587   2.312   3.029
 2167SOL    HW1 7400   1.590   2.311   2.929
 2167SOL    HW2 7401   1.562   2.404   3.061
 2168SOL     OW 7402   1.456   2.159   3.911
 2168SOL    HW1 7403   1.412   2.089   3.856
 2168SOL    HW2 7404   1.417   2.249   3.888
 2169SOL     OW 7405   6.224   6.843   0.676
 2169SOL    HW1 7406   6.269   6.774   0.619
 2169SOL    HW2 7407   6.215   6.808   0.769
 2170SOL     OW 7408   1.976   2.855   6.143
 2170SOL    HW1 7409   1.943   2.780   6.199
 2170SOL    HW2 7410   2.046   2.821   6.079
 2171SOL     OW 7411   5.947   6.811   1.535
 2171SOL    HW1 7412   5.883   6.742   1.568
 2171SOL    HW2 7413   5.918   6.902   1.566
 2172SOL     OW 7414   2.473   2.550   4.975
 2172SOL    HW1 7415   2.498   2.530   4.880
 2172SOL    HW2 7416   2.551   2.591   5.022
 2173SOL     OW 7417   4.148   0.795   4.737
 2173SOL    HW1 7418   4.129   0.883   4.693
 2173SOL    HW2 7419   4.226   0.804   4.798
 2174SOL     OW 7420   5.120   6.946   5.365
 2174SOL    HW1 7421   5.150   6.957   5.271
 2174SOL    HW2 7422   5.130   6.850   5.392
 2175SOL     OW 7423   3.127   2.526   5.659
 2175SOL    HW1 7424   3.185   2.526   5.740
 2175SOL    HW2 7425   3.095   2.619   5.641
 2176SOL     OW 7426   6.906   1.797   2.864
 2176SOL    HW1 7427   6.897   1.878   2.922
 2176SOL    HW2 7428   6.879   1.820   2.770
 2177SOL     OW 7429   0.731   0.206   4.836
 2177SOL    HW1 7430   0.710   0.141   4.908
 2177SOL    HW2 7431   0.691   0.295   4.859
 2178SOL     OW 7432   1.998   3.663   1.982
 2178SOL    HW1 7433   2.082   3.613   2.000
 2178SOL    HW2 7434   1.951   3.624   1.903
 2179SOL     OW 7435   1.285   4.214   6.551
 2179SOL    HW1 7436   1.289   4.155   6.470
 2179SOL    HW2 7437   1.373   4.211   6.598
 2180SOL     OW 7438   0.121   5.152   2.580
 2180SOL    HW1 7439   0.050   5.102   2.629
 2180SOL    HW2 7440   0.208   5.142   2.629
 2181SOL     OW 7441   4.330   4.947   2.995
 2181SOL    HW1 7442   4.235   4.950   3.025
 2181SOL    HW2 7443   4.373   4.865   3.032
 2182SOL     OW 7444   0.022   6.866   0.866
 2182SOL    HW1 7445   0.024   6.812   0.950
 2182SOL    HW2 7446   7.023   6.807   0.789
 2183SOL     OW 7447   4.027   2.986   6.695
 2183SOL    HW1 7448   3.970   3.045   6.751
 2183SOL    HW2 7449   4.075   3.041   6.626
 2184SOL     OW 7450   6.496   2.075   6.590
 2184SOL    HW1 7451   6.580   2.095   6.640
 2184SOL    HW2 7452   6.451   1.996   6.630
 2185SOL     OW 7453   6.958   1.715   6.238
 2185SOL    HW1 7454   6.955   1.643   6.307
 2185SOL    HW2 7455   0.007   1.697   6.174
 2186SOL     OW 7456   6.934   6.123   5.982
 2186SOL    HW1 7457   6.836   6.104   5.976
 2186SOL    HW2 7458   6.952   6.215   5.946
 2187SOL     OW 7459   5.876   3.695   1.519
 2187SOL    HW1 7460   5.842   3.605   1.494
 2187SOL    HW2 7461   5.944   3.686   1.591
 2188SOL     OW 7462   3.168   1.909   0.865
 2188SOL    HW1 7463   3.247   1.922   0.806
 2188SOL    HW2 7464   3.112   1.992   0.866
 2189SOL     OW 7465   2.430   0.788   2.233
 2189SOL    HW1 7466   2.378   0.873   2.236
 2189SOL    HW2 7467   2.486   0.785   2.150
 2190SOL     OW 7468   6.789   4.676   1.701
 2190SOL    HW1 7469   6.772   4.672   1.800
 2190SOL    HW2 7470   6.804   4.583   1.666
 2191SOL     OW 7471   3.448   0.327   6.538
 2191SOL    HW1 7472   3.499   0.254   6.493
 2191SOL    HW2 7473   3.401   0.383   6.470
 2192SOL     OW 7474   5.235   2.042   1.760
 2192SOL    HW1 7475   5.211   2.049   1.663
 2192SOL    HW2 7476   5.160   2.076   1.816
 2193SOL     OW 7477   1.944   0.234   5.909
 2193SOL    HW1 7478   1.933   0.300   5.834
 2193SOL    HW2 7479   1.957   0.284   5.995
 2194SOL     OW 7480   1.062   4.509   5.488
 2194SOL    HW1 7481   1.151   4.505   5.532
 2194SOL    HW2 7482   0.996   4.454   5.541
 2195SOL     OW 7483   0.340   4.231   5.400
 2195SOL    HW1 7484   0.372   4.137   5.393
 2195SOL    HW2 7485   0.361   4.267   5.492
 2196SOL     OW 7486   3.866   1.232   6.668
 2196SOL    HW1 7487   3.900   1.210   6.577
 2196SOL    HW2 7488   3.829   1.325   6.668
 2197SOL     OW 7489   4.048   4.923   6.841
 2197SOL    HW1 7490   4.054   4.896   6.937
 2197SOL    HW2 7491   3.952   4.935   6.816
 2198SOL     OW 7492   1.393   0.797   6.157
 2198SOL    HW1 7493   1.484   0.758   6.170
 2198SOL    HW2 7494   1.345   0.797   6.245
 2199SOL     OW 7495   4.578   5.881   3.409
 2199SOL    HW1 7496   4.648   5.857   3.477
 2199SOL    HW2 7497   4.598   5.971   3.371
 2200SOL     OW 7498   2.657   1.791   5.071
 2200SOL    HW1 7499   2.604   1.871   5.043
 2200SOL    HW2 7500   2.604   1.736   5.135
 2201SOL     OW 7501   5.981   3.262   4.251
 2201SOL    HW1 7502   5.941   3.226   4.166
 2201SOL    HW2 7503   5.958   3.201   4.327
 2202SOL     OW 7504   4.752   0.329   4.678
 2202SOL    HW1 7505   4.751   0.232   4.652
 2202SOL    HW2 7506   4.815   0.379   4.618
 2203SOL     OW 7507   2.158   5.844   1.115
 2203SOL    HW1 7508   2.095   5.814   1.044
 2203SOL    HW2 7509   2.246   5.797   1.103
 2204SOL     OW 7510   4.861   3.728   0.202
 2204SOL    HW1 7511   4.784   3.784   0.234
 2204SOL    HW2 7512   4.899   3.676   0.278
 2205SOL     OW 7513   5.185   5.365   1.159
 2205SOL    HW1 7514   5.091   5.332   1.146
 2205SOL    HW2 7515   5.193   5.412   1.246
 2206SOL     OW 7516   3.230   3.243   5.206
 2206SOL    HW1 7517   3.235   3.342   5.211
 2206SOL    HW2 7518   3.277   3.211   5.124
 2207SOL     OW 7519   4.690   4.729   1.112
 2207SOL    HW1 7520   4.657   4.734   1.017
 2207SOL    HW2 7521   4.779   4.684   1.114
 2208SOL     OW 7522   6.585   5.916   2.999
 2208SOL    HW1 7523   6.643   5.986   2.958
 2208SOL    HW2 7524   6.630   5.827   2.992
 2209SOL     OW 7525   2.530   5.665   3.624
 2209SOL    HW1 7526   2.624   5.693   3.602
 2209SOL    HW2 7527   2.499   5.598   3.557
 2210SOL     OW 7528   5.354   6.536   2.228
 2210SOL    HW1 7529   5.366   6.595   2.307
 2210SOL    HW2 7530   5.377   6.442   2.253
 2211SOL     OW 7531   1.897   0.831   1.188
 2211SOL    HW1 7532   1.872   0.745   1.145
 2211SOL    HW2 7533   1.837   0.904   1.154
 2212SOL     OW 7534   2.803   6.362   6.218
 2212SOL    HW1 7535   2.820   6.436   6.284
 2212SOL    HW2 7536   2.868   6.288   6.234
 2213SOL     OW 7537   3.525   2.079   4.144
 2213SOL    HW1 7538   3.534   2.131   4.229
 2213SOL    HW2 7539   3.468   1.998   4.160
 2214SOL     OW 7540   4.137   4.763   0.038
 2214SOL    HW1 7541   4.192   4.720   6.992
 2214SOL    HW2 7542   4.054   4.708   0.054
 2215SOL     OW 7543   0.005   5.339   6.738
 2215SOL    HW1 7544   6.956   5.334   6.671
 2215SOL    HW2 7545   0.090   5.365   6.691
 2216SOL     OW 7546   0.319   6.205   0.405
 2216SOL    HW1 7547   0.227   6.165   0.415
 2216SOL    HW2 7548   0.312   6.295   0.362
 2217SOL     OW 7549   4.070   1.347   4.111
 2217SOL    HW1 7550   4.161   1.312   4.131
 2217SOL    HW2 7551   4.069   1.446   4.123
 2218SOL     OW 7552   5.909   5.370   5.845
 2218SOL    HW1 7553   6.004   5.363   5.877
 2218SOL    HW2 7554   5.858   5.288   5.871
 2219SOL     OW 7555   5.321   2.184   0.506
 2219SOL    HW1 7556   5.266   2.182   0.422
 2219SOL    HW2 7557   5.292   2.262   0.562
 2220SOL     OW 7558   6.568   6.871   4.465
 2220SOL    HW1 7559   6.488   6.916   4.504
 2220SOL    HW2 7560   6.638   6.859   4.535
 2221SOL     OW 7561   4.930   7.005   3.172
 2221SOL    HW1 7562   4.938   0.050   3.243
 2221SOL    HW2 7563   4.948   0.021   3.082
 2222SOL     OW 7564   3.809   0.474   4.275
 2222SOL    HW1 7565   3.823   0.558   4.327
 2222SOL    HW2 7566   3.749   0.492   4.197
 2223SOL     OW 7567   0.942   0.329   5.692
 2223SOL    HW1 7568   0.844   0.330   5.714
 2223SOL    HW2 7569   0.954   0.344   5.594
 2224SOL     OW 7570   4.978   4.833   6.445
 2224SOL    HW1 7571   4.950   4.743   6.478
 2224SOL    HW2 7572   4.928   4.856   6.362
 2225SOL     OW 7573   6.569   0.699   0.662
 2225SOL    HW1 7574   6.628   0.666   0.588
 2225SOL    HW2 7575   6.474   0.699   0.632
 2226SOL     OW 7576   2.770   3.241   6.644
 2226SOL    HW1 7577   2.784   3.143   6.635
 2226SOL    HW2 7578   2.829   3.289   6.579
 2227SOL     OW 7579   4.351   1.915   1.380
 2227SOL    HW1 7580   4.346   1.957   1.289
 2227SOL    HW2 7581   4.313   1.823   1.375
 2228SOL     OW 7582   4.772   6.451   6.617
 2228SOL    HW1 7583   4.772   6.517   6.543
 2228SOL    HW2 7584   4.865   6.442   6.654
 2229SOL     OW 7585   3.650   2.906   4.270
 2229SOL    HW1 7586   3.720   2.975   4.260
 2229SOL    HW2 7587   3.685   2.817   4.239
 2230SOL     OW 7588   6.892   1.961   6.317
 2230SOL    HW1 7589   6.907   1.885   6.254
 2230SOL    HW2 7590   6.843   2.035   6.270
 2231SOL     OW 7591   0.865   6.845   5.760
 2231SOL    HW1 7592   0.811   6.762   5.744
 2231SOL    HW2 7593   0.957   6.832   5.722
 2232SOL     OW 7594   1.546   0.685   0.186
 2232SOL    HW1 7595   1.510   0.765   0.233
 2232SOL    HW2 7596   1.493   0.668   0.103
 2233SOL     OW 7597   3.173   5.538   0.847
 2233SOL    HW1 7598   3.220   5.471   0.905
 2233SOL    HW2 7599   3.241   5.591   0.795
 2234SOL     OW 7600   5.369   1.876   2.087
 2234SOL    HW1 7601   5.437   1.943   2.056
 2234SOL    HW2 7602   5.290   1.924   2.125
 2235SOL     OW 7603   1.483   2.007   4.116
 2235SOL    HW1 7604   1.471   2.065   4.035
 2235SOL    HW2 7605   1.412   1.937   4.116
 2236SOL     OW 7606   2.647   5.259   4.804
 2236SOL    HW1 7607   2.607   5.310   4.881
 2236SOL    HW2 7608   2.574   5.228   4.744
 2237SOL     OW 7609   6.011   6.900   6.538
 2237SOL    HW1 7610   6.034   6.809   6.502
 2237SOL    HW2 7611   5.912   6.908   6.547
 2238SOL     OW 7612   5.265   4.140   1.536
 2238SOL    HW1 7613   5.187   4.182   1.581
 2238SOL    HW2 7614   5.236   4.099   1.450
 2239SOL     OW 7615   3.226   0.464   2.905
 2239SOL    HW1 7616   3.248   0.370   2.932
 2239SOL    HW2 7617   3.133   0.466   2.868
 2240SOL     OW 7618   4.782   5.174   2.853
 2240SOL    HW1 7619   4.869   5.222   2.849
 2240SOL    HW2 7620   4.798   5.076   2.838
 2241SOL     OW 7621   1.513   2.109   3.186
 2241SOL    HW1 7622   1.596   2.056   3.165
 2241SOL    HW2 7623   1.516   2.196   3.137
 2242SOL     OW 7624   5.275   2.517   4.156
 2242SOL    HW1 7625   5.184   2.480   4.176
 2242SOL    HW2 7626   5.334   2.506   4.235
 2243SOL     OW 7627   2.274   0.277   0.233
 2243SOL    HW1 7628   2.364   0.270   0.275
 2243SOL    HW2 7629   2.284   0.276   0.133
 2244SOL     OW 7630   2.003   2.055   1.131
 2244SOL    HW1 7631   2.029   2.136   1.184
 2244SOL    HW2 7632   1.922   2.076   1.075
 2245SOL     OW 7633   6.842   1.500   0.094
 2245SOL    HW1 7634   6.888   1.565   0.034
 2245SOL    HW2 7635   6.899   1.482   0.174
 2246SOL     OW 7636   5.723   0.746   5.748
 2246SOL    HW1 7637   5.728   0.653   5.785
 2246SOL    HW2 7638   5.670   0.804   5.810
 2247SOL     OW 7639   3.925   3.401   1.729
 2247SOL    HW1 7640   3.875   3.471   1.780
 2247SOL    HW2 7641   3.875   3.315   1.734
 2248SOL     OW 7642   5.225   3.013   4.411
 2248SOL    HW1 7643   5.173   3.098   4.418
 2248SOL    HW2 7644   5.204   2.955   4.490
 2249SOL     OW 7645   2.318   6.085   3.735
 2249SOL    HW1 7646   2.241   6.097   3.672
 2249SOL    HW2 7647   2.362   6.173   3.751
 2250SOL     OW 7648   4.274   5.959   6.065
 2250SOL    HW1 7649   4.321   5.876   6.033
 2250SOL    HW2 7650   4.220   5.937   6.147
 2251SOL     OW 7651   3.812   6.625   4.939
 2251SOL    HW1 7652   3.851   6.715   4.959
 2251SOL    HW2 7653   3.829   6.563   5.016
 2252SOL     OW 7654   3.791   1.454   2.394
 2252SOL    HW1 7655   3.762   1.531   2.337
 2252SOL    HW2 7656   3.868   1.408   2.351
 2253SOL     OW 7657   1.144   2.265   1.803
 2253SOL    HW1 7658   1.200   2.183   1.816
 2253SOL    HW2 7659   1.103   2.262   1.712
 2254SOL     OW 7660   3.572   2.950   2.530
 2254SOL    HW1 7661   3.604   3.044   2.538
 2254SOL    HW2 7662   3.472   2.948   2.540
 2255SOL     OW 7663   1.798   1.734   6.341
 2255SOL    HW1 7664   1.846   1.793   6.276
 2255SOL    HW2 7665   1.701   1.758   6.342
 2256SOL     OW 7666   4.814   0.084   1.327
 2256SOL    HW1 7667   4.860   0.103   1.241
 2256SOL    HW2 7668   4.721   0.120   1.324
 2257SOL     OW 7669   0.191   1.317   6.500
 2257SOL    HW1 7670   0.123   1.266   6.447
 2257SOL    HW2 7671   0.230   1.257   6.571
 2258SOL     OW 7672   2.008   0.319   3.366
 2258SOL    HW1 7673   2.060   0.405   3.374
 2258SOL    HW2 7674   1.938   0.329   3.296
 2259SOL     OW 7675   5.961   6.986   5.173
 2259SOL    HW1 7676   6.017   7.016   5.096
 2259SOL    HW2 7677   6.020   6.968   5.252
 2260SOL     OW 7678   1.404   3.438   1.279
 2260SOL    HW1 7679   1.309   3.423   1.251
 2260SOL    HW2 7680   1.425   3.535   1.273
 2261SOL     OW 7681   4.311   4.465   6.536
 2261SOL    HW1 7682   4.266   4.481   6.448
 2261SOL    HW2 7683   4.258   4.509   6.609
 2262SOL     OW 7684   6.585   0.796   3.687
 2262SOL    HW1 7685   6.638   0.819   3.606
 2262SOL    HW2 7686   6.503   0.745   3.661
 2263SOL     OW 7687   2.382   4.281   6.761
 2263SOL    HW1 7688   2.426   4.350   6.819
 2263SOL    HW2 7689   2.448   4.248   6.693
 2264SOL     OW 7690   1.917   0.676   6.696
 2264SOL    HW1 7691   1.871   0.701   6.611
 2264SOL    HW2 7692   1.901   0.747   6.765
 2265SOL     OW 7693   0.353   6.480   3.747
 2265SOL    HW1 7694   0.295   6.487   3.666
 2265SOL    HW2 7695   0.431   6.541   3.738
 2266SOL     OW 7696   4.147   4.038   6.811
 2266SOL    HW1 7697   4.140   4.131   6.775
 2266SOL    HW2 7698   4.216   4.036   6.884
 2267SOL     OW 7699   5.662   3.131   4.849
 2267SOL    HW1 7700   5.630   3.039   4.871
 2267SOL    HW2 7701   5.626   3.158   4.760
 2268SOL     OW 7702   1.027   5.959   4.842
 2268SOL    HW1 7703   0.970   5.885   4.877
 2268SOL    HW2 7704   1.034   6.031   4.911
 2269SOL     OW 7705   1.704   2.161   5.528
 2269SOL    HW1 7706   1.792   2.202   5.505
 2269SOL    HW2 7707   1.637   2.233   5.543
 2270SOL     OW 7708   4.060   1.528   6.447
 2270SOL    HW1 7709   4.066   1.625   6.472
 2270SOL    HW2 7710   3.968   1.508   6.413
 2271SOL     OW 7711   4.107   5.690   5.135
 2271SOL    HW1 7712   4.008   5.705   5.131
 2271SOL    HW2 7713   4.140   5.661   5.045
 2272SOL     OW 7714   5.922   1.301   6.160
 2272SOL    HW1 7715   5.923   1.250   6.246
 2272SOL    HW2 7716   5.946   1.240   6.084
 2273SOL     OW 7717   1.972   2.059   4.326
 2273SOL    HW1 7718   1.937   2.002   4.252
 2273SOL    HW2 7719   2.055   2.018   4.364
 2274SOL     OW 7720   1.120   1.007   0.268
 2274SOL    HW1 7721   1.177   0.961   0.336
 2274SOL    HW2 7722   1.150   1.101   0.257
 2275SOL     OW 7723   5.280   3.530   2.927
 2275SOL    HW1 7724   5.291   3.618   2.973
 2275SOL    HW2 7725   5.227   3.543   2.843
 2276SOL     OW 7726   1.878   1.671   1.499
 2276SOL    HW1 7727   1.836   1.743   1.554
 2276SOL    HW2 7728   1.827   1.660   1.413
 2277SOL     OW 7729   3.894   3.196   3.410
 2277SOL    HW1 7730   3.934   3.287   3.420
 2277SOL    HW2 7731   3.943   3.132   3.470
 2278SOL     OW 7732   6.608   3.805   3.665
 2278SOL    HW1 7733   6.634   3.809   3.762
 2278SOL    HW2 7734   6.686   3.774   3.611
 2279SOL     OW 7735   0.699   5.558   5.911
 2279SOL    HW1 7736   0.729   5.587   5.821
 2279SOL    HW2 7737   0.772   5.508   5.957
 2280SOL     OW 7738   4.960   2.662   5.240
 2280SOL    HW1 7739   5.012   2.702   5.316
 2280SOL    HW2 7740   4.883   2.722   5.217
 2281SOL     OW 7741   5.356   6.704   2.506
 2281SOL    HW1 7742   5.290   6.770   2.542
 2281SOL    HW2 7743   5.339   6.614   2.545
 2282SOL     OW 7744   3.725   5.187   5.648
 2282SOL    HW1 7745   3.648   5.130   5.676
 2282SOL    HW2 7746   3.711   5.281   5.680
 2283SOL     OW 7747   6.806   0.534   5.498
 2283SOL    HW1 7748   6.883   0.471   5.505
 2283SOL    HW2 7749   6.839   0.628   5.509
 2284SOL     OW 7750   1.557   4.176   6.113
 2284SOL    HW1 7751   1.569   4.133   6.203
 2284SOL    HW2 7752   1.645   4.177   6.065
 2285SOL     OW 7753   1.583   5.323   0.289
 2285SOL    HW1 7754   1.489   5.306   0.320
 2285SOL    HW2 7755   1.612   5.248   0.230
 2286SOL     OW 7756   4.915   4.469   2.229
 2286SOL    HW1 7757   4.953   4.523   2.154
 2286SOL    HW2 7758   4.955   4.378   2.228
 2287SOL     OW 7759   2.111   1.377   3.858
 2287SOL    HW1 7760   2.168   1.412   3.932
 2287SOL    HW2 7761   2.153   1.295   3.819
 2288SOL     OW 7762   6.553   4.906   2.935
 2288SOL    HW1 7763   6.574   4.991   2.887
 2288SOL    HW2 7764   6.471   4.919   2.991
 2289SOL     OW 7765   0.334   4.523   0.371
 2289SOL    HW1 7766   0.403   4.584   0.411
 2289SOL    HW2 7767   0.243   4.558   0.390
 2290SOL     OW 7768   1.070   5.058   6.972
 2290SOL    HW1 7769   1.008   5.124   6.931
 2290SOL    HW2 7770   1.023   5.009   0.020
 2291SOL     OW 7771   1.800   1.328   0.216
 2291SOL    HW1 7772   1.862   1.279   0.277
 2291SOL    HW2 7773   1.854   1.385   0.154
 2292SOL     OW 7774   2.203   0.951   4.804
 2292SOL    HW1 7775   2.171   1.013   4.875
 2292SOL    HW2 7776   2.126   0.925   4.745
 2293SOL     OW 7777   5.064   4.085   3.399
 2293SOL    HW1 7778   5.022   4.138   3.325
 2293SOL    HW2 7779   5.055   3.987   3.379
 2294SOL     OW 7780   3.907   0.046   6.406
 2294SOL    HW1 7781   3.837   7.022   6.457
 2294SOL    HW2 7782   3.887   0.143   6.407
 2295SOL     OW 7783   0.654   0.600   1.943
 2295SOL    HW1 7784   0.664   0.699   1.932
 2295SOL    HW2 7785   0.735   0.554   1.908
 2296SOL     OW 7786   2.962   6.357   6.743
 2296SOL    HW1 7787   3.021   6.435   6.724
 2296SOL    HW2 7788   2.873   6.372   6.702
 2297SOL     OW 7789   4.198   5.958   6.339
 2297SOL    HW1 7790   4.141   6.026   6.385
 2297SOL    HW2 7791   4.154   5.869   6.343
 2298SOL     OW 7792   4.695   2.804   6.490
 2298SOL    HW1 7793   4.738   2.861   6.560
 2298SOL    HW2 7794   4.660   2.720   6.532
 2299SOL     OW 7795   5.045   0.200   1.440
 2299SOL    HW1 7796   5.122   0.186   1.501
 2299SOL    HW2 7797   4.993   0.115   1.432
 2300SOL     OW 7798   1.156   4.585   1.304
 2300SOL    HW1 7799   1.188   4.494   1.278
 2300SOL    HW2 7800   1.104   4.624   1.228
 2301SOL     OW 7801   3.349   2.934   1.342
 2301SOL    HW1 7802   3.309   2.892   1.424
 2301SOL    HW2 7803   3.289   3.007   1.310
 2302SOL     OW 7804   3.101   5.439   2.998
 2302SOL    HW1 7805   3.110   5.452   3.097
 2302SOL    HW2 7806   3.064   5.348   2.980
 2303SOL     OW 7807   0.586   3.597   5.803
 2303SOL    HW1 7808   0.638   3.531   5.748
 2303SOL    HW2 7809   0.649   3.652   5.857
 2304SOL     OW 7810   1.680   0.762   4.509
 2304SOL    HW1 7811   1.636   0.684   4.555
 2304SOL    HW2 7812   1.622   0.843   4.520
 2305SOL     OW 7813   4.278   4.862   1.596
 2305SOL    HW1 7814   4.319   4.952   1.601
 2305SOL    HW2 7815   4.305   4.817   1.511
 2306SOL     OW 7816   0.068   4.764   0.406
 2306SOL    HW1 7817   0.153   4.774   0.459
 2306SOL    HW2 7818   7.015   4.772   0.467
 2307SOL     OW 7819   0.196   1.051   3.264
 2307SOL    HW1 7820   0.214   1.147   3.247
 2307SOL    HW2 7821   0.219   1.029   3.359
 2308SOL     OW 7822   0.816   0.268   0.108
 2308SOL    HW1 7823   0.884   0.315   0.164
 2308SOL    HW2 7824   0.753   0.335   0.068
 2309SOL     OW 7825   2.082   5.211   6.391
 2309SOL    HW1 7826   2.163   5.181   6.441
 2309SOL    HW2 7827   2.066   5.150   6.313
 2310SOL     OW 7828   5.557   1.432   3.276
 2310SOL    HW1 7829   5.633   1.373   3.247
 2310SOL    HW2 7830   5.593   1.510   3.327
 2311SOL     OW 7831   2.927   6.763   2.733
 2311SOL    HW1 7832   2.949   6.690   2.668
 2311SOL    HW2 7833   2.828   6.774   2.740
 2312SOL     OW 7834   2.447   0.695   1.950
 2312SOL    HW1 7835   2.358   0.724   1.915
 2312SOL    HW2 7836   2.445   0.596   1.966
 2313SOL     OW 7837   4.770   4.764   1.390
 2313SOL    HW1 7838   4.739   4.794   1.300
 2313SOL    HW2 7839   4.703   4.791   1.459
 2314SOL     OW 7840   6.972   5.908   2.993
 2314SOL    HW1 7841   6.891   5.857   3.022
 2314SOL    HW2 7842   7.016   5.949   3.073
 2315SOL     OW 7843   5.012   6.633   4.968
 2315SOL    HW1 7844   5.100   6.669   4.938
 2315SOL    HW2 7845   5.015   6.617   5.067
 2316SOL     OW 7846   3.983   2.623   6.458
 2316SOL    HW1 7847   3.902   2.680   6.445
 2316SOL    HW2 7848   4.032   2.652   6.540
 2317SOL     OW 7849   0.128   4.987   2.049
 2317SOL    HW1 7850   0.061   4.935   1.996
 2317SOL    HW2 7851   0.098   4.993   2.144
 2318SOL     OW 7852   1.173   4.626   3.808
 2318SOL    HW1 7853   1.246   4.598   3.870
 2318SOL    HW2 7854   1.199   4.709   3.760
 2319SOL     OW 7855   2.809   4.946   2.965
 2319SOL    HW1 7856   2.842   4.940   2.871
 2319SOL    HW2 7857   2.818   4.856   3.009
 2320SOL     OW 7858   1.491   2.064   5.168
 2320SOL    HW1 7859   1.394   2.076   5.147
 2320SOL    HW2 7860   1.541   2.146   5.139
 2321SOL     OW 7861   2.045   5.189   5.376
 2321SOL    HW1 7862   2.100   5.212   5.296
 2321SOL    HW2 7863   2.032   5.089   5.380
 2322SOL     OW 7864   1.818   3.266   1.747
 2322SOL    HW1 7865   1.748   3.220   1.693
 2322SOL    HW2 7866   1.825   3.225   1.837
 2323SOL     OW 7867   2.140   5.958   6.393
 2323SOL    HW1 7868   2.071   5.887   6.378
 2323SOL    HW2 7869   2.220   5.938   6.336
 2324SOL     OW 7870   6.389   4.590   2.610
 2324SOL    HW1 7871   6.376   4.545   2.522
 2324SOL    HW2 7872   6.484   4.617   2.620
 2325SOL     OW 7873   6.737   3.779   2.701
 2325SOL    HW1 7874   6.665   3.716   2.732
 2325SOL    HW2 7875   6.736   3.784   2.601
 2326SOL     OW 7876   2.114   0.067   0.299
 2326SOL    HW1 7877   2.095   0.017   0.215
 2326SOL    HW2 7878   2.167   0.150   0.279
 2327SOL     OW 7879   6.248   6.340   1.931
 2327SOL    HW1 7880   6.167   6.320   1.987
 2327SOL    HW2 7881   6.277   6.256   1.885
 2328SOL     OW 7882   2.148   3.925   2.304
 2328SOL    HW1 7883   2.188   3.968   2.223
 2328SOL    HW2 7884   2.164   3.826   2.301
 2329SOL     OW 7885   0.943   4.827   1.762
 2329SOL    HW1 7886   0.984   4.801   1.849
 2329SOL    HW2 7887   0.951   4.926   1.751
 2330SOL     OW 7888   5.960   3.360   1.829
 2330SOL    HW1 7889   6.042   3.358   1.771
 2330SOL    HW2 7890   5.941   3.268   1.863
 2331SOL     OW 7891   4.754   5.302   1.498
 2331SOL    HW1 7892   4.674   5.256   1.461
 2331SOL    HW2 7893   4.744   5.400   1.488
 2332SOL     OW 7894   5.800   0.205   6.299
 2332SOL    HW1 7895   5.798   0.303   6.319
 2332SOL    HW2 7896   5.723   0.183   6.238
 2333SOL     OW 7897   1.617   4.718   2.521
 2333SOL    HW1 7898   1.652   4.637   2.567
 2333SOL    HW2 7899   1.618   4.704   2.422
 2334SOL     OW 7900   3.585   1.268   5.917
 2334SOL    HW1 7901   3.596   1.290   6.014
 2334SOL    HW2 7902   3.504   1.211   5.904
 2335SOL     OW 7903   6.058   0.419   3.620
 2335SOL    HW1 7904   5.978   0.371   3.657
 2335SOL    HW2 7905   6.139   0.397   3.674
 2336SOL     OW 7906   1.706   1.537   3.014
 2336SOL    HW1 7907   1.660   1.523   3.101
 2336SOL    HW2 7908   1.716   1.450   2.967
 2337SOL     OW 7909   4.212   1.154   2.406
 2337SOL    HW1 7910   4.216   1.168   2.307
 2337SOL    HW2 7911   4.140   1.210   2.445
 2338SOL     OW 7912   0.123   3.706   3.737
 2338SOL    HW1 7913   0.039   3.758   3.753
 2338SOL    HW2 7914   0.199   3.750   3.785
 2339SOL     OW 7915   3.324   3.039   2.537
 2339SOL    HW1 7916   3.268   3.009   2.460
 2339SOL    HW2 7917   3.285   3.122   2.577
 2340SOL     OW 7918   1.878   4.045   6.324
 2340SOL    HW1 7919   1.934   3.982   6.378
 2340SOL    HW2 7920   1.854   4.002   6.237
 2341SOL     OW 7921   3.074   4.894   4.134
 2341SOL    HW1 7922   3.128   4.907   4.217
 2341SOL    HW2 7923   3.126   4.927   4.055
 2342SOL     OW 7924   3.648   1.843   4.506
 2342SOL    HW1 7925   3.734   1.893   4.510
 2342SOL    HW2 7926   3.586   1.878   4.576
 2343SOL     OW 7927   6.801   0.072   0.809
 2343SOL    HW1 7928   6.883   0.019   0.789
 2343SOL    HW2 7929   6.723   0.011   0.823
 2344SOL     OW 7930   6.103   4.610   0.137
 2344SOL    HW1 7931   6.030   4.564   0.086
 2344SOL    HW2 7932   6.064   4.684   0.192
 2345SOL     OW 7933   3.485   6.422   3.897
 2345SOL    HW1 7934   3.548   6.433   3.821
 2345SOL    HW2 7935   3.420   6.348   3.876
 2346SOL     OW 7936   4.995   3.609   0.431
 2346SOL    HW1 7937   5.031   3.516   0.434
 2346SOL    HW2 7938   5.068   3.671   0.402
 2347SOL     OW 7939   1.602   1.303   0.971
 2347SOL    HW1 7940   1.564   1.286   0.880
 2347SOL    HW2 7941   1.689   1.254   0.980
 2348SOL     OW 7942   0.155   5.698   2.499
 2348SOL    HW1 7943   0.171   5.664   2.591
 2348SOL    HW2 7944   0.065   5.669   2.467
 2349SOL     OW 7945   0.793   4.921   4.649
 2349SOL    HW1 7946   0.739   4.899   4.568
 2349SOL    HW2 7947   0.781   5.017   4.672
 2350SOL     OW 7948   5.717   3.886   0.437
 2350SOL    HW1 7949   5.719   3.949   0.515
 2350SOL    HW2 7950   5.808   3.881   0.396
 2351SOL     OW 7951   2.501   6.152   1.563
 2351SOL    HW1 7952   2.442   6.186   1.490
 2351SOL    HW2 7953   2.463   6.178   1.652
 2352SOL     OW 7954   6.883   2.340   3.364
 2352SOL    HW1 7955   6.970   2.388   3.358
 2352SOL    HW2 7956   6.814   2.401   3.402
 2353SOL     OW 7957   3.047   6.314   4.086
 2353SOL    HW1 7958   3.043   6.410   4.114
 2353SOL    HW2 7959   3.057   6.257   4.167
 2354SOL     OW 7960   2.702   2.393   4.309
 2354SOL    HW1 7961   2.707   2.366   4.405
 2354SOL    HW2 7962   2.792   2.381   4.267
 2355SOL     OW 7963   2.541   5.696   4.545
 2355SOL    HW1 7964   2.550   5.635   4.467
 2355SOL    HW2 7965   2.470   5.661   4.606
 2356SOL     OW 7966   6.939   2.503   0.097
 2356SOL    HW1 7967   6.897   2.507   0.006
 2356SOL    HW2 7968   6.903   2.424   0.146
 2357SOL     OW 7969   2.319   6.669   2.877
 2357SOL    HW1 7970   2.318   6.714   2.967
 2357SOL    HW2 7971   2.321   6.739   2.805
 2358SOL     OW 7972   4.521   5.387   5.953
 2358SOL    HW1 7973   4.559   5.457   6.013
 2358SOL    HW2 7974   4.518   5.300   6.003
 2359SOL     OW 7975   1.354   0.147   5.401
 2359SOL    HW1 7976   1.376   0.245   5.399
 2359SOL    HW2 7977   1.349   0.113   5.307
 2360SOL     OW 7978   6.930   3.556   6.993
 2360SOL    HW1 7979   6.908   3.579   6.898
 2360SOL    HW2 7980   6.987   3.628   0.007
 2361SOL     OW 7981   3.148   0.953   0.296
 2361SOL    HW1 7982   3.048   0.960   0.304
 2361SOL    HW2 7983   3.181   1.023   0.233
 2362SOL     OW 7984   2.938   5.208   3.062
 2362SOL    HW1 7985   2.891   5.134   3.014
 2362SOL    HW2 7986   2.871   5.265   3.110
 2363SOL     OW 7987   3.774   0.487   3.677
 2363SOL    HW1 7988   3.745   0.534   3.594
 2363SOL    HW2 7989   3.701   0.425   3.707
 2364SOL     OW 7990   0.954   2.343   1.270
 2364SOL    HW1 7991   0.943   2.255   1.223
 2364SOL    HW2 7992   1.027   2.396   1.227
 2365SOL     OW 7993   5.409   1.912   0.421
 2365SOL    HW1 7994   5.403   2.006   0.453
 2365SOL    HW2 7995   5.505   1.887   0.409
 2366SOL     OW 7996   4.442   5.630   0.485
 2366SOL    HW1 7997   4.519   5.570   0.509
 2366SOL    HW2 7998   4.360   5.574   0.471
 2367SOL     OW 7999   2.445   3.320   6.031
 2367SOL    HW1 8000   2.369   3.346   5.973
 2367SOL    HW2 8001   2.457   3.387   6.104
 2368SOL     OW 8002   5.606   5.955   1.907
 2368SOL    HW1 8003   5.667   6.031   1.883
 2368SOL    HW2 8004   5.520   5.964   1.857
 2369SOL     OW 8005   2.389   1.620   3.236
 2369SOL    HW1 8006   2.309   1.633   3.296
 2369SOL    HW2 8007   2.362   1.638   3.142
 2370SOL     OW 8008   5.796   2.869   6.301
 2370SOL    HW1 8009   5.784   2.932   6.378
 2370SOL    HW2 8010   5.774   2.916   6.216
 2371SOL     OW 8011   1.477   5.589   1.978
 2371SOL    HW1 8012   1.517   5.615   1.890
 2371SOL    HW2 8013   1.466   5.671   2.035
 2372SOL     OW 8014   6.545   2.278   3.227
 2372SOL    HW1 8015   6.508   2.185   3.215
 2372SOL    HW2 8016   6.629   2.287   3.174
 2373SOL     OW 8017   2.404   3.713   6.422
 2373SOL    HW1 8018   2.446   3.802   6.406
 2373SOL    HW2 8019   2.435   3.648   6.352
 2374SOL     OW 8020   5.088   2.313   4.911
 2374SOL    HW1 8021   5.136   2.320   4.824
 2374SOL    HW2 8022   4.995   2.350   4.902
 2375SOL     OW 8023   1.164   6.918   5.401
 2375SOL    HW1 8024   1.086   6.927   5.463
 2375SOL    HW2 8025   1.220   6.840   5.429
 2376SOL     OW 8026   0.154   2.282   3.970
 2376SOL    HW1 8027   0.132   2.347   4.043
 2376SOL    HW2 8028   0.090   2.206   3.972
 2377SOL     OW 8029   3.544   2.926   4.006
 2377SOL    HW1 8030   3.567   2.954   4.099
 2377SOL    HW2 8031   3.626   2.930   3.949
 2378SOL     OW 8032   5.344   2.058   0.958
 2378SOL    HW1 8033   5.272   2.120   0.927
 2378SOL    HW2 8034   5.389   2.017   0.879
 2379SOL     OW 8035   6.608   0.046   6.175
 2379SOL    HW1 8036   6.518   0.090   6.182
 2379SOL    HW2 8037   6.647   0.064   6.085
 2380SOL     OW 8038   6.108   2.008   3.601
 2380SOL    HW1 8039   6.133   1.921   3.558
 2380SOL    HW2 8040   6.138   2.084   3.543
 2381SOL     OW 8041   1.685   6.039   2.483
 2381SOL    HW1 8042   1.605   6.013   2.429
 2381SOL    HW2 8043   1.741   6.105   2.432
 2382SOL     OW 8044   2.038   2.381   5.955
 2382SOL    HW1 8045   2.062   2.291   5.920
 2382SOL    HW2 8046   1.947   2.406   5.923
 2383SOL     OW 8047   5.703   5.319   1.302
 2383SOL    HW1 8048   5.769   5.286   1.235
 2383SOL    HW2 8049   5.739   5.305   1.395
 2384SOL     OW 8050   4.186   1.346   1.548
 2384SOL    HW1 8051   4.195   1.362   1.450
 2384SOL    HW2 8052   4.276   1.326   1.587
 2385SOL     OW 8053   1.196   2.991   7.018
 2385SOL    HW1 8054   1.164   2.924   6.951
 2385SOL    HW2 8055   1.296   2.992   7.018
 2386SOL     OW 8056   4.334   4.656   2.793
 2386SOL    HW1 8057   4.336   4.566   2.750
 2386SOL    HW2 8058   4.335   4.646   2.893
 2387SOL     OW 8059   1.188   1.224   2.768
 2387SOL    HW1 8060   1.185   1.258   2.674
 2387SOL    HW2 8061   1.107   1.254   2.818
 2388SOL     OW 8062   6.668   1.437   4.356
 2388SOL    HW1 8063   6.627   1.401   4.440
 2388SOL    HW2 8064   6.620   1.521   4.329
 2389SOL     OW 8065   3.673   6.723   2.182
 2389SOL    HW1 8066   3.687   6.626   2.159
 2389SOL    HW2 8067   3.669   6.777   2.099
 2390SOL     OW 8068   3.300   4.758   1.034
 2390SOL    HW1 8069   3.257   4.669   1.049
 2390SOL    HW2 8070   3.372   4.750   0.964
 2391SOL     OW 8071   4.244   5.235   4.448
 2391SOL    HW1 8072   4.146   5.213   4.447
 2391SOL    HW2 8073   4.257   5.327   4.411
 2392SOL     OW 8074   4.117   1.166   6.807
 2392SOL    HW1 8075   4.144   1.071   6.795
 2392SOL    HW2 8076   4.017   1.172   6.811
 2393SOL     OW 8077   3.624   5.502   4.965
 2393SOL    HW1 8078   3.586   5.558   4.891
 2393SOL    HW2 8079   3.602   5.544   5.053
 2394SOL     OW 8080   0.472   5.149   5.377
 2394SOL    HW1 8081   0.464   5.130   5.475
 2394SOL    HW2 8082   0.437   5.071   5.325
 2395SOL     OW 8083   4.562   6.320   6.311
 2395SOL    HW1 8084   4.503   6.310   6.391
 2395SOL    HW2 8085   4.508   6.348   6.232
 2396SOL     OW 8086   2.787   6.419   0.476
 2396SOL    HW1 8087   2.716   6.362   0.435
 2396SOL    HW2 8088   2.870   6.365   0.489
 2397SOL     OW 8089   0.749   3.082   4.583
 2397SOL    HW1 8090   0.788   3.148   4.648
 2397SOL    HW2 8091   0.757   3.118   4.490
 2398SOL     OW 8092   5.036   3.846   5.491
 2398SOL    HW1 8093   4.966   3.778   5.511
 2398SOL    HW2 8094   5.059   3.842   5.393
 2399SOL     OW 8095   4.975   2.546   1.565
 2399SOL    HW1 8096   4.935   2.621   1.513
 2399SOL    HW2 8097   4.925   2.534   1.651
 2400SOL     OW 8098   1.382   4.269   0.031
 2400SOL    HW1 8099   1.406   4.338   0.100
 2400SOL    HW2 8100   1.412   4.301   6.966
 2401SOL     OW 8101   6.275   5.833   6.765
 2401SOL    HW1 8102   6.234   5.872   6.683
 2401SOL    HW2 8103   6.312   5.907   6.822
 2402SOL     OW 8104   6.971   6.779   4.044
 2402SOL    HW1 8105   6.932   6.826   4.123
 2402SOL    HW2 8106   6.938   6.685   4.041
 2403SOL     OW 8107   1.409   0.666   3.579
 2403SOL    HW1 8108   1.362   0.580   3.598
 2403SOL    HW2 8109   1.342   0.735   3.550
 2404SOL     OW 8110   1.242   0.172   0.058
 2404SOL    HW1 8111   1.312   0.234   0.096
 2404SOL    HW2 8112   1.282   0.081   0.047
 2405SOL     OW 8113   3.065   4.606   1.440
 2405SOL    HW1 8114   3.102   4.516   1.414
 2405SOL    HW2 8115   3.141   4.668   1.460
 2406SOL     OW 8116   4.831   1.774   1.349
 2406SOL    HW1 8117   4.806   1.689   1.304
 2406SOL    HW2 8118   4.833   1.848   1.281
 2407SOL     OW 8119   4.932   6.901   3.517
 2407SOL    HW1 8120   4.937   6.931   3.612
 2407SOL    HW2 8121   5.023   6.875   3.485
 2408SOL     OW 8122   4.226   4.693   2.057
 2408SOL    HW1 8123   4.298   4.719   2.120
 2408SOL    HW2 8124   4.140   4.737   2.083
 2409SOL     OW 8125   1.376   3.940   0.933
 2409SOL    HW1 8126   1.459   3.896   0.968
 2409SOL    HW2 8127   1.303   3.872   0.926
 2410SOL     OW 8128   4.050   3.793   2.854
 2410SOL    HW1 8129   4.004   3.782   2.766
 2410SOL    HW2 8130   4.103   3.710   2.874
 2411SOL     OW 8131   3.862   0.391   5.202
 2411SOL    HW1 8132   3.827   0.478   5.235
 2411SOL    HW2 8133   3.845   0.383   5.103
 2412SOL     OW 8134   4.283   3.427   0.916
 2412SOL    HW1 8135   4.307   3.521   0.894
 2412SOL    HW2 8136   4.316   3.405   1.008
 2413SOL     OW 8137   3.294   0.527   3.171
 2413SOL    HW1 8138   3.316   0.445   3.225
 2413SOL    HW2 8139   3.248   0.500   3.087
 2414SOL     OW 8140   4.690   2.811   4.411
 2414SOL    HW1 8141   4.734   2.831   4.323
 2414SOL    HW2 8142   4.650   2.894   4.449
 2415SOL     OW 8143   3.590   0.122   3.020
 2415SOL    HW1 8144   3.602   0.217   3.050
 2415SOL    HW2 8145   3.602   0.061   3.098
 2416SOL     OW 8146   5.525   2.178   6.204
 2416SOL    HW1 8147   5.455   2.238   6.242
 2416SOL    HW2 8148   5.502   2.082   6.225
 2417SOL     OW 8149   3.050   3.782   5.641
 2417SOL    HW1 8150   2.954   3.788   5.615
 2417SOL    HW2 8151   3.058   3.787   5.741
 2418SOL     OW 8152   3.809   2.912   2.390
 2418SOL    HW1 8153   3.719   2.893   2.429
 2418SOL    HW2 8154   3.847   2.827   2.352
 2419SOL     OW 8155   6.543   0.483   4.154
 2419SOL    HW1 8156   6.521   0.471   4.250
 2419SOL    HW2 8157   6.643   0.490   4.144
 2420SOL     OW 8158   2.075   0.186   1.828
 2420SOL    HW1 8159   2.141   0.123   1.787
 2420SOL    HW2 8160   2.123   0.264   1.868
 2421SOL     OW 8161   4.608   2.469   3.279
 2421SOL    HW1 8162   4.518   2.444   3.243
 2421SOL    HW2 8163   4.658   2.523   3.211
 2422SOL     OW 8164   5.505   1.786   1.285
 2422SOL    HW1 8165   5.483   1.835   1.369
 2422SOL    HW2 8166   5.492   1.688   1.299
 2423SOL     OW 8167   1.287   5.064   2.412
 2423SOL    HW1 8168   1.351   5.010   2.357
 2423SOL    HW2 8169   1.219   5.003   2.452
 2424SOL     OW 8170   6.554   6.831   6.765
 2424SOL    HW1 8171   6.627   6.856   6.828
 2424SOL    HW2 8172   6.466   6.835   6.814
 2425SOL     OW 8173   6.874   0.098   4.380
 2425SOL    HW1 8174   6.813   0.044   4.440
 2425SOL    HW2 8175   6.967   0.062   4.387
 2426SOL     OW 8176   1.526   5.735   4.526
 2426SOL    HW1 8177   1.559   5.808   4.467
 2426SOL    HW2 8178   1.484   5.663   4.471
 2427SOL     OW 8179   5.813   0.699   5.163
 2427SOL    HW1 8180   5.851   0.607   5.151
 2427SOL    HW2 8181   5.723   0.692   5.207
 2428SOL     OW 8182   5.708   2.144   0.364
 2428SOL    HW1 8183   5.705   2.065   0.425
 2428SOL    HW2 8184   5.615   2.175   0.346
 2429SOL     OW 8185   4.699   4.307   2.450
 2429SOL    HW1 8186   4.764   4.351   2.512
 2429SOL    HW2 8187   4.666   4.373   2.383
 2430SOL     OW 8188   5.453   0.037   1.993
 2430SOL    HW1 8189   5.494   7.017   2.072
 2430SOL    HW2 8190   5.363   0.072   2.018
 2431SOL     OW 8191   4.284   6.891   2.084
 2431SOL    HW1 8192   4.286   6.799   2.046
 2431SOL    HW2 8193   4.333   6.953   2.023
 2432SOL     OW 8194   2.742   5.682   2.560
 2432SOL    HW1 8195   2.649   5.701   2.593
 2432SOL    HW2 8196   2.801   5.759   2.582
 2433SOL     OW 8197   5.016   0.081   0.503
 2433SOL    HW1 8198   4.951   0.091   0.578
 2433SOL    HW2 8199   5.006   7.015   0.462
 2434SOL     OW 8200   3.356   2.889   5.055
 2434SOL    HW1 8201   3.270   2.931   5.086
 2434SOL    HW2 8202   3.362   2.894   4.956
 2435SOL     OW 8203   5.438   5.159   6.534
 2435SOL    HW1 8204   5.493   5.191   6.611
 2435SOL    HW2 8205   5.355   5.216   6.527
 2436SOL     OW 8206   3.585   4.325   0.676
 2436SOL    HW1 8207   3.604   4.338   0.579
 2436SOL    HW2 8208   3.665   4.354   0.729
 2437SOL     OW 8209   0.236   1.072   5.489
 2437SOL    HW1 8210   0.334   1.082   5.506
 2437SOL    HW2 8211   0.188   1.064   5.577
 2438SOL     OW 8212   3.581   3.564   0.557
 2438SOL    HW1 8213   3.653   3.531   0.496
 2438SOL    HW2 8214   3.620   3.626   0.624
 2439SOL     OW 8215   6.371   4.011   6.425
 2439SOL    HW1 8216   6.463   4.000   6.461
 2439SOL    HW2 8217   6.374   4.010   6.325
 2440SOL     OW 8218   6.337   5.097   6.071
 2440SOL    HW1 8219   6.264   5.107   6.004
 2440SOL    HW2 8220   6.424   5.087   6.024
 2441SOL     OW 8221   6.512   2.102   0.660
 2441SOL    HW1 8222   6.520   2.008   0.692
 2441SOL    HW2 8223   6.442   2.150   0.713
 2442SOL     OW 8224   6.761   1.686   4.506
 2442SOL    HW1 8225   6.676   1.728   4.537
 2442SOL    HW2 8226   6.752   1.586   4.509
 2443SOL     OW 8227   3.125   4.829   6.479
 2443SOL    HW1 8228   3.170   4.741   6.495
 2443SOL    HW2 8229   3.035   4.813   6.438
 2444SOL     OW 8230   3.648   2.686   6.360
 2444SOL    HW1 8231   3.703   2.742   6.423
 2444SOL    HW2 8232   3.627   2.739   6.278
 2445SOL     OW 8233   0.949   0.730   0.739
 2445SOL    HW1 8234   0.980   0.727   0.645
 2445SOL    HW2 8235   0.911   0.821   0.759
 2446SOL     OW 8236   5.155   2.704   6.322
 2446SOL    HW1 8237   5.092   2.723   6.246
 2446SOL    HW2 8238   5.248   2.696   6.286
 2447SOL     OW 8239   0.888   3.614   6.908
 2447SOL    HW1 8240   0.841   3.533   6.941
 2447SOL    HW2 8241   0.843   3.696   6.944
 2448SOL     OW 8242   6.176   0.322   4.966
 2448SOL    HW1 8243   6.140   0.392   4.904
 2448SOL    HW2 8244   6.272   0.341   4.986
 2449SOL     OW 8245   0.053   3.080   5.864
 2449SOL    HW1 8246   0.060   3.078   5.964
 2449SOL    HW2 8247   7.001   3.137   5.836
 2450SOL     OW 8248   2.712   2.861   1.096
 2450SOL    HW1 8249   2.724   2.901   1.187
 2450SOL    HW2 8250   2.616   2.834   1.084
 2451SOL     OW 8251   1.812   6.257   3.696
 2451SOL    HW1 8252   1.872   6.257   3.616
 2451SOL    HW2 8253   1.796   6.351   3.725
 2452SOL     OW 8254   2.886   1.535   4.222
 2452SOL    HW1 8255   2.936   1.588   4.290
 2452SOL    HW2 8256   2.939   1.455   4.195
 2453SOL     OW 8257   0.572   3.994   1.028
 2453SOL    HW1 8258   0.543   3.981   0.933
 2453SOL    HW2 8259   0.510   3.945   1.089
 2454SOL     OW 8260   0.264   6.933   2.147
 2454SOL    HW1 8261   0.276   6.856   2.208
 2454SOL    HW2 8262   0.323   6.922   2.067
 2455SOL     OW 8263   5.467   3.707   1.376
 2455SOL    HW1 8264   5.403   3.689   1.450
 2455SOL    HW2 8265   5.510   3.796   1.390
 2456SOL     OW 8266   2.867   6.336   1.205
 2456SOL    HW1 8267   2.836   6.420   1.159
 2456SOL    HW2 8268   2.791   6.296   1.255
 2457SOL     OW 8269   5.055   6.129   0.488
 2457SOL    HW1 8270   5.095   6.216   0.456
 2457SOL    HW2 8271   5.126   6.073   0.529
 2458SOL     OW 8272   0.385   6.625   1.907
 2458SOL    HW1 8273   0.463   6.688   1.908
 2458SOL    HW2 8274   0.346   6.622   1.815
 2459SOL     OW 8275   1.281   2.188   0.402
 2459SOL    HW1 8276   1.357   2.135   0.439
 2459SOL    HW2 8277   1.311   2.236   0.319
 2460SOL     OW 8278   1.926   4.392   0.756
 2460SOL    HW1 8279   1.923   4.294   0.775
 2460SOL    HW2 8280   1.959   4.407   0.663
 2461SOL     OW 8281   4.451   1.085   3.182
 2461SOL    HW1 8282   4.375   1.112   3.124
 2461SOL    HW2 8283   4.451   0.986   3.193
 2462SOL     OW 8284   2.985   5.105   6.649
 2462SOL    HW1 8285   3.027   5.014   6.661
 2462SOL    HW2 8286   2.941   5.132   6.734
 2463SOL     OW 8287   2.002   3.366   5.403
 2463SOL    HW1 8288   2.010   3.339   5.307
 2463SOL    HW2 8289   2.050   3.300   5.461
 2464SOL     OW 8290   0.907   3.401   0.831
 2464SOL    HW1 8291   0.989   3.424   0.779
 2464SOL    HW2 8292   0.870   3.484   0.873
 2465SOL     OW 8293   6.361   4.354   2.997
 2465SOL    HW1 8294   6.265   4.332   2.976
 2465SOL    HW2 8295   6.384   4.314   3.086
 2466SOL     OW 8296   3.979   1.810   1.787
 2466SOL    HW1 8297   4.063   1.849   1.827
 2466SOL    HW2 8298   4.002   1.731   1.731
 2467SOL     OW 8299   1.356   1.467   4.254
 2467SOL    HW1 8300   1.397   1.437   4.168
 2467SOL    HW2 8301   1.314   1.390   4.301
 2468SOL     OW 8302   6.699   4.911   6.782
 2468SOL    HW1 8303   6.789   4.954   6.790
 2468SOL    HW2 8304   6.699   4.824   6.831
 2469SOL     OW 8305   2.545   1.914   6.407
 2469SOL    HW1 8306   2.585   1.923   6.316
 2469SOL    HW2 8307   2.593   1.975   6.471
 2470SOL     OW 8308   5.137   2.959   0.728
 2470SOL    HW1 8309   5.066   2.899   0.689
 2470SOL    HW2 8310   5.209   2.902   0.769
 2471SOL     OW 8311   0.649   1.427   3.281
 2471SOL    HW1 8312   0.685   1.334   3.278
 2471SOL    HW2 8313   0.720   1.491   3.253
 2472SOL     OW 8314   6.582   0.660   4.606
 2472SOL    HW1 8315   6.673   0.682   4.572
 2472SOL    HW2 8316   6.586   0.636   4.703
 2473SOL     OW 8317   0.498   5.434   4.474
 2473SOL    HW1 8318   0.438   5.362   4.441
 2473SOL    HW2 8319   0.469   5.464   4.565
 2474SOL     OW 8320   5.684   6.812   4.031
 2474SOL    HW1 8321   5.662   6.910   4.025
 2474SOL    HW2 8322   5.774   6.801   4.073
 2475SOL     OW 8323   3.872   2.870   6.471
 2475SOL    HW1 8324   3.908   2.872   6.565
 2475SOL    HW2 8325   3.876   2.962   6.432
 2476SOL     OW 8326   0.572   1.842   3.876
 2476SOL    HW1 8327   0.528   1.871   3.791
 2476SOL    HW2 8328   0.600   1.747   3.869
 2477SOL     OW 8329   4.641   4.461   1.837
 2477SOL    HW1 8330   4.619   4.379   1.891
 2477SOL    HW2 8331   4.638   4.438   1.740
 2478SOL     OW 8332   6.856   0.685   1.896
 2478SOL    HW1 8333   6.764   0.724   1.901
 2478SOL    HW2 8334   6.904   0.706   1.981
 2479SOL     OW 8335   1.265   3.407   0.417
 2479SOL    HW1 8336   1.331   3.337   0.390
 2479SOL    HW2 8337   1.176   3.386   0.375
 2480SOL     OW 8338   6.366   4.731   0.442
 2480SOL    HW1 8339   6.453   4.719   0.489
 2480SOL    HW2 8340   6.358   4.664   0.368
 2481SOL     OW 8341   4.041   4.745   2.491
 2481SOL    HW1 8342   3.991   4.831   2.509
 2481SOL    HW2 8343   4.048   4.731   2.393
 2482SOL     OW 8344   3.787   2.143   4.578
 2482SOL    HW1 8345   3.775   2.160   4.676
 2482SOL    HW2 8346   3.877   2.176   4.550
 2483SOL     OW 8347   0.688   2.958   6.780
 2483SOL    HW1 8348   0.759   2.977   6.847
 2483SOL    HW2 8349   0.683   3.033   6.713
 2484SOL     OW 8350   3.375   4.400   5.506
 2484SOL    HW1 8351   3.355   4.327   5.441
 2484SOL    HW2 8352   3.334   4.486   5.474
 2485SOL     OW 8353   0.945   4.745   0.511
 2485SOL    HW1 8354   0.960   4.843   0.496
 2485SOL    HW2 8355   0.906   4.731   0.602
 2486SOL     OW 8356   0.394   5.235   3.839
 2486SOL    HW1 8357   0.428   5.182   3.760
 2486SOL    HW2 8358   0.371   5.327   3.809
 2487SOL     OW 8359   2.312   1.502   1.194
 2487SOL    HW1 8360   2.363   1.562   1.255
 2487SOL    HW2 8361   2.216   1.529   1.192
 2488SOL     OW 8362   2.614   5.699   6.564
 2488SOL    HW1 8363   2.517   5.715   6.544
 2488SOL    HW2 8364   2.625   5.688   6.663
 2489SOL     OW 8365   6.457   5.477   4.839
 2489SOL    HW1 8366   6.381   5.530   4.800
 2489SOL    HW2 8367   6.427   5.435   4.925
 2490SOL     OW 8368   5.959   2.906   1.440
 2490SOL    HW1 8369   5.941   2.887   1.536
 2490SOL    HW2 8370   5.911   2.839   1.384
 2491SOL     OW 8371   0.024   3.918   2.131
 2491SOL    HW1 8372   0.069   4.004   2.107
 2491SOL    HW2 8373   7.005   3.928   2.220
 2492SOL     OW 8374   3.929   1.730   0.431
 2492SOL    HW1 8375   3.972   1.729   0.341
 2492SOL    HW2 8376   3.997   1.704   0.500
 2493SOL     OW 8377   6.100   0.971   5.662
 2493SOL    HW1 8378   6.012   0.965   5.709
 2493SOL    HW2 8379   6.092   1.030   5.583
 2494SOL     OW 8380   5.948   5.555   0.807
 2494SOL    HW1 8381   5.981   5.604   0.726
 2494SOL    HW2 8382   5.850   5.538   0.798
 2495SOL     OW 8383   6.905   1.266   2.905
 2495SOL    HW1 8384   6.995   1.224   2.903
 2495SOL    HW2 8385   6.846   1.223   2.836
 2496SOL     OW 8386   1.577   4.573   0.632
 2496SOL    HW1 8387   1.664   4.589   0.679
 2496SOL    HW2 8388   1.590   4.502   0.562
 2497SOL     OW 8389   6.156   1.429   6.205
 2497SOL    HW1 8390   6.066   1.388   6.193
 2497SOL    HW2 8391   6.170   1.451   6.301
 2498SOL     OW 8392   1.434   3.530   4.536
 2498SOL    HW1 8393   1.402   3.597   4.469
 2498SOL    HW2 8394   1.495   3.574   4.602
 2499SOL     OW 8395   4.975   0.102   6.985
 2499SOL    HW1 8396   4.953   0.050   6.903
 2499SOL    HW2 8397   5.057   0.157   6.968
 2500SOL     OW 8398   5.009   2.866   6.155
 2500SOL    HW1 8399   4.941   2.908   6.215
 2500SOL    HW2 8400   5.079   2.933   6.131
 2501SOL     OW 8401   5.821   5.150   0.605
 2501SOL    HW1 8402   5.793   5.193   0.519
 2501SOL    HW2 8403   5.911   5.109   0.594
 2502SOL     OW 8404   1.003   6.710   2.862
 2502SOL    HW1 8405   1.079   6.675   2.918
 2502SOL    HW2 8406   1.021   6.689   2.766
 2503SOL     OW 8407   5.541   5.786   3.475
 2503SOL    HW1 8408   5.637   5.814   3.464
 2503SOL    HW2 8409   5.530   5.739   3.562
 2504SOL     OW 8410   3.176   4.912   2.704
 2504SOL    HW1 8411   3.200   4.888   2.610
 2504SOL    HW2 8412   3.207   5.006   2.724
 2505SOL     OW 8413   4.912   3.750   4.548
 2505SOL    HW1 8414   4.893   3.766   4.645
 2505SOL    HW2 8415   4.925   3.653   4.532
 2506SOL     OW 8416   1.479   1.351   0.109
 2506SOL    HW1 8417   1.534   1.395   0.039
 2506SOL    HW2 8418   1.523   1.266   0.138
 2507SOL     OW 8419   6.608   5.344   1.145
 2507SOL    HW1 8420   6.615   5.443   1.157
 2507SOL    HW2 8421   6.659   5.298   1.217
 2508SOL     OW 8422   1.399   1.448   1.558
 2508SOL    HW1 8423   1.305   1.414   1.562
 2508SOL    HW2 8424   1.398   1.546   1.541
 2509SOL     OW 8425   6.204   6.973   3.640
 2509SOL    HW1 8426   6.241   6.908   3.707
 2509SOL    HW2 8427   6.261   0.029   3.638
 2510SOL     OW 8428   3.604   6.134   2.921
 2510SOL    HW1 8429   3.508   6.161   2.928
 2510SOL    HW2 8430   3.648   6.185   2.847
 2511SOL     OW 8431   0.772   5.198   4.471
 2511SOL    HW1 8432   0.702   5.128   4.458
 2511SOL    HW2 8433   0.772   5.260   4.393
 2512SOL     OW 8434   5.993   3.230   4.722
 2512SOL    HW1 8435   6.075   3.238   4.778
 2512SOL    HW2 8436   5.912   3.242   4.779
 2513SOL     OW 8437   0.813   4.448   1.562
 2513SOL    HW1 8438   0.886   4.463   1.629
 2513SOL    HW2 8439   0.850   4.463   1.470
 2514SOL     OW 8440   0.088   2.278   4.760
 2514SOL    HW1 8441   7.017   2.253   4.754
 2514SOL    HW2 8442   0.116   2.321   4.674
 2515SOL     OW 8443   7.010   4.947   6.317
 2515SOL    HW1 8444   7.007   5.020   6.249
 2515SOL    HW2 8445   0.048   4.876   6.288
 2516SOL     OW 8446   5.213   6.498   4.672
 2516SOL    HW1 8447   5.122   6.534   4.653
 2516SOL    HW2 8448   5.267   6.566   4.721
 2517SOL     OW 8449   2.774   5.925   6.556
 2517SOL    HW1 8450   2.723   5.839   6.564
 2517SOL    HW2 8451   2.867   5.905   6.527
 2518SOL     OW 8452   1.957   2.272   0.727
 2518SOL    HW1 8453   1.928   2.356   0.682
 2518SOL    HW2 8454   2.047   2.246   0.693
 2519SOL     OW 8455   5.784   4.085   4.100
 2519SOL    HW1 8456   5.700   4.083   4.154
 2519SOL    HW2 8457   5.804   4.178   4.072
 2520SOL     OW 8458   4.491   5.585   0.870
 2520SOL    HW1 8459   4.431   5.662   0.851
 2520SOL    HW2 8460   4.443   5.499   0.853
 2521SOL     OW 8461   5.595   6.215   5.824
 2521SOL    HW1 8462   5.679   6.265   5.842
 2521SOL    HW2 8463   5.522   6.279   5.800
 2522SOL     OW 8464   3.758   5.350   4.614
 2522SOL    HW1 8465   3.690   5.314   4.677
 2522SOL    HW2 8466   3.714   5.376   4.528
 2523SOL     OW 8467   1.052   2.135   6.906
 2523SOL    HW1 8468   1.092   2.128   6.815
 2523SOL    HW2 8469   0.952   2.139   6.898
 2524SOL     OW 8470   1.876   0.100   4.570
 2524SOL    HW1 8471   1.853   0.175   4.633
 2524SOL    HW2 8472   1.898   0.138   4.480
 2525SOL     OW 8473   2.955   4.914   2.323
 2525SOL    HW1 8474   3.026   4.893   2.257
 2525SOL    HW2 8475   2.966   5.008   2.355
 2526SOL     OW 8476   2.046   3.174   5.176
 2526SOL    HW1 8477   2.109   3.138   5.245
 2526SOL    HW2 8478   2.078   3.146   5.085
 2527SOL     OW 8479   6.679   6.983   4.025
 2527SOL    HW1 8480   6.628   6.955   3.943
 2527SOL    HW2 8481   6.695   6.904   4.083
 2528SOL     OW 8482   5.653   4.631   2.584
 2528SOL    HW1 8483   5.637   4.677   2.497
 2528SOL    HW2 8484   5.652   4.532   2.571
 2529SOL     OW 8485   5.210   5.708   4.971
 2529SOL    HW1 8486   5.224   5.773   4.897
 2529SOL    HW2 8487   5.279   5.722   5.042
 2530SOL     OW 8488   1.173   6.765   3.530
 2530SOL    HW1 8489   1.206   6.754   3.624
 2530SOL    HW2 8490   1.083   6.723   3.522
 2531SOL     OW 8491   5.056   2.543   6.025
 2531SOL    HW1 8492   4.978   2.593   5.986
 2531SOL    HW2 8493   5.041   2.445   6.012
 2532SOL     OW 8494   6.351   5.161   6.883
 2532SOL    HW1 8495   6.294   5.239   6.906
 2532SOL    HW2 8496   6.386   5.171   6.790
 2533SOL     OW 8497   4.777   0.508   3.650
 2533SOL    HW1 8498   4.791   0.531   3.746
 2533SOL    HW2 8499   4.681   0.483   3.636
 2534SOL     OW 8500   6.808   0.542   2.431
 2534SOL    HW1 8501   6.751   0.519   2.352
 2534SOL    HW2 8502   6.852   0.459   2.466
 2535SOL     OW 8503   2.791   1.310   1.297
 2535SOL    HW1 8504   2.844   1.351   1.371
 2535SOL    HW2 8505   2.744   1.228   1.331
 2536SOL     OW 8506   0.518   0.004   2.994
 2536SOL    HW1 8507   0.604   0.049   3.017
 2536SOL    HW2 8508   0.528   6.982   2.906
 2537SOL     OW 8509   2.369   6.477   1.780
 2537SOL    HW1 8510   2.318   6.539   1.840
 2537SOL    HW2 8511   2.304   6.414   1.736
 2538SOL     OW 8512   0.311   5.334   5.057
 2538SOL    HW1 8513   0.292   5.237   5.042
 2538SOL    HW2 8514   0.256   5.367   5.134
 2539SOL     OW 8515   0.554   0.108   5.305
 2539SOL    HW1 8516   0.594   0.017   5.295
 2539SOL    HW2 8517   0.493   0.127   5.228
 2540SOL     OW 8518   5.696   2.910   2.079
 2540SOL    HW1 8519   5.642   2.919   1.995
 2540SOL    HW2 8520   5.657   2.838   2.136
 2541SOL     OW 8521   2.010   0.611   6.985
 2541SOL    HW1 8522   1.942   0.682   7.003
 2541SOL    HW2 8523   2.077   0.609   0.034
 2542SOL     OW 8524   4.234   2.011   2.941
 2542SOL    HW1 8525   4.241   2.111   2.948
 2542SOL    HW2 8526   4.239   1.971   3.033
 2543SOL     OW 8527   5.851   6.621   5.409
 2543SOL    HW1 8528   5.756   6.624   5.375
 2543SOL    HW2 8529   5.851   6.624   5.509
 2544SOL     OW 8530   0.270   0.823   0.505
 2544SOL    HW1 8531   0.205   0.891   0.471
 2544SOL    HW2 8532   0.289   0.757   0.432
 2545SOL     OW 8533   0.826   1.366   0.395
 2545SOL    HW1 8534   0.914   1.400   0.428
 2545SOL    HW2 8535   0.785   1.433   0.333
 2546SOL     OW 8536   6.074   2.988   3.616
 2546SOL    HW1 8537   6.139   3.032   3.678
 2546SOL    HW2 8538   5.988   2.970   3.665
 2547SOL     OW 8539   6.383   3.284   0.691
 2547SOL    HW1 8540   6.432   3.197   0.699
 2547SOL    HW2 8541   6.286   3.267   0.673
 2548SOL     OW 8542   5.927   0.558   5.514
 2548SOL    HW1 8543   5.914   0.652   5.483
 2548SOL    HW2 8544   5.838   0.512   5.520
 2549SOL     OW 8545   2.792   4.060   6.643
 2549SOL    HW1 8546   2.801   3.962   6.661
 2549SOL    HW2 8547   2.852   4.110   6.706
 2550SOL     OW 8548   3.813   0.945   1.505
 2550SOL    HW1 8549   3.794   0.913   1.412
 2550SOL    HW2 8550   3.756   0.895   1.570
 2551SOL     OW 8551   2.609   4.642   0.506
 2551SOL    HW1 8552   2.681   4.628   0.439
 2551SOL    HW2 8553   2.637   4.602   0.594
 2552SOL     OW 8554   3.315   5.286   0.905
 2552SOL    HW1 8555   3.271   5.197   0.917
 2552SOL    HW2 8556   3.402   5.274   0.856
 2553SOL     OW 8557   4.192   2.055   1.572
 2553SOL    HW1 8558   4.134   1.983   1.610
 2553SOL    HW2 8559   4.252   2.016   1.502
 2554SOL     OW 8560   1.088   5.519   0.926
 2554SOL    HW1 8561   1.179   5.530   0.966
 2554SOL    HW2 8562   1.022   5.572   0.980
 2555SOL     OW 8563   0.228   5.826   4.643
 2555SOL    HW1 8564   0.150   5.884   4.668
 2555SOL    HW2 8565   0.196   5.732   4.631
 2556SOL     OW 8566   5.492   0.430   6.883
 2556SOL    HW1 8567   5.568   0.488   6.856
 2556SOL    HW2 8568   5.430   0.482   6.943
 2557SOL     OW 8569   2.661   1.363   0.614
 2557SOL    HW1 8570   2.625   1.292   0.675
 2557SOL    HW2 8571   2.714   1.429   0.668
 2558SOL     OW 8572   5.751   2.833   1.713
 2558SOL    HW1 8573   5.818   2.769   1.752
 2558SOL    HW2 8574   5.766   2.924   1.752
 2559SOL     OW 8575   0.007   6.128   3.190
 2559SOL    HW1 8576   7.013   6.063   3.264
 2559SOL    HW2 8577   0.101   6.116   3.159
 2560SOL     OW 8578   4.022   3.011   1.722
 2560SOL    HW1 8579   3.947   3.014   1.788
 2560SOL    HW2 8580   4.096   3.070   1.754
 2561SOL     OW 8581   3.585   0.870   4.659
 2561SOL    HW1 8582   3.620   0.777   4.650
 2561SOL    HW2 8583   3.545   0.882   4.750
 2562SOL     OW 8584   0.916   6.590   4.655
 2562SOL    HW1 8585   1.003   6.540   4.663
 2562SOL    HW2 8586   0.932   6.687   4.675
 2563SOL     OW 8587   4.564   1.875   0.070
 2563SOL    HW1 8588   4.662   1.894   0.082
 2563SOL    HW2 8589   4.553   1.787   0.024
 2564SOL     OW 8590   1.937   0.870   1.449
 2564SOL    HW1 8591   1.851   0.846   1.495
 2564SOL    HW2 8592   1.929   0.852   1.351
 2565SOL     OW 8593   5.991   0.472   0.447
 2565SOL    HW1 8594   5.982   0.467   0.546
 2565SOL    HW2 8595   5.906   0.507   0.407
 2566SOL     OW 8596   2.873   1.558   0.709
 2566SOL    HW1 8597   2.837   1.652   0.708
 2566SOL    HW2 8598   2.970   1.560   0.735
 2567SOL     OW 8599   1.909   0.629   6.272
 2567SOL    HW1 8600   1.924   0.656   6.177
 2567SOL    HW2 8601   1.859   0.542   6.274
 2568SOL     OW 8602   3.225   6.462   6.949
 2568SOL    HW1 8603   3.301   6.481   7.011
 2568SOL    HW2 8604   3.145   6.432   7.002
 2569SOL     OW 8605   3.127   6.407   6.343
 2569SOL    HW1 8606   3.193   6.359   6.401
 2569SOL    HW2 8607   3.122   6.503   6.371
 2570SOL     OW 8608   7.004   0.518   3.578
 2570SOL    HW1 8609   0.012   0.604   3.617
 2570SOL    HW2 8610   0.055   0.467   3.539
 2571SOL     OW 8611   3.290   3.402   2.248
 2571SOL    HW1 8612   3.370   3.407   2.307
 2571SOL    HW2 8613   3.301   3.328   2.182
 2572SOL     OW 8614   2.425   6.293   2.452
 2572SOL    HW1 8615   2.337   6.340   2.445
 2572SOL    HW2 8616   2.487   6.328   2.382
 2573SOL     OW 8617   6.243   0.361   2.426
 2573SOL    HW1 8618   6.325   0.401   2.467
 2573SOL    HW2 8619   6.262   0.266   2.401
 2574SOL     OW 8620   0.622   4.768   1.809
 2574SOL    HW1 8621   0.615   4.777   1.908
 2574SOL    HW2 8622   0.713   4.799   1.779
 2575SOL     OW 8623   4.286   3.384   5.326
 2575SOL    HW1 8624   4.249   3.465   5.282
 2575SOL    HW2 8625   4.386   3.390   5.331
 2576SOL     OW 8626   1.534   0.653   3.847
 2576SOL    HW1 8627   1.596   0.724   3.882
 2576SOL    HW2 8628   1.533   0.657   3.747
 2577SOL     OW 8629   1.475   4.527   0.261
 2577SOL    HW1 8630   1.437   4.475   0.338
 2577SOL    HW2 8631   1.420   4.609   0.246
 2578SOL     OW 8632   5.423   1.230   5.199
 2578SOL    HW1 8633   5.431   1.154   5.135
 2578SOL    HW2 8634   5.380   1.199   5.283
 2579SOL     OW 8635   0.204   2.368   6.365
 2579SOL    HW1 8636   0.287   2.342   6.315
 2579SOL    HW2 8637   0.230   2.418   6.448
 2580SOL     OW 8638   1.888   2.468   5.590
 2580SOL    HW1 8639   1.905   2.372   5.570
 2580SOL    HW2 8640   1.884   2.520   5.504
 2581SOL     OW 8641   4.860   6.814   4.153
 2581SOL    HW1 8642   4.825   6.815   4.247
 2581SOL    HW2 8643   4.956   6.788   4.154
 2582SOL     OW 8644   0.053   4.500   2.619
 2582SOL    HW1 8645   0.116   4.495   2.542
 2582SOL    HW2 8646   7.023   4.583   2.611
 2583SOL     OW 8647   2.719   0.320   0.008
 2583SOL    HW1 8648   2.725   0.297   0.105
 2583SOL    HW2 8649   2.755   0.413   7.019
 2584SOL     OW 8650   3.724   1.131   4.347
 2584SOL    HW1 8651   3.761   1.183   4.270
 2584SOL    HW2 8652   3.639   1.172   4.378
 2585SOL     OW 8653   3.722   0.745   3.079
 2585SOL    HW1 8654   3.679   0.758   2.990
 2585SOL    HW2 8655   3.653   0.749   3.151
 2586SOL     OW 8656   1.964   1.866   4.581
 2586SOL    HW1 8657   2.002   1.813   4.506
 2586SOL    HW2 8658   1.967   1.963   4.558
 2587SOL     OW 8659   6.777   4.720   3.566
 2587SOL    HW1 8660   6.739   4.699   3.476
 2587SOL    HW2 8661   6.875   4.705   3.566
 2588SOL     OW 8662   2.958   0.113   2.460
 2588SOL    HW1 8663   3.035   0.172   2.482
 2588SOL    HW2 8664   2.958   0.094   2.362
 2589SOL     OW 8665   5.214   6.591   2.007
 2589SOL    HW1 8666   5.269   6.553   2.081
 2589SOL    HW2 8667   5.136   6.531   1.988
 2590SOL     OW 8668   4.239   6.257   3.765
 2590SOL    HW1 8669   4.219   6.186   3.699
 2590SOL    HW2 8670   4.153   6.293   3.803
 2591SOL     OW 8671   5.214   0.494   0.766
 2591SOL    HW1 8672   5.115   0.503   0.752
 2591SOL    HW2 8673   5.251   0.582   0.796
 2592SOL     OW 8674   2.804   5.864   1.997
 2592SOL    HW1 8675   2.778   5.919   2.076
 2592SOL    HW2 8676   2.904   5.856   1.993
 2593SOL     OW 8677   2.811   0.225   4.449
 2593SOL    HW1 8678   2.760   0.287   4.389
 2593SOL    HW2 8679   2.757   0.141   4.463
 2594SOL     OW 8680   1.599   5.937   6.568
 2594SOL    HW1 8681   1.629   5.858   6.621
 2594SOL    HW2 8682   1.499   5.935   6.560
 2595SOL     OW 8683   0.373   3.119   5.423
 2595SOL    HW1 8684   0.287   3.129   5.473
 2595SOL    HW2 8685   0.353   3.094   5.328
 2596SOL     OW 8686   4.110   1.613   0.626
 2596SOL    HW1 8687   4.183   1.682   0.632
 2596SOL    HW2 8688   4.146   1.531   0.581
 2597SOL     OW 8689   2.723   2.214   5.922
 2597SOL    HW1 8690   2.818   2.186   5.939
 2597SOL    HW2 8691   2.722   2.300   5.871
 2598SOL     OW 8692   6.708   1.288   3.446
 2598SOL    HW1 8693   6.741   1.196   3.422
 2598SOL    HW2 8694   6.722   1.349   3.368
 2599SOL     OW 8695   5.194   5.933   5.984
 2599SOL    HW1 8696   5.148   6.010   6.028
 2599SOL    HW2 8697   5.282   5.963   5.947
 2600SOL     OW 8698   0.233   3.250   5.147
 2600SOL    HW1 8699   0.293   3.171   5.131
 2600SOL    HW2 8700   0.278   3.314   5.209
 2601SOL     OW 8701   4.162   4.275   5.345
 2601SOL    HW1 8702   4.174   4.328   5.262
 2601SOL    HW2 8703   4.148   4.179   5.322
 2602SOL     OW 8704   6.255   0.329   0.318
 2602SOL    HW1 8705   6.255   0.409   0.379
 2602SOL    HW2 8706   6.170   0.279   0.329
 2603SOL     OW 8707   1.993   1.778   0.071
 2603SOL    HW1 8708   2.091   1.775   0.051
 2603SOL    HW2 8709   1.958   1.870   0.054
 2604SOL     OW 8710   5.882   1.241   0.542
 2604SOL    HW1 8711   5.817   1.317   0.544
 2604SOL    HW2 8712   5.974   1.276   0.523
 2605SOL     OW 8713   5.667   1.893   5.611
 2605SOL    HW1 8714   5.642   1.860   5.702
 2605SOL    HW2 8715   5.680   1.816   5.549
 2606SOL     OW 8716   6.417   4.533   0.881
 2606SOL    HW1 8717   6.458   4.485   0.958
 2606SOL    HW2 8718   6.439   4.630   0.887
 2607SOL     OW 8719   0.640   0.566   2.997
 2607SOL    HW1 8720   0.582   0.485   3.006
 2607SOL    HW2 8721   0.730   0.540   2.962
 2608SOL     OW 8722   4.386   0.837   0.301
 2608SOL    HW1 8723   4.469   0.838   0.245
 2608SOL    HW2 8724   4.318   0.777   0.259
 2609SOL     OW 8725   0.874   4.265   3.579
 2609SOL    HW1 8726   0.925   4.348   3.603
 2609SOL    HW2 8727   0.938   4.188   3.572
 2610SOL     OW 8728   5.675   4.834   4.782
 2610SOL    HW1 8729   5.657   4.903   4.712
 2610SOL    HW2 8730   5.697   4.747   4.738
 2611SOL     OW 8731   2.936   6.467   1.487
 2611SOL    HW1 8732   2.939   6.392   1.553
 2611SOL    HW2 8733   2.902   6.432   1.400
 2612SOL     OW 8734   0.432   7.005   3.826
 2612SOL    HW1 8735   0.385   0.050   3.880
 2612SOL    HW2 8736   0.475   6.939   3.888
 2613SOL     OW 8737   3.973   1.530   7.002
 2613SOL    HW1 8738   3.944   1.437   6.978
 2613SOL    HW2 8739   4.007   1.577   6.920
 2614SOL     OW 8740   6.279   6.837   6.810
 2614SOL    HW1 8741   6.198   6.785   6.836
 2614SOL    HW2 8742   6.268   6.871   6.716
 2615SOL     OW 8743   0.046   4.440   1.558
 2615SOL    HW1 8744   7.008   4.450   1.634
 2615SOL    HW2 8745   0.040   4.520   1.498
 2616SOL     OW 8746   3.943   3.803   1.554
 2616SOL    HW1 8747   3.853   3.763   1.574
 2616SOL    HW2 8748   3.979   3.763   1.470
 2617SOL     OW 8749   3.065   6.731   0.540
 2617SOL    HW1 8750   3.000   6.712   0.466
 2617SOL    HW2 8751   3.026   6.702   0.627
 2618SOL     OW 8752   1.431   5.648   0.337
 2618SOL    HW1 8753   1.388   5.725   0.290
 2618SOL    HW2 8754   1.363   5.600   0.392
 2619SOL     OW 8755   6.090   0.866   2.843
 2619SOL    HW1 8756   6.030   0.797   2.883
 2619SOL    HW2 8757   6.037   0.926   2.783
 2620SOL     OW 8758   1.817   6.091   3.921
 2620SOL    HW1 8759   1.843   6.154   3.848
 2620SOL    HW2 8760   1.890   6.024   3.935
 2621SOL     OW 8761   1.571   5.942   4.384
 2621SOL    HW1 8762   1.485   5.971   4.427
 2621SOL    HW2 8763   1.565   5.956   4.285
 2622SOL     OW 8764   2.304   2.740   4.150
 2622SOL    HW1 8765   2.323   2.731   4.052
 2622SOL    HW2 8766   2.369   2.684   4.202
 2623SOL     OW 8767   3.065   0.054   5.446
 2623SOL    HW1 8768   3.010   7.013   5.397
 2623SOL    HW2 8769   3.060   0.143   5.400
 2624SOL     OW 8770   4.701   1.735   4.357
 2624SOL    HW1 8771   4.652   1.678   4.422
 2624SOL    HW2 8772   4.637   1.793   4.307
 2625SOL     OW 8773   1.600   0.254   5.515
 2625SOL    HW1 8774   1.564   0.327   5.456
 2625SOL    HW2 8775   1.536   0.237   5.590
 2626SOL     OW 8776   3.093   6.874   3.164
 2626SOL    HW1 8777   3.034   6.925   3.226
 2626SOL    HW2 8778   3.063   6.779   3.158
 2627SOL     OW 8779   1.238   6.919   4.191
 2627SOL    HW1 8780   1.185   6.947   4.111
 2627SOL    HW2 8781   1.259   6.822   4.185
 2628SOL     OW 8782   4.752   4.917   6.859
 2628SOL    HW1 8783   4.680   4.978   6.827
 2628SOL    HW2 8784   4.842   4.955   6.836
 2629SOL     OW 8785   2.980   4.059   1.789
 2629SOL    HW1 8786   2.951   4.022   1.701
 2629SOL    HW2 8787   2.953   4.155   1.796
 2630SOL     OW 8788   3.314   1.475   2.697
 2630SOL    HW1 8789   3.352   1.528   2.621
 2630SOL    HW2 8790   3.262   1.398   2.660
 2631SOL     OW 8791   3.259   6.495   3.615
 2631SOL    HW1 8792   3.248   6.526   3.710
 2631SOL    HW2 8793   3.279   6.397   3.614
 2632SOL     OW 8794   4.725   1.393   0.774
 2632SOL    HW1 8795   4.672   1.385   0.858
 2632SOL    HW2 8796   4.821   1.409   0.797
 2633SOL     OW 8797   0.188   2.255   0.134
 2633SOL    HW1 8798   0.271   2.235   0.186
 2633SOL    HW2 8799   0.199   2.341   0.085
 2634SOL     OW 8800   2.393   5.150   6.991
 2634SOL    HW1 8801   2.310   5.173   6.940
 2634SOL    HW2 8802   2.369   5.116   0.056
 2635SOL     OW 8803   6.222   4.122   3.398
 2635SOL    HW1 8804   6.144   4.183   3.391
 2635SOL    HW2 8805   6.193   4.033   3.432
 2636SOL     OW 8806   5.353   5.034   5.795
 2636SOL    HW1 8807   5.354   4.956   5.732
 2636SOL    HW2 8808   5.344   5.000   5.889
 2637SOL     OW 8809   5.284   5.086   1.783
 2637SOL    HW1 8810   5.260   4.999   1.739
 2637SOL    HW2 8811   5.310   5.153   1.714
 2638SOL     OW 8812   4.662   5.449   0.357
 2638SOL    HW1 8813   4.731   5.386   0.319
 2638SOL    HW2 8814   4.661   5.442   0.456
 2639SOL     OW 8815   6.186   0.684   0.355
 2639SOL    HW1 8816   6.150   0.777   0.350
 2639SOL    HW2 8817   6.124   0.627   0.408
 2640SOL     OW 8818   6.548   6.331   1.221
 2640SOL    HW1 8819   6.523   6.303   1.128
 2640SOL    HW2 8820   6.532   6.429   1.231
 2641SOL     OW 8821   6.578   5.820   1.413
 2641SOL    HW1 8822   6.642   5.893   1.393
 2641SOL    HW2 8823   6.561   5.767   1.329
 2642SOL     OW 8824   6.754   6.844   4.243
 2642SOL    HW1 8825   6.707   6.889   4.318
 2642SOL    HW2 8826   6.758   6.745   4.261
 2643SOL     OW 8827   1.443   0.628   2.025
 2643SOL    HW1 8828   1.518   0.675   2.070
 2643SOL    HW2 8829   1.409   0.683   1.949
 2644SOL     OW 8830   5.992   6.267   4.438
 2644SOL    HW1 8831   5.894   6.285   4.438
 2644SOL    HW2 8832   6.027   6.270   4.532
 2645SOL     OW 8833   5.807   6.240   6.737
 2645SOL    HW1 8834   5.814   6.281   6.646
 2645SOL    HW2 8835   5.767   6.306   6.801
 2646SOL     OW 8836   5.707   5.298   5.688
 2646SOL    HW1 8837   5.756   5.373   5.733
 2646SOL    HW2 8838   5.727   5.300   5.590
 2647SOL     OW 8839   3.182   4.322   0.324
 2647SOL    HW1 8840   3.135   4.247   0.371
 2647SOL    HW2 8841   3.162   4.317   0.226
 2648SOL     OW 8842   4.565   1.162   3.447
 2648SOL    HW1 8843   4.619   1.244   3.433
 2648SOL    HW2 8844   4.536   1.126   3.358
 2649SOL     OW 8845   2.965   4.018   5.045
 2649SOL    HW1 8846   2.868   4.024   5.022
 2649SOL    HW2 8847   2.976   3.956   5.122
 2650SOL     OW 8848   0.084   6.732   2.346
 2650SOL    HW1 8849   0.004   6.754   2.401
 2650SOL    HW2 8850   0.161   6.710   2.406
 2651SOL     OW 8851   1.843   0.425   2.535
 2651SOL    HW1 8852   1.796   0.464   2.456
 2651SOL    HW2 8853   1.928   0.382   2.506
 2652SOL     OW 8854   3.267   2.100   1.810
 2652SOL    HW1 8855   3.182   2.085   1.860
 2652SOL    HW2 8856   3.287   2.198   1.805
 2653SOL     OW 8857   5.392   0.033   0.992
 2653SOL    HW1 8858   5.478   0.024   0.941
 2653SOL    HW2 8859   5.329   0.092   0.941
 2654SOL     OW 8860   0.156   3.445   5.683
 2654SOL    HW1 8861   0.139   3.456   5.781
 2654SOL    HW2 8862   0.210   3.522   5.649
 2655SOL     OW 8863   5.685   4.730   3.651
 2655SOL    HW1 8864   5.652   4.652   3.599
 2655SOL    HW2 8865   5.716   4.802   3.588
 2656SOL     OW 8866   5.913   3.948   5.319
 2656SOL    HW1 8867   5.918   3.942   5.419
 2656SOL    HW2 8868   5.964   3.872   5.279
 2657SOL     OW 8869   3.906   1.901   5.350
 2657SOL    HW1 8870   3.915   1.982   5.293
 2657SOL    HW2 8871   3.816   1.861   5.337
 2658SOL     OW 8872   0.079   4.046   5.989
 2658SOL    HW1 8873   0.045   3.960   5.953
 2658SOL    HW2 8874   0.143   4.028   6.064
 2659SOL     OW 8875   6.117   0.503   3.190
 2659SOL    HW1 8876   6.151   0.446   3.115
 2659SOL    HW2 8877   6.094   0.594   3.155
 2660SOL     OW 8878   1.196   1.518   3.928
 2660SOL    HW1 8879   1.197   1.604   3.878
 2660SOL    HW2 8880   1.157   1.532   4.019
 2661SOL     OW 8881   3.624   6.742   3.248
 2661SOL    HW1 8882   3.658   6.703   3.334
 2661SOL    HW2 8883   3.684   6.817   3.220
 2662SOL     OW 8884   4.427   1.361   4.888
 2662SOL    HW1 8885   4.340   1.382   4.933
 2662SOL    HW2 8886   4.474   1.289   4.939
 2663SOL     OW 8887   1.062   4.443   3.141
 2663SOL    HW1 8888   1.031   4.483   3.227
 2663SOL    HW2 8889   0.990   4.385   3.103
 2664SOL     OW 8890   4.917   4.228   1.889
 2664SOL    HW1 8891   4.869   4.204   1.974
 2664SOL    HW2 8892   4.857   4.214   1.811
 2665SOL     OW 8893   3.831   0.610   5.362
 2665SOL    HW1 8894   3.866   0.612   5.455
 2665SOL    HW2 8895   3.819   0.704   5.328
 2666SOL     OW 8896   4.643   6.057   1.757
 2666SOL    HW1 8897   4.623   6.151   1.785
 2666SOL    HW2 8898   4.681   6.006   1.835
 2667SOL     OW 8899   2.086   5.032   2.924
 2667SOL    HW1 8900   2.102   5.014   3.021
 2667SOL    HW2 8901   2.160   5.088   2.888
 2668SOL     OW 8902   0.518   2.677   5.446
 2668SOL    HW1 8903   0.486   2.722   5.362
 2668SOL    HW2 8904   0.507   2.578   5.437
 2669SOL     OW 8905   4.233   5.326   4.757
 2669SOL    HW1 8906   4.147   5.276   4.766
 2669SOL    HW2 8907   4.267   5.351   4.848
 2670SOL     OW 8908   1.864   6.848   4.532
 2670SOL    HW1 8909   1.860   6.947   4.542
 2670SOL    HW2 8910   1.951   6.822   4.489
 2671SOL     OW 8911   2.624   3.499   6.689
 2671SOL    HW1 8912   2.711   3.504   6.638
 2671SOL    HW2 8913   2.618   3.411   6.735
 2672SOL     OW 8914   1.329   4.175   0.788
 2672SOL    HW1 8915   1.399   4.170   0.717
 2672SOL    HW2 8916   1.338   4.097   0.850
 2673SOL     OW 8917   4.344   2.364   3.250
 2673SOL    HW1 8918   4.280   2.355   3.173
 2673SOL    HW2 8919   4.306   2.319   3.330
 2674SOL     OW 8920   4.703   5.832   5.578
 2674SOL    HW1 8921   4.731   5.914   5.628
 2674SOL    HW2 8922   4.683   5.856   5.483
 2675SOL     OW 8923   0.118   5.367   5.914
 2675SOL    HW1 8924   0.178   5.288   5.926
 2675SOL    HW2 8925   0.172   5.446   5.885
 2676SOL     OW 8926   4.734   6.993   1.653
 2676SOL    HW1 8927   4.812   0.029   1.642
 2676SOL    HW2 8928   4.766   6.905   1.689
 2677SOL     OW 8929   2.377   4.746   2.335
 2677SOL    HW1 8930   2.340   4.703   2.253
 2677SOL    HW2 8931   2.471   4.715   2.349
 2678SOL     OW 8932   1.086   6.100   0.071
 2678SOL    HW1 8933   1.063   6.177   0.012
 2678SOL    HW2 8934   1.107   6.020   0.016
 2679SOL     OW 8935   2.110   5.035   0.974
 2679SOL    HW1 8936   2.071   4.944   0.964
 2679SOL    HW2 8937   2.080   5.075   1.061
 2680SOL     OW 8938   6.610   2.116   1.131
 2680SOL    HW1 8939   6.707   2.138   1.123
 2680SOL    HW2 8940   6.584   2.115   1.227
 2681SOL     OW 8941   1.515   1.897   1.354
 2681SOL    HW1 8942   1.566   1.864   1.274
 2681SOL    HW2 8943   1.544   1.991   1.375
 2682SOL     OW 8944   0.748   2.927   3.561
 2682SOL    HW1 8945   0.808   2.850   3.581
 2682SOL    HW2 8946   0.698   2.909   3.476
 2683SOL     OW 8947   1.807   0.161   1.216
 2683SOL    HW1 8948   1.802   0.234   1.148
 2683SOL    HW2 8949   1.841   0.197   1.303
 2684SOL     OW 8950   3.504   4.923   3.314
 2684SOL    HW1 8951   3.412   4.911   3.351
 2684SOL    HW2 8952   3.535   4.838   3.272
 2685SOL     OW 8953   5.331   4.849   5.608
 2685SOL    HW1 8954   5.367   4.769   5.656
 2685SOL    HW2 8955   5.283   4.820   5.526
 2686SOL     OW 8956   1.323   3.785   4.088
 2686SOL    HW1 8957   1.367   3.705   4.129
 2686SOL    HW2 8958   1.256   3.756   4.021
 2687SOL     OW 8959   4.482   5.154   2.841
 2687SOL    HW1 8960   4.413   5.098   2.886
 2687SOL    HW2 8961   4.571   5.139   2.885
 2688SOL     OW 8962   3.239   4.620   5.414
 2688SOL    HW1 8963   3.154   4.577   5.385
 2688SOL    HW2 8964   3.221   4.690   5.483
 2689SOL     OW 8965   5.986   1.066   4.210
 2689SOL    HW1 8966   6.073   1.046   4.165
 2689SOL    HW2 8967   5.947   1.149   4.170
 2690SOL     OW 8968   3.496   3.962   3.730
 2690SOL    HW1 8969   3.432   4.009   3.669
 2690SOL    HW2 8970   3.471   3.979   3.825
 2691SOL     OW 8971   0.978   5.915   1.489
 2691SOL    HW1 8972   0.898   5.856   1.481
 2691SOL    HW2 8973   0.950   6.011   1.490
 2692SOL     OW 8974   0.295   3.981   4.311
 2692SOL    HW1 8975   0.230   3.912   4.344
 2692SOL    HW2 8976   0.290   3.987   4.212
 2693SOL     OW 8977   2.081   3.379   2.711
 2693SOL    HW1 8978   2.074   3.402   2.613
 2693SOL    HW2 8979   2.100   3.462   2.763
 2694SOL     OW 8980   2.008   1.580   2.945
 2694SOL    HW1 8981   2.011   1.672   2.907
 2694SOL    HW2 8982   1.927   1.532   2.911
 2695SOL     OW 8983   3.985   2.321   1.788
 2695SOL    HW1 8984   3.889   2.318   1.817
 2695SOL    HW2 8985   4.035   2.249   1.836
 2696SOL     OW 8986   3.157   3.404   6.646
 2696SOL    HW1 8987   3.189   3.472   6.711
 2696SOL    HW2 8988   3.223   3.329   6.640
 2697SOL     OW 8989   2.282   1.018   5.340
 2697SOL    HW1 8990   2.319   0.928   5.317
 2697SOL    HW2 8991   2.190   1.007   5.379
 2698SOL     OW 8992   1.906   2.033   0.036
 2698SOL    HW1 8993   1.882   2.104   6.995
 2698SOL    HW2 8994   1.931   2.076   0.122
 2699SOL     OW 8995   1.637   4.144   3.699
 2699SOL    HW1 8996   1.654   4.077   3.770
 2699SOL    HW2 8997   1.586   4.222   3.737
 2700SOL     OW 8998   2.057   4.562   3.125
 2700SOL    HW1 8999   2.042   4.650   3.171
 2700SOL    HW2 9000   2.044   4.488   3.190
 2701SOL     OW 9001   1.212   0.643   4.888
 2701SOL    HW1 9002   1.158   0.599   4.959
 2701SOL    HW2 9003   1.255   0.574   4.830
 2702SOL     OW 9004   5.649   5.783   2.295
 2702SOL    HW1 9005   5.660   5.872   2.339
 2702SOL    HW2 9006   5.645   5.711   2.364
 2703SOL     OW 9007   2.057   2.745   2.593
 2703SOL    HW1 9008   2.078   2.835   2.555
 2703SOL    HW2 9009   2.123   2.678   2.559
 2704SOL     OW 9010   0.527   6.256   0.597
 2704SOL    HW1 9011   0.453   6.243   0.531
 2704SOL    HW2 9012   0.559   6.167   0.629
 2705SOL     OW 9013   0.016   2.790   3.216
 2705SOL    HW1 9014   0.097   2.762   3.268
 2705SOL    HW2 9015   0.040   2.865   3.156
 2706SOL     OW 9016   6.916   2.090   3.486
 2706SOL    HW1 9017   6.910   2.188   3.467
 2706SOL    HW2 9018   6.992   2.051   3.434
 2707SOL     OW 9019   3.543   0.738   0.597
 2707SOL    HW1 9020   3.599   0.789   0.532
 2707SOL    HW2 9021   3.447   0.745   0.572
 2708SOL     OW 9022   1.279   4.866   6.687
 2708SOL    HW1 9023   1.180   4.875   6.674
 2708SOL    HW2 9024   1.305   4.906   6.775
 2709SOL     OW 9025   3.611   0.422   1.919
 2709SOL    HW1 9026   3.708   0.442   1.911
 2709SOL    HW2 9027   3.572   0.474   1.995
 2710SOL     OW 9028   5.846   3.752   3.143
 2710SOL    HW1 9029   5.937   3.716   3.125
 2710SOL    HW2 9030   5.844   3.850   3.124
 2711SOL     OW 9031   6.922   6.571   2.029
 2711SOL    HW1 9032   7.021   6.572   2.037
 2711SOL    HW2 9033   6.896   6.575   1.932
 2712SOL     OW 9034   3.814   5.693   2.864
 2712SOL    HW1 9035   3.899   5.664   2.908
 2712SOL    HW2 9036   3.813   5.661   2.769
 2713SOL     OW 9037   2.802   2.755   5.631
 2713SOL    HW1 9038   2.738   2.694   5.584
 2713SOL    HW2 9039   2.756   2.841   5.654
 2714SOL     OW 9040   5.741   0.358   6.543
 2714SOL    HW1 9041   5.769   0.450   6.572
 2714SOL    HW2 9042   5.703   0.308   6.621
 2715SOL     OW 9043   5.761   6.997   6.444
 2715SOL    HW1 9044   5.763   0.065   6.407
 2715SOL    HW2 9045   5.773   6.932   6.370
 2716SOL     OW 9046   6.057   6.567   2.217
 2716SOL    HW1 9047   6.069   6.541   2.121
 2716SOL    HW2 9048   6.085   6.491   2.275
 2717SOL     OW 9049   0.135   6.888   3.144
 2717SOL    HW1 9050   0.152   6.839   3.059
 2717SOL    HW2 9051   0.078   6.968   3.126
 2718SOL     OW 9052   6.799   3.923   3.085
 2718SOL    HW1 9053   6.730   3.990   3.111
 2718SOL    HW2 9054   6.755   3.836   3.064
 2719SOL     OW 9055   4.668   4.304   3.363
 2719SOL    HW1 9056   4.682   4.348   3.274
 2719SOL    HW2 9057   4.659   4.374   3.434
 2720SOL     OW 9058   0.185   0.104   3.985
 2720SOL    HW1 9059   0.200   0.013   4.022
 2720SOL    HW2 9060   0.088   0.118   3.968
 2721SOL     OW 9061   4.784   5.858   2.671
 2721SOL    HW1 9062   4.767   5.846   2.573
 2721SOL    HW2 9063   4.801   5.769   2.714
 2722SOL     OW 9064   0.561   5.774   2.713
 2722SOL    HW1 9065   0.475   5.722   2.711
 2722SOL    HW2 9066   0.573   5.822   2.626
 2723SOL     OW 9067   2.690   1.820   4.752
 2723SOL    HW1 9068   2.778   1.790   4.715
 2723SOL    HW2 9069   2.703   1.901   4.809
 2724SOL     OW 9070   4.689   5.918   5.872
 2724SOL    HW1 9071   4.693   5.871   5.960
 2724SOL    HW2 9072   4.718   5.855   5.799
 2725SOL     OW 9073   1.636   5.691   2.394
 2725SOL    HW1 9074   1.550   5.647   2.421
 2725SOL    HW2 9075   1.679   5.733   2.474
 2726SOL     OW 9076   4.337   6.075   2.611
 2726SOL    HW1 9077   4.275   6.008   2.569
 2726SOL    HW2 9078   4.406   6.027   2.665
 2727SOL     OW 9079   2.457   5.191   4.022
 2727SOL    HW1 9080   2.445   5.219   3.926
 2727SOL    HW2 9081   2.544   5.143   4.032
 2728SOL     OW 9082   2.102   6.477   5.082
 2728SOL    HW1 9083   2.183   6.490   5.026
 2728SOL    HW2 9084   2.066   6.384   5.068
 2729SOL     OW 9085   6.788   3.817   2.437
 2729SOL    HW1 9086   6.765   3.739   2.379
 2729SOL    HW2 9087   6.881   3.805   2.472
 2730SOL     OW 9088   1.633   3.090   1.538
 2730SOL    HW1 9089   1.557   3.097   1.603
 2730SOL    HW2 9090   1.700   3.024   1.571
 2731SOL     OW 9091   1.634   3.504   6.079
 2731SOL    HW1 9092   1.630   3.413   6.038
 2731SOL    HW2 9093   1.719   3.513   6.132
 2732SOL     OW 9094   5.676   2.951   4.429
 2732SOL    HW1 9095   5.590   2.924   4.386
 2732SOL    HW2 9096   5.667   3.044   4.465
 2733SOL     OW 9097   2.162   0.517   6.613
 2733SOL    HW1 9098   2.185   0.580   6.539
 2733SOL    HW2 9099   2.083   0.553   6.663
 2734SOL     OW 9100   2.242   0.106   4.059
 2734SOL    HW1 9101   2.186   0.189   4.055
 2734SOL    HW2 9102   2.232   0.055   3.974
 2735SOL     OW 9103   1.377   5.907   1.120
 2735SOL    HW1 9104   1.392   5.935   1.025
 2735SOL    HW2 9105   1.463   5.911   1.171
 2736SOL     OW 9106   4.347   0.719   6.744
 2736SOL    HW1 9107   4.435   0.766   6.737
 2736SOL    HW2 9108   4.352   0.649   6.815
 2737SOL     OW 9109   4.334   3.925   5.373
 2737SOL    HW1 9110   4.275   3.851   5.404
 2737SOL    HW2 9111   4.430   3.899   5.386
 2738SOL     OW 9112   0.348   3.647   5.658
 2738SOL    HW1 9113   0.413   3.585   5.702
 2738SOL    HW2 9114   0.369   3.741   5.686
 2739SOL     OW 9115   3.830   4.009   6.791
 2739SOL    HW1 9116   3.919   4.019   6.836
 2739SOL    HW2 9117   3.800   4.098   6.757
 2740SOL     OW 9118   6.520   2.803   4.840
 2740SOL    HW1 9119   6.608   2.843   4.862
 2740SOL    HW2 9120   6.471   2.861   4.776
 2741SOL     OW 9121   2.375   3.090   6.232
 2741SOL    HW1 9122   2.455   3.146   6.210
 2741SOL    HW2 9123   2.402   2.994   6.242
 2742SOL     OW 9124   2.545   5.913   4.971
 2742SOL    HW1 9125   2.518   5.880   5.061
 2742SOL    HW2 9126   2.638   5.883   4.951
 2743SOL     OW 9127   5.407   3.737   6.678
 2743SOL    HW1 9128   5.367   3.733   6.587
 2743SOL    HW2 9129   5.507   3.733   6.671
 2744SOL     OW 9130   4.892   6.584   1.388
 2744SOL    HW1 9131   4.958   6.541   1.327
 2744SOL    HW2 9132   4.902   6.684   1.383
 2745SOL     OW 9133   3.359   5.424   3.256
 2745SOL    HW1 9134   3.394   5.372   3.334
 2745SOL    HW2 9135   3.385   5.378   3.171
 2746SOL     OW 9136   1.254   2.290   6.971
 2746SOL    HW1 9137   1.265   2.367   6.908
 2746SOL    HW2 9138   1.165   2.247   6.957
 2747SOL     OW 9139   4.632   6.172   3.359
 2747SOL    HW1 9140   4.606   6.223   3.441
 2747SOL    HW2 9141   4.558   6.176   3.292
 2748SOL     OW 9142   5.572   0.796   4.913
 2748SOL    HW1 9143   5.480   0.761   4.928
 2748SOL    HW2 9144   5.568   0.874   4.850
 2749SOL     OW 9145   6.525   5.412   2.756
 2749SOL    HW1 9146   6.576   5.470   2.819
 2749SOL    HW2 9147   6.511   5.460   2.669
 2750SOL     OW 9148   0.851   0.300   0.544
 2750SOL    HW1 9149   0.787   0.370   0.512
 2750SOL    HW2 9150   0.866   0.310   0.642
 2751SOL     OW 9151   0.981   0.031   0.169
 2751SOL    HW1 9152   1.077   0.006   0.157
 2751SOL    HW2 9153   0.973   0.130   0.173
 2752SOL     OW 9154   0.436   6.585   6.249
 2752SOL    HW1 9155   0.378   6.504   6.256
 2752SOL    HW2 9156   0.394   6.651   6.186
 2753SOL     OW 9157   3.523   5.844   4.360
 2753SOL    HW1 9158   3.467   5.774   4.403
 2753SOL    HW2 9159   3.525   5.830   4.261
 2754SOL     OW 9160   1.065   5.021   3.891
 2754SOL    HW1 9161   1.107   4.930   3.895
 2754SOL    HW2 9162   1.004   5.033   3.969
 2755SOL     OW 9163   4.286   0.025   2.528
 2755SOL    HW1 9164   4.274   0.104   2.468
 2755SOL    HW2 9165   4.319   6.973   2.475
 2756SOL     OW 9166   0.352   2.964   4.843
 2756SOL    HW1 9167   0.255   2.967   4.869
 2756SOL    HW2 9168   0.360   2.927   4.751
 2757SOL     OW 9169   5.224   3.975   5.642
 2757SOL    HW1 9170   5.158   3.921   5.591
 2757SOL    HW2 9171   5.281   4.026   5.579
 2758SOL     OW 9172   6.995   6.751   1.098
 2758SOL    HW1 9173   6.975   6.779   1.192
 2758SOL    HW2 9174   6.958   6.659   1.082
 2759SOL     OW 9175   3.973   3.855   4.024
 2759SOL    HW1 9176   3.939   3.835   4.116
 2759SOL    HW2 9177   4.044   3.789   4.000
 2760SOL     OW 9178   5.210   5.737   3.115
 2760SOL    HW1 9179   5.260   5.734   3.202
 2760SOL    HW2 9180   5.123   5.690   3.126
 2761SOL     OW 9181   2.114   3.423   4.310
 2761SOL    HW1 9182   2.161   3.394   4.227
 2761SOL    HW2 9183   2.095   3.521   4.305
 2762SOL     OW 9184   4.459   1.940   2.788
 2762SOL    HW1 9185   4.412   1.891   2.714
 2762SOL    HW2 9186   4.392   1.971   2.855
 2763SOL     OW 9187   5.242   0.585   3.103
 2763SOL    HW1 9188   5.248   0.657   3.171
 2763SOL    HW2 9189   5.288   0.503   3.137
 2764SOL     OW 9190   0.141   1.792   2.931
 2764SOL    HW1 9191   0.051   1.773   2.892
 2764SOL    HW2 9192   0.153   1.891   2.940
 2765SOL     OW 9193   6.755   6.845   6.358
 2765SOL    HW1 9194   6.761   6.921   6.294
 2765SOL    HW2 9195   6.782   6.760   6.313
 2766SOL     OW 9196   5.211   0.258   0.006
 2766SOL    HW1 9197   5.197   0.211   0.094
 2766SOL    HW2 9198   5.209   0.357   0.020
 2767SOL     OW 9199   6.851   6.497   6.644
 2767SOL    HW1 9200   6.761   6.501   6.601
 2767SOL    HW2 9201   6.874   6.402   6.664
 2768SOL     OW 9202   4.049   0.439   1.616
 2768SOL    HW1 9203   4.116   0.495   1.568
 2768SOL    HW2 9204   4.001   0.380   1.551
 2769SOL     OW 9205   0.887   5.485   6.131
 2769SOL    HW1 9206   0.937   5.425   6.068
 2769SOL    HW2 9207   0.923   5.473   6.223
 2770SOL     OW 9208   1.958   6.816   0.173
 2770SOL    HW1 9209   1.993   6.815   0.079
 2770SOL    HW2 9210   2.033   6.796   0.236
 2771SOL     OW 9211   4.229   6.383   5.610
 2771SOL    HW1 9212   4.269   6.293   5.592
 2771SOL    HW2 9213   4.130   6.374   5.621
 2772SOL     OW 9214   6.213   1.692   3.030
 2772SOL    HW1 9215   6.184   1.637   2.952
 2772SOL    HW2 9216   6.266   1.636   3.093
 2773SOL     OW 9217   4.432   0.552   6.086
 2773SOL    HW1 9218   4.364   0.517   6.151
 2773SOL    HW2 9219   4.426   0.652   6.083
 2774SOL     OW 9220   6.167   6.740   3.450
 2774SOL    HW1 9221   6.187   6.828   3.493
 2774SOL    HW2 9222   6.105   6.688   3.508
 2775SOL     OW 9223   0.245   2.613   4.747
 2775SOL    HW1 9224   0.162   2.605   4.802
 2775SOL    HW2 9225   0.237   2.553   4.667
 2776SOL     OW 9226   4.995   3.874   5.842
 2776SOL    HW1 9227   5.050   3.796   5.872
 2776SOL    HW2 9228   5.006   3.886   5.744
 2777SOL     OW 9229   1.431   1.595   0.920
 2777SOL    HW1 9230   1.377   1.658   0.976
 2777SOL    HW2 9231   1.433   1.628   0.826
 2778SOL     OW 9232   2.630   6.373   5.580
 2778SOL    HW1 9233   2.698   6.417   5.522
 2778SOL    HW2 9234   2.596   6.291   5.536
 2779SOL     OW 9235   5.135   1.498   3.851
 2779SOL    HW1 9236   5.231   1.521   3.872
 2779SOL    HW2 9237   5.121   1.400   3.862
 2780SOL     OW 9238   0.619   6.853   5.441
 2780SOL    HW1 9239   0.695   6.908   5.476
 2780SOL    HW2 9240   0.653   6.765   5.408
 2781SOL     OW 9241   6.911   6.802   2.538
 2781SOL    HW1 9242   6.892   6.889   2.492
 2781SOL    HW2 9243   6.834   6.740   2.524
 2782SOL     OW 9244   5.767   6.423   5.021
 2782SOL    HW1 9245   5.734   6.378   4.939
 2782SOL    HW2 9246   5.767   6.359   5.097
 2783SOL     OW 9247   0.311   1.976   1.934
 2783SOL    HW1 9248   0.341   2.010   2.023
 2783SOL    HW2 9249   0.311   1.876   1.934
 2784SOL     OW 9250   1.441   1.962   2.366
 2784SOL    HW1 9251   1.517   1.920   2.317
 2784SOL    HW2 9252   1.361   1.904   2.360
 2785SOL     OW 9253   5.494   3.040   3.863
 2785SOL    HW1 9254   5.484   3.139   3.854
 2785SOL    HW2 9255   5.510   3.017   3.959
 2786SOL     OW 9256   0.253   6.296   1.418
 2786SOL    HW1 9257   0.175   6.234   1.414
 2786SOL    HW2 9258   0.271   6.321   1.513
 2787SOL     OW 9259   6.982   6.352   5.833
 2787SOL    HW1 9260   0.041   6.403   5.815
 2787SOL    HW2 9261   6.909   6.416   5.859
 2788SOL     OW 9262   3.114   6.642   6.486
 2788SOL    HW1 9263   3.177   6.716   6.461
 2788SOL    HW2 9264   3.115   6.629   6.585
 2789SOL     OW 9265   2.384   2.129   4.287
 2789SOL    HW1 9266   2.346   2.221   4.280
 2789SOL    HW2 9267   2.430   2.105   4.202
 2790SOL     OW 9268   1.227   4.518   0.983
 2790SOL    HW1 9269   1.256   4.471   1.066
 2790SOL    HW2 9270   1.127   4.513   0.975
 2791SOL     OW 9271   0.757   4.290   5.798
 2791SOL    HW1 9272   0.830   4.235   5.838
 2791SOL    HW2 9273   0.794   4.346   5.724
 2792SOL     OW 9274   2.821   2.722   0.167
 2792SOL    HW1 9275   2.880   2.780   0.109
 2792SOL    HW2 9276   2.746   2.777   0.203
 2793SOL     OW 9277   4.015   3.903   6.222
 2793SOL    HW1 9278   4.050   3.895   6.315
 2793SOL    HW2 9279   3.918   3.926   6.225
 2794SOL     OW 9280   1.420   1.890   0.123
 2794SOL    HW1 9281   1.512   1.906   0.087
 2794SOL    HW2 9282   1.409   1.794   0.147
 2795SOL     OW 9283   1.004   0.375   0.264
 2795SOL    HW1 9284   1.066   0.432   0.210
 2795SOL    HW2 9285   1.007   0.404   0.360
 2796SOL     OW 9286   3.042   5.867   6.735
 2796SOL    HW1 9287   3.132   5.864   6.777
 2796SOL    HW2 9288   3.044   5.817   6.648
 2797SOL     OW 9289   4.820   3.922   5.140
 2797SOL    HW1 9290   4.753   3.978   5.190
 2797SOL    HW2 9291   4.793   3.826   5.145
 2798SOL     OW 9292   5.797   2.050   2.192
 2798SOL    HW1 9293   5.868   2.008   2.135
 2798SOL    HW2 9294   5.830   2.138   2.226
 2799SOL     OW 9295   3.400   0.340   3.983
 2799SOL    HW1 9296   3.435   0.247   3.991
 2799SOL    HW2 9297   3.352   0.364   4.068
 2800SOL     OW 9298   4.498   1.517   0.689
 2800SOL    HW1 9299   4.577   1.458   0.677
 2800SOL    HW2 9300   4.482   1.532   0.787
 2801SOL     OW 9301   0.492   4.511   2.978
 2801SOL    HW1 9302   0.409   4.460   2.999
 2801SOL    HW2 9303   0.572   4.454   2.995
 2802SOL     OW 9304   2.359   4.404   4.515
 2802SOL    HW1 9305   2.303   4.369   4.589
 2802SOL    HW2 9306   2.432   4.461   4.552
 2803SOL     OW 9307   2.888   2.913   7.001
 2803SOL    HW1 9308   2.822   2.879   6.935
 2803SOL    HW2 9309   2.945   2.983   6.958
 2804SOL     OW 9310   5.505   2.598   3.688
 2804SOL    HW1 9311   5.512   2.530   3.615
 2804SOL    HW2 9312   5.511   2.690   3.649
 2805SOL     OW 9313   3.380   5.400   0.007
 2805SOL    HW1 9314   3.333   5.479   0.048
 2805SOL    HW2 9315   3.321   5.361   6.961
 2806SOL     OW 9316   1.427   3.275   4.807
 2806SOL    HW1 9317   1.365   3.314   4.738
 2806SOL    HW2 9318   1.412   3.321   4.894
 2807SOL     OW 9319   5.192   1.167   4.072
 2807SOL    HW1 9320   5.097   1.146   4.095
 2807SOL    HW2 9321   5.248   1.166   4.154
 2808SOL     OW 9322   0.587   6.468   0.114
 2808SOL    HW1 9323   0.586   6.445   0.211
 2808SOL    HW2 9324   0.503   6.517   0.090
 2809SOL     OW 9325   0.586   6.220   1.040
 2809SOL    HW1 9326   0.608   6.316   1.023
 2809SOL    HW2 9327   0.667   6.173   1.075
 2810SOL     OW 9328   6.836   6.321   2.115
 2810SOL    HW1 9329   6.851   6.416   2.087
 2810SOL    HW2 9330   6.825   6.317   2.214
 2811SOL     OW 9331   0.405   6.758   0.271
 2811SOL    HW1 9332   0.477   6.778   0.338
 2811SOL    HW2 9333   0.352   6.840   0.254
 2812SOL     OW 9334   2.078   0.557   0.814
 2812SOL    HW1 9335   2.093   0.491   0.888
 2812SOL    HW2 9336   2.042   0.511   0.734
 2813SOL     OW 9337   5.445   2.239   2.213
 2813SOL    HW1 9338   5.486   2.167   2.268
 2813SOL    HW2 9339   5.370   2.201   2.158
 2814SOL     OW 9340   2.206   4.098   6.562
 2814SOL    HW1 9341   2.133   4.158   6.594
 2814SOL    HW2 9342   2.294   4.144   6.575
 2815SOL     OW 9343   6.196   6.427   4.990
 2815SOL    HW1 9344   6.134   6.504   5.001
 2815SOL    HW2 9345   6.288   6.454   5.017
 2816SOL     OW 9346   1.123   5.402   5.519
 2816SOL    HW1 9347   1.046   5.374   5.463
 2816SOL    HW2 9348   1.201   5.426   5.461
 2817SOL     OW 9349   2.801   0.681   1.129
 2817SOL    HW1 9350   2.890   0.680   1.176
 2817SOL    HW2 9351   2.791   0.597   1.076
 2818SOL     OW 9352   1.895   0.214   0.421
 2818SOL    HW1 9353   1.833   0.153   0.471
 2818SOL    HW2 9354   1.977   0.164   0.394
 2819SOL     OW 9355   6.223   0.557   6.859
 2819SOL    HW1 9356   6.151   0.489   6.854
 2819SOL    HW2 9357   6.223   0.601   6.949
 2820SOL     OW 9358   1.765   2.036   0.417
 2820SOL    HW1 9359   1.751   2.127   0.379
 2820SOL    HW2 9360   1.848   1.996   0.378
 2821SOL     OW 9361   3.951   2.917   6.127
 2821SOL    HW1 9362   3.998   2.997   6.163
 2821SOL    HW2 9363   4.018   2.853   6.089
 2822SOL     OW 9364   4.247   3.971   1.342
 2822SOL    HW1 9365   4.319   4.000   1.405
 2822SOL    HW2 9366   4.238   3.872   1.344
 2823SOL     OW 9367   5.243   4.411   3.771
 2823SOL    HW1 9368   5.303   4.384   3.696
 2823SOL    HW2 9369   5.177   4.338   3.789
 2824SOL     OW 9370   0.879   4.530   5.704
 2824SOL    HW1 9371   0.954   4.542   5.769
 2824SOL    HW2 9372   0.875   4.608   5.642
 2825SOL     OW 9373   5.055   2.458   5.707
 2825SOL    HW1 9374   5.040   2.547   5.749
 2825SOL    HW2 9375   4.970   2.424   5.667
 2826SOL     OW 9376   2.894   2.536   6.476
 2826SOL    HW1 9377   2.915   2.474   6.400
 2826SOL    HW2 9378   2.951   2.513   6.554
 2827SOL     OW 9379   0.093   1.986   0.690
 2827SOL    HW1 9380   0.118   2.080   0.713
 2827SOL    HW2 9381   0.113   1.969   0.593
 2828SOL     OW 9382   2.080   3.782   6.971
 2828SOL    HW1 9383   2.065   3.712   6.902
 2828SOL    HW2 9384   2.141   3.746   0.017
 2829SOL     OW 9385   3.482   4.476   1.011
 2829SOL    HW1 9386   3.525   4.386   1.002
 2829SOL    HW2 9387   3.539   4.544   0.965
 2830SOL     OW 9388   2.545   5.020   4.302
 2830SOL    HW1 9389   2.529   4.923   4.283
 2830SOL    HW2 9390   2.516   5.075   4.224
 2831SOL     OW 9391   5.494   1.921   1.795
 2831SOL    HW1 9392   5.396   1.934   1.783
 2831SOL    HW2 9393   5.523   1.961   1.883
 2832SOL     OW 9394   1.592   3.401   1.068
 2832SOL    HW1 9395   1.585   3.495   1.034
 2832SOL    HW2 9396   1.523   3.386   1.139
 2833SOL     OW 9397   6.768   2.150   2.889
 2833SOL    HW1 9398   6.775   2.249   2.896
 2833SOL    HW2 9399   6.829   2.108   2.957
 2834SOL     OW 9400   2.784   0.192   3.963
 2834SOL    HW1 9401   2.758   0.096   3.975
 2834SOL    HW2 9402   2.818   0.206   3.870
 2835SOL     OW 9403   6.168   1.417   0.575
 2835SOL    HW1 9404   6.154   1.516   0.578
 2835SOL    HW2 9405   6.260   1.397   0.542
 2836SOL     OW 9406   2.882   6.423   1.945
 2836SOL    HW1 9407   2.937   6.455   2.022
 2836SOL    HW2 9408   2.792   6.465   1.949
 2837SOL     OW 9409   5.073   4.470   3.373
 2837SOL    HW1 9410   5.003   4.541   3.361
 2837SOL    HW2 9411   5.047   4.409   3.447
 2838SOL     OW 9412   6.856   4.927   6.009
 2838SOL    HW1 9413   6.757   4.933   5.993
 2838SOL    HW2 9414   6.883   4.998   6.074
 2839SOL     OW 9415   5.550   2.393   6.522
 2839SOL    HW1 9416   5.538   2.468   6.588
 2839SOL    HW2 9417   5.646   2.390   6.492
 2840SOL     OW 9418   6.638   5.799   5.092
 2840SOL    HW1 9419   6.639   5.699   5.094
 2840SOL    HW2 9420   6.608   5.834   5.181
 2841SOL     OW 9421   5.495   3.399   2.855
 2841SOL    HW1 9422   5.505   3.314   2.906
 2841SOL    HW2 9423   5.419   3.452   2.892
 2842SOL     OW 9424   1.180   5.850   4.006
 2842SOL    HW1 9425   1.243   5.786   4.050
 2842SOL    HW2 9426   1.168   5.930   4.065
 2843SOL     OW 9427   1.112   2.820   3.884
 2843SOL    HW1 9428   1.123   2.827   3.785
 2843SOL    HW2 9429   1.112   2.724   3.911
 2844SOL     OW 9430   5.542   3.882   0.779
 2844SOL    HW1 9431   5.634   3.875   0.815
 2844SOL    HW2 9432   5.518   3.797   0.732
 2845SOL     OW 9433   3.527   1.701   1.204
 2845SOL    HW1 9434   3.438   1.678   1.244
 2845SOL    HW2 9435   3.573   1.769   1.261
 2846SOL     OW 9436   5.901   0.727   6.029
 2846SOL    HW1 9437   5.856   0.652   5.981
 2846SOL    HW2 9438   5.842   0.808   6.026
 2847SOL     OW 9439   6.138   5.088   2.807
 2847SOL    HW1 9440   6.048   5.057   2.839
 2847SOL    HW2 9441   6.179   5.146   2.877
 2848SOL     OW 9442   6.901   3.803   0.583
 2848SOL    HW1 9443   6.936   3.710   0.570
 2848SOL    HW2 9444   6.813   3.800   0.630
 2849SOL     OW 9445   5.214   0.993   0.511
 2849SOL    HW1 9446   5.229   1.083   0.471
 2849SOL    HW2 9447   5.126   0.991   0.559
 2850SOL     OW 9448   6.807   1.039   0.869
 2850SOL    HW1 9449   6.750   1.086   0.936
 2850SOL    HW2 9450   6.882   0.991   0.916
 2851SOL     OW 9451   3.577   3.034   2.253
 2851SOL    HW1 9452   3.521   3.021   2.335
 2851SOL    HW2 9453   3.672   3.008   2.274
 2852SOL     OW 9454   1.504   4.793   5.034
 2852SOL    HW1 9455   1.527   4.715   5.092
 2852SOL    HW2 9456   1.588   4.833   4.997
 2853SOL     OW 9457   6.618   5.348   5.316
 2853SOL    HW1 9458   6.583   5.408   5.388
 2853SOL    HW2 9459   6.648   5.262   5.357
 2854SOL     OW 9460   3.215   0.941   6.971
 2854SOL    HW1 9461   3.256   1.031   6.982
 2854SOL    HW2 9462   3.274   0.871   7.012
 2855SOL     OW 9463   3.052   1.894   4.139
 2855SOL    HW1 9464   3.014   1.883   4.231
 2855SOL    HW2 9465   3.057   1.805   4.094
 2856SOL     OW 9466   1.092   5.214   4.750
 2856SOL    HW1 9467   1.081   5.137   4.814
 2856SOL    HW2 9468   1.089   5.180   4.656
 2857SOL     OW 9469   1.103   4.387   0.315
 2857SOL    HW1 9470   1.023   4.443   0.294
 2857SOL    HW2 9471   1.126   4.331   0.235
 2858SOL     OW 9472   5.378   4.710   4.305
 2858SOL    HW1 9473   5.378   4.615   4.272
 2858SOL    HW2 9474   5.297   4.757   4.269
 2859SOL     OW 9475   0.395   4.916   2.076
 2859SOL    HW1 9476   0.296   4.900   2.087
 2859SOL    HW2 9477   0.414   4.938   1.980
 2860SOL     OW 9478   1.390   6.251   2.004
 2860SOL    HW1 9479   1.296   6.221   2.020
 2860SOL    HW2 9480   1.400   6.347   2.033
 2861SOL     OW 9481   5.885   3.082   4.998
 2861SOL    HW1 9482   5.800   3.123   4.964
 2861SOL    HW2 9483   5.924   3.141   5.069
 2862SOL     OW 9484   4.273   1.001   1.100
 2862SOL    HW1 9485   4.252   0.919   1.047
 2862SOL    HW2 9486   4.257   1.082   1.043
 2863SOL     OW 9487   5.454   1.882   6.250
 2863SOL    HW1 9488   5.534   1.837   6.212
 2863SOL    HW2 9489   5.464   1.889   6.350
 2864SOL     OW 9490   4.768   4.556   0.314
 2864SOL    HW1 9491   4.783   4.461   0.341
 2864SOL    HW2 9492   4.814   4.574   0.227
 2865SOL     OW 9493   5.594   4.364   6.674
 2865SOL    HW1 9494   5.504   4.400   6.648
 2865SOL    HW2 9495   5.606   4.372   6.773
 2866SOL     OW 9496   5.090   6.420   0.710
 2866SOL    HW1 9497   5.027   6.497   0.702
 2866SOL    HW2 9498   5.184   6.453   0.696
 2867SOL     OW 9499   0.647   6.410   3.359
 2867SOL    HW1 9500   0.647   6.509   3.346
 2867SOL    HW2 9501   0.636   6.390   3.457
 2868SOL     OW 9502   6.366   6.718   5.296
 2868SOL    HW1 9503   6.393   6.742   5.389
 2868SOL    HW2 9504   6.271   6.687   5.295
 2869SOL     OW 9505   6.183   4.628   5.268
 2869SOL    HW1 9506   6.271   4.581   5.258
 2869SOL    HW2 9507   6.160   4.634   5.365
 2870SOL     OW 9508   0.469   1.430   1.604
 2870SOL    HW1 9509   0.497   1.448   1.510
 2870SOL    HW2 9510   0.401   1.357   1.605
 2871SOL     OW 9511   5.018   1.674   3.421
 2871SOL    HW1 9512   5.063   1.753   3.378
 2871SOL    HW2 9513   4.971   1.703   3.504
 2872SOL     OW 9514   3.232   1.349   2.365
 2872SOL    HW1 9515   3.171   1.326   2.442
 2872SOL    HW2 9516   3.239   1.448   2.357
 2873SOL     OW 9517   0.207   0.404   2.468
 2873SOL    HW1 9518   0.154   0.319   2.474
 2873SOL    HW2 9519   0.163   0.466   2.404
 2874SOL     OW 9520   1.004   0.493   2.008
 2874SOL    HW1 9521   0.956   0.532   2.087
 2874SOL    HW2 9522   1.067   0.561   1.971
 2875SOL     OW 9523   3.226   1.111   2.201
 2875SOL    HW1 9524   3.210   1.206   2.228
 2875SOL    HW2 9525   3.161   1.052   2.248
 2876SOL     OW 9526   0.892   0.037   0.428
 2876SOL    HW1 9527   0.925   0.018   0.335
 2876SOL    HW2 9528   0.860   0.131   0.433
 2877SOL     OW 9529   1.208   3.126   6.316
 2877SOL    HW1 9530   1.240   3.066   6.243
 2877SOL    HW2 9531   1.262   3.210   6.316
 2878SOL     OW 9532   4.090   3.855   4.360
 2878SOL    HW1 9533   4.031   3.935   4.357
 2878SOL    HW2 9534   4.145   3.851   4.276
 2879SOL     OW 9535   6.950   6.729   0.377
 2879SOL    HW1 9536   7.006   6.784   0.314
 2879SOL    HW2 9537   6.945   6.635   0.342
 2880SOL     OW 9538   1.659   1.087   2.517
 2880SOL    HW1 9539   1.715   1.021   2.567
 2880SOL    HW2 9540   1.692   1.095   2.423
 2881SOL     OW 9541   5.211   5.561   6.986
 2881SOL    HW1 9542   5.211   5.651   0.004
 2881SOL    HW2 9543   5.125   5.514   7.006
 2882SOL     OW 9544   4.387   6.613   0.717
 2882SOL    HW1 9545   4.295   6.641   0.691
 2882SOL    HW2 9546   4.383   6.526   0.766
 2883SOL     OW 9547   5.493   6.110   2.834
 2883SOL    HW1 9548   5.572   6.062   2.871
 2883SOL    HW2 9549   5.413   6.051   2.837
 2884SOL     OW 9550   5.951   5.102   3.518
 2884SOL    HW1 9551   6.022   5.104   3.448
 2884SOL    HW2 9552   5.901   5.189   3.518
 2885SOL     OW 9553   0.460   4.685   3.706
 2885SOL    HW1 9554   0.399   4.756   3.670
 2885SOL    HW2 9555   0.536   4.671   3.643
 2886SOL     OW 9556   1.961   4.785   5.166
 2886SOL    HW1 9557   2.039   4.845   5.179
 2886SOL    HW2 9558   1.939   4.779   5.068
 2887SOL     OW 9559   0.415   4.897   2.357
 2887SOL    HW1 9560   0.411   4.797   2.360
 2887SOL    HW2 9561   0.414   4.928   2.262
 2888SOL     OW 9562   4.498   5.861   6.777
 2888SOL    HW1 9563   4.501   5.764   6.752
 2888SOL    HW2 9564   4.520   5.917   6.696
 2889SOL     OW 9565   4.366   4.995   3.918
 2889SOL    HW1 9566   4.327   4.919   3.971
 2889SOL    HW2 9567   4.419   4.958   3.842
 2890SOL     OW 9568   1.640   1.188   0.638
 2890SOL    HW1 9569   1.629   1.287   0.649
 2890SOL    HW2 9570   1.598   1.142   0.717
 2891SOL     OW 9571   1.723   1.697   5.506
 2891SOL    HW1 9572   1.677   1.753   5.438
 2891SOL    HW2 9573   1.820   1.689   5.482
 2892SOL     OW 9574   6.058   4.678   2.343
 2892SOL    HW1 9575   5.962   4.650   2.334
 2892SOL    HW2 9576   6.102   4.622   2.413
 2893SOL     OW 9577   6.682   6.104   4.995
 2893SOL    HW1 9578   6.593   6.130   5.034
 2893SOL    HW2 9579   6.748   6.094   5.069
 2894SOL     OW 9580   1.613   5.800   1.570
 2894SOL    HW1 9581   1.559   5.796   1.654
 2894SOL    HW2 9582   1.582   5.729   1.507
 2895SOL     OW 9583   5.176   6.172   6.245
 2895SOL    HW1 9584   5.122   6.138   6.168
 2895SOL    HW2 9585   5.139   6.259   6.276
 2896SOL     OW 9586   6.357   0.228   6.605
 2896SOL    HW1 9587   6.318   0.137   6.594
 2896SOL    HW2 9588   6.456   0.222   6.617
 2897SOL     OW 9589   2.897   5.992   3.754
 2897SOL    HW1 9590   2.855   6.000   3.664
 2897SOL    HW2 9591   2.835   6.030   3.823
 2898SOL     OW 9592   5.038   2.723   2.516
 2898SOL    HW1 9593   5.093   2.671   2.451
 2898SOL    HW2 9594   4.962   2.766   2.468
 2899SOL     OW 9595   6.238   2.951   1.421
 2899SOL    HW1 9596   6.299   3.021   1.457
 2899SOL    HW2 9597   6.143   2.976   1.442
 2900SOL     OW 9598   3.385   2.856   4.791
 2900SOL    HW1 9599   3.368   2.770   4.744
 2900SOL    HW2 9600   3.371   2.932   4.728
 2901SOL     OW 9601   1.342   2.398   1.569
 2901SOL    HW1 9602   1.351   2.477   1.629
 2901SOL    HW2 9603   1.360   2.425   1.475
 2902SOL     OW 9604   5.013   6.263   3.369
 2902SOL    HW1 9605   4.974   6.298   3.284
 2902SOL    HW2 9606   5.109   6.238   3.354
 2903SOL     OW 9607   0.712   4.953   2.193
 2903SOL    HW1 9608   0.692   4.940   2.290
 2903SOL    HW2 9609   0.672   5.039   2.162
 2904SOL     OW 9610   3.503   4.952   4.396
 2904SOL    HW1 9611   3.553   4.881   4.347
 2904SOL    HW2 9612   3.520   4.944   4.494
 2905SOL     OW 9613   2.293   3.941   1.337
 2905SOL    HW1 9614   2.364   3.975   1.399
 2905SOL    HW2 9615   2.234   3.877   1.386
 2906SOL     OW 9616   5.987   6.582   6.543
 2906SOL    HW1 9617   5.936   6.622   6.620
 2906SOL    HW2 9618   5.952   6.490   6.525
 2907SOL     OW 9619   0.334   1.558   6.376
 2907SOL    HW1 9620   0.311   1.465   6.406
 2907SOL    HW2 9621   0.413   1.555   6.315
 2908SOL     OW 9622   3.695   5.843   3.805
 2908SOL    HW1 9623   3.664   5.803   3.719
 2908SOL    HW2 9624   3.757   5.779   3.851
 2909SOL     OW 9625   6.863   6.311   0.736
 2909SOL    HW1 9626   6.840   6.279   0.828
 2909SOL    HW2 9627   6.949   6.362   0.739
 2910SOL     OW 9628   1.397   0.087   3.918
 2910SOL    HW1 9629   1.467   0.135   3.865
 2910SOL    HW2 9630   1.310   0.092   3.869
 2911SOL     OW 9631   6.555   3.504   3.433
 2911SOL    HW1 9632   6.465   3.509   3.391
 2911SOL    HW2 9633   6.554   3.437   3.508
 2912SOL     OW 9634   0.183   1.337   3.199
 2912SOL    HW1 9635   0.237   1.400   3.255
 2912SOL    HW2 9636   0.089   1.334   3.235
 2913SOL     OW 9637   0.633   6.486   4.390
 2913SOL    HW1 9638   0.681   6.565   4.351
 2913SOL    HW2 9639   0.700   6.422   4.427
 2914SOL     OW 9640   3.766   4.421   0.845
 2914SOL    HW1 9641   3.807   4.457   0.928
 2914SOL    HW2 9642   3.835   4.372   0.792
 2915SOL     OW 9643   1.794   6.857   3.421
 2915SOL    HW1 9644   1.727   6.926   3.447
 2915SOL    HW2 9645   1.858   6.895   3.355
 2916SOL     OW 9646   0.232   6.176   0.039
 2916SOL    HW1 9647   0.331   6.177   0.029
 2916SOL    HW2 9648   0.196   6.088   0.006
 2917SOL     OW 9649   2.495   2.017   4.043
 2917SOL    HW1 9650   2.517   2.043   3.948
 2917SOL    HW2 9651   2.580   2.011   4.095
 2918SOL     OW 9652   4.969   0.934   1.316
 2918SOL    HW1 9653   5.034   0.862   1.295
 2918SOL    HW2 9654   4.883   0.917   1.268
 2919SOL     OW 9655   1.166   5.143   5.554
 2919SOL    HW1 9656   1.262   5.120   5.570
 2919SOL    HW2 9657   1.154   5.242   5.564
 2920SOL     OW 9658   2.931   2.669   1.706
 2920SOL    HW1 9659   2.878   2.641   1.626
 2920SOL    HW2 9660   2.928   2.597   1.775
 2921SOL     OW 9661   0.151   4.724   3.331
 2921SOL    HW1 9662   0.142   4.754   3.236
 2921SOL    HW2 9663   0.080   4.657   3.351
 2922SOL     OW 9664   3.968   5.347   4.019
 2922SOL    HW1 9665   3.878   5.387   4.032
 2922SOL    HW2 9666   3.960   5.249   4.002
 2923SOL     OW 9667   1.490   4.324   3.858
 2923SOL    HW1 9668   1.556   4.397   3.878
 2923SOL    HW2 9669   1.419   4.323   3.929
 2924SOL     OW 9670   4.292   1.942   6.723
 2924SOL    HW1 9671   4.231   1.912   6.650
 2924SOL    HW2 9672   4.384   1.906   6.707
 2925SOL     OW 9673   5.654   6.504   4.216
 2925SOL    HW1 9674   5.688   6.594   4.241
 2925SOL    HW2 9675   5.554   6.502   4.225
 2926SOL     OW 9676   6.923   2.962   5.143
 2926SOL    HW1 9677   6.938   2.999   5.235
 2926SOL    HW2 9678   6.896   3.037   5.082
 2927SOL     OW 9679   1.375   1.904   3.077
 2927SOL    HW1 9680   1.439   1.965   3.124
 2927SOL    HW2 9681   1.420   1.864   2.997
 2928SOL     OW 9682   5.546   4.809   0.217
 2928SOL    HW1 9683   5.463   4.780   0.169
 2928SOL    HW2 9684   5.524   4.829   0.313
 2929SOL     OW 9685   1.929   1.533   2.413
 2929SOL    HW1 9686   1.995   1.572   2.477
 2929SOL    HW2 9687   1.838   1.534   2.453
 2930SOL     OW 9688   0.861   3.102   3.722
 2930SOL    HW1 9689   0.958   3.108   3.702
 2930SOL    HW2 9690   0.819   3.031   3.666
 2931SOL     OW 9691   5.470   4.394   5.729
 2931SOL    HW1 9692   5.544   4.347   5.680
 2931SOL    HW2 9693   5.427   4.330   5.793
 2932SOL     OW 9694   6.587   0.072   0.418
 2932SOL    HW1 9695   6.520   0.072   0.344
 2932SOL    HW2 9696   6.548   0.118   0.498
 2933SOL     OW 9697   0.300   1.032   6.652
 2933SOL    HW1 9698   0.372   1.077   6.598
 2933SOL    HW2 9699   0.262   0.956   6.600
 2934SOL     OW 9700   5.235   5.534   2.841
 2934SOL    HW1 9701   5.297   5.585   2.900
 2934SOL    HW2 9702   5.286   5.497   2.763
 2935SOL     OW 9703   0.148   4.597   6.283
 2935SOL    HW1 9704   0.230   4.574   6.335
 2935SOL    HW2 9705   0.067   4.563   6.331
 2936SOL     OW 9706   4.845   6.325   2.671
 2936SOL    HW1 9707   4.897   6.284   2.746
 2936SOL    HW2 9708   4.749   6.332   2.697
 2937SOL     OW 9709   6.362   3.117   3.528
 2937SOL    HW1 9710   6.314   3.097   3.614
 2937SOL    HW2 9711   6.391   3.031   3.485
 2938SOL     OW 9712   0.009   5.490   1.050
 2938SOL    HW1 9713   0.029   5.565   0.987
 2938SOL    HW2 9714   6.997   5.413   0.999
 2939SOL     OW 9715   6.406   5.858   1.994
 2939SOL    HW1 9716   6.433   5.768   1.958
 2939SOL    HW2 9717   6.487   5.907   2.024
 2940SOL     OW 9718   4.813   6.063   3.160
 2940SOL    HW1 9719   4.909   6.053   3.186
 2940SOL    HW2 9720   4.769   6.131   3.219
 2941SOL     OW 9721   2.979   5.134   1.714
 2941SOL    HW1 9722   3.018   5.055   1.667
 2941SOL    HW2 9723   2.941   5.105   1.802
 2942SOL     OW 9724   2.463   1.818   0.329
 2942SOL    HW1 9725   2.525   1.762   0.273
 2942SOL    HW2 9726   2.466   1.913   0.297
 2943SOL     OW 9727   0.454   4.665   3.345
 2943SOL    HW1 9728   0.516   4.734   3.381
 2943SOL    HW2 9729   0.359   4.691   3.365
 2944SOL     OW 9730   0.719   5.163   3.705
 2944SOL    HW1 9731   0.631   5.186   3.663
 2944SOL    HW2 9732   0.794   5.197   3.649
 2945SOL     OW 9733   6.012   3.417   0.316
 2945SOL    HW1 9734   5.943   3.386   0.382
 2945SOL    HW2 9735   6.097   3.439   0.364
 2946SOL     OW 9736   3.248   3.769   4.532
 2946SOL    HW1 9737   3.227   3.689   4.588
 2946SOL    HW2 9738   3.183   3.842   4.554
 2947SOL     OW 9739   6.675   6.835   0.387
 2947SOL    HW1 9740   6.657   6.932   0.399
 2947SOL    HW2 9741   6.766   6.823   0.347
 2948SOL     OW 9742   6.207   5.147   0.665
 2948SOL    HW1 9743   6.144   5.094   0.607
 2948SOL    HW2 9744   6.164   5.166   0.753
 2949SOL     OW 9745   1.234   5.916   0.797
 2949SOL    HW1 9746   1.152   5.967   0.825
 2949SOL    HW2 9747   1.222   5.885   0.702
 2950SOL     OW 9748   4.817   4.906   2.825
 2950SOL    HW1 9749   4.772   4.817   2.812
 2950SOL    HW2 9750   4.859   4.935   2.739
 2951SOL     OW 9751   1.062   2.943   0.636
 2951SOL    HW1 9752   1.019   3.033   0.639
 2951SOL    HW2 9753   1.141   2.946   0.575
 2952SOL     OW 9754   1.434   1.018   4.287
 2952SOL    HW1 9755   1.429   0.921   4.263
 2952SOL    HW2 9756   1.375   1.070   4.225
 2953SOL     OW 9757   1.134   5.643   3.136
 2953SOL    HW1 9758   1.138   5.673   3.231
 2953SOL    HW2 9759   1.212   5.681   3.086
 2954SOL     OW 9760   0.142   4.722   5.687
 2954SOL    HW1 9761   0.156   4.815   5.722
 2954SOL    HW2 9762   0.080   4.672   5.748
 2955SOL     OW 9763   1.021   5.021   6.006
 2955SOL    HW1 9764   0.957   5.059   6.072
 2955SOL    HW2 9765   0.980   5.025   5.914
 2956SOL     OW 9766   6.447   3.909   5.007
 2956SOL    HW1 9767   6.546   3.890   5.011
 2956SOL    HW2 9768   6.407   3.896   5.098
 2957SOL     OW 9769   1.291   4.658   1.814
 2957SOL    HW1 9770   1.344   4.610   1.745
 2957SOL    HW2 9771   1.313   4.755   1.812
 2958SOL     OW 9772   2.034   3.134   1.397
 2958SOL    HW1 9773   2.013   3.097   1.488
 2958SOL    HW2 9774   1.969   3.096   1.331
 2959SOL     OW 9775   1.197   4.008   4.159
 2959SOL    HW1 9776   1.236   3.922   4.127
 2959SOL    HW2 9777   1.238   4.033   4.247
 2960SOL     OW 9778   5.463   6.193   0.412
 2960SOL    HW1 9779   5.366   6.203   0.388
 2960SOL    HW2 9780   5.505   6.283   0.420
 2961SOL     OW 9781   5.838   1.713   0.928
 2961SOL    HW1 9782   5.755   1.770   0.922
 2961SOL    HW2 9783   5.834   1.642   0.858
 2962SOL     OW 9784   6.274   0.665   4.312
 2962SOL    HW1 9785   6.176   0.647   4.315
 2962SOL    HW2 9786   6.291   0.752   4.265
 2963SOL     OW 9787   2.030   1.000   6.405
 2963SOL    HW1 9788   2.085   1.057   6.466
 2963SOL    HW2 9789   1.964   1.057   6.356
 2964SOL     OW 9790   0.795   0.605   5.857
 2964SOL    HW1 9791   0.894   0.616   5.864
 2964SOL    HW2 9792   0.773   0.508   5.843
 2965SOL     OW 9793   6.668   0.965   6.490
 2965SOL    HW1 9794   6.605   0.888   6.504
 2965SOL    HW2 9795   6.753   0.932   6.450
 2966SOL     OW 9796   3.793   0.235   2.580
 2966SOL    HW1 9797   3.829   0.327   2.588
 2966SOL    HW2 9798   3.802   0.188   2.668
 2967SOL     OW 9799   5.103   6.590   5.244
 2967SOL    HW1 9800   5.096   6.497   5.281
 2967SOL    HW2 9801   5.147   6.649   5.312
 2968SOL     OW 9802   1.827   3.854   2.027
 2968SOL    HW1 9803   1.891   3.779   2.010
 2968SOL    HW2 9804   1.735   3.827   1.998
 2969SOL     OW 9805   3.870   1.854   4.952
 2969SOL    HW1 9806   3.960   1.810   4.956
 2969SOL    HW2 9807   3.868   1.932   5.014
 2970SOL     OW 9808   2.401   2.587   6.546
 2970SOL    HW1 9809   2.412   2.564   6.642
 2970SOL    HW2 9810   2.306   2.570   6.518
 2971SOL     OW 9811   3.989   4.155   5.671
 2971SOL    HW1 9812   3.896   4.166   5.706
 2971SOL    HW2 9813   4.009   4.229   5.607
 2972SOL     OW 9814   0.059   6.145   0.462
 2972SOL    HW1 9815   0.005   6.202   0.525
 2972SOL    HW2 9816   7.023   6.106   0.393
 2973SOL     OW 9817   4.952   0.595   4.875
 2973SOL    HW1 9818   4.985   0.500   4.874
 2973SOL    HW2 9819   4.854   0.596   4.895
 2974SOL     OW 9820   5.282   5.034   2.810
 2974SOL    HW1 9821   5.267   4.942   2.844
 2974SOL    HW2 9822   5.246   5.100   2.875
 2975SOL     OW 9823   0.935   3.919   5.080
 2975SOL    HW1 9824   1.028   3.926   5.116
 2975SOL    HW2 9825   0.878   3.871   5.146
 2976SOL     OW 9826   4.098   6.977   1.675
 2976SOL    HW1 9827   4.082   6.885   1.639
 2976SOL    HW2 9828   4.014   0.005   1.668
 2977SOL     OW 9829   1.430   1.540   2.385
 2977SOL    HW1 9830   1.361   1.588   2.331
 2977SOL    HW2 9831   1.443   1.448   2.348
 2978SOL     OW 9832   3.331   5.691   0.465
 2978SOL    HW1 9833   3.345   5.785   0.435
 2978SOL    HW2 9834   3.365   5.679   0.558
 2979SOL     OW 9835   1.870   1.399   5.697
 2979SOL    HW1 9836   1.870   1.340   5.617
 2979SOL    HW2 9837   1.876   1.495   5.668
 2980SOL     OW 9838   3.378   3.217   2.798
 2980SOL    HW1 9839   3.476   3.237   2.793
 2980SOL    HW2 9840   3.333   3.254   2.717
 2981SOL     OW 9841   2.059   1.425   1.509
 2981SOL    HW1 9842   2.156   1.449   1.510
 2981SOL    HW2 9843   2.005   1.507   1.486
 2982SOL     OW 9844   0.459   0.521   2.371
 2982SOL    HW1 9845   0.395   0.454   2.333
 2982SOL    HW2 9846   0.409   0.604   2.396
 2983SOL     OW 9847   6.659   2.456   6.125
 2983SOL    HW1 9848   6.576   2.457   6.180
 2983SOL    HW2 9849   6.739   2.463   6.184
 2984SOL     OW 9850   0.710   5.845   1.122
 2984SOL    HW1 9851   0.656   5.849   1.038
 2984SOL    HW2 9852   0.762   5.929   1.133
 2985SOL     OW 9853   0.494   0.070   5.811
 2985SOL    HW1 9854   0.400   0.093   5.787
 2985SOL    HW2 9855   0.503   6.997   5.821
 2986SOL     OW 9856   3.564   4.077   2.293
 2986SOL    HW1 9857   3.543   4.123   2.379
 2986SOL    HW2 9858   3.493   4.011   2.271
 2987SOL     OW 9859   2.454   6.886   5.927
 2987SOL    HW1 9860   2.467   6.831   5.845
 2987SOL    HW2 9861   2.487   6.835   6.007
 2988SOL     OW 9862   1.043   1.493   6.479
 2988SOL    HW1 9863   1.125   1.548   6.463
 2988SOL    HW2 9864   1.059   1.432   6.557
 2989SOL     OW 9865   5.592   3.486   5.693
 2989SOL    HW1 9866   5.679   3.505   5.738
 2989SOL    HW2 9867   5.520   3.480   5.762
 2990SOL     OW 9868   4.963   2.080   4.799
 2990SOL    HW1 9869   4.927   2.150   4.737
 2990SOL    HW2 9870   5.052   2.108   4.833
 2991SOL     OW 9871   6.297   2.514   0.695
 2991SOL    HW1 9872   6.220   2.568   0.661
 2991SOL    HW2 9873   6.355   2.571   0.752
 2992SOL     OW 9874   2.199   4.276   4.727
 2992SOL    HW1 9875   2.242   4.264   4.816
 2992SOL    HW2 9876   2.194   4.187   4.680
 2993SOL     OW 9877   4.230   5.448   6.941
 2993SOL    HW1 9878   4.163   5.522   6.950
 2993SOL    HW2 9879   4.188   5.361   6.964
 2994SOL     OW 9880   2.878   5.398   4.752
 2994SOL    HW1 9881   2.946   5.352   4.695
 2994SOL    HW2 9882   2.798   5.339   4.762
 2995SOL     OW 9883   5.978   0.290   2.538
 2995SOL    HW1 9884   6.067   0.314   2.499
 2995SOL    HW2 9885   5.985   0.288   2.637
 2996SOL     OW 9886   6.734   0.350   4.663
 2996SOL    HW1 9887   6.666   0.289   4.622
 2996SOL    HW2 9888   6.690   0.410   4.730
 2997SOL     OW 9889   5.048   6.457   3.870
 2997SOL    HW1 9890   4.972   6.522   3.875
 2997SOL    HW2 9891   5.012   6.366   3.852
 2998SOL     OW 9892   2.660   0.503   1.385
 2998SOL    HW1 9893   2.709   0.418   1.366
 2998SOL    HW2 9894   2.692   0.575   1.324
 2999SOL     OW 9895   2.414   5.308   0.209
 2999SOL    HW1 9896   2.377   5.396   0.179
 2999SOL    HW2 9897   2.422   5.246   0.130
 3000SOL     OW 9898   1.789   4.282   6.440
 3000SOL    HW1 9899   1.833   4.213   6.382
 3000SOL    HW2 9900   1.813   4.265   6.535
 3001SOL     OW 9901   2.707   0.375   5.871
 3001SOL    HW1 9902   2.679   0.289   5.913
 3001SOL    HW2 9903   2.757   0.356   5.786
 3002SOL     OW 9904   1.986   1.940   1.502
 3002SOL    HW1 9905   1.959   2.001   1.427
 3002SOL    HW2 9906   1.914   1.940   1.572
 3003SOL     OW 9907   1.017   5.911   0.297
 3003SOL    HW1 9908   0.943   5.843   0.295
 3003SOL    HW2 9909   0.996   5.985   0.233
 3004SOL     OW 9910   3.050   1.296   4.776
 3004SOL    HW1 9911   3.107   1.227   4.821
 3004SOL    HW2 9912   2.959   1.258   4.758
 3005SOL     OW 9913   2.955   1.352   6.930
 3005SOL    HW1 9914   2.912   1.402   6.854
 3005SOL    HW2 9915   3.027   1.408   6.970
 3006SOL     OW 9916   5.636   1.273   6.160
 3006SOL    HW1 9917   5.728   1.285   6.124
 3006SOL    HW2 9918   5.635   1.196   6.224
 3007SOL     OW 9919   6.347   5.585   6.225
 3007SOL    HW1 9920   6.327   5.535   6.308
 3007SOL    HW2 9921   6.422   5.540   6.176
 3008SOL     OW 9922   5.417   3.261   5.519
 3008SOL    HW1 9923   5.421   3.284   5.616
 3008SOL    HW2 9924   5.381   3.338   5.467
 3009SOL     OW 9925   5.975   4.377   1.430
 3009SOL    HW1 9926   5.937   4.406   1.517
 3009SOL    HW2 9927   5.904   4.380   1.359
 3010SOL     OW 9928   4.514   4.078   1.431
 3010SOL    HW1 9929   4.472   4.056   1.519
 3010SOL    HW2 9930   4.468   4.158   1.392
 3011SOL     OW 9931   5.116   0.727   1.248
 3011SOL    HW1 9932   5.094   0.685   1.160
 3011SOL    HW2 9933   5.171   0.663   1.303
 3012SOL     OW 9934   1.894   2.645   4.658
 3012SOL    HW1 9935   1.931   2.714   4.720
 3012SOL    HW2 9936   1.847   2.690   4.582
 3013SOL     OW 9937   0.767   5.851   5.799
 3013SOL    HW1 9938   0.836   5.790   5.761
 3013SOL    HW2 9939   0.722   5.901   5.725
 3014SOL     OW 9940   3.780   6.773   1.034
 3014SOL    HW1 9941   3.834   6.852   1.064
 3014SOL    HW2 9942   3.811   6.691   1.081
 3015SOL     OW 9943   2.295   6.633   5.878
 3015SOL    HW1 9944   2.307   6.534   5.888
 3015SOL    HW2 9945   2.373   6.671   5.828
 3016SOL     OW 9946   3.448   1.251   4.744
 3016SOL    HW1 9947   3.439   1.341   4.786
 3016SOL    HW2 9948   3.480   1.185   4.812
 3017SOL     OW 9949   1.901   6.337   6.662
 3017SOL    HW1 9950   1.969   6.321   6.733
 3017SOL    HW2 9951   1.937   6.401   6.594
 3018SOL     OW 9952   2.036   2.927   1.959
 3018SOL    HW1 9953   2.080   2.960   2.043
 3018SOL    HW2 9954   2.105   2.912   1.888
 3019SOL     OW 9955   0.734   1.137   5.179
 3019SOL    HW1 9956   0.736   1.237   5.167
 3019SOL    HW2 9957   0.767   1.093   5.095
 3020SOL     OW 9958   5.348   4.053   6.701
 3020SOL    HW1 9959   5.443   4.028   6.721
 3020SOL    HW2 9960   5.334   4.150   6.721
 3021SOL     OW 9961   3.830   6.284   4.380
 3021SOL    HW1 9962   3.852   6.381   4.372
 3021SOL    HW2 9963   3.909   6.235   4.417
 3022SOL     OW 9964   3.952   6.399   1.953
 3022SOL    HW1 9965   3.920   6.306   1.934
 3022SOL    HW2 9966   3.876   6.453   1.989
 3023SOL     OW 9967   6.321   4.348   5.595
 3023SOL    HW1 9968   6.235   4.304   5.570
 3023SOL    HW2 9969   6.397   4.286   5.574
 3024SOL     OW 9970   6.261   2.009   6.097
 3024SOL    HW1 9971   6.238   1.963   6.011
 3024SOL    HW2 9972   6.278   1.940   6.168
 3025SOL     OW 9973   3.733   5.265   0.879
 3025SOL    HW1 9974   3.705   5.271   0.975
 3025SOL    HW2 9975   3.818   5.316   0.866
 3026SOL     OW 9976   0.072   5.482   2.705
 3026SOL    HW1 9977   0.142   5.426   2.749
 3026SOL    HW2 9978   0.054   5.563   2.760
 3027SOL     OW 9979   4.056   0.352   1.011
 3027SOL    HW1 9980   4.070   0.293   0.931
 3027SOL    HW2 9981   4.043   0.446   0.980
 3028SOL     OW 9982   3.458   3.675   3.725
 3028SOL    HW1 9983   3.377   3.638   3.680
 3028SOL    HW2 9984   3.454   3.775   3.726
 3029SOL     OW 9985   0.008   2.678   5.221
 3029SOL    HW1 9986   0.104   2.691   5.196
 3029SOL    HW2 9987   6.978   2.750   5.179
 3030SOL     OW 9988   0.320   3.730   6.167
 3030SOL    HW1 9989   0.369   3.659   6.117
 3030SOL    HW2 9990   0.265   3.688   6.239
 3031SOL     OW 9991   0.399   4.227   0.298
 3031SOL    HW1 9992   0.476   4.202   0.240
 3031SOL    HW2 9993   0.387   4.326   0.297
 3032SOL     OW 9994   3.494   0.401   3.449
 3032SOL    HW1 9995   3.519   0.368   3.540
 3032SOL    HW2 9996   3.543   0.486   3.430
 3033SOL     OW 9997   1.958   0.685   6.017
 3033SOL    HW1 9998   1.987   0.753   5.950
 3033SOL    HW2 9999   2.008   0.600   6.001
 3034SOL     OW10000   5.181   3.702   3.277
 3034SOL    HW110001   5.124   3.620   3.269
 3034SOL    HW210002   5.229   3.718   3.191
 3035SOL     OW10003   5.645   4.214   6.967
 3035SOL    HW110004   5.640   4.313   6.970
 3035SOL    HW210005   5.556   4.175   6.990
 3036SOL     OW10006   2.650   2.706   6.889
 3036SOL    HW110007   2.573   2.657   6.847
 3036SOL    HW210008   2.680   2.657   6.971
 3037SOL     OW10009   0.604   5.264   6.268
 3037SOL    HW110010   0.561   5.323   6.200
 3037SOL    HW210011   0.570   5.286   6.359
 3038SOL     OW10012   6.200   5.324   5.751
 3038SOL    HW110013   6.260   5.305   5.673
 3038SOL    HW210014   6.235   5.403   5.801
 3039SOL     OW10015   6.108   3.313   6.421
 3039SOL    HW110016   6.108   3.391   6.358
 3039SOL    HW210017   6.146   3.233   6.374
 3040SOL     OW10018   3.394   6.723   6.452
 3040SOL    HW110019   3.355   6.789   6.516
 3040SOL    HW210020   3.448   6.656   6.503
 3041SOL     OW10021   1.783   5.820   5.679
 3041SOL    HW110022   1.866   5.779   5.718
 3041SOL    HW210023   1.729   5.861   5.753
 3042SOL     OW10024   6.794   5.850   4.819
 3042SOL    HW110025   6.730   5.908   4.870
 3042SOL    HW210026   6.761   5.837   4.726
 3043SOL     OW10027   2.622   3.578   1.520
 3043SOL    HW110028   2.622   3.514   1.597
 3043SOL    HW210029   2.642   3.670   1.553
 3044SOL     OW10030   3.945   3.924   3.758
 3044SOL    HW110031   3.999   4.006   3.739
 3044SOL    HW210032   3.934   3.912   3.856
 3045SOL     OW10033   5.603   6.795   3.408
 3045SOL    HW110034   5.676   6.733   3.380
 3045SOL    HW210035   5.644   6.880   3.442
 3046SOL     OW10036   6.065   5.971   1.830
 3046SOL    HW110037   6.073   5.904   1.904
 3046SOL    HW210038   6.123   6.050   1.851
 3047SOL     OW10039   4.401   1.609   3.813
 3047SOL    HW110040   4.469   1.682   3.818
 3047SOL    HW210041   4.448   1.522   3.796
 3048SOL     OW10042   4.354   4.631   0.526
 3048SOL    HW110043   4.436   4.582   0.555
 3048SOL    HW210044   4.353   4.722   0.567
 3049SOL     OW10045   6.854   0.278   1.421
 3049SOL    HW110046   6.872   0.324   1.334
 3049SOL    HW210047   6.902   0.326   1.494
 3050SOL     OW10048   4.209   3.377   5.871
 3050SOL    HW110049   4.167   3.289   5.896
 3050SOL    HW210050   4.204   3.389   5.771
 3051SOL     OW10051   2.452   4.680   5.766
 3051SOL    HW110052   2.369   4.626   5.778
 3051SOL    HW210053   2.522   4.624   5.721
 3052SOL     OW10054   6.288   0.030   4.259
 3052SOL    HW110055   6.333   0.110   4.220
 3052SOL    HW210056   6.345   6.975   4.244
 3053SOL     OW10057   0.668   5.413   5.633
 3053SOL    HW110058   0.745   5.430   5.694
 3053SOL    HW210059   0.617   5.333   5.664
 3054SOL     OW10060   6.454   5.961   3.579
 3054SOL    HW110061   6.435   5.978   3.482
 3054SOL    HW210062   6.523   6.026   3.611
 3055SOL     OW10063   5.307   6.014   0.859
 3055SOL    HW110064   5.250   5.961   0.795
 3055SOL    HW210065   5.385   6.053   0.810
 3056SOL     OW10066   4.735   2.593   1.277
 3056SOL    HW110067   4.638   2.597   1.302
 3056SOL    HW210068   4.786   2.661   1.330
 3057SOL     OW10069   0.291   2.042   2.787
 3057SOL    HW110070   0.350   2.041   2.706
 3057SOL    HW210071   0.241   2.128   2.790
 3058SOL     OW10072   5.434   4.409   6.264
 3058SOL    HW110073   5.406   4.484   6.324
 3058SOL    HW210074   5.354   4.351   6.244
 3059SOL     OW10075   1.574   2.785   3.214
 3059SOL    HW110076   1.634   2.864   3.227
 3059SOL    HW210077   1.494   2.813   3.161
 3060SOL     OW10078   6.630   2.760   4.025
 3060SOL    HW110079   6.560   2.816   3.980
 3060SOL    HW210080   6.588   2.708   4.099
 3061SOL     OW10081   5.255   5.541   2.113
 3061SOL    HW110082   5.271   5.457   2.165
 3061SOL    HW210083   5.340   5.595   2.110
 3062SOL     OW10084   4.180   5.056   6.626
 3062SOL    HW110085   4.265   5.107   6.639
 3062SOL    HW210086   4.159   5.006   6.710
 3063SOL     OW10087   5.975   6.067   1.216
 3063SOL    HW110088   5.994   5.979   1.173
 3063SOL    HW210089   6.018   6.071   1.306
 3064SOL     OW10090   4.783   0.763   5.935
 3064SOL    HW110091   4.770   0.738   6.031
 3064SOL    HW210092   4.839   0.845   5.930
 3065SOL     OW10093   4.614   1.922   6.378
 3065SOL    HW110094   4.618   2.012   6.423
 3065SOL    HW210095   4.596   1.852   6.446
 3066SOL     OW10096   4.901   7.000   6.738
 3066SOL    HW110097   4.809   0.014   6.728
 3066SOL    HW210098   4.893   6.908   6.778
 3067SOL     OW10099   1.437   1.976   4.783
 3067SOL    HW110100   1.356   1.967   4.726
 3067SOL    HW210101   1.510   2.020   4.731
 3068SOL     OW10102   6.518   0.167   0.652
 3068SOL    HW110103   6.502   0.235   0.723
 3068SOL    HW210104   6.535   0.078   0.694
 3069SOL     OW10105   5.096   5.859   4.340
 3069SOL    HW110106   5.188   5.822   4.344
 3069SOL    HW210107   5.099   5.954   4.308
 3070SOL     OW10108   2.279   1.698   0.471
 3070SOL    HW110109   2.340   1.766   0.430
 3070SOL    HW210110   2.332   1.621   0.504
 3071SOL     OW10111   6.234   4.216   4.517
 3071SOL    HW110112   6.200   4.160   4.593
 3071SOL    HW210113   6.158   4.242   4.458
 3072SOL     OW10114   1.971   6.634   3.910
 3072SOL    HW110115   1.948   6.712   3.852
 3072SOL    HW210116   1.944   6.654   4.004
 3073SOL     OW10117   1.063   5.034   3.262
 3073SOL    HW110118   1.133   5.083   3.314
 3073SOL    HW210119   1.099   5.009   3.172
 3074SOL     OW10120   2.909   3.709   1.413
 3074SOL    HW110121   2.968   3.658   1.475
 3074SOL    HW210122   2.850   3.644   1.364
 3075SOL     OW10123   3.682   4.594   0.638
 3075SOL    HW110124   3.656   4.518   0.698
 3075SOL    HW210125   3.615   4.668   0.648
 3076SOL     OW10126   2.541   1.423   4.591
 3076SOL    HW110127   2.546   1.490   4.665
 3076SOL    HW210128   2.513   1.334   4.628
 3077SOL     OW10129   0.242   3.332   2.932
 3077SOL    HW110130   0.259   3.340   3.030
 3077SOL    HW210131   0.282   3.247   2.898
 3078SOL     OW10132   6.172   4.965   1.549
 3078SOL    HW110133   6.271   4.981   1.549
 3078SOL    HW210134   6.131   5.016   1.473
 3079SOL     OW10135   0.038   4.208   2.323
 3079SOL    HW110136   0.133   4.233   2.342
 3079SOL    HW210137   7.019   4.181   2.408
 3080SOL     OW10138   3.451   5.077   1.578
 3080SOL    HW110139   3.543   5.061   1.614
 3080SOL    HW210140   3.383   5.040   1.642
 3081SOL     OW10141   2.426   2.261   5.956
 3081SOL    HW110142   2.391   2.329   6.020
 3081SOL    HW210143   2.525   2.272   5.946
 3082SOL     OW10144   6.429   3.443   4.386
 3082SOL    HW110145   6.397   3.456   4.480
 3082SOL    HW210146   6.524   3.475   4.379
 3083SOL     OW10147   4.405   5.438   1.969
 3083SOL    HW110148   4.436   5.422   2.063
 3083SOL    HW210149   4.463   5.507   1.927
 3084SOL     OW10150   0.095   5.348   4.330
 3084SOL    HW110151   0.056   5.278   4.390
 3084SOL    HW210152   0.171   5.309   4.278
 3085SOL     OW10153   6.574   5.505   5.799
 3085SOL    HW110154   6.624   5.421   5.779
 3085SOL    HW210155   6.638   5.582   5.796
 3086SOL     OW10156   6.189   6.332   6.036
 3086SOL    HW110157   6.284   6.348   6.060
 3086SOL    HW210158   6.181   6.323   5.936
 3087SOL     OW10159   2.602   0.170   1.596
 3087SOL    HW110160   2.540   0.166   1.674
 3087SOL    HW210161   2.557   0.220   1.521
 3088SOL     OW10162   2.153   2.678   5.103
 3088SOL    HW110163   2.190   2.684   5.196
 3088SOL    HW210164   2.209   2.731   5.040
 3089SOL     OW10165   4.316   0.191   0.619
 3089SOL    HW110166   4.364   0.208   0.533
 3089SOL    HW210167   4.376   0.216   0.695
 3090SOL     OW10168   0.514   2.114   3.201
 3090SOL    HW110169   0.563   2.073   3.277
 3090SOL    HW210170   0.481   2.043   3.139
 3091SOL     OW10171   1.692   1.641   5.974
 3091SOL    HW110172   1.641   1.683   6.049
 3091SOL    HW210173   1.790   1.644   5.996
 3092SOL     OW10174   4.887   1.961   4.044
 3092SOL    HW110175   4.932   1.891   3.989
 3092SOL    HW210176   4.800   1.986   4.002
 3093SOL     OW10177   6.561   6.340   0.328
 3093SOL    HW110178   6.639   6.283   0.356
 3093SOL    HW210179   6.517   6.299   0.248
 3094SOL     OW10180   1.245   0.509   6.212
 3094SOL    HW110181   1.305   0.587   6.191
 3094SOL    HW210182   1.198   0.480   6.129
 3095SOL     OW10183   2.222   3.675   6.040
 3095SOL    HW110184   2.146   3.740   6.044
 3095SOL    HW210185   2.227   3.624   6.125
 3096SOL     OW10186   1.899   3.530   3.798
 3096SOL    HW110187   1.898   3.524   3.698
 3096SOL    HW210188   1.811   3.564   3.830
 3097SOL     OW10189   5.117   2.171   6.432
 3097SOL    HW110190   5.207   2.214   6.437
 3097SOL    HW210191   5.061   2.201   6.509
 3098SOL     OW10192   2.050   4.445   2.887
 3098SOL    HW110193   1.976   4.380   2.902
 3098SOL    HW210194   2.061   4.502   2.968
 3099SOL     OW10195   0.345   1.508   5.357
 3099SOL    HW110196   0.268   1.537   5.414
 3099SOL    HW210197   0.315   1.435   5.296
 3100SOL     OW10198   6.096   4.270   3.006
 3100SOL    HW110199   6.028   4.253   2.935
 3100SOL    HW210200   6.076   4.358   3.051
 3101SOL     OW10201   4.675   0.543   4.882
 3101SOL    HW110202   4.577   0.543   4.904
 3101SOL    HW210203   4.690   0.490   4.798
 3102SOL     OW10204   5.415   2.975   2.775
 3102SOL    HW110205   5.422   2.905   2.703
 3102SOL    HW210206   5.506   3.010   2.796
 3103SOL     OW10207   1.460   0.945   2.652
 3103SOL    HW110208   1.370   0.917   2.618
 3103SOL    HW210209   1.498   1.015   2.591
 3104SOL     OW10210   6.051   2.131   6.213
 3104SOL    HW110211   6.085   2.184   6.291
 3104SOL    HW210212   6.123   2.125   6.144
 3105SOL     OW10213   5.602   4.599   0.948
 3105SOL    HW110214   5.650   4.658   0.883
 3105SOL    HW210215   5.667   4.567   1.017
 3106SOL     OW10216   5.237   1.572   5.015
 3106SOL    HW110217   5.228   1.656   4.961
 3106SOL    HW210218   5.334   1.558   5.038
 3107SOL     OW10219   4.828   1.372   4.734
 3107SOL    HW110220   4.925   1.356   4.750
 3107SOL    HW210221   4.776   1.353   4.817
 3108SOL     OW10222   2.759   5.112   4.441
 3108SOL    HW110223   2.674   5.076   4.404
 3108SOL    HW210224   2.791   5.053   4.515
 3109SOL     OW10225   6.891   4.831   3.993
 3109SOL    HW110226   6.963   4.795   4.053
 3109SOL    HW210227   6.919   4.919   3.956
 3110SOL     OW10228   2.289   4.789   3.755
 3110SOL    HW110229   2.225   4.752   3.687
 3110SOL    HW210230   2.339   4.866   3.715
 3111SOL     OW10231   0.449   3.438   4.493
 3111SOL    HW110232   0.549   3.438   4.502
 3111SOL    HW210233   0.420   3.525   4.453
 3112SOL     OW10234   4.668   0.662   0.784
 3112SOL    HW110235   4.727   0.741   0.801
 3112SOL    HW210236   4.613   0.678   0.703
 3113SOL     OW10237   1.077   6.524   3.851
 3113SOL    HW110238   1.144   6.505   3.779
 3113SOL    HW210239   1.016   6.446   3.861
 3114SOL     OW10240   5.327   4.940   5.081
 3114SOL    HW110241   5.347   4.843   5.068
 3114SOL    HW210242   5.228   4.953   5.084
 3115SOL     OW10243   5.846   5.211   4.294
 3115SOL    HW110244   5.841   5.171   4.202
 3115SOL    HW210245   5.857   5.310   4.286
 3116SOL     OW10246   0.848   2.739   5.934
 3116SOL    HW110247   0.825   2.711   6.027
 3116SOL    HW210248   0.782   2.807   5.903
 3117SOL     OW10249   4.251   0.232   2.009
 3117SOL    HW110250   4.196   0.300   2.057
 3117SOL    HW210251   4.227   0.233   1.912
 3118SOL     OW10252   0.955   1.736   3.538
 3118SOL    HW110253   0.993   1.829   3.543
 3118SOL    HW210254   0.855   1.740   3.545
 3119SOL     OW10255   4.363   6.665   3.098
 3119SOL    HW110256   4.404   6.755   3.077
 3119SOL    HW210257   4.324   6.626   3.014
 3120SOL     OW10258   4.015   6.395   6.626
 3120SOL    HW110259   4.021   6.466   6.556
 3120SOL    HW210260   3.926   6.351   6.622
 3121SOL     OW10261   3.978   1.389   3.071
 3121SOL    HW110262   3.945   1.302   3.034
 3121SOL    HW210263   4.078   1.387   3.077
 3122SOL     OW10264   5.274   3.117   6.723
 3122SOL    HW110265   5.363   3.158   6.707
 3122SOL    HW210266   5.240   3.078   6.637
 3123SOL     OW10267   2.196   3.119   2.708
 3123SOL    HW110268   2.282   3.133   2.756
 3123SOL    HW210269   2.139   3.201   2.715
 3124SOL     OW10270   5.066   6.182   5.770
 3124SOL    HW110271   4.978   6.198   5.726
 3124SOL    HW210272   5.123   6.126   5.711
 3125SOL     OW10273   2.251   1.535   4.780
 3125SOL    HW110274   2.200   1.586   4.849
 3125SOL    HW210275   2.347   1.560   4.784
 3126SOL     OW10276   5.300   3.920   5.062
 3126SOL    HW110277   5.230   3.967   5.116
 3126SOL    HW210278   5.257   3.853   5.002
 3127SOL     OW10279   6.850   2.353   6.433
 3127SOL    HW110280   6.904   2.329   6.353
 3127SOL    HW210281   6.824   2.450   6.429
 3128SOL     OW10282   4.432   2.341   1.477
 3128SOL    HW110283   4.350   2.398   1.469
 3128SOL    HW210284   4.459   2.336   1.574
 3129SOL     OW10285   4.095   4.810   0.301
 3129SOL    HW110286   4.125   4.785   0.209
 3129SOL    HW210287   4.120   4.905   0.320
 3130SOL     OW10288   6.409   5.591   3.267
 3130SOL    HW110289   6.329   5.636   3.307
 3130SOL    HW210290   6.485   5.656   3.260
 3131SOL     OW10291   0.619   1.499   3.569
 3131SOL    HW110292   0.593   1.474   3.476
 3131SOL    HW210293   0.643   1.596   3.572
 3132SOL     OW10294   4.591   4.272   6.100
 3132SOL    HW110295   4.522   4.201   6.116
 3132SOL    HW210296   4.627   4.303   6.188
 3133SOL     OW10297   5.591   6.531   4.559
 3133SOL    HW110298   5.518   6.464   4.546
 3133SOL    HW210299   5.674   6.499   4.512
 3134SOL     OW10300   3.980   5.565   3.098
 3134SOL    HW110301   4.052   5.497   3.106
 3134SOL    HW210302   3.894   5.527   3.133
 3135SOL     OW10303   4.151   0.601   6.281
 3135SOL    HW110304   4.209   0.649   6.347
 3135SOL    HW210305   4.098   0.531   6.327
 3136SOL     OW10306   5.915   5.701   1.968
 3136SOL    HW110307   5.854   5.719   1.891
 3136SOL    HW210308   5.923   5.602   1.982
 3137SOL     OW10309   5.099   3.957   6.971
 3137SOL    HW110310   5.178   3.896   6.981
 3137SOL    HW210311   5.074   3.963   6.874
 3138SOL     OW10312   6.604   6.317   5.616
 3138SOL    HW110313   6.651   6.243   5.569
 3138SOL    HW210314   6.515   6.334   5.572
 3139SOL     OW10315   1.356   4.854   2.127
 3139SOL    HW110316   1.381   4.779   2.066
 3139SOL    HW210317   1.436   4.912   2.144
 3140SOL     OW10318   4.574   5.569   6.796
 3140SOL    HW110319   4.576   5.495   6.863
 3140SOL    HW210320   4.495   5.557   6.736
 3141SOL     OW10321   6.072   2.333   0.588
 3141SOL    HW110322   6.127   2.317   0.507
 3141SOL    HW210323   6.070   2.431   0.608
 3142SOL     OW10324   3.962   0.783   3.884
 3142SOL    HW110325   4.039   0.773   3.821
 3142SOL    HW210326   3.945   0.695   3.929
 3143SOL     OW10327   5.655   1.448   6.943
 3143SOL    HW110328   5.649   1.428   0.016
 3143SOL    HW210329   5.750   1.464   6.918
 3144SOL     OW10330   3.844   5.250   6.335
 3144SOL    HW110331   3.922   5.195   6.306
 3144SOL    HW210332   3.860   5.286   6.427
 3145SOL     OW10333   1.085   6.382   5.195
 3145SOL    HW110334   1.129   6.457   5.145
 3145SOL    HW210335   1.124   6.376   5.287
 3146SOL     OW10336   6.290   1.239   4.930
 3146SOL    HW110337   6.302   1.287   4.843
 3146SOL    HW210338   6.362   1.170   4.940
 3147SOL     OW10339   4.850   0.541   0.934
 3147SOL    HW110340   4.801   0.489   1.004
 3147SOL    HW210341   4.784   0.579   0.869
 3148SOL     OW10342   5.360   4.875   0.685
 3148SOL    HW110343   5.418   4.890   0.605
 3148SOL    HW210344   5.377   4.947   0.752
 3149SOL     OW10345   4.379   2.987   6.797
 3149SOL    HW110346   4.317   3.058   6.833
 3149SOL    HW210347   4.387   2.997   6.698
 3150SOL     OW10348   6.879   0.796   5.505
 3150SOL    HW110349   6.790   0.843   5.501
 3150SOL    HW210350   6.940   0.834   5.436
 3151SOL     OW10351   0.862   1.237   0.036
 3151SOL    HW110352   0.848   1.159   0.096
 3151SOL    HW210353   0.778   1.254   7.009
 3152SOL     OW10354   2.898   1.401   5.856
 3152SOL    HW110355   2.851   1.489   5.849
 3152SOL    HW210356   2.835   1.327   5.831
 3153SOL     OW10357   5.209   5.730   1.212
 3153SOL    HW110358   5.296   5.707   1.256
 3153SOL    HW210359   5.218   5.815   1.161
 3154SOL     OW10360   3.898   2.130   0.519
 3154SOL    HW110361   3.922   2.058   0.584
 3154SOL    HW210362   3.965   2.204   0.525
 3155SOL     OW10363   6.712   6.517   6.333
 3155SOL    HW110364   6.761   6.438   6.370
 3155SOL    HW210365   6.638   6.542   6.395
 3156SOL     OW10366   2.924   4.673   0.766
 3156SOL    HW110367   2.824   4.680   0.767
 3156SOL    HW210368   2.950   4.577   0.768
 3157SOL     OW10369   1.439   1.237   3.333
 3157SOL    HW110370   1.515   1.176   3.357
 3157SOL    HW210371   1.433   1.246   3.234
 3158SOL     OW10372   1.576   0.630   6.247
 3158SOL    HW110373   1.673   0.626   6.268
 3158SOL    HW210374   1.531   0.548   6.282
 3159SOL     OW10375   4.884   5.346   0.779
 3159SOL    HW110376   4.942   5.310   0.706
 3159SOL    HW210377   4.937   5.348   0.864
 3160SOL     OW10378   2.094   1.140   5.735
 3160SOL    HW110379   2.094   1.181   5.826
 3160SOL    HW210380   2.012   1.084   5.724
 3161SOL     OW10381   1.978   2.421   2.096
 3161SOL    HW110382   1.956   2.444   2.001
 3161SOL    HW210383   1.893   2.396   2.144
 3162SOL     OW10384   1.232   5.767   2.267
 3162SOL    HW110385   1.139   5.738   2.246
 3162SOL    HW210386   1.244   5.863   2.242
 3163SOL     OW10387   5.513   4.644   1.228
 3163SOL    HW110388   5.447   4.590   1.281
 3163SOL    HW210389   5.491   4.638   1.131
 3164SOL     OW10390   2.095   6.914   2.743
 3164SOL    HW110391   2.045   6.829   2.727
 3164SOL    HW210392   2.061   6.984   2.680
 3165SOL     OW10393   6.521   5.478   0.052
 3165SOL    HW110394   6.620   5.469   0.066
 3165SOL    HW210395   6.493   5.571   0.076
 3166SOL     OW10396   3.679   2.104   4.864
 3166SOL    HW110397   3.617   2.156   4.924
 3166SOL    HW210398   3.750   2.062   4.920
 3167SOL     OW10399   6.695   2.750   2.739
 3167SOL    HW110400   6.764   2.768   2.810
 3167SOL    HW210401   6.634   2.677   2.770
 3168SOL     OW10402   6.093   1.512   0.908
 3168SOL    HW110403   5.998   1.520   0.936
 3168SOL    HW210404   6.125   1.601   0.875
 3169SOL     OW10405   1.469   2.164   2.539
 3169SOL    HW110406   1.495   2.091   2.476
 3169SOL    HW210407   1.398   2.220   2.498
 3170SOL     OW10408   2.726   5.110   4.000
 3170SOL    HW110409   2.767   5.088   3.912
 3170SOL    HW210410   2.757   5.044   4.068
 3171SOL     OW10411   6.695   2.274   4.491
 3171SOL    HW110412   6.639   2.357   4.495
 3171SOL    HW210413   6.784   2.295   4.451
 3172SOL     OW10414   6.433   4.283   0.711
 3172SOL    HW110415   6.434   4.366   0.768
 3172SOL    HW210416   6.389   4.303   0.624
 3173SOL     OW10417   5.515   4.149   0.657
 3173SOL    HW110418   5.475   4.195   0.736
 3173SOL    HW210419   5.612   4.131   0.675
 3174SOL     OW10420   2.517   3.242   6.485
 3174SOL    HW110421   2.545   3.225   6.390
 3174SOL    HW210422   2.599   3.250   6.543
 3175SOL     OW10423   5.993   5.758   5.085
 3175SOL    HW110424   6.078   5.761   5.032
 3175SOL    HW210425   5.970   5.663   5.105
 3176SOL     OW10426   6.907   4.940   3.695
 3176SOL    HW110427   6.811   4.923   3.717
 3176SOL    HW210428   6.950   4.856   3.662
 3177SOL     OW10429   5.579   2.286   1.815
 3177SOL    HW110430   5.642   2.361   1.794
 3177SOL    HW210431   5.508   2.282   1.744
 3178SOL     OW10432   1.650   0.769   2.138
 3178SOL    HW110433   1.693   0.774   2.049
 3178SOL    HW210434   1.707   0.816   2.206
 3179SOL     OW10435   0.487   4.560   2.705
 3179SOL    HW110436   0.453   4.475   2.664
 3179SOL    HW210437   0.503   4.545   2.802
 3180SOL     OW10438   6.111   0.049   6.278
 3180SOL    HW110439   6.130   6.991   6.227
 3180SOL    HW210440   6.060   0.027   6.361
 3181SOL     OW10441   6.562   6.520   4.514
 3181SOL    HW110442   6.533   6.551   4.604
 3181SOL    HW210443   6.495   6.456   4.477
 3182SOL     OW10444   1.071   6.592   1.399
 3182SOL    HW110445   0.999   6.543   1.448
 3182SOL    HW210446   1.139   6.528   1.365
 3183SOL     OW10447   4.076   4.145   0.267
 3183SOL    HW110448   4.160   4.192   0.290
 3183SOL    HW210449   4.007   4.162   0.338
 3184SOL     OW10450   6.449   0.310   4.908
 3184SOL    HW110451   6.428   0.233   4.847
 3184SOL    HW210452   6.487   0.275   4.994
 3185SOL     OW10453   1.163   0.013   6.337
 3185SOL    HW110454   1.142   0.032   6.241
 3185SOL    HW210455   1.095   0.056   6.396
 3186SOL     OW10456   0.967   2.129   6.092
 3186SOL    HW110457   0.887   2.164   6.140
 3186SOL    HW210458   0.944   2.041   6.050
 3187SOL     OW10459   5.156   0.274   2.959
 3187SOL    HW110460   5.198   0.307   2.874
 3187SOL    HW210461   5.116   0.184   2.943
 3188SOL     OW10462   0.698   6.722   1.621
 3188SOL    HW110463   0.636   6.743   1.546
 3188SOL    HW210464   0.759   6.648   1.594
 3189SOL     OW10465   2.730   1.609   5.848
 3189SOL    HW110466   2.680   1.533   5.888
 3189SOL    HW210467   2.671   1.657   5.782
 3190SOL     OW10468   6.602   5.449   4.615
 3190SOL    HW110469   6.550   5.460   4.699
 3190SOL    HW210470   6.672   5.520   4.609
 3191SOL     OW10471   4.319   5.087   0.339
 3191SOL    HW110472   4.352   5.005   0.292
 3191SOL    HW210473   4.361   5.168   0.299
 3192SOL     OW10474   4.939   0.812   3.104
 3192SOL    HW110475   4.951   0.889   3.042
 3192SOL    HW210476   4.939   0.727   3.051
 3193SOL     OW10477   3.977   5.894   4.684
 3193SOL    HW110478   4.009   5.949   4.760
 3193SOL    HW210479   3.891   5.849   4.709
 3194SOL     OW10480   2.519   6.726   5.731
 3194SOL    HW110481   2.494   6.729   5.635
 3194SOL    HW210482   2.580   6.647   5.747
 3195SOL     OW10483   6.759   6.025   1.795
 3195SOL    HW110484   6.703   6.066   1.722
 3195SOL    HW210485   6.834   6.087   1.817
 3196SOL     OW10486   5.945   0.718   3.031
 3196SOL    HW110487   5.938   0.809   3.073
 3196SOL    HW210488   5.860   0.668   3.043
 3197SOL     OW10489   2.925   0.682   0.296
 3197SOL    HW110490   2.923   0.761   0.356
 3197SOL    HW210491   2.948   0.710   0.203
 3198SOL     OW10492   6.075   4.182   3.958
 3198SOL    HW110493   6.153   4.238   3.931
 3198SOL    HW210494   6.019   4.232   4.023
 3199SOL     OW10495   5.287   3.415   4.361
 3199SOL    HW110496   5.351   3.359   4.307
 3199SOL    HW210497   5.230   3.469   4.299
 3200SOL     OW10498   6.479   3.480   5.095
 3200SOL    HW110499   6.476   3.382   5.074
 3200SOL    HW210500   6.476   3.533   5.010
 3201SOL     OW10501   6.349   3.396   2.368
 3201SOL    HW110502   6.385   3.342   2.292
 3201SOL    HW210503   6.252   3.417   2.351
 3202SOL     OW10504   3.774   3.064   5.846
 3202SOL    HW110505   3.785   3.096   5.752
 3202SOL    HW210506   3.685   3.020   5.855
 3203SOL     OW10507   3.162   6.624   1.600
 3203SOL    HW110508   3.096   6.615   1.525
 3203SOL    HW210509   3.113   6.650   1.684
 3204SOL     OW10510   5.753   0.247   3.365
 3204SOL    HW110511   5.849   0.271   3.351
 3204SOL    HW210512   5.696   0.301   3.303
 3205SOL     OW10513   5.655   2.916   0.712
 3205SOL    HW110514   5.681   3.011   0.730
 3205SOL    HW210515   5.699   2.856   0.778
 3206SOL     OW10516   3.633   5.465   0.197
 3206SOL    HW110517   3.697   5.538   0.222
 3206SOL    HW210518   3.661   5.379   0.240
 3207SOL     OW10519   1.768   5.809   2.617
 3207SOL    HW110520   1.762   5.907   2.602
 3207SOL    HW210521   1.862   5.778   2.600
 3208SOL     OW10522   0.400   3.955   6.921
 3208SOL    HW110523   0.376   3.910   7.006
 3208SOL    HW210524   0.416   3.887   6.850
 3209SOL     OW10525   4.909   0.138   4.903
 3209SOL    HW110526   4.851   0.149   4.822
 3209SOL    HW210527   4.901   0.044   4.937
 3210SOL     OW10528   4.969   4.770   2.093
 3210SOL    HW110529   5.057   4.803   2.057
 3210SOL    HW210530   4.896   4.791   2.028
 3211SOL     OW10531   2.364   0.301   6.603
 3211SOL    HW110532   2.452   0.346   6.623
 3211SOL    HW210533   2.291   0.370   6.606
 3212SOL     OW10534   3.724   0.048   3.875
 3212SOL    HW110535   3.749   0.069   3.780
 3212SOL    HW210536   3.793   0.086   3.936
 3213SOL     OW10537   1.452   0.231   5.732
 3213SOL    HW110538   1.493   0.277   5.811
 3213SOL    HW210539   1.353   0.227   5.744
 3214SOL     OW10540   1.932   0.153   2.663
 3214SOL    HW110541   1.879   0.181   2.743
 3214SOL    HW210542   2.018   0.204   2.661
 3215SOL     OW10543   2.043   3.109   1.674
 3215SOL    HW110544   2.132   3.137   1.709
 3215SOL    HW210545   1.973   3.174   1.706
 3216SOL     OW10546   0.295   4.072   1.675
 3216SOL    HW110547   0.320   4.167   1.695
 3216SOL    HW210548   0.198   4.067   1.652
 3217SOL     OW10549   6.112   5.570   4.337
 3217SOL    HW110550   6.103   5.669   4.347
 3217SOL    HW210551   6.203   5.541   4.369
 3218SOL     OW10552   5.841   1.649   3.262
 3218SOL    HW110553   5.803   1.718   3.199
 3218SOL    HW210554   5.925   1.612   3.224
 3219SOL     OW10555   4.261   1.683   4.286
 3219SOL    HW110556   4.256   1.778   4.256
 3219SOL    HW210557   4.172   1.640   4.274
 3220SOL     OW10558   0.333   4.006   6.121
 3220SOL    HW110559   0.345   3.908   6.139
 3220SOL    HW210560   0.386   4.032   6.040
 3221SOL     OW10561   4.115   1.653   2.327
 3221SOL    HW110562   4.072   1.730   2.281
 3221SOL    HW210563   4.100   1.660   2.426
 3222SOL     OW10564   2.795   1.066   3.119
 3222SOL    HW110565   2.882   1.107   3.148
 3222SOL    HW210566   2.745   1.036   3.200
 3223SOL     OW10567   2.122   5.180   0.737
 3223SOL    HW110568   2.203   5.151   0.687
 3223SOL    HW210569   2.116   5.130   0.824
 3224SOL     OW10570   4.617   2.445   3.921
 3224SOL    HW110571   4.676   2.366   3.939
 3224SOL    HW210572   4.602   2.494   4.007
 3225SOL     OW10573   2.806   1.206   4.648
 3225SOL    HW110574   2.785   1.170   4.557
 3225SOL    HW210575   2.731   1.184   4.711
 3226SOL     OW10576   5.177   1.029   6.951
 3226SOL    HW110577   5.149   0.954   6.892
 3226SOL    HW210578   5.276   1.043   6.944
 3227SOL     OW10579   6.011   4.230   5.852
 3227SOL    HW110580   6.043   4.210   5.945
 3227SOL    HW210581   5.944   4.304   5.855
 3228SOL     OW10582   1.970   4.318   1.066
 3228SOL    HW110583   1.874   4.344   1.071
 3228SOL    HW210584   2.018   4.375   1.000
 3229SOL     OW10585   0.762   1.012   0.137
 3229SOL    HW110586   0.761   0.992   0.039
 3229SOL    HW210587   0.789   0.930   0.188
 3230SOL     OW10588   3.810   0.096   5.141
 3230SOL    HW110589   3.733   0.109   5.077
 3230SOL    HW210590   3.831   0.184   5.185
 3231SOL     OW10591   2.853   2.056   2.783
 3231SOL    HW110592   2.916   1.979   2.781
 3231SOL    HW210593   2.855   2.103   2.695
 3232SOL     OW10594   3.409   5.221   3.431
 3232SOL    HW110595   3.445   5.131   3.409
 3232SOL    HW210596   3.447   5.253   3.518
 3233SOL     OW10597   2.017   6.818   4.783
 3233SOL    HW110598   2.005   6.873   4.866
 3233SOL    HW210599   1.940   6.835   4.721
 3234SOL     OW10600   3.698   3.796   0.662
 3234SOL    HW110601   3.667   3.875   0.609
 3234SOL    HW210602   3.694   3.817   0.760
 3235SOL     OW10603   0.345   1.525   2.949
 3235SOL    HW110604   0.303   1.483   3.029
 3235SOL    HW210605   0.330   1.466   2.869
 3236SOL     OW10606   5.707   6.496   0.905
 3236SOL    HW110607   5.688   6.435   0.827
 3236SOL    HW210608   5.738   6.442   0.983
 3237SOL     OW10609   6.046   2.615   5.632
 3237SOL    HW110610   6.051   2.574   5.541
 3237SOL    HW210611   6.036   2.714   5.623
 3238SOL     OW10612   0.748   4.348   0.797
 3238SOL    HW110613   0.717   4.407   0.722
 3238SOL    HW210614   0.695   4.368   0.879
 3239SOL     OW10615   6.428   1.472   4.793
 3239SOL    HW110616   6.484   1.394   4.821
 3239SOL    HW210617   6.488   1.549   4.770
 3240SOL     OW10618   1.141   1.402   1.557
 3240SOL    HW110619   1.066   1.458   1.521
 3240SOL    HW210620   1.106   1.344   1.630
 3241SOL     OW10621   0.045   2.684   5.684
 3241SOL    HW110622   0.010   2.703   5.776
 3241SOL    HW210623   0.134   2.728   5.672
 3242SOL     OW10624   6.820   4.940   5.553
 3242SOL    HW110625   6.879   4.969   5.629
 3242SOL    HW210626   6.799   4.843   5.562
 3243SOL     OW10627   6.188   4.654   4.988
 3243SOL    HW110628   6.213   4.647   5.084
 3243SOL    HW210629   6.108   4.596   4.970
 3244SOL     OW10630   4.898   6.826   6.967
 3244SOL    HW110631   4.903   6.884   0.023
 3244SOL    HW210632   4.834   6.751   6.984
 3245SOL     OW10633   1.695   6.271   4.393
 3245SOL    HW110634   1.702   6.287   4.294
 3245SOL    HW210635   1.757   6.197   4.419
 3246SOL     OW10636   6.380   5.295   2.023
 3246SOL    HW110637   6.417   5.279   2.115
 3246SOL    HW210638   6.320   5.219   1.997
 3247SOL     OW10639   2.161   3.964   4.746
 3247SOL    HW110640   2.217   3.884   4.721
 3247SOL    HW210641   2.195   4.003   4.831
 3248SOL     OW10642   5.965   2.561   4.092
 3248SOL    HW110643   5.926   2.509   4.015
 3248SOL    HW210644   6.006   2.498   4.158
 3249SOL     OW10645   3.844   4.016   4.251
 3249SOL    HW110646   3.894   4.068   4.181
 3249SOL    HW210647   3.752   3.995   4.218
 3250SOL     OW10648   4.437   5.177   3.460
 3250SOL    HW110649   4.498   5.244   3.417
 3250SOL    HW210650   4.482   5.140   3.541
 3251SOL     OW10651   2.411   2.486   1.991
 3251SOL    HW110652   2.371   2.482   1.899
 3251SOL    HW210653   2.404   2.580   2.026
 3252SOL     OW10654   1.801   1.428   2.772
 3252SOL    HW110655   1.723   1.374   2.742
 3252SOL    HW210656   1.798   1.518   2.729
 3253SOL     OW10657   6.925   3.263   1.237
 3253SOL    HW110658   6.963   3.309   1.317
 3253SOL    HW210659   6.856   3.322   1.194
 3254SOL     OW10660   5.719   0.175   0.603
 3254SOL    HW110661   5.788   0.114   0.641
 3254SOL    HW210662   5.651   0.122   0.552
 3255SOL     OW10663   3.494   4.935   2.157
 3255SOL    HW110664   3.536   4.864   2.099
 3255SOL    HW210665   3.395   4.930   2.148
 3256SOL     OW10666   5.177   2.550   2.284
 3256SOL    HW110667   5.221   2.559   2.195
 3256SOL    HW210668   5.218   2.473   2.333
 3257SOL     OW10669   3.048   1.565   2.583
 3257SOL    HW110670   3.132   1.611   2.553
 3257SOL    HW210671   3.068   1.469   2.603
 3258SOL     OW10672   0.148   5.587   4.490
 3258SOL    HW110673   0.058   5.613   4.455
 3258SOL    HW210674   0.163   5.490   4.473
 3259SOL     OW10675   6.188   5.434   2.517
 3259SOL    HW110676   6.099   5.464   2.484
 3259SOL    HW210677   6.192   5.448   2.616
 3260SOL     OW10678   3.022   4.833   3.577
 3260SOL    HW110679   2.966   4.833   3.659
 3260SOL    HW210680   3.002   4.751   3.523
 3261SOL     OW10681   6.004   0.661   4.192
 3261SOL    HW110682   6.036   0.573   4.157
 3261SOL    HW210683   5.911   0.652   4.226
 3262SOL     OW10684   3.158   2.191   2.593
 3262SOL    HW110685   3.075   2.246   2.599
 3262SOL    HW210686   3.178   2.171   2.497
 3263SOL     OW10687   5.633   0.575   0.924
 3263SOL    HW110688   5.628   0.534   0.833
 3263SOL    HW210689   5.571   0.527   0.986
 3264SOL     OW10690   1.633   5.324   6.914
 3264SOL    HW110691   1.553   5.290   6.866
 3264SOL    HW210692   1.610   5.409   6.963
 3265SOL     OW10693   6.822   5.620   5.366
 3265SOL    HW110694   6.723   5.618   5.353
 3265SOL    HW210695   6.863   5.541   5.322
 3266SOL     OW10696   3.017   4.544   6.642
 3266SOL    HW110697   3.091   4.611   6.649
 3266SOL    HW210698   2.935   4.580   6.686
 3267SOL     OW10699   2.776   0.194   0.264
 3267SOL    HW110700   2.851   0.231   0.319
 3267SOL    HW210701   2.693   0.191   0.319
 3268SOL     OW10702   5.558   3.761   2.585
 3268SOL    HW110703   5.577   3.663   2.582
 3268SOL    HW210704   5.463   3.778   2.561
 3269SOL     OW10705   2.246   5.719   0.347
 3269SOL    HW110706   2.307   5.649   0.384
 3269SOL    HW210707   2.157   5.712   0.392
 3270SOL     OW10708   1.847   3.524   6.223
 3270SOL    HW110709   1.869   3.621   6.229
 3270SOL    HW210710   1.909   3.472   6.281
 3271SOL     OW10711   1.308   3.949   1.945
 3271SOL    HW110712   1.243   4.025   1.954
 3271SOL    HW210713   1.264   3.874   1.896
 3272SOL     OW10714   3.824   7.024   0.591
 3272SOL    HW110715   3.901   0.020   0.651
 3272SOL    HW210716   3.760   6.963   0.638
 3273SOL     OW10717   4.211   3.782   6.734
 3273SOL    HW110718   4.271   3.751   6.807
 3273SOL    HW210719   4.182   3.876   6.752
 3274SOL     OW10720   4.900   0.034   2.003
 3274SOL    HW110721   4.878   6.970   1.966
 3274SOL    HW210722   4.882   0.104   1.934
 3275SOL     OW10723   4.827   0.200   1.807
 3275SOL    HW110724   4.736   0.209   1.769
 3275SOL    HW210725   4.889   0.265   1.762
 3276SOL     OW10726   6.613   6.310   0.686
 3276SOL    HW110727   6.589   6.387   0.627
 3276SOL    HW210728   6.708   6.319   0.717
 3277SOL     OW10729   5.097   1.217   2.124
 3277SOL    HW110730   5.093   1.229   2.224
 3277SOL    HW210731   5.169   1.152   2.101
 3278SOL     OW10732   4.921   1.069   6.705
 3278SOL    HW110733   5.000   1.120   6.740
 3278SOL    HW210734   4.837   1.110   6.740
 3279SOL     OW10735   4.107   0.421   2.095
 3279SOL    HW110736   4.166   0.481   2.041
 3279SOL    HW210737   4.042   0.477   2.147
 3280SOL     OW10738   0.522   2.206   4.511
 3280SOL    HW110739   0.610   2.205   4.464
 3280SOL    HW210740   0.491   2.113   4.528
 3281SOL     OW10741   5.797   2.534   2.096
 3281SOL    HW110742   5.770   2.630   2.108
 3281SOL    HW210743   5.720   2.482   2.059
 3282SOL     OW10744   6.408   4.681   5.718
 3282SOL    HW110745   6.487   4.680   5.657
 3282SOL    HW210746   6.326   4.704   5.665
 3283SOL     OW10747   3.440   1.412   0.567
 3283SOL    HW110748   3.415   1.368   0.654
 3283SOL    HW210749   3.371   1.481   0.544
 3284SOL     OW10750   2.268   0.755   5.772
 3284SOL    HW110751   2.354   0.762   5.822
 3284SOL    HW210752   2.283   0.706   5.686
 3285SOL     OW10753   4.249   1.637   4.741
 3285SOL    HW110754   4.232   1.560   4.680
 3285SOL    HW210755   4.290   1.712   4.690
 3286SOL     OW10756   1.684   4.040   3.201
 3286SOL    HW110757   1.586   4.018   3.203
 3286SOL    HW210758   1.716   4.040   3.106
 3287SOL     OW10759   3.150   1.569   0.782
 3287SOL    HW110760   3.196   1.624   0.714
 3287SOL    HW210761   3.169   1.606   0.873
 3288SOL     OW10762   2.866   5.293   0.988
 3288SOL    HW110763   2.927   5.228   1.032
 3288SOL    HW210764   2.771   5.261   0.994
 3289SOL     OW10765   5.370   6.839   0.149
 3289SOL    HW110766   5.433   6.834   0.071
 3289SOL    HW210767   5.389   6.922   0.202
 3290SOL     OW10768   0.779   3.965   0.236
 3290SOL    HW110769   0.770   3.920   0.147
 3290SOL    HW210770   0.874   3.959   0.267
 3291SOL     OW10771   5.217   6.988   5.748
 3291SOL    HW110772   5.156   7.010   5.673
 3291SOL    HW210773   5.164   6.965   5.830
 3292SOL     OW10774   0.412   2.762   0.548
 3292SOL    HW110775   0.343   2.832   0.564
 3292SOL    HW210776   0.484   2.797   0.488
 3293SOL     OW10777   0.050   4.715   1.718
 3293SOL    HW110778   7.002   4.697   1.652
 3293SOL    HW210779   0.132   4.664   1.691
 3294SOL     OW10780   4.071   2.912   5.537
 3294SOL    HW110781   4.125   2.981   5.489
 3294SOL    HW210782   4.053   2.835   5.476
 3295SOL     OW10783   2.164   3.724   3.315
 3295SOL    HW110784   2.106   3.661   3.366
 3295SOL    HW210785   2.183   3.805   3.370
 3296SOL     OW10786   2.293   0.739   0.312
 3296SOL    HW110787   2.387   0.771   0.307
 3296SOL    HW210788   2.237   0.791   0.247
 3297SOL     OW10789   3.050   0.840   5.811
 3297SOL    HW110790   3.026   0.789   5.728
 3297SOL    HW210791   3.149   0.838   5.823
 3298SOL     OW10792   3.782   3.980   6.363
 3298SOL    HW110793   3.717   4.008   6.292
 3298SOL    HW210794   3.841   4.057   6.386
 3299SOL     OW10795   2.479   6.827   3.942
 3299SOL    HW110796   2.421   6.867   3.871
 3299SOL    HW210797   2.573   6.858   3.930
 3300SOL     OW10798   2.009   1.267   2.851
 3300SOL    HW110799   1.924   1.319   2.842
 3300SOL    HW210800   2.054   1.291   2.937
 3301SOL     OW10801   1.201   0.626   1.772
 3301SOL    HW110802   1.110   0.609   1.735
 3301SOL    HW210803   1.264   0.555   1.740
 3302SOL     OW10804   2.013   5.485   4.742
 3302SOL    HW110805   1.996   5.405   4.685
 3302SOL    HW210806   1.957   5.561   4.709
 3303SOL     OW10807   4.332   4.205   0.366
 3303SOL    HW110808   4.325   4.264   0.446
 3303SOL    HW210809   4.405   4.238   0.306
 3304SOL     OW10810   2.672   3.857   0.756
 3304SOL    HW110811   2.685   3.822   0.848
 3304SOL    HW210812   2.698   3.953   0.753
 3305SOL     OW10813   3.360   2.658   6.944
 3305SOL    HW110814   3.326   2.751   6.949
 3305SOL    HW210815   3.292   2.599   6.900
 3306SOL     OW10816   2.774   0.466   0.565
 3306SOL    HW110817   2.740   0.387   0.616
 3306SOL    HW210818   2.867   0.447   0.533
 3307SOL     OW10819   2.006   5.639   5.169
 3307SOL    HW110820   2.038   5.569   5.105
 3307SOL    HW210821   1.916   5.672   5.140
 3308SOL     OW10822   5.211   4.844   1.686
 3308SOL    HW110823   5.252   4.753   1.683
 3308SOL    HW210824   5.120   4.841   1.644
 3309SOL     OW10825   5.840   3.125   4.054
 3309SOL    HW110826   5.745   3.094   4.058
 3309SOL    HW210827   5.900   3.045   4.045
 3310SOL     OW10828   6.076   4.363   6.994
 3310SOL    HW110829   6.168   4.327   7.007
 3310SOL    HW210830   6.028   4.363   0.057
 3311SOL     OW10831   0.897   2.958   1.102
 3311SOL    HW110832   0.906   2.917   1.012
 3311SOL    HW210833   0.886   3.057   1.093
 3312SOL     OW10834   5.350   3.920   0.120
 3312SOL    HW110835   5.304   3.885   0.202
 3312SOL    HW210836   5.347   3.850   0.048
 3313SOL     OW10837   0.621   6.098   4.102
 3313SOL    HW110838   0.527   6.111   4.135
 3313SOL    HW210839   0.685   6.108   4.178
 3314SOL     OW10840   3.489   6.171   3.398
 3314SOL    HW110841   3.410   6.110   3.399
 3314SOL    HW210842   3.520   6.186   3.492
 3315SOL     OW10843   0.760   6.515   3.962
 3315SOL    HW110844   0.776   6.417   3.953
 3315SOL    HW210845   0.822   6.553   4.031
 3316SOL     OW10846   3.822   1.892   0.624
 3316SOL    HW110847   3.854   1.863   0.534
 3316SOL    HW210848   3.852   1.827   0.694
 3317SOL     OW10849   5.713   2.597   1.372
 3317SOL    HW110850   5.700   2.498   1.384
 3317SOL    HW210851   5.800   2.614   1.327
 3318SOL     OW10852   4.184   2.850   0.610
 3318SOL    HW110853   4.090   2.881   0.594
 3318SOL    HW210854   4.211   2.873   0.703
 3319SOL     OW10855   6.559   6.612   3.887
 3319SOL    HW110856   6.472   6.655   3.911
 3319SOL    HW210857   6.551   6.513   3.897
 3320SOL     OW10858   6.360   0.674   3.066
 3320SOL    HW110859   6.320   0.698   3.155
 3320SOL    HW210860   6.333   0.743   2.999
 3321SOL     OW10861   4.604   1.705   6.564
 3321SOL    HW110862   4.685   1.724   6.619
 3321SOL    HW210863   4.617   1.620   6.514
 3322SOL     OW10864   5.732   3.530   1.850
 3322SOL    HW110865   5.772   3.606   1.902
 3322SOL    HW210866   5.805   3.481   1.802
 3323SOL     OW10867   0.176   0.552   2.240
 3323SOL    HW110868   0.212   0.620   2.177
 3323SOL    HW210869   0.219   0.463   2.222
 3324SOL     OW10870   6.255   5.815   6.408
 3324SOL    HW110871   6.320   5.749   6.447
 3324SOL    HW210872   6.165   5.773   6.401
 3325SOL     OW10873   2.362   5.702   6.491
 3325SOL    HW110874   2.291   5.633   6.506
 3325SOL    HW210875   2.348   5.744   6.401
 3326SOL     OW10876   3.854   1.371   1.402
 3326SOL    HW110877   3.941   1.388   1.446
 3326SOL    HW210878   3.781   1.416   1.453
 3327SOL     OW10879   1.715   6.291   5.887
 3327SOL    HW110880   1.693   6.375   5.838
 3327SOL    HW210881   1.644   6.272   5.954
 3328SOL     OW10882   4.217   2.635   5.575
 3328SOL    HW110883   4.249   2.713   5.628
 3328SOL    HW210884   4.131   2.658   5.529
 3329SOL     OW10885   0.302   6.622   5.592
 3329SOL    HW110886   0.382   6.563   5.582
 3329SOL    HW210887   0.292   6.678   5.510
 3330SOL     OW10888   6.793   3.042   3.438
 3330SOL    HW110889   6.807   3.099   3.357
 3330SOL    HW210890   6.876   3.042   3.494
 3331SOL     OW10891   2.040   3.490   0.579
 3331SOL    HW110892   2.067   3.404   0.621
 3331SOL    HW210893   2.071   3.566   0.636
 3332SOL     OW10894   6.780   4.059   1.816
 3332SOL    HW110895   6.865   4.111   1.817
 3332SOL    HW210896   6.702   4.122   1.821
 3333SOL     OW10897   2.985   6.231   5.176
 3333SOL    HW110898   3.001   6.279   5.263
 3333SOL    HW210899   2.889   6.239   5.151
 3334SOL     OW10900   1.616   2.640   1.094
 3334SOL    HW110901   1.518   2.652   1.082
 3334SOL    HW210902   1.639   2.643   1.191
 3335SOL     OW10903   5.613   4.231   5.270
 3335SOL    HW110904   5.583   4.175   5.193
 3335SOL    HW210905   5.630   4.324   5.238
 3336SOL     OW10906   3.365   6.284   5.533
 3336SOL    HW110907   3.311   6.241   5.460
 3336SOL    HW210908   3.414   6.214   5.584
 3337SOL     OW10909   3.896   0.988   1.021
 3337SOL    HW110910   3.906   1.061   1.090
 3337SOL    HW210911   3.805   0.993   0.981
 3338SOL     OW10912   6.317   5.890   0.285
 3338SOL    HW110913   6.348   5.831   0.211
 3338SOL    HW210914   6.272   5.834   0.355
 3339SOL     OW10915   0.476   5.041   0.011
 3339SOL    HW110916   0.420   5.108   6.988
 3339SOL    HW210917   0.514   5.083   0.094
 3340SOL     OW10918   4.230   1.053   1.728
 3340SOL    HW110919   4.228   0.959   1.761
 3340SOL    HW210920   4.147   1.072   1.676
 3341SOL     OW10921   1.419   0.077   6.417
 3341SOL    HW110922   1.437   0.174   6.408
 3341SOL    HW210923   1.329   0.055   6.378
 3342SOL     OW10924   1.314   7.006   5.145
 3342SOL    HW110925   1.349   6.921   5.105
 3342SOL    HW210926   1.247   6.984   5.216
 3343SOL     OW10927   0.399   2.153   1.065
 3343SOL    HW110928   0.425   2.141   0.969
 3343SOL    HW210929   0.469   2.207   1.112
 3344SOL     OW10930   1.427   2.119   6.846
 3344SOL    HW110931   1.385   2.182   6.912
 3344SOL    HW210932   1.459   2.037   6.893
 3345SOL     OW10933   3.202   2.984   6.734
 3345SOL    HW110934   3.107   2.970   6.707
 3345SOL    HW210935   3.244   3.054   6.676
 3346SOL     OW10936   2.918   5.665   2.969
 3346SOL    HW110937   2.854   5.636   2.898
 3346SOL    HW210938   2.993   5.599   2.976
 3347SOL     OW10939   5.823   4.030   3.539
 3347SOL    HW110940   5.787   4.108   3.590
 3347SOL    HW210941   5.855   3.960   3.603
 3348SOL     OW10942   3.998   3.718   3.399
 3348SOL    HW110943   3.976   3.815   3.410
 3348SOL    HW210944   3.993   3.693   3.303
 3349SOL     OW10945   5.425   2.594   0.808
 3349SOL    HW110946   5.440   2.535   0.888
 3349SOL    HW210947   5.500   2.581   0.743
 3350SOL     OW10948   2.403   2.723   1.591
 3350SOL    HW110949   2.492   2.768   1.595
 3350SOL    HW210950   2.352   2.757   1.512
 3351SOL     OW10951   6.258   3.071   1.164
 3351SOL    HW110952   6.356   3.088   1.164
 3351SOL    HW210953   6.231   3.027   1.250
 3352SOL     OW10954   0.272   4.185   0.933
 3352SOL    HW110955   0.305   4.264   0.983
 3352SOL    HW210956   0.175   4.171   0.952
 3353SOL     OW10957   1.105   6.200   6.322
 3353SOL    HW110958   1.168   6.223   6.248
 3353SOL    HW210959   1.053   6.282   6.347
 3354SOL     OW10960   0.151   6.399   2.239
 3354SOL    HW110961   0.090   6.472   2.206
 3354SOL    HW210962   0.147   6.395   2.338
 3355SOL     OW10963   5.673   1.354   2.880
 3355SOL    HW110964   5.663   1.319   2.973
 3355SOL    HW210965   5.649   1.451   2.878
 3356SOL     OW10966   1.451   3.871   6.698
 3356SOL    HW110967   1.489   3.827   6.616
 3356SOL    HW210968   1.353   3.855   6.701
 3357SOL     OW10969   2.716   6.125   2.839
 3357SOL    HW110970   2.648   6.054   2.823
 3357SOL    HW210971   2.766   6.105   2.923
 3358SOL     OW10972   0.383   3.576   3.433
 3358SOL    HW110973   0.410   3.501   3.494
 3358SOL    HW210974   0.424   3.562   3.343
 3359SOL     OW10975   2.762   1.941   1.703
 3359SOL    HW110976   2.747   2.038   1.721
 3359SOL    HW210977   2.858   1.918   1.718
 3360SOL     OW10978   2.286   1.094   6.119
 3360SOL    HW110979   2.331   1.029   6.180
 3360SOL    HW210980   2.340   1.103   6.035
 3361SOL     OW10981   2.405   1.209   2.778
 3361SOL    HW110982   2.403   1.151   2.859
 3361SOL    HW210983   2.351   1.292   2.795
 3362SOL     OW10984   3.195   2.146   4.188
 3362SOL    HW110985   3.233   2.191   4.108
 3362SOL    HW210986   3.174   2.050   4.167
 3363SOL     OW10987   6.784   0.639   0.105
 3363SOL    HW110988   6.728   0.570   0.152
 3363SOL    HW210989   6.735   0.726   0.104
 3364SOL     OW10990   1.495   5.315   4.976
 3364SOL    HW110991   1.467   5.393   5.032
 3364SOL    HW210992   1.481   5.231   5.029
 3365SOL     OW10993   6.309   2.252   5.123
 3365SOL    HW110994   6.339   2.296   5.208
 3365SOL    HW210995   6.274   2.160   5.144
 3366SOL     OW10996   4.645   1.209   0.285
 3366SOL    HW110997   4.615   1.286   0.229
 3366SOL    HW210998   4.736   1.227   0.322
 3367SOL     OW10999   1.628   6.776   2.134
 3367SOL    HW111000   1.695   6.704   2.153
 3367SOL    HW211001   1.661   6.863   2.169
 3368SOL     OW11002   6.054   1.275   4.735
 3368SOL    HW111003   5.992   1.197   4.728
 3368SOL    HW211004   6.098   1.274   4.825
 3369SOL     OW11005   3.806   5.301   6.628
 3369SOL    HW111006   3.793   5.399   6.648
 3369SOL    HW211007   3.804   5.249   6.713
 3370SOL     OW11008   5.871   0.971   5.768
 3370SOL    HW111009   5.834   0.881   5.745
 3370SOL    HW211010   5.796   1.035   5.785
 3371SOL     OW11011   6.453   5.031   1.596
 3371SOL    HW111012   6.521   4.959   1.581
 3371SOL    HW211013   6.483   5.091   1.670
 3372SOL     OW11014   1.700   2.951   2.624
 3372SOL    HW111015   1.684   3.024   2.690
 3372SOL    HW211016   1.683   2.863   2.666
 3373SOL     OW11017   1.194   2.711   6.146
 3373SOL    HW111018   1.266   2.685   6.081
 3373SOL    HW211019   1.153   2.797   6.116
 3374SOL     OW11020   3.385   6.021   5.155
 3374SOL    HW111021   3.293   6.014   5.116
 3374SOL    HW211022   3.402   6.116   5.183
 3375SOL     OW11023   3.176   4.170   5.104
 3375SOL    HW111024   3.080   4.141   5.102
 3375SOL    HW211025   3.214   4.166   5.012
 3376SOL     OW11026   3.648   2.926   1.199
 3376SOL    HW111027   3.585   3.004   1.199
 3376SOL    HW211028   3.657   2.889   1.106
 3377SOL     OW11029   2.661   5.142   6.148
 3377SOL    HW111030   2.592   5.073   6.169
 3377SOL    HW211031   2.717   5.158   6.229
 3378SOL     OW11032   6.618   1.585   0.533
 3378SOL    HW111033   6.608   1.587   0.633
 3378SOL    HW211034   6.646   1.675   0.501
 3379SOL     OW11035   6.327   5.487   5.406
 3379SOL    HW111036   6.335   5.414   5.473
 3379SOL    HW211037   6.269   5.457   5.330
 3380SOL     OW11038   0.750   4.115   4.984
 3380SOL    HW111039   0.664   4.098   5.032
 3380SOL    HW211040   0.819   4.050   5.016
 3381SOL     OW11041   3.118   2.118   1.198
 3381SOL    HW111042   3.099   2.039   1.255
 3381SOL    HW211043   3.200   2.100   1.142
 3382SOL     OW11044   6.721   6.447   0.025
 3382SOL    HW111045   6.778   6.467   0.105
 3382SOL    HW211046   6.698   6.350   0.023
 3383SOL     OW11047   0.614   4.165   1.841
 3383SOL    HW111048   0.672   4.112   1.779
 3383SOL    HW211049   0.563   4.104   1.901
 3384SOL     OW11050   3.219   3.553   3.298
 3384SOL    HW111051   3.284   3.623   3.269
 3384SOL    HW211052   3.227   3.473   3.238
 3385SOL     OW11053   0.007   4.111   3.501
 3385SOL    HW111054   0.074   4.182   3.522
 3385SOL    HW211055   6.957   4.116   3.567
 3386SOL     OW11056   5.736   4.466   3.784
 3386SOL    HW111057   5.705   4.560   3.768
 3386SOL    HW211058   5.670   4.402   3.745
 3387SOL     OW11059   3.538   1.627   2.246
 3387SOL    HW111060   3.549   1.539   2.201
 3387SOL    HW211061   3.529   1.699   2.178
 3388SOL     OW11062   5.901   1.282   0.952
 3388SOL    HW111063   5.998   1.288   0.976
 3388SOL    HW211064   5.874   1.185   0.948
 3389SOL     OW11065   3.971   5.291   2.055
 3389SOL    HW111066   4.037   5.363   2.074
 3389SOL    HW211067   3.879   5.321   2.081
 3390SOL     OW11068   4.015   1.946   5.724
 3390SOL    HW111069   4.070   1.956   5.806
 3390SOL    HW211070   4.049   1.869   5.670
 3391SOL     OW11071   3.181   1.363   4.256
 3391SOL    HW111072   3.237   1.446   4.263
 3391SOL    HW211073   3.146   1.339   4.346
 3392SOL     OW11074   5.766   6.110   4.150
 3392SOL    HW111075   5.754   6.207   4.132
 3392SOL    HW211076   5.762   6.093   4.248
 3393SOL     OW11077   0.176   0.385   5.925
 3393SOL    HW111078   0.098   0.396   5.986
 3393SOL    HW211079   0.218   0.474   5.907
 3394SOL     OW11080   5.178   1.472   2.017
 3394SOL    HW111081   5.126   1.404   2.069
 3394SOL    HW211082   5.185   1.442   1.922
 3395SOL     OW11083   1.734   3.605   5.268
 3395SOL    HW111084   1.682   3.690   5.259
 3395SOL    HW211085   1.826   3.618   5.230
 3396SOL     OW11086   6.118   3.736   3.990
 3396SOL    HW111087   6.101   3.640   4.012
 3396SOL    HW211088   6.032   3.787   3.996
 3397SOL     OW11089   3.089   5.924   6.324
 3397SOL    HW111090   3.188   5.938   6.317
 3397SOL    HW211091   3.051   5.908   6.233
 3398SOL     OW11092   0.614   1.804   4.243
 3398SOL    HW111093   0.528   1.780   4.289
 3398SOL    HW211094   0.599   1.882   4.183
 3399SOL     OW11095   3.777   5.704   4.514
 3399SOL    HW111096   3.745   5.798   4.524
 3399SOL    HW211097   3.698   5.644   4.497
 3400SOL     OW11098   5.316   1.645   0.426
 3400SOL    HW111099   5.337   1.624   0.521
 3400SOL    HW211100   5.352   1.736   0.403
 3401SOL     OW11101   6.649   4.852   0.082
 3401SOL    HW111102   6.658   4.821   0.176
 3401SOL    HW211103   6.620   4.775   0.025
 3402SOL     OW11104   4.028   4.847   1.831
 3402SOL    HW111105   3.980   4.928   1.865
 3402SOL    HW211106   3.962   4.779   1.799
 3403SOL     OW11107   3.738   1.725   6.374
 3403SOL    HW111108   3.653   1.739   6.424
 3403SOL    HW211109   3.744   1.630   6.344
 3404SOL     OW11110   4.050   5.788   2.015
 3404SOL    HW111111   4.033   5.827   1.925
 3404SOL    HW211112   4.039   5.858   2.085
 3405SOL     OW11113   6.093   4.024   0.379
 3405SOL    HW111114   6.085   4.090   0.454
 3405SOL    HW211115   6.057   4.065   0.295
 3406SOL     OW11116   0.958   3.102   1.675
 3406SOL    HW111117   0.916   3.114   1.765
 3406SOL    HW211118   0.895   3.053   1.615
 3407SOL     OW11119   0.929   5.679   2.294
 3407SOL    HW111120   0.919   5.711   2.388
 3407SOL    HW211121   0.882   5.742   2.232
 3408SOL     OW11122   5.295   3.517   2.159
 3408SOL    HW111123   5.290   3.585   2.086
 3408SOL    HW211124   5.383   3.524   2.206
 3409SOL     OW11125   2.927   1.679   0.121
 3409SOL    HW111126   2.971   1.721   0.201
 3409SOL    HW211127   2.951   1.582   0.117
 3410SOL     OW11128   0.508   1.402   0.220
 3410SOL    HW111129   0.595   1.450   0.221
 3410SOL    HW211130   0.447   1.445   0.153
 3411SOL     OW11131   4.894   1.942   2.721
 3411SOL    HW111132   4.815   1.884   2.743
 3411SOL    HW211133   4.963   1.887   2.673
 3412SOL     OW11134   4.374   4.938   6.826
 3412SOL    HW111135   4.427   4.985   6.755
 3412SOL    HW211136   4.371   4.996   6.908
 3413SOL     OW11137   4.871   0.923   2.639
 3413SOL    HW111138   4.924   0.841   2.661
 3413SOL    HW211139   4.844   0.969   2.724
 3414SOL     OW11140   4.167   0.680   5.508
 3414SOL    HW111141   4.211   0.746   5.448
 3414SOL    HW211142   4.231   0.655   5.582
 3415SOL     OW11143   1.604   6.156   5.677
 3415SOL    HW111144   1.615   6.214   5.596
 3415SOL    HW211145   1.652   6.196   5.754
 3416SOL     OW11146   1.510   4.781   5.374
 3416SOL    HW111147   1.569   4.822   5.443
 3416SOL    HW211148   1.548   4.799   5.283
 3417SOL     OW11149   5.582   1.138   1.096
 3417SOL    HW111150   5.518   1.138   1.174
 3417SOL    HW211151   5.587   1.230   1.058
 3418SOL     OW11152   2.664   2.540   5.204
 3418SOL    HW111153   2.656   2.441   5.213
 3418SOL    HW211154   2.590   2.584   5.255
 3419SOL     OW11155   4.667   3.421   6.214
 3419SOL    HW111156   4.580   3.396   6.256
 3419SOL    HW211157   4.655   3.506   6.163
 3420SOL     OW11158   3.060   0.615   5.058
 3420SOL    HW111159   2.992   0.672   5.103
 3420SOL    HW211160   3.140   0.671   5.035
 3421SOL     OW11161   0.886   6.454   3.082
 3421SOL    HW111162   0.965   6.512   3.101
 3421SOL    HW211163   0.886   6.375   3.143
 3422SOL     OW11164   3.531   2.077   2.906
 3422SOL    HW111165   3.497   2.031   2.988
 3422SOL    HW211166   3.454   2.123   2.861
 3423SOL     OW11167   3.553   0.951   1.702
 3423SOL    HW111168   3.458   0.966   1.732
 3423SOL    HW211169   3.596   1.040   1.686
 3424SOL     OW11170   4.629   2.028   0.759
 3424SOL    HW111171   4.602   2.014   0.854
 3424SOL    HW211172   4.716   1.981   0.741
 3425SOL     OW11173   4.057   3.667   1.337
 3425SOL    HW111174   4.081   3.585   1.389
 3425SOL    HW211175   4.122   3.679   1.262
 3426SOL     OW11176   5.072   3.929   0.822
 3426SOL    HW111177   5.082   3.894   0.729
 3426SOL    HW211178   5.159   3.965   0.854
 3427SOL     OW11179   0.964   1.976   0.642
 3427SOL    HW111180   0.974   1.978   0.542
 3427SOL    HW211181   0.891   1.912   0.667
 3428SOL     OW11182   4.566   4.704   3.316
 3428SOL    HW111183   4.611   4.702   3.226
 3428SOL    HW211184   4.532   4.796   3.334
 3429SOL     OW11185   0.282   3.013   0.529
 3429SOL    HW111186   0.258   3.109   0.542
 3429SOL    HW211187   0.216   2.970   0.468
 3430SOL     OW11188   0.559   5.388   0.252
 3430SOL    HW111189   0.621   5.439   0.311
 3430SOL    HW211190   0.541   5.298   0.292
 3431SOL     OW11191   1.108   5.989   6.506
 3431SOL    HW111192   1.113   6.065   6.441
 3431SOL    HW211193   1.149   6.016   6.593
 3432SOL     OW11194   3.647   2.239   6.232
 3432SOL    HW111195   3.571   2.183   6.264
 3432SOL    HW211196   3.733   2.199   6.261
 3433SOL     OW11197   3.862   1.349   4.786
 3433SOL    HW111198   3.828   1.427   4.734
 3433SOL    HW211199   3.902   1.282   4.724
 3434SOL     OW11200   4.324   1.368   3.532
 3434SOL    HW111201   4.333   1.284   3.479
 3434SOL    HW211202   4.229   1.379   3.562
 3435SOL     OW11203   0.036   1.041   6.478
 3435SOL    HW111204   7.009   1.076   6.555
 3435SOL    HW211205   0.070   0.949   6.499
 3436SOL     OW11206   3.772   6.729   1.812
 3436SOL    HW111207   3.857   6.676   1.816
 3436SOL    HW211208   3.694   6.670   1.831
 3437SOL     OW11209   4.080   0.351   6.967
 3437SOL    HW111210   4.028   0.363   6.883
 3437SOL    HW211211   4.018   0.352   0.020
 3438SOL     OW11212   0.685   5.486   6.487
 3438SOL    HW111213   0.680   5.553   6.413
 3438SOL    HW211214   0.739   5.407   6.458
 3439SOL     OW11215   2.803   0.661   3.844
 3439SOL    HW111216   2.739   0.726   3.886
 3439SOL    HW211217   2.753   0.597   3.786
 3440SOL     OW11218   3.631   2.097   0.554
 3440SOL    HW111219   3.581   2.171   0.509
 3440SOL    HW211220   3.729   2.118   0.553
 3441SOL     OW11221   4.578   0.075   4.377
 3441SOL    HW111222   4.491   0.055   4.331
 3441SOL    HW211223   4.569   0.058   4.475
 3442SOL     OW11224   0.961   5.445   3.226
 3442SOL    HW111225   1.037   5.491   3.180
 3442SOL    HW211226   0.918   5.509   3.290
 3443SOL     OW11227   6.073   6.517   3.984
 3443SOL    HW111228   6.085   6.507   3.885
 3443SOL    HW211229   6.091   6.430   4.029
 3444SOL     OW11230   3.375   5.308   6.723
 3444SOL    HW111231   3.283   5.308   6.764
 3444SOL    HW211232   3.419   5.396   6.740
 3445SOL     OW11233   6.365   5.073   5.408
 3445SOL    HW111234   6.387   5.057   5.312
 3445SOL    HW211235   6.328   4.989   5.448
 3446SOL     OW11236   2.315   5.861   1.799
 3446SOL    HW111237   2.318   5.925   1.722
 3446SOL    HW211238   2.373   5.895   1.873
 3447SOL     OW11239   6.006   4.130   5.154
 3447SOL    HW111240   5.962   4.075   5.225
 3447SOL    HW211241   6.104   4.111   5.153
 3448SOL     OW11242   3.998   3.099   0.295
 3448SOL    HW111243   3.955   3.049   0.220
 3448SOL    HW211244   3.927   3.140   0.353
 3449SOL     OW11245   5.870   5.823   3.069
 3449SOL    HW111246   5.970   5.829   3.079
 3449SOL    HW211247   5.830   5.796   3.156
 3450SOL     OW11248   0.812   1.506   0.815
 3450SOL    HW111249   0.817   1.412   0.783
 3450SOL    HW211250   0.738   1.516   0.880
 3451SOL     OW11251   1.895   5.358   4.358
 3451SOL    HW111252   1.976   5.314   4.396
 3451SOL    HW211253   1.861   5.305   4.280
 3452SOL     OW11254   6.517   2.090   0.395
 3452SOL    HW111255   6.525   2.130   0.487
 3452SOL    HW211256   6.598   2.035   0.376
 3453SOL     OW11257   6.034   5.292   4.946
 3453SOL    HW111258   6.023   5.219   4.879
 3453SOL    HW211259   5.944   5.319   4.980
 3454SOL     OW11260   0.007   1.451   0.307
 3454SOL    HW111261   0.093   1.406   0.282
 3454SOL    HW211262   0.024   1.519   0.379
 3455SOL     OW11263   1.280   2.744   3.402
 3455SOL    HW111264   1.249   2.800   3.480
 3455SOL    HW211265   1.358   2.788   3.359
 3456SOL     OW11266   6.404   0.436   0.119
 3456SOL    HW111267   6.353   0.387   0.190
 3456SOL    HW211268   6.352   0.517   0.091
 3457SOL     OW11269   1.843   6.296   3.420
 3457SOL    HW111270   1.813   6.383   3.458
 3457SOL    HW211271   1.835   6.298   3.320
 3458SOL     OW11272   4.719   4.939   0.224
 3458SOL    HW111273   4.652   4.886   0.276
 3458SOL    HW211274   4.708   4.919   0.127
 3459SOL     OW11275   6.394   7.016   3.327
 3459SOL    HW111276   6.424   6.921   3.336
 3459SOL    HW211277   6.398   0.035   3.417
 3460SOL     OW11278   5.004   2.772   0.567
 3460SOL    HW111279   5.035   2.793   0.474
 3460SOL    HW211280   4.907   2.794   0.575
 3461SOL     OW11281   2.163   5.940   3.012
 3461SOL    HW111282   2.122   5.855   2.977
 3461SOL    HW211283   2.133   6.016   2.955
 3462SOL     OW11284   5.039   2.363   2.949
 3462SOL    HW111285   5.073   2.335   3.038
 3462SOL    HW211286   5.014   2.460   2.951
 3463SOL     OW11287   0.871   2.716   1.240
 3463SOL    HW111288   0.858   2.645   1.171
 3463SOL    HW211289   0.897   2.801   1.196
 3464SOL     OW11290   5.224   1.346   6.442
 3464SOL    HW111291   5.273   1.399   6.373
 3464SOL    HW211292   5.143   1.396   6.472
 3465SOL     OW11293   2.189   4.548   1.468
 3465SOL    HW111294   2.162   4.452   1.471
 3465SOL    HW211295   2.211   4.579   1.561
 3466SOL     OW11296   6.702   3.555   4.435
 3466SOL    HW111297   6.678   3.615   4.359
 3466SOL    HW211298   6.785   3.505   4.413
 3467SOL     OW11299   3.360   3.729   0.407
 3467SOL    HW111300   3.444   3.688   0.443
 3467SOL    HW211301   3.325   3.796   0.472
 3468SOL     OW11302   4.319   1.652   1.495
 3468SOL    HW111303   4.319   1.577   1.429
 3468SOL    HW211304   4.400   1.645   1.553
 3469SOL     OW11305   3.663   5.807   5.287
 3469SOL    HW111306   3.730   5.881   5.280
 3469SOL    HW211307   3.582   5.830   5.233
 3470SOL     OW11308   1.064   2.648   0.679
 3470SOL    HW111309   0.985   2.614   0.731
 3470SOL    HW211310   1.074   2.746   0.693
 3471SOL     OW11311   4.943   3.077   5.043
 3471SOL    HW111312   5.041   3.090   5.058
 3471SOL    HW211313   4.924   3.069   4.946
 3472SOL     OW11314   4.783   1.777   2.221
 3472SOL    HW111315   4.748   1.870   2.213
 3472SOL    HW211316   4.842   1.757   2.143
 3473SOL     OW11317   6.209   4.528   1.936
 3473SOL    HW111318   6.184   4.447   1.884
 3473SOL    HW211319   6.251   4.596   1.875
 3474SOL     OW11320   4.766   4.136   3.552
 3474SOL    HW111321   4.865   4.126   3.546
 3474SOL    HW211322   4.733   4.192   3.476
 3475SOL     OW11323   6.703   3.967   4.303
 3475SOL    HW111324   6.717   3.976   4.401
 3475SOL    HW211325   6.645   3.888   4.284
 3476SOL     OW11326   1.493   3.148   3.228
 3476SOL    HW111327   1.487   3.091   3.146
 3476SOL    HW211328   1.557   3.223   3.211
 3477SOL     OW11329   1.439   4.039   2.184
 3477SOL    HW111330   1.514   3.986   2.223
 3477SOL    HW211331   1.410   3.996   2.098
 3478SOL     OW11332   2.655   0.924   1.051
 3478SOL    HW111333   2.685   0.936   0.957
 3478SOL    HW211334   2.694   0.839   1.088
 3479SOL     OW11335   1.038   3.693   5.765
 3479SOL    HW111336   0.970   3.669   5.695
 3479SOL    HW211337   1.128   3.660   5.737
 3480SOL     OW11338   1.274   5.292   6.868
 3480SOL    HW111339   1.205   5.238   6.916
 3480SOL    HW211340   1.232   5.339   6.791
 3481SOL     OW11341   5.598   1.121   4.687
 3481SOL    HW111342   5.513   1.097   4.734
 3481SOL    HW211343   5.577   1.163   4.599
 3482SOL     OW11344   6.177   3.058   6.278
 3482SOL    HW111345   6.271   3.061   6.311
 3482SOL    HW211346   6.141   2.965   6.288
 3483SOL     OW11347   5.203   2.245   4.660
 3483SOL    HW111348   5.289   2.207   4.694
 3483SOL    HW211349   5.145   2.172   4.624
 3484SOL     OW11350   1.228   2.845   4.641
 3484SOL    HW111351   1.210   2.943   4.634
 3484SOL    HW211352   1.323   2.831   4.671
 3485SOL     OW11353   6.648   4.103   6.607
 3485SOL    HW111354   6.572   4.136   6.663
 3485SOL    HW211355   6.690   4.180   6.559
 3486SOL     OW11356   1.277   6.521   4.965
 3486SOL    HW111357   1.327   6.526   4.879
 3486SOL    HW211358   1.313   6.446   5.020
 3487SOL     OW11359   4.067   1.678   6.785
 3487SOL    HW111360   4.155   1.724   6.799
 3487SOL    HW211361   4.084   1.582   6.762
 3488SOL     OW11362   4.807   6.118   5.671
 3488SOL    HW111363   4.793   6.085   5.764
 3488SOL    HW211364   4.742   6.191   5.652
 3489SOL     OW11365   3.363   6.196   0.878
 3489SOL    HW111366   3.295   6.267   0.896
 3489SOL    HW211367   3.444   6.213   0.933
 3490SOL     OW11368   4.701   6.934   0.551
 3490SOL    HW111369   4.647   6.892   0.624
 3490SOL    HW211370   4.689   6.883   0.466
 3491SOL     OW11371   4.929   4.458   5.407
 3491SOL    HW111372   5.017   4.410   5.410
 3491SOL    HW211373   4.869   4.421   5.478
 3492SOL     OW11374   5.520   3.904   3.490
 3492SOL    HW111375   5.508   3.806   3.479
 3492SOL    HW211376   5.612   3.923   3.525
 3493SOL     OW11377   0.627   4.104   6.291
 3493SOL    HW111378   0.585   4.088   6.202
 3493SOL    HW211379   0.598   4.193   6.326
 3494SOL     OW11380   4.503   0.907   2.650
 3494SOL    HW111381   4.403   0.904   2.653
 3494SOL    HW211382   4.532   0.929   2.557
 3495SOL     OW11383   1.931   4.152   3.761
 3495SOL    HW111384   1.954   4.067   3.715
 3495SOL    HW211385   1.832   4.158   3.773
 3496SOL     OW11386   6.365   5.500   1.353
 3496SOL    HW111387   6.282   5.514   1.299
 3496SOL    HW211388   6.443   5.540   1.305
 3497SOL     OW11389   3.202   0.550   1.709
 3497SOL    HW111390   3.114   0.520   1.744
 3497SOL    HW211391   3.229   0.491   1.633
 3498SOL     OW11392   2.900   2.079   1.426
 3498SOL    HW111393   2.990   2.034   1.423
 3498SOL    HW211394   2.843   2.044   1.352
 3499SOL     OW11395   5.471   6.808   5.001
 3499SOL    HW111396   5.487   6.903   5.028
 3499SOL    HW211397   5.547   6.751   5.033
 3500SOL     OW11398   3.067   2.233   3.647
 3500SOL    HW111399   3.166   2.219   3.649
 3500SOL    HW211400   3.036   2.238   3.552
 3501SOL     OW11401   1.529   6.837   6.370
 3501SOL    HW111402   1.488   6.923   6.402
 3501SOL    HW211403   1.458   6.767   6.363
 3502SOL     OW11404   5.280   2.346   2.450
 3502SOL    HW111405   5.195   2.307   2.483
 3502SOL    HW211406   5.331   2.277   2.398
 3503SOL     OW11407   0.731   6.062   6.434
 3503SOL    HW111408   0.796   6.135   6.452
 3503SOL    HW211409   0.638   6.097   6.445
 3504SOL     OW11410   2.072   0.989   6.906
 3504SOL    HW111411   2.058   1.071   6.961
 3504SOL    HW211412   1.988   0.968   6.856
 3505SOL     OW11413   5.150   2.618   4.995
 3505SOL    HW111414   5.151   2.518   4.993
 3505SOL    HW211415   5.056   2.650   4.992
 3506SOL     OW11416   4.126   4.927   4.919
 3506SOL    HW111417   4.075   4.912   5.003
 3506SOL    HW211418   4.082   5.000   4.866
 3507SOL     OW11419   2.867   1.636   1.564
 3507SOL    HW111420   2.804   1.602   1.494
 3507SOL    HW211421   2.849   1.734   1.579
 3508SOL     OW11422   3.662   0.998   6.700
 3508SOL    HW111423   3.717   1.081   6.692
 3508SOL    HW211424   3.660   0.951   6.611
 3509SOL     OW11425   4.530   6.079   0.179
 3509SOL    HW111426   4.555   6.174   0.196
 3509SOL    HW211427   4.456   6.076   0.111
 3510SOL     OW11428   2.417   1.054   1.625
 3510SOL    HW111429   2.336   1.008   1.589
 3510SOL    HW211430   2.390   1.139   1.671
 3511SOL     OW11431   2.812   5.002   1.897
 3511SOL    HW111432   2.835   4.914   1.855
 3511SOL    HW211433   2.779   4.987   1.990
 3512SOL     OW11434   6.879   5.550   6.287
 3512SOL    HW111435   6.833   5.609   6.220
 3512SOL    HW211436   6.838   5.459   6.284
 3513SOL     OW11437   5.072   1.684   0.338
 3513SOL    HW111438   5.164   1.685   0.378
 3513SOL    HW211439   5.076   1.644   0.246
 3514SOL     OW11440   3.676   1.856   2.392
 3514SOL    HW111441   3.604   1.825   2.330
 3514SOL    HW211442   3.764   1.853   2.346
 3515SOL     OW11443   0.765   4.460   3.928
 3515SOL    HW111444   0.820   4.452   3.845
 3515SOL    HW211445   0.713   4.376   3.943
 3516SOL     OW11446   4.250   0.597   1.484
 3516SOL    HW111447   4.316   0.657   1.529
 3516SOL    HW211448   4.294   0.510   1.462
 3517SOL     OW11449   5.022   1.674   2.529
 3517SOL    HW111450   4.993   1.652   2.622
 3517SOL    HW211451   4.992   1.602   2.467
 3518SOL     OW11452   6.329   1.560   5.523
 3518SOL    HW111453   6.330   1.659   5.507
 3518SOL    HW211454   6.235   1.527   5.525
 3519SOL     OW11455   3.330   1.404   1.603
 3519SOL    HW111456   3.345   1.349   1.686
 3519SOL    HW211457   3.263   1.476   1.623
 3520SOL     OW11458   2.639   5.944   3.886
 3520SOL    HW111459   2.555   5.913   3.840
 3520SOL    HW211460   2.669   5.874   3.951
 3521SOL     OW11461   2.356   2.479   5.580
 3521SOL    HW111462   2.307   2.523   5.654
 3521SOL    HW211463   2.303   2.487   5.495
 3522SOL     OW11464   1.099   6.076   6.781
 3522SOL    HW111465   1.057   6.148   6.836
 3522SOL    HW211466   1.062   5.987   6.808
 3523SOL     OW11467   3.731   5.546   6.965
 3523SOL    HW111468   3.705   5.489   0.018
 3523SOL    HW211469   3.810   5.602   6.990
 3524SOL     OW11470   4.666   1.528   4.542
 3524SOL    HW111471   4.728   1.456   4.575
 3524SOL    HW211472   4.583   1.486   4.506
 3525SOL     OW11473   0.466   2.988   3.693
 3525SOL    HW111474   0.551   2.959   3.650
 3525SOL    HW211475   0.419   2.909   3.731
 3526SOL     OW11476   6.859   6.910   1.723
 3526SOL    HW111477   6.811   6.822   1.734
 3526SOL    HW211478   6.929   6.918   1.794
 3527SOL     OW11479   6.513   2.771   0.232
 3527SOL    HW111480   6.572   2.846   0.263
 3527SOL    HW211481   6.526   2.692   0.291
 3528SOL     OW11482   2.119   5.450   5.001
 3528SOL    HW111483   2.209   5.492   4.991
 3528SOL    HW211484   2.074   5.446   4.912
 3529SOL     OW11485   4.788   4.204   0.118
 3529SOL    HW111486   4.862   4.137   0.125
 3529SOL    HW211487   4.804   4.263   0.038
 3530SOL     OW11488   6.581   0.410   0.455
 3530SOL    HW111489   6.586   0.509   0.437
 3530SOL    HW211490   6.499   0.391   0.508
 3531SOL     OW11491   4.361   2.240   0.560
 3531SOL    HW111492   4.422   2.172   0.601
 3531SOL    HW211493   4.415   2.315   0.521
 3532SOL     OW11494   2.177   0.709   1.833
 3532SOL    HW111495   2.198   0.678   1.740
 3532SOL    HW211496   2.146   0.804   1.829
 3533SOL     OW11497   1.870   2.957   2.971
 3533SOL    HW111498   1.876   2.890   2.897
 3533SOL    HW211499   1.901   3.046   2.938
 3534SOL     OW11500   0.538   1.146   0.980
 3534SOL    HW111501   0.473   1.083   0.939
 3534SOL    HW211502   0.621   1.096   1.006
 3535SOL     OW11503   4.059   6.951   3.811
 3535SOL    HW111504   4.023   6.999   3.891
 3535SOL    HW211505   3.989   6.946   3.740
 3536SOL     OW11506   3.971   1.617   4.133
 3536SOL    HW111507   3.984   1.698   4.076
 3536SOL    HW211508   3.954   1.645   4.228
 3537SOL     OW11509   1.469   6.164   2.621
 3537SOL    HW111510   1.496   6.166   2.717
 3537SOL    HW211511   1.532   6.105   2.570
 3538SOL     OW11512   3.136   5.823   1.304
 3538SOL    HW111513   3.065   5.870   1.252
 3538SOL    HW211514   3.093   5.756   1.365
 3539SOL     OW11515   3.508   4.128   4.544
 3539SOL    HW111516   3.521   4.214   4.495
 3539SOL    HW211517   3.488   4.147   4.641
 3540SOL     OW11518   1.881   2.385   3.187
 3540SOL    HW111519   1.792   2.430   3.180
 3540SOL    HW211520   1.877   2.313   3.256
 3541SOL     OW11521   3.958   3.997   4.866
 3541SOL    HW111522   3.924   4.062   4.798
 3541SOL    HW211523   4.020   3.932   4.821
 3542SOL     OW11524   6.842   5.761   0.967
 3542SOL    HW111525   6.924   5.797   1.013
 3542SOL    HW211526   6.774   5.833   0.959
 3543SOL     OW11527   4.737   1.949   4.734
 3543SOL    HW111528   4.822   1.989   4.766
 3543SOL    HW211529   4.703   2.000   4.656
 3544SOL     OW11530   3.357   0.119   6.676
 3544SOL    HW111531   3.362   0.216   6.651
 3544SOL    HW211532   3.408   0.104   6.761
 3545SOL     OW11533   2.695   4.981   0.297
 3545SOL    HW111534   2.664   5.013   0.207
 3545SOL    HW211535   2.715   5.059   0.355
 3546SOL     OW11536   1.194   4.481   2.638
 3546SOL    HW111537   1.235   4.430   2.562
 3546SOL    HW211538   1.130   4.421   2.687
 3547SOL     OW11539   4.967   4.918   4.390
 3547SOL    HW111540   4.920   4.918   4.302
 3547SOL    HW211541   4.910   4.872   4.458
 3548SOL     OW11542   5.991   3.426   5.720
 3548SOL    HW111543   5.917   3.376   5.675
 3548SOL    HW211544   6.075   3.417   5.667
 3549SOL     OW11545   5.072   3.614   1.915
 3549SOL    HW111546   5.090   3.701   1.869
 3549SOL    HW211547   5.131   3.543   1.878
 3550SOL     OW11548   4.996   1.717   3.946
 3550SOL    HW111549   4.905   1.683   3.968
 3550SOL    HW211550   5.059   1.639   3.935
 3551SOL     OW11551   2.124   0.316   2.469
 3551SOL    HW111552   2.165   0.232   2.506
 3551SOL    HW211553   2.184   0.394   2.488
 3552SOL     OW11554   6.718   4.275   3.265
 3552SOL    HW111555   6.741   4.285   3.168
 3552SOL    HW211556   6.619   4.271   3.276
 3553SOL     OW11557   5.933   1.657   3.533
 3553SOL    HW111558   5.869   1.640   3.458
 3553SOL    HW211559   6.010   1.711   3.499
 3554SOL     OW11560   3.769   5.581   6.589
 3554SOL    HW111561   3.780   5.656   6.654
 3554SOL    HW211562   3.819   5.601   6.505
 3555SOL     OW11563   1.084   2.348   3.916
 3555SOL    HW111564   1.006   2.406   3.893
 3555SOL    HW211565   1.068   2.307   4.006
 3556SOL     OW11566   4.250   1.312   6.405
 3556SOL    HW111567   4.194   1.267   6.337
 3556SOL    HW211568   4.218   1.406   6.419
 3557SOL     OW11569   1.512   1.124   3.940
 3557SOL    HW111570   1.439   1.150   4.003
 3557SOL    HW211571   1.538   1.202   3.884
 3558SOL     OW11572   0.402   0.136   1.248
 3558SOL    HW111573   0.425   0.061   1.185
 3558SOL    HW211574   0.312   0.173   1.224
 3559SOL     OW11575   0.877   0.431   6.103
 3559SOL    HW111576   0.816   0.360   6.069
 3559SOL    HW211577   0.971   0.410   6.076
 3560SOL     OW11578   6.586   0.275   1.464
 3560SOL    HW111579   6.686   0.280   1.466
 3560SOL    HW211580   6.548   0.360   1.501
 3561SOL     OW11581   5.760   5.044   3.735
 3561SOL    HW111582   5.695   5.094   3.677
 3561SOL    HW211583   5.807   4.975   3.680
 3562SOL     OW11584   4.163   2.058   2.472
 3562SOL    HW111585   4.096   2.084   2.402
 3562SOL    HW211586   4.116   2.040   2.558
 3563SOL     OW11587   3.827   6.162   1.795
 3563SOL    HW111588   3.801   6.139   1.701
 3563SOL    HW211589   3.747   6.196   1.845
 3564SOL     OW11590   6.434   4.346   2.013
 3564SOL    HW111591   6.359   4.403   2.047
 3564SOL    HW211592   6.521   4.381   2.048
 3565SOL     OW11593   0.565   0.702   5.247
 3565SOL    HW111594   0.618   0.767   5.302
 3565SOL    HW211595   0.468   0.719   5.261
 3566SOL     OW11596   0.603   4.808   5.831
 3566SOL    HW111597   0.667   4.788   5.905
 3566SOL    HW211598   0.617   4.744   5.756
 3567SOL     OW11599   6.572   2.065   1.407
 3567SOL    HW111600   6.643   2.038   1.472
 3567SOL    HW211601   6.483   2.036   1.442
 3568SOL     OW11602   5.031   4.225   3.856
 3568SOL    HW111603   4.963   4.156   3.830
 3568SOL    HW211604   5.048   4.219   3.955
 3569SOL     OW11605   4.168   3.334   3.131
 3569SOL    HW111606   4.148   3.237   3.118
 3569SOL    HW211607   4.135   3.363   3.221
 3570SOL     OW11608   0.492   2.637   5.721
 3570SOL    HW111609   0.511   2.657   5.625
 3570SOL    HW211610   0.574   2.598   5.764
 3571SOL     OW11611   3.031   7.001   4.298
 3571SOL    HW111612   3.052   0.038   4.222
 3571SOL    HW211613   2.963   0.017   4.358
 3572SOL     OW11614   4.602   4.407   2.837
 3572SOL    HW111615   4.653   4.321   2.832
 3572SOL    HW211616   4.568   4.431   2.747
 3573SOL     OW11617   0.564   4.897   3.434
 3573SOL    HW111618   0.661   4.911   3.455
 3573SOL    HW211619   0.538   4.954   3.357
 3574SOL     OW11620   2.224   2.036   6.282
 3574SOL    HW111621   2.218   2.133   6.303
 3574SOL    HW211622   2.241   2.024   6.184
 3575SOL     OW11623   4.843   0.186   6.138
 3575SOL    HW111624   4.794   0.121   6.195
 3575SOL    HW211625   4.778   0.251   6.098
 3576SOL     OW11626   0.971   2.656   0.287
 3576SOL    HW111627   1.020   2.569   0.285
 3576SOL    HW211628   1.036   2.731   0.292
 3577SOL     OW11629   1.972   3.672   4.288
 3577SOL    HW111630   1.923   3.586   4.272
 3577SOL    HW211631   1.913   3.749   4.267
 3578SOL     OW11632   4.883   2.288   0.942
 3578SOL    HW111633   4.924   2.271   0.852
 3578SOL    HW211634   4.787   2.314   0.930
 3579SOL     OW11635   0.547   3.527   2.600
 3579SOL    HW111636   0.553   3.605   2.538
 3579SOL    HW211637   0.464   3.535   2.656
 3580SOL     OW11638   6.771   3.951   2.061
 3580SOL    HW111639   6.868   3.942   2.085
 3580SOL    HW211640   6.763   3.985   1.967
 3581SOL     OW11641   1.642   0.604   2.932
 3581SOL    HW111642   1.614   0.633   2.841
 3581SOL    HW211643   1.735   0.567   2.928
 3582SOL     OW11644   4.456   6.437   0.076
 3582SOL    HW111645   4.422   6.373   0.145
 3582SOL    HW211646   4.543   6.403   0.040
 3583SOL     OW11647   2.160   6.296   0.565
 3583SOL    HW111648   2.193   6.314   0.658
 3583SOL    HW211649   2.231   6.251   0.512
 3584SOL     OW11650   5.560   5.227   4.665
 3584SOL    HW111651   5.513   5.153   4.713
 3584SOL    HW211652   5.506   5.311   4.672
 3585SOL     OW11653   4.411   2.034   3.689
 3585SOL    HW111654   4.478   2.103   3.715
 3585SOL    HW211655   4.458   1.953   3.655
 3586SOL     OW11656   0.382   3.012   5.132
 3586SOL    HW111657   0.418   2.935   5.186
 3586SOL    HW211658   0.383   2.988   5.035
 3587SOL     OW11659   2.250   0.536   5.572
 3587SOL    HW111660   2.284   0.517   5.480
 3587SOL    HW211661   2.281   0.464   5.635
 3588SOL     OW11662   5.886   3.865   3.993
 3588SOL    HW111663   5.844   3.803   4.060
 3588SOL    HW211664   5.862   3.959   4.015
 3589SOL     OW11665   0.397   1.579   5.823
 3589SOL    HW111666   0.363   1.485   5.830
 3589SOL    HW211667   0.319   1.642   5.826
 3590SOL     OW11668   6.132   5.076   5.882
 3590SOL    HW111669   6.158   5.148   5.819
 3590SOL    HW211670   6.089   5.001   5.832
 3591SOL     OW11671   5.002   1.231   1.094
 3591SOL    HW111672   4.911   1.259   1.064
 3591SOL    HW211673   5.042   1.169   1.026
 3592SOL     OW11674   0.616   6.095   1.617
 3592SOL    HW111675   0.531   6.103   1.668
 3592SOL    HW211676   0.693   6.087   1.680
 3593SOL     OW11677   4.224   3.640   5.992
 3593SOL    HW111678   4.204   3.554   5.946
 3593SOL    HW211679   4.168   3.648   6.074
 3594SOL     OW11680   4.415   4.541   5.354
 3594SOL    HW111681   4.486   4.473   5.371
 3594SOL    HW211682   4.348   4.504   5.290
 3595SOL     OW11683   4.802   6.716   5.497
 3595SOL    HW111684   4.774   6.686   5.406
 3595SOL    HW211685   4.774   6.811   5.511
 3596SOL     OW11686   3.486   1.563   1.871
 3596SOL    HW111687   3.578   1.524   1.874
 3596SOL    HW211688   3.425   1.506   1.927
 3597SOL     OW11689   4.258   4.822   5.174
 3597SOL    HW111690   4.327   4.895   5.171
 3597SOL    HW211691   4.292   4.743   5.124
 3598SOL     OW11692   6.327   5.107   4.147
 3598SOL    HW111693   6.318   5.058   4.060
 3598SOL    HW211694   6.361   5.045   4.217
 3599SOL     OW11695   1.894   1.222   5.470
 3599SOL    HW111696   1.941   1.136   5.451
 3599SOL    HW211697   1.886   1.275   5.385
 3600SOL     OW11698   2.231   4.134   1.140
 3600SOL    HW111699   2.152   4.116   1.081
 3600SOL    HW211700   2.256   4.050   1.188
 3601SOL     OW11701   3.068   0.301   5.305
 3601SOL    HW111702   3.125   0.364   5.358
 3601SOL    HW211703   3.094   0.306   5.208
 3602SOL     OW11704   1.422   2.353   0.777
 3602SOL    HW111705   1.499   2.417   0.781
 3602SOL    HW211706   1.336   2.403   0.786
 3603SOL     OW11707   1.661   6.895   5.955
 3603SOL    HW111708   1.574   6.862   5.918
 3603SOL    HW211709   1.660   6.995   5.957
 3604SOL     OW11710   6.907   1.168   4.688
 3604SOL    HW111711   6.845   1.119   4.627
 3604SOL    HW211712   6.998   1.172   4.646
 3605SOL     OW11713   0.681   0.048   5.062
 3605SOL    HW111714   0.610   7.003   5.054
 3605SOL    HW211715   0.761   0.010   5.109
 3606SOL     OW11716   1.896   0.498   2.942
 3606SOL    HW111717   1.951   0.547   3.010
 3606SOL    HW211718   1.945   0.418   2.910
 3607SOL     OW11719   5.709   1.526   4.261
 3607SOL    HW111720   5.705   1.543   4.360
 3607SOL    HW211721   5.768   1.595   4.218
 3608SOL     OW11722   4.078   1.749   5.505
 3608SOL    HW111723   4.022   1.810   5.449
 3608SOL    HW211724   4.169   1.741   5.465
 3609SOL     OW11725   2.892   6.713   4.727
 3609SOL    HW111726   2.926   6.804   4.706
 3609SOL    HW211727   2.970   6.653   4.749
 3610SOL     OW11728   1.200   0.250   5.772
 3610SOL    HW111729   1.144   0.302   5.708
 3610SOL    HW211730   1.172   0.154   5.771
 3611SOL     OW11731   5.681   2.855   2.729
 3611SOL    HW111732   5.624   2.802   2.667
 3611SOL    HW211733   5.730   2.793   2.791
 3612SOL     OW11734   5.268   1.368   1.139
 3612SOL    HW111735   5.187   1.333   1.186
 3612SOL    HW211736   5.297   1.301   1.069
 3613SOL     OW11737   4.434   1.300   2.874
 3613SOL    HW111738   4.366   1.239   2.833
 3613SOL    HW211739   4.524   1.256   2.870
 3614SOL     OW11740   3.182   5.938   0.142
 3614SOL    HW111741   3.195   5.845   0.108
 3614SOL    HW211742   3.266   5.969   0.187
 3615SOL     OW11743   5.281   2.847   5.061
 3615SOL    HW111744   5.332   2.859   5.146
 3615SOL    HW211745   5.231   2.761   5.064
 3616SOL     OW11746   2.163   0.887   0.927
 3616SOL    HW111747   2.139   0.979   0.895
 3616SOL    HW211748   2.115   0.819   0.872
 3617SOL     OW11749   3.827   5.370   5.250
 3617SOL    HW111750   3.879   5.332   5.173
 3617SOL    HW211751   3.771   5.299   5.291
 3618SOL     OW11752   1.061   5.464   4.236
 3618SOL    HW111753   1.065   5.474   4.335
 3618SOL    HW211754   0.966   5.449   4.208
 3619SOL     OW11755   0.164   1.743   2.131
 3619SOL    HW111756   0.237   1.724   2.196
 3619SOL    HW211757   0.197   1.729   2.038
 3620SOL     OW11758   4.781   6.382   5.436
 3620SOL    HW111759   4.779   6.397   5.535
 3620SOL    HW211760   4.762   6.469   5.389
 3621SOL     OW11761   3.141   3.145   2.927
 3621SOL    HW111762   3.159   3.071   2.992
 3621SOL    HW211763   3.224   3.166   2.876
 3622SOL     OW11764   1.962   6.282   6.247
 3622SOL    HW111765   1.918   6.195   6.267
 3622SOL    HW211766   1.893   6.354   6.238
 3623SOL     OW11767   1.917   6.109   5.703
 3623SOL    HW111768   1.834   6.161   5.685
 3623SOL    HW211769   1.895   6.032   5.763
 3624SOL     OW11770   2.845   1.696   2.478
 3624SOL    HW111771   2.934   1.665   2.511
 3624SOL    HW211772   2.848   1.794   2.461
 3625SOL     OW11773   6.162   1.864   1.806
 3625SOL    HW111774   6.252   1.859   1.850
 3625SOL    HW211775   6.107   1.785   1.834
 3626SOL     OW11776   0.723   3.459   5.607
 3626SOL    HW111777   0.818   3.480   5.583
 3626SOL    HW211778   0.715   3.362   5.628
 3627SOL     OW11779   3.102   1.291   2.629
 3627SOL    HW111780   3.170   1.219   2.621
 3627SOL    HW211781   3.011   1.250   2.635
 3628SOL     OW11782   6.806   1.196   1.252
 3628SOL    HW111783   6.740   1.209   1.326
 3628SOL    HW211784   6.875   1.129   1.281
 3629SOL     OW11785   1.495   0.614   4.351
 3629SOL    HW111786   1.576   0.654   4.395
 3629SOL    HW211787   1.480   0.657   4.263
 3630SOL     OW11788   6.921   1.495   2.751
 3630SOL    HW111789   6.919   1.562   2.826
 3630SOL    HW211790   6.903   1.404   2.788
 3631SOL     OW11791   2.160   5.449   2.497
 3631SOL    HW111792   2.089   5.420   2.432
 3631SOL    HW211793   2.172   5.378   2.566
 3632SOL     OW11794   4.927   3.351   2.774
 3632SOL    HW111795   4.913   3.290   2.696
 3632SOL    HW211796   4.965   3.299   2.850
 3633SOL     OW11797   4.802   4.882   5.859
 3633SOL    HW111798   4.892   4.846   5.834
 3633SOL    HW211799   4.742   4.807   5.884
 3634SOL     OW11800   2.660   5.162   6.607
 3634SOL    HW111801   2.621   5.215   6.532
 3634SOL    HW211802   2.727   5.217   6.656
 3635SOL     OW11803   1.173   6.613   3.045
 3635SOL    HW111804   1.193   6.518   3.069
 3635SOL    HW211805   1.257   6.666   3.046
 3636SOL     OW11806   6.778   6.336   4.068
 3636SOL    HW111807   6.811   6.263   4.009
 3636SOL    HW211808   6.841   6.348   4.145
 3637SOL     OW11809   4.828   1.960   0.018
 3637SOL    HW111810   4.901   2.020   7.011
 3637SOL    HW211811   4.759   1.950   6.972
 3638SOL     OW11812   0.659   2.826   4.045
 3638SOL    HW111813   0.679   2.914   4.003
 3638SOL    HW211814   0.606   2.770   3.980
 3639SOL     OW11815   3.648   3.207   3.820
 3639SOL    HW111816   3.652   3.221   3.721
 3639SOL    HW211817   3.562   3.244   3.856
 3640SOL     OW11818   4.683   1.773   2.763
 3640SOL    HW111819   4.598   1.821   2.787
 3640SOL    HW211820   4.661   1.682   2.727
 3641SOL     OW11821   0.228   3.259   1.329
 3641SOL    HW111822   0.263   3.287   1.239
 3641SOL    HW211823   0.152   3.318   1.355
 3642SOL     OW11824   3.896   4.501   6.771
 3642SOL    HW111825   3.913   4.449   6.854
 3642SOL    HW211826   3.982   4.541   6.738
 3643SOL     OW11827   4.496   4.968   5.137
 3643SOL    HW111828   4.519   4.891   5.196
 3643SOL    HW211829   4.562   5.041   5.151
 3644SOL     OW11830   3.164   1.615   1.634
 3644SOL    HW111831   3.070   1.633   1.604
 3644SOL    HW211832   3.210   1.701   1.656
 3645SOL     OW11833   1.241   3.845   3.758
 3645SOL    HW111834   1.265   3.942   3.751
 3645SOL    HW211835   1.168   3.834   3.826
 3646SOL     OW11836   2.577   5.450   5.062
 3646SOL    HW111837   2.498   5.498   5.024
 3646SOL    HW211838   2.661   5.492   5.026
 3647SOL     OW11839   3.428   0.639   0.811
 3647SOL    HW111840   3.468   0.556   0.849
 3647SOL    HW211841   3.486   0.674   0.738
 3648SOL     OW11842   5.814   5.839   3.927
 3648SOL    HW111843   5.767   5.757   3.894
 3648SOL    HW211844   5.840   5.826   4.023
 3649SOL     OW11845   5.197   3.282   0.125
 3649SOL    HW111846   5.238   3.209   0.070
 3649SOL    HW211847   5.141   3.241   0.197
 3650SOL     OW11848   5.416   5.928   0.139
 3650SOL    HW111849   5.445   6.012   0.094
 3650SOL    HW211850   5.334   5.893   0.093
 3651SOL     OW11851   0.840   1.555   5.694
 3651SOL    HW111852   0.845   1.467   5.741
 3651SOL    HW211853   0.771   1.613   5.738
 3652SOL     OW11854   5.995   2.201   2.665
 3652SOL    HW111855   6.039   2.130   2.610
 3652SOL    HW211856   5.928   2.250   2.608
 3653SOL     OW11857   2.296   1.496   0.900
 3653SOL    HW111858   2.348   1.556   0.961
 3653SOL    HW211859   2.253   1.424   0.954
 3654SOL     OW11860   4.646   5.795   0.966
 3654SOL    HW111861   4.736   5.821   0.932
 3654SOL    HW211862   4.616   5.711   0.920
 3655SOL     OW11863   1.589   6.903   3.909
 3655SOL    HW111864   1.507   6.957   3.928
 3655SOL    HW211865   1.598   6.890   3.810
 3656SOL     OW11866   0.783   0.614   0.935
 3656SOL    HW111867   0.832   0.649   0.855
 3656SOL    HW211868   0.699   0.667   0.949
 3657SOL     OW11869   6.888   4.551   6.825
 3657SOL    HW111870   6.929   4.589   6.908
 3657SOL    HW211871   6.839   4.467   6.847
 3658SOL     OW11872   2.358   4.409   5.513
 3658SOL    HW111873   2.352   4.310   5.520
 3658SOL    HW211874   2.454   4.437   5.511
 3659SOL     OW11875   0.560   2.469   0.252
 3659SOL    HW111876   0.610   2.493   0.335
 3659SOL    HW211877   0.500   2.545   0.226
 3660SOL     OW11878   4.550   4.702   4.040
 3660SOL    HW111879   4.451   4.707   4.045
 3660SOL    HW211880   4.580   4.610   4.063
 3661SOL     OW11881   0.573   0.746   4.980
 3661SOL    HW111882   0.477   0.769   4.962
 3661SOL    HW211883   0.586   0.730   5.078
 3662SOL     OW11884   3.521   3.135   5.273
 3662SOL    HW111885   3.476   3.070   5.334
 3662SOL    HW211886   3.616   3.106   5.258
 3663SOL     OW11887   1.681   2.633   6.080
 3663SOL    HW111888   1.732   2.585   6.008
 3663SOL    HW211889   1.695   2.587   6.167
 3664SOL     OW11890   2.009   2.676   0.848
 3664SOL    HW111891   1.968   2.676   0.939
 3664SOL    HW211892   2.109   2.679   0.856
 3665SOL     OW11893   6.732   6.373   5.241
 3665SOL    HW111894   6.765   6.380   5.336
 3665SOL    HW211895   6.807   6.395   5.179
 3666SOL     OW11896   2.041   3.685   4.565
 3666SOL    HW111897   2.036   3.675   4.466
 3666SOL    HW211898   1.983   3.761   4.594
 3667SOL     OW11899   2.313   6.544   1.445
 3667SOL    HW111900   2.260   6.611   1.497
 3667SOL    HW211901   2.348   6.586   1.361
 3668SOL     OW11902   4.991   0.970   0.666
 3668SOL    HW111903   4.921   1.041   0.661
 3668SOL    HW211904   4.956   0.886   0.624
 3669SOL     OW11905   6.820   1.208   2.433
 3669SOL    HW111906   6.891   1.160   2.485
 3669SOL    HW211907   6.861   1.281   2.379
 3670SOL     OW11908   1.962   6.208   1.785
 3670SOL    HW111909   1.935   6.185   1.878
 3670SOL    HW211910   1.886   6.188   1.723
 3671SOL     OW11911   0.654   0.423   5.166
 3671SOL    HW111912   0.656   0.367   5.248
 3671SOL    HW211913   0.648   0.520   5.192
 3672SOL     OW11914   2.735   0.053   2.852
 3672SOL    HW111915   2.738   0.024   2.757
 3672SOL    HW211916   2.826   0.049   2.892
 3673SOL     OW11917   3.858   1.710   2.006
 3673SOL    HW111918   3.795   1.638   1.977
 3673SOL    HW211919   3.891   1.759   1.925
 3674SOL     OW11920   7.003   5.955   6.187
 3674SOL    HW111921   6.967   6.003   6.267
 3674SOL    HW211922   6.988   6.011   6.105
 3675SOL     OW11923   5.719   0.520   5.911
 3675SOL    HW111924   5.632   0.508   5.959
 3675SOL    HW211925   5.768   0.432   5.908
 3676SOL     OW11926   2.539   0.538   6.353
 3676SOL    HW111927   2.443   0.510   6.351
 3676SOL    HW211928   2.572   0.536   6.447
 3677SOL     OW11929   0.891   6.919   5.214
 3677SOL    HW111930   0.978   6.872   5.203
 3677SOL    HW211931   0.871   6.930   5.312
 3678SOL     OW11932   2.632   0.966   3.347
 3678SOL    HW111933   2.581   1.040   3.390
 3678SOL    HW211934   2.716   0.950   3.398
 3679SOL     OW11935   3.277   1.213   1.381
 3679SOL    HW111936   3.281   1.306   1.418
 3679SOL    HW211937   3.256   1.149   1.455
 3680SOL     OW11938   4.751   0.841   3.975
 3680SOL    HW111939   4.728   0.915   4.038
 3680SOL    HW211940   4.730   0.869   3.881
 3681SOL     OW11941   1.243   5.383   3.684
 3681SOL    HW111942   1.252   5.307   3.747
 3681SOL    HW211943   1.206   5.350   3.597
 3682SOL     OW11944   5.387   0.954   1.924
 3682SOL    HW111945   5.470   0.901   1.914
 3682SOL    HW211946   5.407   1.038   1.976
 3683SOL     OW11947   6.102   2.307   1.667
 3683SOL    HW111948   6.072   2.239   1.600
 3683SOL    HW211949   6.128   2.391   1.621
 3684SOL     OW11950   2.401   6.429   5.246
 3684SOL    HW111951   2.455   6.453   5.327
 3684SOL    HW211952   2.309   6.400   5.276
 3685SOL     OW11953   1.373   6.470   2.912
 3685SOL    HW111954   1.437   6.540   2.944
 3685SOL    HW211955   1.375   6.392   2.975
 3686SOL     OW11956   1.294   5.158   0.886
 3686SOL    HW111957   1.306   5.082   0.950
 3686SOL    HW211958   1.222   5.218   0.920
 3687SOL     OW11959   6.843   4.639   4.287
 3687SOL    HW111960   6.918   4.604   4.342
 3687SOL    HW211961   6.861   4.621   4.190
 3688SOL     OW11962   0.149   2.445   1.221
 3688SOL    HW111963   0.073   2.381   1.234
 3688SOL    HW211964   0.236   2.396   1.226
 3689SOL     OW11965   2.939   2.348   5.580
 3689SOL    HW111966   3.003   2.408   5.628
 3689SOL    HW211967   2.939   2.369   5.483
 3690SOL     OW11968   0.075   5.529   2.268
 3690SOL    HW111969   0.137   5.498   2.341
 3690SOL    HW211970   7.012   5.554   2.307
 3691SOL     OW11971   2.973   1.812   6.849
 3691SOL    HW111972   2.999   1.724   6.889
 3691SOL    HW211973   2.948   1.798   6.753
 3692SOL     OW11974   1.137   2.767   5.770
 3692SOL    HW111975   1.087   2.682   5.786
 3692SOL    HW211976   1.097   2.816   5.693
 3693SOL     OW11977   1.158   0.813   3.194
 3693SOL    HW111978   1.070   0.772   3.219
 3693SOL    HW211979   1.159   0.909   3.221
 3694SOL     OW11980   6.820   5.700   2.100
 3694SOL    HW111981   6.835   5.763   2.176
 3694SOL    HW211982   6.799   5.609   2.137
 3695SOL     OW11983   5.766   3.797   4.401
 3695SOL    HW111984   5.687   3.757   4.448
 3695SOL    HW211985   5.823   3.845   4.467
 3696SOL     OW11986   3.917   6.938   4.261
 3696SOL    HW111987   3.958   6.992   4.335
 3696SOL    HW211988   3.970   6.855   4.247
 3697SOL     OW11989   6.968   4.958   2.713
 3697SOL    HW111990   6.963   5.014   2.796
 3697SOL    HW211991   6.892   4.982   2.652
 3698SOL     OW11992   1.433   0.290   3.442
 3698SOL    HW111993   1.359   0.327   3.498
 3698SOL    HW211994   1.487   0.365   3.405
 3699SOL     OW11995   3.217   1.802   3.082
 3699SOL    HW111996   3.168   1.828   3.166
 3699SOL    HW211997   3.208   1.704   3.068
 3700SOL     OW11998   1.155   4.880   4.689
 3700SOL    HW111999   1.084   4.843   4.749
 3700SOL    HW212000   1.112   4.936   4.618
 3701SOL     OW12001   6.770   0.238   2.276
 3701SOL    HW112002   6.820   0.306   2.222
 3701SOL    HW212003   6.680   0.222   2.234
 3702SOL     OW12004   0.020   4.645   3.609
 3702SOL    HW112005   0.095   4.708   3.590
 3702SOL    HW212006   0.056   4.551   3.609
 3703SOL     OW12007   1.358   1.653   3.405
 3703SOL    HW112008   1.268   1.692   3.386
 3703SOL    HW212009   1.411   1.715   3.463
 3704SOL     OW12010   6.243   6.795   0.938
 3704SOL    HW112011   6.226   6.717   0.997
 3704SOL    HW212012   6.259   6.877   0.994
 3705SOL     OW12013   6.977   4.033   3.942
 3705SOL    HW112014   6.921   3.959   3.979
 3705SOL    HW212015   6.937   4.066   3.857
 3706SOL     OW12016   0.057   6.593   6.543
 3706SOL    HW112017   7.002   6.538   6.567
 3706SOL    HW212018   0.062   6.671   6.605
 3707SOL     OW12019   6.217   4.353   3.595
 3707SOL    HW112020   6.272   4.286   3.546
 3707SOL    HW212021   6.255   4.367   3.687
 3708SOL     OW12022   0.750   5.440   0.471
 3708SOL    HW112023   0.845   5.470   0.472
 3708SOL    HW212024   0.705   5.472   0.555
 3709SOL     OW12025   0.698   1.653   1.328
 3709SOL    HW112026   0.635   1.582   1.298
 3709SOL    HW212027   0.790   1.634   1.293
 3710SOL     OW12028   1.692   3.403   5.086
 3710SOL    HW112029   1.716   3.475   5.150
 3710SOL    HW212030   1.714   3.314   5.126
 3711SOL     OW12031   1.154   4.736   5.960
 3711SOL    HW112032   1.109   4.818   5.924
 3711SOL    HW212033   1.103   4.700   6.038
 3712SOL     OW12034   3.838   4.871   3.242
 3712SOL    HW112035   3.774   4.882   3.166
 3712SOL    HW212036   3.910   4.940   3.235
 3713SOL     OW12037   5.946   1.157   6.400
 3713SOL    HW112038   6.028   1.102   6.417
 3713SOL    HW212039   5.874   1.130   6.463
 3714SOL     OW12040   0.029   5.095   0.437
 3714SOL    HW112041   0.006   5.064   0.529
 3714SOL    HW212042   6.981   5.073   0.374
 3715SOL     OW12043   5.683   4.348   2.095
 3715SOL    HW112044   5.604   4.317   2.042
 3715SOL    HW212045   5.766   4.305   2.060
 3716SOL     OW12046   5.377   5.099   5.307
 3716SOL    HW112047   5.375   5.028   5.237
 3716SOL    HW212048   5.421   5.181   5.270
 3717SOL     OW12049   4.114   6.874   1.332
 3717SOL    HW112050   4.052   6.950   1.315
 3717SOL    HW212051   4.066   6.804   1.386
 3718SOL     OW12052   5.329   6.020   6.407
 3718SOL    HW112053   5.263   6.075   6.356
 3718SOL    HW212054   5.396   5.981   6.343
 3719SOL     OW12055   2.750   3.967   0.463
 3719SOL    HW112056   2.814   3.896   0.493
 3719SOL    HW212057   2.766   4.051   0.514
 3720SOL     OW12058   0.593   2.012   0.348
 3720SOL    HW112059   0.652   2.035   0.271
 3720SOL    HW212060   0.631   1.934   0.398
 3721SOL     OW12061   6.547   0.421   5.909
 3721SOL    HW112062   6.566   0.458   6.000
 3721SOL    HW212063   6.457   0.377   5.910
 3722SOL     OW12064   4.723   6.294   1.830
 3722SOL    HW112065   4.644   6.271   1.886
 3722SOL    HW212066   4.739   6.393   1.835
 3723SOL     OW12067   4.214   4.210   6.530
 3723SOL    HW112068   4.257   4.298   6.512
 3723SOL    HW212069   4.281   4.148   6.573
 3724SOL     OW12070   5.923   3.956   4.595
 3724SOL    HW112071   5.919   4.038   4.651
 3724SOL    HW212072   6.016   3.918   4.597
 3725SOL     OW12073   6.790   6.185   1.446
 3725SOL    HW112074   6.707   6.195   1.500
 3725SOL    HW212075   6.778   6.112   1.379
 3726SOL     OW12076   6.074   3.790   5.171
 3726SOL    HW112077   6.076   3.690   5.171
 3726SOL    HW212078   6.071   3.824   5.077
 3727SOL     OW12079   6.229   1.521   3.819
 3727SOL    HW112080   6.167   1.593   3.849
 3727SOL    HW212081   6.194   1.432   3.847
 3728SOL     OW12082   1.899   4.178   0.448
 3728SOL    HW112083   1.859   4.107   0.390
 3728SOL    HW212084   1.969   4.138   0.508
 3729SOL     OW12085   7.024   6.863   6.019
 3729SOL    HW112086   6.942   6.816   5.986
 3729SOL    HW212087   7.005   6.961   6.025
 3730SOL     OW12088   5.909   4.129   4.806
 3730SOL    HW112089   5.908   4.205   4.871
 3730SOL    HW212090   5.904   4.043   4.857
 3731SOL     OW12091   5.817   1.190   2.213
 3731SOL    HW112092   5.762   1.191   2.297
 3731SOL    HW212093   5.764   1.230   2.138
 3732SOL     OW12094   4.377   2.325   6.583
 3732SOL    HW112095   4.404   2.385   6.508
 3732SOL    HW212096   4.409   2.363   6.669
 3733SOL     OW12097   2.099   1.344   3.121
 3733SOL    HW112098   2.138   1.313   3.208
 3733SOL    HW212099   2.000   1.355   3.131
 3734SOL     OW12100   4.819   1.400   2.162
 3734SOL    HW112101   4.730   1.369   2.196
 3734SOL    HW212102   4.868   1.323   2.121
 3735SOL     OW12103   3.903   1.047   2.456
 3735SOL    HW112104   3.825   1.081   2.404
 3735SOL    HW212105   3.948   1.123   2.503
 3736SOL     OW12106   0.758   1.006   6.571
 3736SOL    HW112107   0.769   1.099   6.536
 3736SOL    HW212108   0.835   0.950   6.542
 3737SOL     OW12109   5.343   1.876   4.475
 3737SOL    HW112110   5.272   1.935   4.437
 3737SOL    HW212111   5.308   1.784   4.487
 3738SOL     OW12112   0.523   0.851   0.633
 3738SOL    HW112113   0.434   0.826   0.597
 3738SOL    HW212114   0.595   0.813   0.574
 3739SOL     OW12115   3.219   6.115   6.951
 3739SOL    HW112116   3.274   6.047   7.000
 3739SOL    HW212117   3.132   6.127   6.997
 3740SOL     OW12118   6.846   0.300   6.410
 3740SOL    HW112119   6.918   0.326   6.475
 3740SOL    HW212120   6.876   0.220   6.358
 3741SOL     OW12121   5.779   4.527   0.615
 3741SOL    HW112122   5.705   4.463   0.596
 3741SOL    HW212123   5.741   4.610   0.657
 3742SOL     OW12124   4.625   5.106   1.180
 3742SOL    HW112125   4.585   5.096   1.271
 3742SOL    HW212126   4.725   5.099   1.187
 3743SOL     OW12127   2.728   4.073   1.605
 3743SOL    HW112128   2.683   4.143   1.659
 3743SOL    HW212129   2.793   4.115   1.542
 3744SOL     OW12130   6.469   5.534   2.505
 3744SOL    HW112131   6.376   5.525   2.541
 3744SOL    HW212132   6.465   5.546   2.406
 3745SOL     OW12133   6.253   1.087   3.361
 3745SOL    HW112134   6.273   1.182   3.339
 3745SOL    HW212135   6.339   1.035   3.367
 3746SOL     OW12136   5.406   0.186   5.344
 3746SOL    HW112137   5.495   0.187   5.388
 3746SOL    HW212138   5.402   0.109   5.280
 3747SOL     OW12139   2.155   4.586   5.622
 3747SOL    HW112140   2.212   4.508   5.595
 3747SOL    HW212141   2.079   4.596   5.558
 3748SOL     OW12142   4.921   1.439   3.185
 3748SOL    HW112143   4.934   1.497   3.266
 3748SOL    HW212144   4.869   1.490   3.116
 3749SOL     OW12145   5.927   5.501   1.114
 3749SOL    HW112146   5.848   5.558   1.137
 3749SOL    HW212147   5.957   5.520   1.020
 3750SOL     OW12148   6.793   4.396   1.630
 3750SOL    HW112149   6.765   4.343   1.550
 3750SOL    HW212150   6.840   4.337   1.695
 3751SOL     OW12151   2.339   4.526   1.038
 3751SOL    HW112152   2.320   4.493   0.946
 3751SOL    HW212153   2.253   4.549   1.084
 3752SOL     OW12154   1.104   6.682   6.323
 3752SOL    HW112155   1.179   6.665   6.387
 3752SOL    HW212156   1.039   6.745   6.364
 3753SOL     OW12157   0.481   1.689   5.106
 3753SOL    HW112158   0.489   1.602   5.057
 3753SOL    HW212159   0.547   1.692   5.180
 3754SOL     OW12160   6.465   6.611   0.848
 3754SOL    HW112161   6.392   6.543   0.850
 3754SOL    HW212162   6.465   6.662   0.934
 3755SOL     OW12163   4.761   2.563   3.057
 3755SOL    HW112164   4.859   2.547   3.055
 3755SOL    HW212165   4.723   2.549   2.965
 3756SOL     OW12166   3.447   0.144   0.549
 3756SOL    HW112167   3.528   0.200   0.564
 3756SOL    HW212168   3.454   0.060   0.602
 3757SOL     OW12169   2.997   3.495   5.857
 3757SOL    HW112170   2.953   3.466   5.942
 3757SOL    HW212171   2.964   3.437   5.782
 3758SOL     OW12172   0.623   0.882   1.236
 3758SOL    HW112173   0.573   0.811   1.187
 3758SOL    HW212174   0.693   0.921   1.176
 3759SOL     OW12175   5.797   4.099   0.984
 3759SOL    HW112176   5.785   4.192   0.949
 3759SOL    HW212177   5.729   4.082   1.055
 3760SOL     OW12178   2.255   1.351   6.269
 3760SOL    HW112179   2.295   1.272   6.223
 3760SOL    HW212180   2.162   1.329   6.298
 3761SOL     OW12181   6.489   6.666   4.255
 3761SOL    HW112182   6.549   6.700   4.328
 3761SOL    HW212183   6.406   6.627   4.295
 3762SOL     OW12184   0.438   4.115   1.411
 3762SOL    HW112185   0.537   4.121   1.405
 3762SOL    HW212186   0.410   4.103   1.506
 3763SOL     OW12187   0.734   2.247   5.207
 3763SOL    HW112188   0.796   2.325   5.199
 3763SOL    HW212189   0.669   2.249   5.131
 3764SOL     OW12190   2.324   0.507   3.121
 3764SOL    HW112191   2.343   0.572   3.194
 3764SOL    HW212192   2.331   0.553   3.033
 3765SOL     OW12193   6.301   1.371   3.590
 3765SOL    HW112194   6.284   1.423   3.674
 3765SOL    HW212195   6.349   1.286   3.613
 3766SOL     OW12196   1.915   1.110   4.564
 3766SOL    HW112197   1.885   1.022   4.600
 3766SOL    HW212198   1.920   1.176   4.639
 3767SOL     OW12199   6.538   4.551   1.693
 3767SOL    HW112200   6.474   4.600   1.751
 3767SOL    HW212201   6.632   4.571   1.722
 3768SOL     OW12202   4.478   6.526   1.310
 3768SOL    HW112203   4.415   6.463   1.266
 3768SOL    HW212204   4.546   6.475   1.362
 3769SOL     OW12205   3.940   6.566   4.363
 3769SOL    HW112206   3.924   6.637   4.432
 3769SOL    HW212207   4.012   6.597   4.300
 3770SOL     OW12208   1.291   3.036   0.493
 3770SOL    HW112209   1.357   2.990   0.554
 3770SOL    HW212210   1.336   3.112   0.447
 3771SOL     OW12211   5.056   1.707   5.191
 3771SOL    HW112212   5.090   1.799   5.171
 3771SOL    HW212213   5.090   1.643   5.122
 3772SOL     OW12214   4.938   1.025   2.957
 3772SOL    HW112215   4.940   1.085   3.037
 3772SOL    HW212216   4.844   1.006   2.932
 3773SOL     OW12217   6.406   2.740   1.463
 3773SOL    HW112218   6.372   2.668   1.403
 3773SOL    HW212219   6.336   2.811   1.473
 3774SOL     OW12220   2.164   0.974   1.828
 3774SOL    HW112221   2.065   0.972   1.837
 3774SOL    HW212222   2.191   1.039   1.757
 3775SOL     OW12223   5.253   2.973   3.703
 3775SOL    HW112224   5.287   2.955   3.611
 3775SOL    HW212225   5.330   2.992   3.764
 3776SOL     OW12226   3.201   1.965   0.408
 3776SOL    HW112227   3.168   2.052   0.371
 3776SOL    HW212228   3.301   1.966   0.410
 3777SOL     OW12229   1.422   4.032   3.554
 3777SOL    HW112230   1.360   4.069   3.623
 3777SOL    HW212231   1.516   4.057   3.577
 3778SOL     OW12232   1.949   0.498   1.441
 3778SOL    HW112233   2.016   0.450   1.384
 3778SOL    HW212234   1.994   0.572   1.490
 3779SOL     OW12235   1.847   3.733   0.224
 3779SOL    HW112236   1.870   3.695   0.134
 3779SOL    HW212237   1.793   3.816   0.212
 3780SOL     OW12238   2.441   0.501   4.138
 3780SOL    HW112239   2.530   0.474   4.101
 3780SOL    HW212240   2.411   0.434   4.206
 3781SOL     OW12241   3.548   5.038   4.932
 3781SOL    HW112242   3.484   4.991   4.993
 3781SOL    HW212243   3.641   5.025   4.965
 3782SOL     OW12244   2.929   0.761   2.381
 3782SOL    HW112245   2.864   0.721   2.446
 3782SOL    HW212246   2.946   0.696   2.307
 3783SOL     OW12247   5.276   4.431   5.521
 3783SOL    HW112248   5.308   4.473   5.436
 3783SOL    HW212249   5.355   4.404   5.576
 3784SOL     OW12250   5.163   2.892   4.716
 3784SOL    HW112251   5.116   2.813   4.678
 3784SOL    HW212252   5.199   2.869   4.806
 3785SOL     OW12253   6.975   0.527   1.501
 3785SOL    HW112254   0.047   0.506   1.487
 3785SOL    HW212255   6.949   0.502   1.594
 3786SOL     OW12256   2.690   5.980   1.240
 3786SOL    HW112257   2.691   6.078   1.257
 3786SOL    HW212258   2.649   5.933   1.318
 3787SOL     OW12259   3.775   1.396   3.508
 3787SOL    HW112260   3.810   1.306   3.536
 3787SOL    HW212261   3.836   1.467   3.543
 3788SOL     OW12262   0.116   2.835   2.918
 3788SOL    HW112263   0.208   2.799   2.934
 3788SOL    HW212264   0.085   2.809   2.827
 3789SOL     OW12265   1.818   5.008   2.291
 3789SOL    HW112266   1.882   4.980   2.363
 3789SOL    HW212267   1.869   5.027   2.207
 3790SOL     OW12268   2.068   3.609   2.880
 3790SOL    HW112269   2.100   3.570   2.966
 3790SOL    HW212270   2.091   3.706   2.877
 3791SOL     OW12271   6.683   0.541   2.183
 3791SOL    HW112272   6.677   0.490   2.097
 3791SOL    HW212273   6.610   0.609   2.186
 3792SOL     OW12274   1.412   5.559   6.071
 3792SOL    HW112275   1.354   5.590   6.146
 3792SOL    HW212276   1.402   5.621   5.993
 3793SOL     OW12277   6.256   5.961   2.514
 3793SOL    HW112278   6.332   5.914   2.468
 3793SOL    HW212279   6.201   6.009   2.446
 3794SOL     OW12280   4.297   0.382   4.739
 3794SOL    HW112281   4.315   0.458   4.801
 3794SOL    HW212282   4.267   0.418   4.650
 3795SOL     OW12283   5.534   0.558   0.479
 3795SOL    HW112284   5.509   0.505   0.398
 3795SOL    HW212285   5.460   0.620   0.503
 3796SOL     OW12286   0.275   2.189   1.508
 3796SOL    HW112287   0.360   2.228   1.544
 3796SOL    HW212288   0.255   2.104   1.556
 3797SOL     OW12289   6.161   6.098   2.260
 3797SOL    HW112290   6.143   6.030   2.189
 3797SOL    HW212291   6.255   6.132   2.250
 3798SOL     OW12292   1.378   4.619   6.977
 3798SOL    HW112293   1.462   4.566   6.964
 3798SOL    HW212294   1.345   4.652   6.888
 3799SOL     OW12295   0.454   0.716   5.517
 3799SOL    HW112296   0.473   0.801   5.566
 3799SOL    HW212297   0.356   0.700   5.513
 3800SOL     OW12298   4.467   2.370   5.181
 3800SOL    HW112299   4.467   2.461   5.224
 3800SOL    HW212300   4.558   2.350   5.147
 3801SOL     OW12301   7.002   0.737   5.747
 3801SOL    HW112302   6.931   0.714   5.813
 3801SOL    HW212303   6.961   0.768   5.662
 3802SOL     OW12304   1.677   2.195   4.999
 3802SOL    HW112305   1.608   2.207   4.928
 3802SOL    HW212306   1.720   2.105   4.989
 3803SOL     OW12307   4.560   1.219   1.381
 3803SOL    HW112308   4.567   1.258   1.473
 3803SOL    HW212309   4.480   1.159   1.376
 3804SOL     OW12310   5.049   4.182   4.768
 3804SOL    HW112311   4.960   4.144   4.741
 3804SOL    HW212312   5.122   4.127   4.726
 3805SOL     OW12313   2.252   2.847   1.359
 3805SOL    HW112314   2.210   2.902   1.431
 3805SOL    HW212315   2.186   2.781   1.325
 3806SOL     OW12316   4.326   0.405   0.907
 3806SOL    HW112317   4.305   0.366   0.996
 3806SOL    HW212318   4.405   0.360   0.868
 3807SOL     OW12319   1.417   6.968   2.854
 3807SOL    HW112320   1.509   7.001   2.877
 3807SOL    HW212321   1.395   6.992   2.759
 3808SOL     OW12322   3.653   1.063   0.881
 3808SOL    HW112323   3.680   1.159   0.877
 3808SOL    HW212324   3.715   1.008   0.825
 3809SOL     OW12325   3.771   0.903   0.493
 3809SOL    HW112326   3.806   0.909   0.586
 3809SOL    HW212327   3.836   0.946   0.430
 3810SOL     OW12328   1.285   3.324   6.609
 3810SOL    HW112329   1.273   3.369   6.698
 3810SOL    HW212330   1.218   3.359   6.544
 3811SOL     OW12331   6.618   0.896   5.511
 3811SOL    HW112332   6.599   0.978   5.458
 3811SOL    HW212333   6.565   0.819   5.474
 3812SOL     OW12334   4.267   7.019   5.803
 3812SOL    HW112335   4.334   6.945   5.816
 3812SOL    HW212336   4.253   0.008   5.705
 3813SOL     OW12337   3.615   4.996   1.857
 3813SOL    HW112338   3.589   4.907   1.892
 3813SOL    HW212339   3.714   5.001   1.849
 3814SOL     OW12340   1.223   0.033   1.431
 3814SOL    HW112341   1.226   6.960   1.414
 3814SOL    HW212342   1.281   0.055   1.511
 3815SOL     OW12343   4.985   2.086   2.306
 3815SOL    HW112344   4.954   2.151   2.375
 3815SOL    HW212345   4.906   2.040   2.265
 3816SOL     OW12346   6.799   5.570   0.734
 3816SOL    HW112347   6.730   5.500   0.755
 3816SOL    HW212348   6.813   5.627   0.815
 3817SOL     OW12349   5.562   1.758   4.990
 3817SOL    HW112350   5.588   1.710   4.907
 3817SOL    HW212351   5.551   1.855   4.971
 3818SOL     OW12352   3.782   0.133   2.844
 3818SOL    HW112353   3.707   0.139   2.910
 3818SOL    HW212354   3.831   0.046   2.857
 3819SOL     OW12355   5.724   3.404   6.394
 3819SOL    HW112356   5.659   3.479   6.386
 3819SOL    HW212357   5.719   3.365   6.485
 3820SOL     OW12358   4.048   6.711   3.483
 3820SOL    HW112359   4.036   6.631   3.542
 3820SOL    HW212360   4.122   6.693   3.418
 3821SOL     OW12361   1.366   4.309   1.803
 3821SOL    HW112362   1.328   4.385   1.750
 3821SOL    HW212363   1.292   4.255   1.842
 3822SOL     OW12364   0.812   3.519   1.802
 3822SOL    HW112365   0.825   3.421   1.820
 3822SOL    HW212366   0.861   3.545   1.719
 3823SOL     OW12367   1.970   3.670   5.103
 3823SOL    HW112368   2.040   3.738   5.127
 3823SOL    HW212369   2.013   3.582   5.085
 3824SOL     OW12370   0.232   3.292   6.208
 3824SOL    HW112371   0.272   3.239   6.133
 3824SOL    HW212372   0.244   3.243   6.294
 3825SOL     OW12373   0.848   5.879   6.574
 3825SOL    HW112374   0.942   5.858   6.545
 3825SOL    HW212375   0.803   5.934   6.504
 3826SOL     OW12376   0.064   1.341   1.586
 3826SOL    HW112377   0.067   1.409   1.512
 3826SOL    HW212378   6.995   1.324   1.611
 3827SOL     OW12379   4.472   1.664   1.742
 3827SOL    HW112380   4.466   1.588   1.807
 3827SOL    HW212381   4.495   1.748   1.790
 3828SOL     OW12382   3.715   1.456   0.545
 3828SOL    HW112383   3.621   1.441   0.574
 3828SOL    HW212384   3.716   1.525   0.472
 3829SOL     OW12385   0.942   5.213   3.539
 3829SOL    HW112386   0.922   5.136   3.479
 3829SOL    HW212387   1.021   5.264   3.503
 3830SOL     OW12388   2.082   0.004   5.924
 3830SOL    HW112389   2.033   0.086   5.892
 3830SOL    HW212390   2.035   6.948   5.890
 3831SOL     OW12391   4.756   2.382   2.407
 3831SOL    HW112392   4.821   2.405   2.335
 3831SOL    HW212393   4.777   2.290   2.443
 3832SOL     OW12394   6.382   6.965   2.502
 3832SOL    HW112395   6.358   0.002   2.576
 3832SOL    HW212396   6.326   6.984   2.422
 3833SOL     OW12397   1.028   6.563   1.752
 3833SOL    HW112398   1.121   6.556   1.716
 3833SOL    HW212399   0.963   6.526   1.686
 3834SOL     OW12400   3.002   2.505   0.358
 3834SOL    HW112401   2.955   2.495   0.446
 3834SOL    HW212402   2.969   2.435   0.295
 3835SOL     OW12403   3.759   4.853   2.962
 3835SOL    HW112404   3.855   4.825   2.954
 3835SOL    HW212405   3.725   4.883   2.874
 3836SOL     OW12406   1.736   2.509   6.543
 3836SOL    HW112407   1.731   2.429   6.484
 3836SOL    HW212408   1.718   2.591   6.488
 3837SOL     OW12409   3.535   4.416   6.873
 3837SOL    HW112410   3.522   4.327   6.828
 3837SOL    HW212411   3.619   4.458   6.840
 3838SOL     OW12412   0.386   3.738   5.397
 3838SOL    HW112413   0.353   3.671   5.464
 3838SOL    HW212414   0.330   3.822   5.405
 3839SOL     OW12415   0.156   6.418   6.925
 3839SOL    HW112416   0.163   6.337   6.983
 3839SOL    HW212417   0.095   6.485   6.968
 3840SOL     OW12418   3.661   1.787   3.309
 3840SOL    HW112419   3.581   1.811   3.255
 3840SOL    HW212420   3.704   1.705   3.271
 3841SOL     OW12421   1.721   3.003   3.933
 3841SOL    HW112422   1.669   2.930   3.977
 3841SOL    HW212423   1.770   2.966   3.854
 3842SOL     OW12424   1.508   4.944   0.334
 3842SOL    HW112425   1.499   4.913   0.239
 3842SOL    HW212426   1.474   4.872   0.395
 3843SOL     OW12427   6.772   4.832   0.352
 3843SOL    HW112428   6.716   4.791   0.424
 3843SOL    HW212429   6.759   4.931   0.352
 3844SOL     OW12430   2.660   4.157   5.934
 3844SOL    HW112431   2.706   4.070   5.954
 3844SOL    HW212432   2.696   4.194   5.848
 3845SOL     OW12433   3.417   3.861   5.068
 3845SOL    HW112434   3.508   3.896   5.048
 3845SOL    HW212435   3.402   3.860   5.167
 3846SOL     OW12436   7.022   4.252   4.088
 3846SOL    HW112437   6.995   4.175   4.031
 3846SOL    HW212438   6.960   4.260   4.166
 3847SOL     OW12439   1.042   6.319   1.123
 3847SOL    HW112440   1.053   6.274   1.035
 3847SOL    HW212441   0.971   6.389   1.117
 3848SOL     OW12442   2.170   6.230   2.280
 3848SOL    HW112443   2.229   6.178   2.341
 3848SOL    HW212444   2.220   6.250   2.195
 3849SOL     OW12445   2.474   1.167   4.635
 3849SOL    HW112446   2.492   1.123   4.723
 3849SOL    HW212447   2.407   1.113   4.584
 3850SOL     OW12448   1.809   2.756   1.884
 3850SOL    HW112449   1.890   2.789   1.932
 3850SOL    HW212450   1.745   2.716   1.949
 3851SOL     OW12451   2.458   2.924   0.165
 3851SOL    HW112452   2.452   2.993   0.092
 3851SOL    HW212453   2.371   2.876   0.172
 3852SOL     OW12454   4.342   1.130   5.766
 3852SOL    HW112455   4.289   1.164   5.689
 3852SOL    HW212456   4.411   1.066   5.733
 3853SOL     OW12457   0.268   3.280   1.836
 3853SOL    HW112458   0.214   3.201   1.806
 3853SOL    HW212459   0.365   3.255   1.841
 3854SOL     OW12460   1.528   3.959   4.152
 3854SOL    HW112461   1.468   3.988   4.227
 3854SOL    HW212462   1.473   3.917   4.080
 3855SOL     OW12463   6.673   2.474   5.066
 3855SOL    HW112464   6.590   2.515   5.103
 3855SOL    HW212465   6.649   2.411   4.992
 3856SOL     OW12466   1.052   6.439   5.976
 3856SOL    HW112467   0.975   6.494   6.011
 3856SOL    HW212468   1.017   6.355   5.935
 3857SOL     OW12469   0.250   0.551   6.427
 3857SOL    HW112470   0.247   0.531   6.329
 3857SOL    HW212471   0.305   0.481   6.473
 3858SOL     OW12472   3.424   5.178   6.507
 3858SOL    HW112473   3.385   5.228   6.584
 3858SOL    HW212474   3.400   5.224   6.422
 3859SOL     OW12475   0.773   2.464   2.757
 3859SOL    HW112476   0.839   2.398   2.722
 3859SOL    HW212477   0.706   2.418   2.816
 3860SOL     OW12478   2.471   5.962   4.574
 3860SOL    HW112479   2.503   5.872   4.606
 3860SOL    HW212480   2.440   6.015   4.653
 3861SOL     OW12481   3.503   4.084   0.112
 3861SOL    HW112482   3.435   4.066   0.183
 3861SOL    HW212483   3.564   4.158   0.142
 3862SOL     OW12484   0.502   6.448   5.614
 3862SOL    HW112485   0.588   6.436   5.564
 3862SOL    HW212486   0.436   6.380   5.582
 3863SOL     OW12487   2.129   3.091   0.899
 3863SOL    HW112488   2.215   3.121   0.940
 3863SOL    HW212489   2.055   3.099   0.966
 3864SOL     OW12490   3.481   1.778   2.035
 3864SOL    HW112491   3.459   1.708   1.967
 3864SOL    HW212492   3.497   1.865   1.990
 3865SOL     OW12493   4.651   1.130   1.884
 3865SOL    HW112494   4.739   1.161   1.921
 3865SOL    HW212495   4.666   1.085   1.796
 3866SOL     OW12496   4.550   6.644   5.857
 3866SOL    HW112497   4.516   6.552   5.841
 3866SOL    HW212498   4.499   6.709   5.802
 3867SOL     OW12499   2.605   5.239   2.798
 3867SOL    HW112500   2.564   5.329   2.780
 3867SOL    HW212501   2.599   5.182   2.716
 3868SOL     OW12502   2.737   5.277   2.314
 3868SOL    HW112503   2.661   5.230   2.269
 3868SOL    HW212504   2.728   5.268   2.413
 3869SOL     OW12505   1.781   1.402   3.401
 3869SOL    HW112506   1.856   1.459   3.366
 3869SOL    HW212507   1.696   1.429   3.357
 3870SOL     OW12508   3.892   3.723   0.463
 3870SOL    HW112509   3.837   3.733   0.546
 3870SOL    HW212510   3.955   3.800   0.455
 3871SOL     OW12511   2.078   0.258   5.004
 3871SOL    HW112512   1.996   0.272   5.059
 3871SOL    HW212513   2.091   0.337   4.944
 3872SOL     OW12514   4.789   3.988   6.698
 3872SOL    HW112515   4.778   3.946   6.608
 3872SOL    HW212516   4.858   3.936   6.750
 3873SOL     OW12517   6.002   5.374   1.730
 3873SOL    HW112518   6.073   5.308   1.706
 3873SOL    HW212519   6.019   5.460   1.680
 3874SOL     OW12520   5.759   6.265   5.241
 3874SOL    HW112521   5.804   6.255   5.329
 3874SOL    HW212522   5.682   6.202   5.235
 3875SOL     OW12523   3.182   3.355   0.608
 3875SOL    HW112524   3.172   3.258   0.590
 3875SOL    HW212525   3.273   3.385   0.579
 3876SOL     OW12526   5.228   4.591   3.165
 3876SOL    HW112527   5.158   4.629   3.105
 3876SOL    HW212528   5.184   4.538   3.238
 3877SOL     OW12529   4.912   2.468   2.210
 3877SOL    HW112530   5.000   2.507   2.239
 3877SOL    HW212531   4.919   2.441   2.114
 3878SOL     OW12532   6.402   5.058   5.125
 3878SOL    HW112533   6.360   4.997   5.058
 3878SOL    HW212534   6.499   5.035   5.135
 3879SOL     OW12535   1.912   6.631   0.744
 3879SOL    HW112536   1.904   6.662   0.839
 3879SOL    HW212537   2.005   6.648   0.711
 3880SOL     OW12538   5.645   2.024   4.275
 3880SOL    HW112539   5.661   1.931   4.306
 3880SOL    HW212540   5.612   2.022   4.180
 3881SOL     OW12541   0.190   6.517   5.849
 3881SOL    HW112542   0.253   6.533   5.773
 3881SOL    HW212543   0.234   6.458   5.917
 3882SOL     OW12544   6.805   5.548   0.211
 3882SOL    HW112545   6.765   5.459   0.191
 3882SOL    HW212546   6.843   5.547   0.303
 3883SOL     OW12547   4.067   1.979   0.816
 3883SOL    HW112548   4.153   1.935   0.793
 3883SOL    HW212549   4.077   2.028   0.903
 3884SOL     OW12550   3.151   6.345   6.058
 3884SOL    HW112551   3.221   6.279   6.031
 3884SOL    HW212552   3.166   6.374   6.152
 3885SOL     OW12553   1.134   1.638   4.178
 3885SOL    HW112554   1.049   1.610   4.223
 3885SOL    HW212555   1.212   1.618   4.238
 3886SOL     OW12556   6.798   5.622   4.643
 3886SOL    HW112557   6.831   5.647   4.734
 3886SOL    HW212558   6.864   5.651   4.575
 3887SOL     OW12559   0.694   2.701   5.017
 3887SOL    HW112560   0.744   2.785   5.040
 3887SOL    HW212561   0.680   2.697   4.918
 3888SOL     OW12562   4.664   1.962   3.334
 3888SOL    HW112563   4.608   2.018   3.272
 3888SOL    HW212564   4.705   1.887   3.282
 3889SOL     OW12565   6.221   5.615   0.408
 3889SOL    HW112566   6.159   5.638   0.333
 3889SOL    HW212567   6.180   5.544   0.464
 3890SOL     OW12568   5.708   2.932   3.733
 3890SOL    HW112569   5.728   2.850   3.788
 3890SOL    HW212570   5.631   2.980   3.773
 3891SOL     OW12571   3.507   4.749   6.421
 3891SOL    HW112572   3.561   4.806   6.482
 3891SOL    HW212573   3.561   4.670   6.392
 3892SOL     OW12574   5.164   5.510   4.311
 3892SOL    HW112575   5.080   5.461   4.289
 3892SOL    HW212576   5.238   5.476   4.254
 3893SOL     OW12577   2.943   6.242   4.844
 3893SOL    HW112578   2.883   6.207   4.916
 3893SOL    HW212579   2.924   6.193   4.758
 3894SOL     OW12580   5.617   5.050   6.335
 3894SOL    HW112581   5.594   5.088   6.425
 3894SOL    HW212582   5.595   4.953   6.334
 3895SOL     OW12583   1.540   1.565   5.082
 3895SOL    HW112584   1.477   1.529   5.151
 3895SOL    HW212585   1.522   1.662   5.068
 3896SOL     OW12586   6.165   3.361   1.655
 3896SOL    HW112587   6.141   3.364   1.558
 3896SOL    HW212588   6.250   3.308   1.666
 3897SOL     OW12589   2.592   0.563   2.768
 3897SOL    HW112590   2.640   0.480   2.797
 3897SOL    HW212591   2.623   0.589   2.677
 3898SOL     OW12592   3.370   3.954   2.508
 3898SOL    HW112593   3.278   3.980   2.538
 3898SOL    HW212594   3.434   4.026   2.534
 3899SOL     OW12595   4.142   1.060   6.476
 3899SOL    HW112596   4.099   1.015   6.398
 3899SOL    HW212597   4.173   1.151   6.448
 3900SOL     OW12598   1.368   1.849   3.782
 3900SOL    HW112599   1.388   1.901   3.700
 3900SOL    HW212600   1.275   1.811   3.776
 3901SOL     OW12601   4.274   6.772   4.437
 3901SOL    HW112602   4.340   6.701   4.462
 3901SOL    HW212603   4.236   6.814   4.520
 3902SOL     OW12604   3.235   4.915   3.426
 3902SOL    HW112605   3.178   4.954   3.353
 3902SOL    HW212606   3.177   4.880   3.499
 3903SOL     OW12607   2.860   3.953   5.930
 3903SOL    HW112608   2.938   3.893   5.948
 3903SOL    HW212609   2.786   3.899   5.889
 3904SOL     OW12610   1.722   5.881   0.570
 3904SOL    HW112611   1.649   5.947   0.556
 3904SOL    HW212612   1.804   5.927   0.605
 3905SOL     OW12613   4.860   6.480   4.782
 3905SOL    HW112614   4.893   6.544   4.852
 3905SOL    HW212615   4.905   6.500   4.695
 3906SOL     OW12616   6.711   5.703   3.829
 3906SOL    HW112617   6.622   5.712   3.874
 3906SOL    HW212618   6.773   5.650   3.888
 3907SOL     OW12619   1.300   0.481   4.606
 3907SOL    HW112620   1.265   0.553   4.546
 3907SOL    HW212621   1.265   0.392   4.576
 3908SOL     OW12622   2.542   1.822   4.531
 3908SOL    HW112623   2.593   1.822   4.616
 3908SOL    HW212624   2.591   1.769   4.462
 3909SOL     OW12625   6.512   2.934   2.611
 3909SOL    HW112626   6.577   2.915   2.684
 3909SOL    HW212627   6.449   3.006   2.639
 3910SOL     OW12628   1.625   2.209   0.153
 3910SOL    HW112629   1.627   2.117   0.114
 3910SOL    HW212630   1.644   2.276   0.080
 3911SOL     OW12631   6.292   0.845   1.867
 3911SOL    HW112632   6.269   0.868   1.962
 3911SOL    HW212633   6.212   0.862   1.809
 3912SOL     OW12634   4.970   4.380   0.497
 3912SOL    HW112635   5.014   4.470   0.487
 3912SOL    HW212636   5.033   4.309   0.468
 3913SOL     OW12637   3.932   4.284   0.700
 3913SOL    HW112638   4.015   4.260   0.751
 3913SOL    HW212639   3.930   4.231   0.615
 3914SOL     OW12640   0.636   0.492   0.497
 3914SOL    HW112641   0.684   0.578   0.483
 3914SOL    HW212642   0.572   0.476   0.421
 3915SOL     OW12643   5.348   0.142   3.925
 3915SOL    HW112644   5.406   0.224   3.933
 3915SOL    HW212645   5.253   0.170   3.910
 3916SOL     OW12646   1.615   2.641   2.072
 3916SOL    HW112647   1.637   2.686   2.159
 3916SOL    HW212648   1.609   2.542   2.087
 3917SOL     OW12649   2.538   5.419   1.671
 3917SOL    HW112650   2.467   5.473   1.717
 3917SOL    HW212651   2.579   5.356   1.736
 3918SOL     OW12652   3.834   6.578   7.012
 3918SOL    HW112653   3.774   6.504   6.984
 3918SOL    HW212654   3.910   6.587   6.948
 3919SOL     OW12655   4.859   4.628   3.338
 3919SOL    HW112656   4.888   4.694   3.407
 3919SOL    HW212657   4.761   4.638   3.321
 3920SOL     OW12658   4.573   0.211   5.552
 3920SOL    HW112659   4.620   0.222   5.464
 3920SOL    HW212660   4.621   0.265   5.622
 3921SOL     OW12661   1.361   4.207   5.702
 3921SOL    HW112662   1.421   4.148   5.648
 3921SOL    HW212663   1.349   4.168   5.793
 3922SOL     OW12664   5.328   1.273   3.862
 3922SOL    HW112665   5.272   1.231   3.790
 3922SOL    HW212666   5.289   1.250   3.951
 3923SOL     OW12667   5.758   1.440   1.396
 3923SOL    HW112668   5.739   1.345   1.422
 3923SOL    HW212669   5.702   1.501   1.452
 3924SOL     OW12670   5.689   4.807   3.964
 3924SOL    HW112671   5.665   4.780   3.870
 3924SOL    HW212672   5.787   4.825   3.969
 3925SOL     OW12673   3.430   4.772   1.650
 3925SOL    HW112674   3.502   4.754   1.717
 3925SOL    HW212675   3.376   4.689   1.637
 3926SOL     OW12676   0.757   6.076   5.150
 3926SOL    HW112677   0.802   5.987   5.162
 3926SOL    HW212678   0.661   6.061   5.127
 3927SOL     OW12679   6.721   6.110   5.492
 3927SOL    HW112680   6.775   6.035   5.453
 3927SOL    HW212681   6.630   6.109   5.452
 3928SOL     OW12682   4.113   5.251   1.797
 3928SOL    HW112683   4.190   5.314   1.802
 3928SOL    HW212684   4.074   5.238   1.888
 3929SOL     OW12685   1.973   0.689   5.379
 3929SOL    HW112686   2.009   0.603   5.416
 3929SOL    HW212687   1.874   0.680   5.367
 3930SOL     OW12688   1.721   5.578   4.650
 3930SOL    HW112689   1.637   5.616   4.610
 3930SOL    HW212690   1.697   5.511   4.719
 3931SOL     OW12691   0.171   2.234   0.739
 3931SOL    HW112692   0.097   2.291   0.702
 3931SOL    HW212693   0.256   2.254   0.690
 3932SOL     OW12694   1.752   4.620   2.928
 3932SOL    HW112695   1.817   4.695   2.920
 3932SOL    HW212696   1.792   4.536   2.891
 3933SOL     OW12697   0.668   6.975   1.292
 3933SOL    HW112698   0.642   7.012   1.203
 3933SOL    HW212699   0.586   6.963   1.348
 3934SOL     OW12700   0.631   6.761   1.871
 3934SOL    HW112701   0.697   6.708   1.925
 3934SOL    HW212702   0.658   6.760   1.775
 3935SOL     OW12703   6.844   1.485   5.016
 3935SOL    HW112704   6.942   1.497   5.031
 3935SOL    HW212705   6.806   1.565   4.971
 3936SOL     OW12706   6.638   4.540   4.605
 3936SOL    HW112707   6.547   4.537   4.564
 3936SOL    HW212708   6.629   4.553   4.704
 3937SOL     OW12709   1.478   5.764   6.846
 3937SOL    HW112710   1.499   5.685   6.790
 3937SOL    HW212711   1.546   5.772   6.920
 3938SOL     OW12712   1.062   4.582   6.637
 3938SOL    HW112713   0.989   4.562   6.572
 3938SOL    HW212714   1.147   4.539   6.605
 3939SOL     OW12715   1.380   5.528   4.432
 3939SOL    HW112716   1.379   5.438   4.476
 3939SOL    HW212717   1.315   5.529   4.357
 3940SOL     OW12718   2.393   6.244   6.775
 3940SOL    HW112719   2.300   6.211   6.755
 3940SOL    HW212720   2.409   6.328   6.722
 3941SOL     OW12721   5.803   4.904   3.166
 3941SOL    HW112722   5.893   4.876   3.200
 3941SOL    HW212723   5.743   4.824   3.162
 3942SOL     OW12724   0.408   0.158   0.316
 3942SOL    HW112725   0.427   0.118   0.226
 3942SOL    HW212726   0.484   0.138   0.378
 3943SOL     OW12727   0.967   4.556   0.918
 3943SOL    HW112728   0.926   4.481   0.867
 3943SOL    HW212729   0.937   4.643   0.881
 3944SOL     OW12730   6.155   2.782   0.851
 3944SOL    HW112731   6.220   2.726   0.902
 3944SOL    HW212732   6.073   2.796   0.906
 3945SOL     OW12733   0.933   0.611   3.154
 3945SOL    HW112734   0.939   0.584   3.058
 3945SOL    HW212735   0.873   0.690   3.163
 3946SOL     OW12736   4.592   1.347   1.027
 3946SOL    HW112737   4.645   1.266   1.051
 3946SOL    HW212738   4.494   1.328   1.039
 3947SOL     OW12739   5.063   0.709   0.981
 3947SOL    HW112740   5.002   0.633   0.958
 3947SOL    HW212741   5.127   0.725   0.906
 3948SOL     OW12742   1.718   1.229   3.607
 3948SOL    HW112743   1.778   1.270   3.676
 3948SOL    HW212744   1.723   1.283   3.523
 3949SOL     OW12745   6.068   6.799   2.366
 3949SOL    HW112746   6.089   6.728   2.299
 3949SOL    HW212747   5.978   6.782   2.406
 3950SOL     OW12748   2.259   4.663   1.722
 3950SOL    HW112749   2.212   4.708   1.798
 3950SOL    HW212750   2.319   4.729   1.676
 3951SOL     OW12751   6.992   3.423   2.952
 3951SOL    HW112752   0.046   3.367   2.926
 3951SOL    HW212753   7.022   3.516   2.973
 3952SOL     OW12754   5.881   5.520   0.174
 3952SOL    HW112755   5.866   5.464   0.255
 3952SOL    HW212756   5.958   5.582   0.190
 3953SOL     OW12757   3.598   3.235   4.933
 3953SOL    HW112758   3.499   3.227   4.922
 3953SOL    HW212759   3.618   3.285   5.018
 3954SOL     OW12760   0.753   5.674   6.710
 3954SOL    HW112761   0.777   5.753   6.655
 3954SOL    HW212762   0.726   5.598   6.650
 3955SOL     OW12763   6.248   3.116   0.467
 3955SOL    HW112764   6.152   3.103   0.492
 3955SOL    HW212765   6.305   3.052   0.519
 3956SOL     OW12766   6.978   3.637   4.574
 3956SOL    HW112767   6.888   3.660   4.611
 3956SOL    HW212768   0.022   3.648   4.646
 3957SOL     OW12769   1.674   2.578   1.354
 3957SOL    HW112770   1.600   2.587   1.421
 3957SOL    HW212771   1.761   2.601   1.396
 3958SOL     OW12772   4.743   4.930   0.778
 3958SOL    HW112773   4.668   4.891   0.831
 3958SOL    HW212774   4.769   4.867   0.705
 3959SOL     OW12775   2.157   5.286   6.879
 3959SOL    HW112776   2.061   5.305   6.859
 3959SOL    HW212777   2.211   5.370   6.873
 3960SOL     OW12778   5.499   3.409   1.531
 3960SOL    HW112779   5.500   3.417   1.431
 3960SOL    HW212780   5.494   3.501   1.571
 3961SOL     OW12781   0.439   1.758   2.205
 3961SOL    HW112782   0.409   1.854   2.212
 3961SOL    HW212783   0.533   1.755   2.173
 3962SOL     OW12784   0.144   0.149   0.074
 3962SOL    HW112785   0.123   0.102   0.160
 3962SOL    HW212786   0.062   0.150   0.017
 3963SOL     OW12787   6.351   3.021   4.755
 3963SOL    HW112788   6.319   3.003   4.848
 3963SOL    HW212789   6.388   3.114   4.751
 3964SOL     OW12790   6.060   4.708   6.373
 3964SOL    HW112791   5.987   4.756   6.324
 3964SOL    HW212792   6.110   4.650   6.309
 3965SOL     OW12793   2.376   4.935   2.017
 3965SOL    HW112794   2.450   4.869   2.029
 3965SOL    HW212795   2.294   4.902   2.064
 3966SOL     OW12796   6.996   4.341   5.950
 3966SOL    HW112797   0.003   4.256   5.907
 3966SOL    HW212798   6.961   4.402   5.880
 3967SOL     OW12799   3.055   0.651   0.961
 3967SOL    HW112800   2.975   0.593   0.949
 3967SOL    HW212801   3.057   0.687   1.054
 3968SOL     OW12802   4.986   2.149   0.723
 3968SOL    HW112803   4.981   2.213   0.646
 3968SOL    HW212804   5.022   2.061   0.691
 3969SOL     OW12805   6.532   7.023   1.483
 3969SOL    HW112806   6.432   7.022   1.485
 3969SOL    HW212807   6.565   0.092   1.489
 3970SOL     OW12808   5.810   3.549   3.336
 3970SOL    HW112809   5.808   3.623   3.268
 3970SOL    HW212810   5.884   3.567   3.402
 3971SOL     OW12811   0.088   5.385   3.889
 3971SOL    HW112812   0.061   5.381   3.986
 3971SOL    HW212813   0.014   5.346   3.834
 3972SOL     OW12814   0.499   1.201   6.550
 3972SOL    HW112815   0.481   1.278   6.611
 3972SOL    HW212816   0.594   1.204   6.518
 3973SOL     OW12817   3.908   2.958   1.223
 3973SOL    HW112818   3.932   3.054   1.239
 3973SOL    HW212819   3.809   2.947   1.227
 3974SOL     OW12820   5.764   0.505   6.280
 3974SOL    HW112821   5.666   0.492   6.296
 3974SOL    HW212822   5.785   0.602   6.280
 3975SOL     OW12823   6.966   6.275   3.427
 3975SOL    HW112824   6.991   6.244   3.335
 3975SOL    HW212825   6.908   6.207   3.471
 3976SOL     OW12826   1.004   2.816   5.156
 3976SOL    HW112827   0.981   2.808   5.253
 3976SOL    HW212828   0.942   2.881   5.113
 3977SOL     OW12829   2.282   5.205   5.840
 3977SOL    HW112830   2.270   5.166   5.749
 3977SOL    HW212831   2.379   5.203   5.864
 3978SOL     OW12832   4.093   3.372   6.353
 3978SOL    HW112833   4.010   3.364   6.297
 3978SOL    HW212834   4.109   3.468   6.374
 3979SOL     OW12835   0.441   5.713   3.095
 3979SOL    HW112836   0.360   5.731   3.149
 3979SOL    HW212837   0.435   5.621   3.056
 3980SOL     OW12838   5.597   4.087   3.843
 3980SOL    HW112839   5.666   4.125   3.905
 3980SOL    HW212840   5.584   3.990   3.864
 3981SOL     OW12841   6.498   1.386   6.605
 3981SOL    HW112842   6.409   1.379   6.650
 3981SOL    HW212843   6.494   1.339   6.517
 3982SOL     OW12844   1.971   2.678   3.658
 3982SOL    HW112845   1.973   2.584   3.622
 3982SOL    HW212846   1.992   2.676   3.756
 3983SOL     OW12847   2.153   1.649   3.372
 3983SOL    HW112848   2.139   1.560   3.416
 3983SOL    HW212849   2.099   1.719   3.420
 3984SOL     OW12850   1.257   6.380   2.686
 3984SOL    HW112851   1.306   6.426   2.760
 3984SOL    HW212852   1.322   6.356   2.613
 3985SOL     OW12853   0.948   2.054   1.365
 3985SOL    HW112854   1.026   2.112   1.387
 3985SOL    HW212855   0.925   1.997   1.444
 3986SOL     OW12856   1.047   0.250   3.095
 3986SOL    HW112857   1.139   0.214   3.109
 3986SOL    HW212858   1.010   0.283   3.182
 3987SOL     OW12859   1.677   4.480   5.406
 3987SOL    HW112860   1.644   4.454   5.497
 3987SOL    HW212861   1.726   4.404   5.365
 3988SOL     OW12862   4.734   5.340   2.221
 3988SOL    HW112863   4.722   5.250   2.263
 3988SOL    HW212864   4.758   5.329   2.125
 3989SOL     OW12865   4.433   0.923   6.387
 3989SOL    HW112866   4.487   0.895   6.466
 3989SOL    HW212867   4.344   0.956   6.418
 3990SOL     OW12868   6.243   5.946   3.809
 3990SOL    HW112869   6.146   5.960   3.792
 3990SOL    HW212870   6.294   5.952   3.723
 3991SOL     OW12871   0.568   2.223   4.990
 3991SOL    HW112872   0.492   2.273   4.950
 3991SOL    HW212873   0.585   2.140   4.938
 3992SOL     OW12874   6.107   3.554   5.916
 3992SOL    HW112875   6.143   3.638   5.877
 3992SOL    HW212876   6.055   3.505   5.845
 3993SOL     OW12877   1.390   0.764   4.163
 3993SOL    HW112878   1.367   0.810   4.077
 3993SOL    HW212879   1.327   0.689   4.179
 3994SOL     OW12880   2.989   2.022   3.235
 3994SOL    HW112881   2.920   1.995   3.169
 3994SOL    HW212882   3.019   1.942   3.286
 3995SOL     OW12883   2.210   4.254   1.771
 3995SOL    HW112884   2.252   4.163   1.774
 3995SOL    HW212885   2.176   4.272   1.679
 3996SOL     OW12886   0.405   5.664   5.481
 3996SOL    HW112887   0.412   5.715   5.395
 3996SOL    HW212888   0.466   5.586   5.479
 3997SOL     OW12889   5.960   3.482   5.329
 3997SOL    HW112890   5.875   3.507   5.375
 3997SOL    HW212891   6.031   3.464   5.398
 3998SOL     OW12892   4.476   2.119   3.147
 3998SOL    HW112893   4.430   2.031   3.159
 3998SOL    HW212894   4.410   2.194   3.161
 3999SOL     OW12895   4.673   3.890   1.060
 3999SOL    HW112896   4.638   3.837   0.983
 3999SOL    HW212897   4.743   3.954   1.028
 4000SOL     OW12898   2.810   4.803   2.517
 4000SOL    HW112899   2.864   4.820   2.435
 4000SOL    HW212900   2.752   4.723   2.502
 4001SOL     OW12901   0.618   5.580   4.086
 4001SOL    HW112902   0.639   5.675   4.065
 4001SOL    HW212903   0.680   5.520   4.035
 4002SOL     OW12904   3.550   3.835   4.665
 4002SOL    HW112905   3.516   3.748   4.630
 4002SOL    HW212906   3.501   3.910   4.620
 4003SOL     OW12907   3.353   1.534   4.479
 4003SOL    HW112908   3.419   1.560   4.550
 4003SOL    HW212909   3.375   1.584   4.395
 4004SOL     OW12910   1.770   3.748   4.967
 4004SOL    HW112911   1.839   3.725   5.036
 4004SOL    HW212912   1.728   3.664   4.932
 4005SOL     OW12913   5.947   2.020   1.972
 4005SOL    HW112914   5.912   1.938   1.929
 4005SOL    HW212915   6.040   2.003   2.006
 4006SOL     OW12916   6.880   5.454   1.909
 4006SOL    HW112917   6.917   5.544   1.890
 4006SOL    HW212918   6.851   5.410   1.824
 4007SOL     OW12919   0.616   1.366   1.814
 4007SOL    HW112920   0.547   1.406   1.753
 4007SOL    HW212921   0.706   1.402   1.790
 4008SOL     OW12922   4.183   0.208   1.756
 4008SOL    HW112923   4.121   0.282   1.730
 4008SOL    HW212924   4.156   0.124   1.711
 4009SOL     OW12925   3.468   2.611   1.557
 4009SOL    HW112926   3.516   2.667   1.489
 4009SOL    HW212927   3.534   2.572   1.620
 4010SOL     OW12928   1.395   5.430   1.215
 4010SOL    HW112929   1.320   5.372   1.249
 4010SOL    HW212930   1.467   5.372   1.177
 4011SOL     OW12931   5.840   6.480   6.228
 4011SOL    HW112932   5.872   6.446   6.316
 4011SOL    HW212933   5.740   6.479   6.227
 4012SOL     OW12934   5.977   4.280   2.045
 4012SOL    HW112935   6.024   4.368   2.035
 4012SOL    HW212936   6.027   4.209   1.996
 4013SOL     OW12937   0.146   1.878   6.948
 4013SOL    HW112938   0.128   1.787   6.911
 4013SOL    HW212939   0.226   1.875   7.007
 4014SOL     OW12940   4.296   6.613   2.817
 4014SOL    HW112941   4.217   6.675   2.819
 4014SOL    HW212942   4.279   6.540   2.750
 4015SOL     OW12943   3.401   6.305   5.219
 4015SOL    HW112944   3.354   6.385   5.256
 4015SOL    HW212945   3.423   6.322   5.123
 4016SOL     OW12946   4.502   5.241   3.985
 4016SOL    HW112947   4.451   5.155   3.980
 4016SOL    HW212948   4.541   5.262   3.896
 4017SOL     OW12949   1.547   6.234   6.378
 4017SOL    HW112950   1.561   6.146   6.423
 4017SOL    HW212951   1.577   6.227   6.283
 4018SOL     OW12952   5.464   5.388   0.278
 4018SOL    HW112953   5.465   5.463   0.344
 4018SOL    HW212954   5.380   5.391   0.224
 4019SOL     OW12955   0.883   2.213   3.148
 4019SOL    HW112956   0.975   2.240   3.121
 4019SOL    HW212957   0.887   2.126   3.197
 4020SOL     OW12958   6.460   5.905   4.854
 4020SOL    HW112959   6.524   5.885   4.928
 4020SOL    HW212960   6.509   5.911   4.767
 4021SOL     OW12961   4.810   5.619   5.769
 4021SOL    HW112962   4.748   5.644   5.695
 4021SOL    HW212963   4.874   5.694   5.785
 4022SOL     OW12964   3.765   0.537   1.451
 4022SOL    HW112965   3.732   0.583   1.534
 4022SOL    HW212966   3.855   0.572   1.427
 4023SOL     OW12967   1.698   1.570   3.758
 4023SOL    HW112968   1.734   1.478   3.772
 4023SOL    HW212969   1.666   1.608   3.845
 4024SOL     OW12970   1.283   6.650   6.517
 4024SOL    HW112971   1.287   6.678   6.612
 4024SOL    HW212972   1.375   6.625   6.485
 4025SOL     OW12973   1.226   4.579   4.792
 4025SOL    HW112974   1.275   4.645   4.736
 4025SOL    HW212975   1.213   4.617   4.884
 4026SOL     OW12976   0.160   6.396   4.237
 4026SOL    HW112977   0.223   6.465   4.274
 4026SOL    HW212978   0.175   6.387   4.139
 4027SOL     OW12979   3.314   5.429   4.853
 4027SOL    HW112980   3.232   5.443   4.909
 4027SOL    HW212981   3.343   5.517   4.816
 4028SOL     OW12982   4.818   1.705   4.853
 4028SOL    HW112983   4.747   1.636   4.836
 4028SOL    HW212984   4.787   1.793   4.816
 4029SOL     OW12985   1.938   6.721   0.993
 4029SOL    HW112986   1.951   6.627   1.023
 4029SOL    HW212987   1.872   6.766   1.054
 4030SOL     OW12988   0.082   1.494   1.883
 4030SOL    HW112989   0.125   1.450   1.804
 4030SOL    HW212990   0.004   1.439   1.914
 4031SOL     OW12991   6.210   6.139   0.913
 4031SOL    HW112992   6.242   6.117   0.821
 4031SOL    HW212993   6.159   6.224   0.911
 4032SOL     OW12994   4.690   2.059   2.201
 4032SOL    HW112995   4.644   2.077   2.288
 4032SOL    HW212996   4.633   2.092   2.125
 4033SOL     OW12997   1.191   4.296   3.505
 4033SOL    HW112998   1.289   4.318   3.504
 4033SOL    HW212999   1.168   4.245   3.422
 4034SOL     OW13000   3.086   1.656   4.371
 4034SOL    HW113001   3.096   1.753   4.395
 4034SOL    HW213002   3.157   1.603   4.418
 4035SOL     OW13003   3.479   2.276   1.230
 4035SOL    HW113004   3.484   2.238   1.322
 4035SOL    HW213005   3.447   2.206   1.166
 4036SOL     OW13006   4.138   0.430   3.066
 4036SOL    HW113007   4.177   0.347   3.105
 4036SOL    HW213008   4.047   0.445   3.105
 4037SOL     OW13009   1.590   0.841   5.760
 4037SOL    HW113010   1.573   0.745   5.783
 4037SOL    HW213011   1.510   0.896   5.786
 4038SOL     OW13012   3.964   5.320   5.871
 4038SOL    HW113013   3.907   5.382   5.817
 4038SOL    HW213014   3.998   5.246   5.813
 4039SOL     OW13015   6.331   4.643   2.160
 4039SOL    HW113016   6.266   4.591   2.105
 4039SOL    HW213017   6.356   4.590   2.241
 4040SOL     OW13018   2.073   6.700   5.247
 4040SOL    HW113019   2.080   6.615   5.194
 4040SOL    HW213020   2.156   6.755   5.233
 4041SOL     OW13021   1.054   6.230   1.464
 4041SOL    HW113022   1.100   6.214   1.376
 4041SOL    HW213023   1.107   6.188   1.538
 4042SOL     OW13024   1.576   1.489   4.592
 4042SOL    HW113025   1.603   1.460   4.500
 4042SOL    HW213026   1.641   1.454   4.659
 4043SOL     OW13027   4.060   2.920   5.809
 4043SOL    HW113028   4.072   2.901   5.711
 4043SOL    HW213029   3.991   2.992   5.821
 4044SOL     OW13030   4.685   4.237   3.778
 4044SOL    HW113031   4.708   4.201   3.687
 4044SOL    HW213032   4.731   4.182   3.848
 4045SOL     OW13033   4.584   1.565   4.816
 4045SOL    HW113034   4.599   1.545   4.719
 4045SOL    HW213035   4.526   1.494   4.856
 4046SOL     OW13036   5.390   0.720   4.234
 4046SOL    HW113037   5.292   0.738   4.245
 4046SOL    HW213038   5.419   0.748   4.143
 4047SOL     OW13039   2.422   2.848   6.479
 4047SOL    HW113040   2.412   2.749   6.492
 4047SOL    HW213041   2.518   2.873   6.486
 4048SOL     OW13042   5.088   2.381   3.221
 4048SOL    HW113043   5.155   2.455   3.225
 4048SOL    HW213044   5.129   2.296   3.254
 4049SOL     OW13045   3.984   3.870   2.404
 4049SOL    HW113046   4.069   3.917   2.427
 4049SOL    HW213047   3.939   3.917   2.329
 4050SOL     OW13048   0.066   4.764   2.845
 4050SOL    HW113049   0.028   4.848   2.806
 4050SOL    HW213050   0.135   4.726   2.783
 4051SOL     OW13051   5.619   0.221   3.634
 4051SOL    HW113052   5.565   0.293   3.676
 4051SOL    HW213053   5.614   0.229   3.534
 4052SOL     OW13054   4.189   0.980   5.125
 4052SOL    HW113055   4.106   0.979   5.071
 4052SOL    HW213056   4.217   1.074   5.142
 4053SOL     OW13057   0.901   4.845   2.790
 4053SOL    HW113058   0.829   4.795   2.743
 4053SOL    HW213059   0.888   4.837   2.889
 4054SOL     OW13060   5.199   3.978   1.279
 4054SOL    HW113061   5.204   3.925   1.365
 4054SOL    HW213062   5.137   3.932   1.215
 4055SOL     OW13063   6.824   3.885   0.297
 4055SOL    HW113064   6.842   3.864   0.394
 4055SOL    HW213065   6.786   3.977   0.289
 4056SOL     OW13066   5.085   4.422   0.149
 4056SOL    HW113067   5.122   4.411   0.242
 4056SOL    HW213068   5.107   4.341   0.095
 4057SOL     OW13069   6.909   5.307   5.234
 4057SOL    HW113070   6.864   5.234   5.285
 4057SOL    HW213071   6.845   5.346   5.168
 4058SOL     OW13072   3.058   0.682   3.745
 4058SOL    HW113073   3.063   0.762   3.685
 4058SOL    HW213074   2.967   0.676   3.786
 4059SOL     OW13075   2.196   0.973   3.490
 4059SOL    HW113076   2.117   0.949   3.432
 4059SOL    HW213077   2.218   0.896   3.550
 4060SOL     OW13078   6.903   6.453   3.793
 4060SOL    HW113079   6.985   6.446   3.736
 4060SOL    HW213080   6.910   6.388   3.869
 4061SOL     OW13081   1.426   3.913   2.516
 4061SOL    HW113082   1.354   3.915   2.447
 4061SOL    HW213083   1.511   3.949   2.478
 4062SOL     OW13084   2.657   3.673   0.467
 4062SOL    HW113085   2.640   3.771   0.474
 4062SOL    HW213086   2.744   3.651   0.512
 4063SOL     OW13087   3.550   0.868   1.297
 4063SOL    HW113088   3.547   0.825   1.207
 4063SOL    HW213089   3.537   0.967   1.287
 4064SOL     OW13090   2.517   6.832   4.653
 4064SOL    HW113091   2.556   6.768   4.587
 4064SOL    HW213092   2.425   6.857   4.625
 4065SOL     OW13093   2.394   1.062   1.986
 4065SOL    HW113094   2.332   1.011   1.927
 4065SOL    HW213095   2.362   1.058   2.080
 4066SOL     OW13096   0.391   4.404   5.018
 4066SOL    HW113097   0.358   4.479   5.076
 4066SOL    HW213098   0.460   4.439   4.955
 4067SOL     OW13099   5.870   4.078   1.433
 4067SOL    HW113100   5.840   4.076   1.528
 4067SOL    HW213101   5.902   4.171   1.411
 4068SOL     OW13102   2.427   2.674   5.973
 4068SOL    HW113103   2.503   2.624   6.015
 4068SOL    HW213104   2.363   2.609   5.932
 4069SOL     OW13105   4.006   0.562   6.056
 4069SOL    HW113106   4.066   0.581   6.134
 4069SOL    HW213107   4.061   0.548   5.974
 4070SOL     OW13108   1.773   4.203   4.623
 4070SOL    HW113109   1.781   4.227   4.720
 4070SOL    HW213110   1.841   4.135   4.600
 4071SOL     OW13111   0.910   0.511   4.789
 4071SOL    HW113112   0.833   0.470   4.839
 4071SOL    HW213113   0.977   0.440   4.768
 4072SOL     OW13114   2.756   6.011   2.281
 4072SOL    HW113115   2.770   6.096   2.231
 4072SOL    HW213116   2.783   6.024   2.376
 4073SOL     OW13117   4.999   4.943   6.754
 4073SOL    HW113118   5.067   5.016   6.746
 4073SOL    HW213119   5.035   4.859   6.714
 4074SOL     OW13120   1.228   5.473   1.950
 4074SOL    HW113121   1.310   5.530   1.954
 4074SOL    HW213122   1.148   5.530   1.930
 4075SOL     OW13123   5.600   0.043   6.172
 4075SOL    HW113124   5.625   6.972   6.163
 4075SOL    HW213125   5.540   0.055   6.251
 4076SOL     OW13126   2.418   5.271   3.494
 4076SOL    HW113127   2.508   5.264   3.450
 4076SOL    HW213128   2.349   5.290   3.425
 4077SOL     OW13129   2.685   1.588   1.359
 4077SOL    HW113130   2.699   1.503   1.309
 4077SOL    HW213131   2.590   1.593   1.390
 4078SOL     OW13132   4.463   4.673   1.876
 4078SOL    HW113133   4.462   4.689   1.975
 4078SOL    HW213134   4.532   4.605   1.854
 4079SOL     OW13135   0.730   3.064   3.943
 4079SOL    HW113136   0.693   3.147   3.984
 4079SOL    HW213137   0.784   3.087   3.863
 4080SOL     OW13138   6.639   2.323   4.846
 4080SOL    HW113139   6.731   2.293   4.821
 4080SOL    HW213140   6.573   2.251   4.821
 4081SOL     OW13141   6.139   3.716   2.119
 4081SOL    HW113142   6.124   3.633   2.173
 4081SOL    HW213143   6.235   3.740   2.120
 4082SOL     OW13144   0.393   3.516   1.473
 4082SOL    HW113145   0.441   3.437   1.434
 4082SOL    HW213146   0.446   3.599   1.456
 4083SOL     OW13147   0.017   3.793   5.915
 4083SOL    HW113148   6.970   3.762   5.976
 4083SOL    HW213149   0.084   3.719   5.903
 4084SOL     OW13150   4.446   0.338   3.916
 4084SOL    HW113151   4.442   0.378   4.007
 4084SOL    HW213152   4.369   0.275   3.903
 4085SOL     OW13153   2.507   5.281   6.439
 4085SOL    HW113154   2.505   5.332   6.353
 4085SOL    HW213155   2.414   5.258   6.466
 4086SOL     OW13156   0.008   1.972   2.127
 4086SOL    HW113157   6.992   1.958   2.037
 4086SOL    HW213158   0.072   1.898   2.146
 4087SOL     OW13159   1.202   0.524   3.207
 4087SOL    HW113160   1.113   0.566   3.189
 4087SOL    HW213161   1.214   0.513   3.306
 4088SOL     OW13162   0.348   3.178   6.435
 4088SOL    HW113163   0.440   3.205   6.463
 4088SOL    HW213164   0.319   3.099   6.490
 4089SOL     OW13165   0.576   2.249   5.663
 4089SOL    HW113166   0.654   2.249   5.726
 4089SOL    HW213167   0.542   2.155   5.654
 4090SOL     OW13168   3.145   5.397   6.299
 4090SOL    HW113169   3.243   5.387   6.281
 4090SOL    HW213170   3.129   5.394   6.398
 4091SOL     OW13171   4.188   5.929   1.247
 4091SOL    HW113172   4.186   5.840   1.202
 4091SOL    HW213173   4.140   5.996   1.192
 4092SOL     OW13174   0.812   1.105   3.803
 4092SOL    HW113175   0.801   1.196   3.843
 4092SOL    HW213176   0.902   1.099   3.759
 4093SOL     OW13177   4.512   6.551   3.551
 4093SOL    HW113178   4.556   6.617   3.490
 4093SOL    HW213179   4.531   6.575   3.646
 4094SOL     OW13180   3.200   2.907   6.325
 4094SOL    HW113181   3.229   2.852   6.404
 4094SOL    HW213182   3.280   2.933   6.271
 4095SOL     OW13183   2.356   3.837   5.667
 4095SOL    HW113184   2.366   3.738   5.677
 4095SOL    HW213185   2.294   3.871   5.737
 4096SOL     OW13186   4.590   4.534   1.259
 4096SOL    HW113187   4.631   4.526   1.350
 4096SOL    HW213188   4.647   4.593   1.202
 4097SOL     OW13189   3.406   3.698   3.156
 4097SOL    HW113190   3.423   3.617   3.100
 4097SOL    HW213191   3.494   3.736   3.186
 4098SOL     OW13192   1.472   2.989   2.205
 4098SOL    HW113193   1.386   3.029   2.173
 4098SOL    HW213194   1.549   3.044   2.171
 4099SOL     OW13195   2.673   6.227   1.370
 4099SOL    HW113196   2.651   6.322   1.389
 4099SOL    HW213197   2.648   6.170   1.448
 4100SOL     OW13198   3.596   0.359   2.365
 4100SOL    HW113199   3.654   0.286   2.329
 4100SOL    HW213200   3.647   0.412   2.433
 4101SOL     OW13201   4.808   1.351   6.696
 4101SOL    HW113202   4.834   1.369   6.601
 4101SOL    HW213203   4.748   1.271   6.700
 4102SOL     OW13204   5.029   2.016   5.888
 4102SOL    HW113205   5.097   1.959   5.933
 4102SOL    HW213206   4.949   1.961   5.865
 4103SOL     OW13207   6.690   0.505   1.679
 4103SOL    HW113208   6.790   0.497   1.681
 4103SOL    HW213209   6.663   0.565   1.604
 4104SOL     OW13210   2.280   4.628   2.103
 4104SOL    HW113211   2.235   4.574   2.173
 4104SOL    HW213212   2.331   4.568   2.042
 4105SOL     OW13213   6.108   4.799   0.516
 4105SOL    HW113214   6.195   4.781   0.470
 4105SOL    HW213215   6.068   4.713   0.548
 4106SOL     OW13216   0.221   3.186   4.073
 4106SOL    HW113217   0.296   3.142   4.122
 4106SOL    HW213218   0.226   3.285   4.087
 4107SOL     OW13219   6.909   0.405   1.164
 4107SOL    HW113220   6.900   0.346   1.083
 4107SOL    HW213221   6.977   0.476   1.145
 4108SOL     OW13222   6.428   2.638   5.053
 4108SOL    HW113223   6.446   2.714   4.991
 4108SOL    HW213224   6.399   2.558   5.001
 4109SOL     OW13225   2.148   6.318   3.776
 4109SOL    HW113226   2.057   6.340   3.742
 4109SOL    HW213227   2.139   6.257   3.856
 4110SOL     OW13228   4.977   3.417   5.306
 4110SOL    HW113229   4.974   3.464   5.217
 4110SOL    HW213230   4.932   3.474   5.375
 4111SOL     OW13231   4.056   3.541   6.831
 4111SOL    HW113232   4.087   3.524   6.925
 4111SOL    HW213233   4.121   3.601   6.785
 4112SOL     OW13234   3.700   0.913   5.949
 4112SOL    HW113235   3.673   0.915   5.853
 4112SOL    HW213236   3.668   0.827   5.991
 4113SOL     OW13237   3.546   5.954   4.017
 4113SOL    HW113238   3.549   6.053   4.031
 4113SOL    HW213239   3.607   5.929   3.943
 4114SOL     OW13240   3.436   0.951   3.318
 4114SOL    HW113241   3.416   0.883   3.247
 4114SOL    HW213242   3.444   1.041   3.276
 4115SOL     OW13243   4.817   4.137   3.203
 4115SOL    HW113244   4.773   4.204   3.262
 4115SOL    HW213245   4.809   4.046   3.243
 4116SOL     OW13246   2.541   1.492   1.708
 4116SOL    HW113247   2.580   1.569   1.759
 4116SOL    HW213248   2.614   1.436   1.671
 4117SOL     OW13249   1.126   6.148   2.062
 4117SOL    HW113250   1.110   6.089   1.983
 4117SOL    HW213251   1.040   6.191   2.088
 4118SOL     OW13252   1.701   0.612   5.978
 4118SOL    HW113253   1.766   0.687   5.967
 4118SOL    HW213254   1.657   0.619   6.067
 4119SOL     OW13255   5.431   1.258   3.082
 4119SOL    HW113256   5.333   1.278   3.085
 4119SOL    HW213257   5.483   1.335   3.119
 4120SOL     OW13258   5.588   0.710   1.595
 4120SOL    HW113259   5.534   0.650   1.654
 4120SOL    HW213260   5.575   0.684   1.499
 4121SOL     OW13261   5.115   2.842   3.895
 4121SOL    HW113262   5.034   2.893   3.865
 4121SOL    HW213263   5.187   2.850   3.826
 4122SOL     OW13264   2.114   4.973   6.893
 4122SOL    HW113265   2.131   5.071   6.894
 4122SOL    HW213266   2.037   4.952   6.954
 4123SOL     OW13267   3.786   3.834   5.170
 4123SOL    HW113268   3.876   3.789   5.173
 4123SOL    HW213269   3.741   3.823   5.259
 4124SOL     OW13270   4.544   5.949   2.791
 4124SOL    HW113271   4.565   6.038   2.831
 4124SOL    HW213272   4.617   5.923   2.727
 4125SOL     OW13273   4.422   2.192   1.738
 4125SOL    HW113274   4.324   2.214   1.734
 4125SOL    HW213275   4.438   2.106   1.689
 4126SOL     OW13276   1.663   3.884   4.673
 4126SOL    HW113277   1.729   3.945   4.717
 4126SOL    HW213278   1.710   3.827   4.606
 4127SOL     OW13279   5.348   4.989   3.724
 4127SOL    HW113280   5.357   4.893   3.699
 4127SOL    HW213281   5.343   4.997   3.824
 4128SOL     OW13282   6.682   1.605   1.797
 4128SOL    HW113283   6.637   1.661   1.727
 4128SOL    HW213284   6.697   1.659   1.879
 4129SOL     OW13285   0.090   2.908   0.303
 4129SOL    HW113286   0.119   2.903   0.207
 4129SOL    HW213287   0.019   2.841   0.320
 4130SOL     OW13288   6.264   2.586   1.225
 4130SOL    HW113289   6.231   2.492   1.213
 4130SOL    HW213290   6.361   2.583   1.250
 4131SOL     OW13291   6.723   4.092   3.494
 4131SOL    HW113292   6.703   4.144   3.410
 4131SOL    HW213293   6.704   3.995   3.478
 4132SOL     OW13294   4.954   1.276   4.319
 4132SOL    HW113295   4.937   1.324   4.406
 4132SOL    HW213296   5.013   1.332   4.262
 4133SOL     OW13297   2.399   2.907   0.494
 4133SOL    HW113298   2.319   2.847   0.490
 4133SOL    HW213299   2.474   2.867   0.441
 4134SOL     OW13300   2.258   1.715   7.004
 4134SOL    HW113301   2.314   1.657   0.038
 4134SOL    HW213302   2.235   1.665   6.921
 4135SOL     OW13303   1.320   0.494   0.686
 4135SOL    HW113304   1.305   0.400   0.715
 4135SOL    HW213305   1.259   0.555   0.736
 4136SOL     OW13306   1.721   2.006   3.508
 4136SOL    HW113307   1.762   1.928   3.460
 4136SOL    HW213308   1.748   2.004   3.604
 4137SOL     OW13309   3.979   3.167   5.184
 4137SOL    HW113310   3.911   3.094   5.186
 4137SOL    HW213311   4.065   3.133   5.222
 4138SOL     OW13312   4.911   5.344   1.105
 4138SOL    HW113313   4.880   5.261   1.151
 4138SOL    HW213314   4.840   5.415   1.112
 4139SOL     OW13315   3.467   1.874   6.903
 4139SOL    HW113316   3.395   1.858   6.970
 4139SOL    HW213317   3.547   1.818   6.926
 4140SOL     OW13318   4.450   2.227   4.752
 4140SOL    HW113319   4.418   2.216   4.658
 4140SOL    HW213320   4.423   2.317   4.786
 4141SOL     OW13321   4.952   6.000   1.025
 4141SOL    HW113322   4.935   5.921   0.966
 4141SOL    HW213323   5.013   6.064   0.978
 4142SOL     OW13324   5.976   2.887   2.205
 4142SOL    HW113325   5.984   2.886   2.304
 4142SOL    HW213326   5.909   2.957   2.177
 4143SOL     OW13327   1.876   2.485   1.823
 4143SOL    HW113328   1.948   2.445   1.766
 4143SOL    HW213329   1.857   2.578   1.792
 4144SOL     OW13330   4.431   0.818   2.137
 4144SOL    HW113331   4.427   0.791   2.234
 4144SOL    HW213332   4.526   0.826   2.108
 4145SOL     OW13333   2.945   0.505   3.275
 4145SOL    HW113334   2.987   0.573   3.335
 4145SOL    HW213335   2.856   0.480   3.311
 4146SOL     OW13336   5.091   4.629   0.489
 4146SOL    HW113337   5.051   4.672   0.408
 4146SOL    HW213338   5.082   4.690   0.568
 4147SOL     OW13339   2.604   1.381   5.935
 4147SOL    HW113340   2.639   1.306   5.879
 4147SOL    HW213341   2.649   1.380   6.024
 4148SOL     OW13342   6.898   6.786   2.193
 4148SOL    HW113343   6.878   6.704   2.140
 4148SOL    HW213344   6.986   6.775   2.240
 4149SOL     OW13345   4.607   4.470   2.243
 4149SOL    HW113346   4.569   4.403   2.180
 4149SOL    HW213347   4.701   4.490   2.217
 4150SOL     OW13348   3.304   0.403   4.235
 4150SOL    HW113349   3.226   0.345   4.260
 4150SOL    HW213350   3.309   0.481   4.296
 4151SOL     OW13351   0.327   5.505   0.340
 4151SOL    HW113352   0.412   5.457   0.319
 4151SOL    HW213353   0.340   5.603   0.326
 4152SOL     OW13354   3.602   4.223   0.993
 4152SOL    HW113355   3.669   4.254   0.925
 4152SOL    HW213356   3.645   4.158   1.055
 4153SOL     OW13357   6.091   5.968   6.597
 4153SOL    HW113358   6.070   5.961   6.500
 4153SOL    HW213359   6.102   6.064   6.622
 4154SOL     OW13360   4.265   2.388   4.539
 4154SOL    HW113361   4.286   2.397   4.442
 4154SOL    HW213362   4.257   2.479   4.580
 4155SOL     OW13363   1.226   3.167   1.043
 4155SOL    HW113364   1.132   3.158   1.009
 4155SOL    HW213365   1.242   3.262   1.069
 4156SOL     OW13366   5.785   1.304   5.299
 4156SOL    HW113367   5.853   1.374   5.277
 4156SOL    HW213368   5.726   1.289   5.220
 4157SOL     OW13369   3.882   1.137   3.604
 4157SOL    HW113370   3.860   1.075   3.679
 4157SOL    HW213371   3.854   1.096   3.517
 4158SOL     OW13372   0.625   0.267   3.291
 4158SOL    HW113373   0.710   0.313   3.317
 4158SOL    HW213374   0.603   0.289   3.196
 4159SOL     OW13375   1.096   4.867   5.545
 4159SOL    HW113376   1.149   4.839   5.465
 4159SOL    HW213377   1.109   4.965   5.561
 4160SOL     OW13378   6.076   0.970   1.500
 4160SOL    HW113379   5.989   1.005   1.535
 4160SOL    HW213380   6.139   1.046   1.485
 4161SOL     OW13381   6.249   1.363   1.955
 4161SOL    HW113382   6.300   1.289   1.999
 4161SOL    HW213383   6.152   1.339   1.953
 4162SOL     OW13384   0.350   0.107   4.481
 4162SOL    HW113385   0.356   0.174   4.555
 4162SOL    HW213386   0.303   0.025   4.514
 4163SOL     OW13387   0.924   2.121   5.523
 4163SOL    HW113388   0.890   2.141   5.431
 4163SOL    HW213389   1.023   2.108   5.520
 4164SOL     OW13390   2.250   0.118   5.428
 4164SOL    HW113391   2.303   0.153   5.504
 4164SOL    HW213392   2.291   0.148   5.342
 4165SOL     OW13393   0.725   5.810   1.575
 4165SOL    HW113394   0.705   5.798   1.672
 4165SOL    HW213395   0.689   5.898   1.544
 4166SOL     OW13396   6.538   1.796   2.691
 4166SOL    HW113397   6.559   1.699   2.677
 4166SOL    HW213398   6.520   1.812   2.788
 4167SOL     OW13399   1.389   2.714   0.968
 4167SOL    HW113400   1.333   2.644   0.923
 4167SOL    HW213401   1.452   2.754   0.902
 4168SOL     OW13402   2.358   5.812   0.720
 4168SOL    HW113403   2.259   5.802   0.729
 4168SOL    HW213404   2.404   5.739   0.769
 4169SOL     OW13405   6.242   3.173   6.774
 4169SOL    HW113406   6.170   3.233   6.810
 4169SOL    HW213407   6.282   3.214   6.693
 4170SOL     OW13408   3.207   1.012   5.639
 4170SOL    HW113409   3.145   1.089   5.622
 4170SOL    HW213410   3.173   0.958   5.716
 4171SOL     OW13411   6.800   2.996   1.759
 4171SOL    HW113412   6.868   3.037   1.699
 4171SOL    HW213413   6.773   3.063   1.828
 4172SOL     OW13414   2.582   0.313   0.850
 4172SOL    HW113415   2.519   0.342   0.778
 4172SOL    HW213416   2.537   0.247   0.910
 4173SOL     OW13417   4.379   4.194   5.506
 4173SOL    HW113418   4.389   4.094   5.510
 4173SOL    HW213419   4.301   4.218   5.449
 4174SOL     OW13420   4.501   1.068   3.695
 4174SOL    HW113421   4.587   1.038   3.737
 4174SOL    HW213422   4.518   1.095   3.600
 4175SOL     OW13423   2.682   1.133   1.977
 4175SOL    HW113424   2.674   1.192   2.057
 4175SOL    HW213425   2.598   1.080   1.967
 4176SOL     OW13426   5.625   4.847   2.759
 4176SOL    HW113427   5.621   4.770   2.695
 4176SOL    HW213428   5.605   4.932   2.710
 4177SOL     OW13429   0.571   5.954   3.181
 4177SOL    HW113430   0.666   5.980   3.160
 4177SOL    HW213431   0.552   5.865   3.140
 4178SOL     OW13432   4.007   2.735   5.341
 4178SOL    HW113433   3.915   2.720   5.305
 4178SOL    HW213434   4.075   2.705   5.274
 4179SOL     OW13435   0.232   1.701   0.157
 4179SOL    HW113436   0.275   1.774   0.209
 4179SOL    HW213437   0.133   1.711   0.161
 4180SOL     OW13438   6.059   4.044   1.707
 4180SOL    HW113439   6.072   4.034   1.608
 4180SOL    HW213440   6.104   3.968   1.754
 4181SOL     OW13441   5.675   0.874   6.911
 4181SOL    HW113442   5.593   0.929   6.922
 4181SOL    HW213443   5.705   0.875   6.816
 4182SOL     OW13444   6.001   0.769   3.937
 4182SOL    HW113445   6.001   0.725   4.026
 4182SOL    HW213446   5.966   0.862   3.945
 4183SOL     OW13447   0.515   0.897   1.756
 4183SOL    HW113448   0.573   0.962   1.805
 4183SOL    HW213449   0.456   0.947   1.693
 4184SOL     OW13450   4.174   4.580   6.287
 4184SOL    HW113451   4.230   4.654   6.252
 4184SOL    HW213452   4.081   4.613   6.305
 4185SOL     OW13453   0.174   1.288   4.722
 4185SOL    HW113454   0.218   1.289   4.632
 4185SOL    HW213455   0.218   1.220   4.780
 4186SOL     OW13456   3.036   3.487   1.947
 4186SOL    HW113457   3.118   3.534   1.913
 4186SOL    HW213458   2.958   3.511   1.890
 4187SOL     OW13459   4.819   5.190   5.723
 4187SOL    HW113460   4.810   5.261   5.793
 4187SOL    HW213461   4.829   5.233   5.633
 4188SOL     OW13462   5.311   5.920   2.753
 4188SOL    HW113463   5.337   5.949   2.661
 4188SOL    HW213464   5.216   5.946   2.771
 4189SOL     OW13465   1.399   3.487   3.156
 4189SOL    HW113466   1.497   3.476   3.137
 4189SOL    HW213467   1.349   3.409   3.119
 4190SOL     OW13468   2.231   6.239   1.685
 4190SOL    HW113469   2.245   6.221   1.588
 4190SOL    HW213470   2.156   6.182   1.719
 4191SOL     OW13471   0.611   2.051   4.084
 4191SOL    HW113472   0.587   1.976   4.023
 4191SOL    HW213473   0.528   2.104   4.105
 4192SOL     OW13474   5.982   6.051   3.845
 4192SOL    HW113475   5.944   5.970   3.890
 4192SOL    HW213476   5.908   6.114   3.821
 4193SOL     OW13477   1.259   6.467   3.650
 4193SOL    HW113478   1.340   6.513   3.615
 4193SOL    HW213479   1.189   6.466   3.579
 4194SOL     OW13480   4.661   0.149   3.292
 4194SOL    HW113481   4.639   0.077   3.226
 4194SOL    HW213482   4.740   0.201   3.260
 4195SOL     OW13483   4.406   0.261   3.293
 4195SOL    HW113484   4.493   0.212   3.304
 4195SOL    HW213485   4.363   0.232   3.207
 4196SOL     OW13486   5.206   2.507   3.510
 4196SOL    HW113487   5.149   2.440   3.559
 4196SOL    HW213488   5.298   2.470   3.499
 4197SOL     OW13489   5.462   4.640   4.561
 4197SOL    HW113490   5.424   4.685   4.480
 4197SOL    HW213491   5.437   4.544   4.561
 4198SOL     OW13492   6.475   3.778   6.062
 4198SOL    HW113493   6.454   3.681   6.064
 4198SOL    HW213494   6.518   3.805   6.149
 4199SOL     OW13495   2.957   4.215   6.154
 4199SOL    HW113496   2.940   4.313   6.170
 4199SOL    HW213497   2.936   4.193   6.059
 4200SOL     OW13498   2.645   0.314   5.000
 4200SOL    HW113499   2.594   0.399   4.999
 4200SOL    HW213500   2.633   0.269   5.088
 4201SOL     OW13501   6.298   6.808   4.604
 4201SOL    HW113502   6.221   6.756   4.567
 4201SOL    HW213503   6.359   6.747   4.655
 4202SOL     OW13504   5.797   3.643   5.100
 4202SOL    HW113505   5.849   3.612   5.180
 4202SOL    HW213506   5.737   3.719   5.126
 4203SOL     OW13507   3.365   5.666   4.483
 4203SOL    HW113508   3.285   5.608   4.468
 4203SOL    HW213509   3.342   5.738   4.548
 4204SOL     OW13510   1.625   3.880   6.986
 4204SOL    HW113511   1.559   3.852   6.916
 4204SOL    HW213512   1.594   3.849   0.050
 4205SOL     OW13513   2.412   0.082   3.664
 4205SOL    HW113514   2.438   0.175   3.690
 4205SOL    HW213515   2.345   0.047   3.730
 4206SOL     OW13516   4.591   6.156   2.996
 4206SOL    HW113517   4.667   6.115   3.047
 4206SOL    HW213518   4.542   6.219   3.056
 4207SOL     OW13519   2.093   6.451   6.913
 4207SOL    HW113520   2.110   6.353   6.918
 4207SOL    HW213521   2.106   6.492   7.003
 4208SOL     OW13522   1.081   1.445   2.278
 4208SOL    HW113523   0.990   1.453   2.319
 4208SOL    HW213524   1.143   1.401   2.342
 4209SOL     OW13525   2.035   0.874   5.823
 4209SOL    HW113526   1.975   0.846   5.749
 4209SOL    HW213527   2.128   0.841   5.805
 4210SOL     OW13528   3.474   3.301   0.650
 4210SOL    HW113529   3.482   3.392   0.609
 4210SOL    HW213530   3.545   3.242   0.614
 4211SOL     OW13531   6.771   3.399   4.198
 4211SOL    HW113532   6.841   3.388   4.269
 4211SOL    HW213533   6.814   3.418   4.110
 4212SOL     OW13534   5.629   6.503   1.626
 4212SOL    HW113535   5.652   6.566   1.552
 4212SOL    HW213536   5.551   6.538   1.678
 4213SOL     OW13537   1.307   0.685   1.179
 4213SOL    HW113538   1.295   0.617   1.252
 4213SOL    HW213539   1.339   0.771   1.219
 4214SOL     OW13540   3.668   5.260   3.535
 4214SOL    HW113541   3.744   5.237   3.595
 4214SOL    HW213542   3.661   5.359   3.526
 4215SOL     OW13543   2.033   5.985   0.110
 4215SOL    HW113544   2.121   5.995   0.155
 4215SOL    HW213545   1.972   5.932   0.169
 4216SOL     OW13546   2.242   2.647   5.377
 4216SOL    HW113547   2.216   2.714   5.447
 4216SOL    HW213548   2.337   2.664   5.349
 4217SOL     OW13549   6.049   0.460   4.557
 4217SOL    HW113550   6.071   0.400   4.480
 4217SOL    HW213551   6.086   0.551   4.541
 4218SOL     OW13552   2.929   5.880   2.660
 4218SOL    HW113553   2.932   5.911   2.755
 4218SOL    HW213554   3.006   5.819   2.642
 4219SOL     OW13555   5.254   0.694   2.550
 4219SOL    HW113556   5.252   0.609   2.499
 4219SOL    HW213557   5.237   0.675   2.647
 4220SOL     OW13558   1.174   4.789   2.906
 4220SOL    HW113559   1.147   4.858   2.838
 4220SOL    HW213560   1.104   4.784   2.977
 4221SOL     OW13561   5.432   6.003   5.912
 4221SOL    HW113562   5.473   6.084   5.870
 4221SOL    HW213563   5.484   5.922   5.884
 4222SOL     OW13564   2.338   3.143   0.381
 4222SOL    HW113565   2.371   3.058   0.421
 4222SOL    HW213566   2.241   3.133   0.358
 4223SOL     OW13567   3.606   4.011   2.778
 4223SOL    HW113568   3.591   4.027   2.876
 4223SOL    HW213569   3.609   3.913   2.760
 4224SOL     OW13570   3.302   2.187   5.302
 4224SOL    HW113571   3.262   2.275   5.277
 4224SOL    HW213572   3.257   2.151   5.383
 4225SOL     OW13573   5.188   6.347   4.428
 4225SOL    HW113574   5.097   6.326   4.394
 4225SOL    HW213575   5.182   6.394   4.515
 4226SOL     OW13576   2.487   2.232   1.925
 4226SOL    HW113577   2.460   2.321   1.960
 4226SOL    HW213578   2.442   2.159   1.977
 4227SOL     OW13579   5.991   3.656   0.172
 4227SOL    HW113580   6.078   3.655   0.123
 4227SOL    HW213581   5.984   3.575   0.230
 4228SOL     OW13582   4.234   5.497   2.816
 4228SOL    HW113583   4.311   5.527   2.760
 4228SOL    HW213584   4.179   5.577   2.843
 4229SOL     OW13585   4.180   4.798   4.552
 4229SOL    HW113586   4.189   4.761   4.645
 4229SOL    HW213587   4.249   4.757   4.493
 4230SOL     OW13588   1.618   1.107   5.008
 4230SOL    HW113589   1.643   1.030   4.951
 4230SOL    HW213590   1.695   1.131   5.068
 4231SOL     OW13591   3.809   6.807   6.509
 4231SOL    HW113592   3.880   6.742   6.482
 4231SOL    HW213593   3.804   6.812   6.609
 4232SOL     OW13594   2.354   4.024   1.834
 4232SOL    HW113595   2.452   4.019   1.853
 4232SOL    HW213596   2.315   3.933   1.835
 4233SOL     OW13597   4.527   4.793   0.896
 4233SOL    HW113598   4.471   4.716   0.865
 4233SOL    HW213599   4.469   4.875   0.904
 4234SOL     OW13600   3.556   4.010   6.151
 4234SOL    HW113601   3.475   4.033   6.097
 4234SOL    HW213602   3.637   4.018   6.094
 4235SOL     OW13603   0.495   3.914   4.854
 4235SOL    HW113604   0.532   3.827   4.885
 4235SOL    HW213605   0.481   3.974   4.933
 4236SOL     OW13606   1.163   3.316   4.015
 4236SOL    HW113607   1.100   3.390   3.991
 4236SOL    HW213608   1.171   3.311   4.115
 4237SOL     OW13609   5.275   3.660   5.162
 4237SOL    HW113610   5.182   3.688   5.139
 4237SOL    HW213611   5.333   3.741   5.173
 4238SOL     OW13612   5.022   4.823   4.896
 4238SOL    HW113613   5.023   4.846   4.993
 4238SOL    HW213614   4.932   4.842   4.857
 4239SOL     OW13615   5.947   4.601   5.136
 4239SOL    HW113616   5.940   4.689   5.089
 4239SOL    HW213617   6.026   4.602   5.197
 4240SOL     OW13618   2.675   4.217   5.638
 4240SOL    HW113619   2.613   4.142   5.616
 4240SOL    HW213620   2.768   4.181   5.649
 4241SOL     OW13621   3.211   2.574   0.192
 4241SOL    HW113622   3.291   2.516   0.202
 4241SOL    HW213623   3.147   2.557   0.267
 4242SOL     OW13624   2.710   0.278   1.936
 4242SOL    HW113625   2.790   0.300   1.991
 4242SOL    HW213626   2.739   0.256   1.843
 4243SOL     OW13627   2.103   1.984   1.904
 4243SOL    HW113628   2.118   1.888   1.877
 4243SOL    HW213629   2.068   1.987   1.997
 4244SOL     OW13630   2.531   6.804   0.508
 4244SOL    HW113631   2.502   6.830   0.601
 4244SOL    HW213632   2.456   6.820   0.445
 4245SOL     OW13633   6.829   1.362   1.690
 4245SOL    HW113634   6.845   1.346   1.787
 4245SOL    HW213635   6.756   1.430   1.679
 4246SOL     OW13636   3.714   2.147   3.143
 4246SOL    HW113637   3.793   2.206   3.124
 4246SOL    HW213638   3.661   2.134   3.059
 4247SOL     OW13639   2.350   5.007   6.254
 4247SOL    HW113640   2.312   4.939   6.317
 4247SOL    HW213641   2.407   4.961   6.186
 4248SOL     OW13642   3.237   6.402   1.265
 4248SOL    HW113643   3.180   6.350   1.330
 4248SOL    HW213644   3.185   6.481   1.232
 4249SOL     OW13645   5.948   1.521   5.184
 4249SOL    HW113646   6.032   1.476   5.214
 4249SOL    HW213647   5.953   1.618   5.205
 4250SOL     OW13648   0.906   5.417   4.693
 4250SOL    HW113649   0.811   5.387   4.700
 4250SOL    HW213650   0.966   5.350   4.737
 4251SOL     OW13651   4.546   1.902   5.734
 4251SOL    HW113652   4.565   1.844   5.655
 4251SOL    HW213653   4.539   1.845   5.816
 4252SOL     OW13654   0.747   6.393   6.910
 4252SOL    HW113655   0.719   6.435   6.997
 4252SOL    HW213656   0.681   6.418   6.839
 4253SOL     OW13657   3.235   6.974   2.467
 4253SOL    HW113658   3.317   6.919   2.483
 4253SOL    HW213659   3.178   6.973   2.550
 4254SOL     OW13660   0.790   0.766   4.227
 4254SOL    HW113661   0.792   0.697   4.154
 4254SOL    HW213662   0.743   0.728   4.306
 4255SOL     OW13663   1.842   2.909   4.484
 4255SOL    HW113664   1.896   2.948   4.409
 4255SOL    HW213665   1.764   2.860   4.446
 4256SOL     OW13666   5.910   6.306   1.094
 4256SOL    HW113667   5.980   6.373   1.068
 4256SOL    HW213668   5.954   6.227   1.136
 4257SOL     OW13669   0.344   1.501   2.575
 4257SOL    HW113670   0.299   1.418   2.606
 4257SOL    HW213671   0.295   1.581   2.611
 4258SOL     OW13672   2.176   6.775   0.886
 4258SOL    HW113673   2.217   6.693   0.927
 4258SOL    HW213674   2.080   6.781   0.914
 4259SOL     OW13675   1.510   0.769   0.753
 4259SOL    HW113676   1.458   0.704   0.808
 4259SOL    HW213677   1.578   0.721   0.698
 4260SOL     OW13678   0.173   0.646   5.545
 4260SOL    HW113679   0.117   0.685   5.619
 4260SOL    HW213680   0.143   0.553   5.526
 4261SOL     OW13681   1.619   6.829   2.684
 4261SOL    HW113682   1.665   6.857   2.769
 4261SOL    HW213683   1.566   6.906   2.648
 4262SOL     OW13684   1.352   3.762   5.051
 4262SOL    HW113685   1.399   3.790   4.967
 4262SOL    HW213686   1.365   3.832   5.121
 4263SOL     OW13687   3.119   0.602   2.582
 4263SOL    HW113688   3.098   0.673   2.515
 4263SOL    HW213689   3.206   0.559   2.559
 4264SOL     OW13690   4.185   2.219   6.416
 4264SOL    HW113691   4.260   2.255   6.471
 4264SOL    HW213692   4.157   2.287   6.348
 4265SOL     OW13693   3.618   5.884   6.250
 4265SOL    HW113694   3.644   5.969   6.204
 4265SOL    HW213695   3.528   5.895   6.292
 4266SOL     OW13696   1.414   3.640   2.430
 4266SOL    HW113697   1.394   3.730   2.469
 4266SOL    HW213698   1.466   3.651   2.346
 4267SOL     OW13699   1.774   3.254   3.546
 4267SOL    HW113700   1.748   3.165   3.584
 4267SOL    HW213701   1.704   3.322   3.568
 4268SOL     OW13702   1.221   4.285   4.972
 4268SOL    HW113703   1.274   4.334   4.902
 4268SOL    HW213704   1.283   4.239   5.035
 4269SOL     OW13705   2.897   1.915   4.378
 4269SOL    HW113706   2.886   1.962   4.466
 4269SOL    HW213707   2.846   1.829   4.381
 4270SOL     OW13708   3.937   4.331   1.062
 4270SOL    HW113709   3.903   4.371   1.147
 4270SOL    HW213710   3.915   4.233   1.061
 4271SOL     OW13711   5.980   6.751   6.961
 4271SOL    HW113712   5.946   6.818   0.001
 4271SOL    HW213713   6.058   6.703   6.999
 4272SOL     OW13714   6.602   2.071   5.599
 4272SOL    HW113715   6.679   2.126   5.631
 4272SOL    HW213716   6.592   2.080   5.500
 4273SOL     OW13717   3.511   6.376   3.218
 4273SOL    HW113718   3.491   6.303   3.283
 4273SOL    HW213719   3.478   6.349   3.127
 4274SOL     OW13720   5.845   0.799   2.048
 4274SOL    HW113721   5.890   0.865   2.109
 4274SOL    HW213722   5.875   0.707   2.070
 4275SOL     OW13723   5.843   1.798   4.184
 4275SOL    HW113724   5.839   1.895   4.160
 4275SOL    HW213725   5.936   1.765   4.172
 4276SOL     OW13726   2.339   0.653   2.886
 4276SOL    HW113727   2.322   0.731   2.826
 4276SOL    HW213728   2.406   0.592   2.844
 4277SOL     OW13729   6.237   4.850   2.992
 4277SOL    HW113730   6.256   4.761   3.034
 4277SOL    HW213731   6.221   4.838   2.894
 4278SOL     OW13732   0.193   0.072   1.664
 4278SOL    HW113733   0.153   7.020   1.714
 4278SOL    HW213734   0.165   0.067   1.568
 4279SOL     OW13735   1.459   3.910   2.798
 4279SOL    HW113736   1.529   3.842   2.776
 4279SOL    HW213737   1.421   3.947   2.713
 4280SOL     OW13738   2.364   0.250   5.637
 4280SOL    HW113739   2.437   0.314   5.662
 4280SOL    HW213740   2.320   0.216   5.720
 4281SOL     OW13741   6.666   6.691   2.546
 4281SOL    HW113742   6.637   6.721   2.455
 4281SOL    HW213743   6.649   6.593   2.556
 4282SOL     OW13744   5.247   4.609   2.361
 4282SOL    HW113745   5.186   4.600   2.283
 4282SOL    HW213746   5.333   4.651   2.330
 4283SOL     OW13747   0.250   2.163   5.485
 4283SOL    HW113748   0.194   2.146   5.404
 4283SOL    HW213749   0.235   2.256   5.517
 4284SOL     OW13750   4.696   6.337   0.011
 4284SOL    HW113751   4.750   6.340   0.095
 4284SOL    HW213752   4.750   6.293   6.964
 4285SOL     OW13753   3.095   1.305   6.012
 4285SOL    HW113754   3.051   1.234   6.066
 4285SOL    HW213755   3.027   1.349   5.953
 4286SOL     OW13756   4.929   6.969   6.406
 4286SOL    HW113757   4.844   6.996   6.363
 4286SOL    HW213758   4.983   0.025   6.428
 4287SOL     OW13759   4.830   0.194   1.066
 4287SOL    HW113760   4.895   0.152   1.004
 4287SOL    HW213761   4.739   0.156   1.050
 4288SOL     OW13762   6.093   6.335   2.632
 4288SOL    HW113763   6.124   6.417   2.679
 4288SOL    HW213764   6.127   6.254   2.680
 4289SOL     OW13765   0.393   5.174   5.968
 4289SOL    HW113766   0.486   5.141   5.950
 4289SOL    HW213767   0.346   5.108   6.027
 4290SOL     OW13768   0.072   0.935   2.805
 4290SOL    HW113769   0.010   0.885   2.866
 4290SOL    HW213770   0.154   0.881   2.789
 4291SOL     OW13771   4.861   4.891   5.548
 4291SOL    HW113772   4.865   4.859   5.453
 4291SOL    HW213773   4.946   4.866   5.594
 4292SOL     OW13774   6.293   0.679   0.093
 4292SOL    HW113775   6.262   0.696   0.187
 4292SOL    HW213776   6.348   0.756   0.062
 4293SOL     OW13777   4.175   1.948   5.968
 4293SOL    HW113778   4.239   1.996   6.029
 4293SOL    HW213779   4.169   1.852   5.995
 4294SOL     OW13780   2.929   2.033   0.218
 4294SOL    HW113781   2.923   1.966   0.291
 4294SOL    HW213782   2.887   1.996   0.135
 4295SOL     OW13783   4.118   0.146   2.709
 4295SOL    HW113784   4.172   0.096   2.642
 4295SOL    HW213785   4.129   0.245   2.693
 4296SOL     OW13786   1.809   5.415   1.991
 4296SOL    HW113787   1.741   5.343   2.004
 4296SOL    HW213788   1.764   5.499   1.961
 4297SOL     OW13789   5.146   4.248   6.943
 4297SOL    HW113790   5.155   4.328   6.884
 4297SOL    HW213791   5.056   4.206   6.928
 4298SOL     OW13792   1.508   6.162   0.739
 4298SOL    HW113793   1.555   6.250   0.741
 4298SOL    HW213794   1.513   6.125   0.646
 4299SOL     OW13795   0.245   3.851   0.124
 4299SOL    HW113796   0.157   3.857   0.077
 4299SOL    HW213797   0.249   3.921   0.195
 4300SOL     OW13798   3.747   0.803   2.337
 4300SOL    HW113799   3.705   0.888   2.304
 4300SOL    HW213800   3.838   0.793   2.297
 4301SOL     OW13801   2.284   5.462   3.764
 4301SOL    HW113802   2.347   5.384   3.770
 4301SOL    HW213803   2.298   5.522   3.843
 4302SOL     OW13804   3.394   4.775   6.819
 4302SOL    HW113805   3.483   4.730   6.816
 4302SOL    HW213806   3.399   4.863   6.772
 4303SOL     OW13807   4.582   5.376   3.313
 4303SOL    HW113808   4.627   5.453   3.359
 4303SOL    HW213809   4.628   5.357   3.226
 4304SOL     OW13810   2.716   4.283   1.159
 4304SOL    HW113811   2.729   4.264   1.257
 4304SOL    HW213812   2.806   4.296   1.116
 4305SOL     OW13813   0.844   6.849   6.048
 4305SOL    HW113814   0.937   6.872   6.075
 4305SOL    HW213815   0.832   6.865   5.950
 4306SOL     OW13816   6.780   4.477   5.176
 4306SOL    HW113817   6.746   4.416   5.105
 4306SOL    HW213818   6.852   4.431   5.228
 4307SOL     OW13819   6.993   2.227   4.406
 4307SOL    HW113820   6.938   2.196   4.329
 4307SOL    HW213821   0.010   2.148   4.450
 4308SOL     OW13822   4.788   5.844   6.660
 4308SOL    HW113823   4.869   5.879   6.707
 4308SOL    HW213824   4.735   5.789   6.724
 4309SOL     OW13825   2.226   2.081   0.428
 4309SOL    HW113826   2.146   2.049   0.377
 4309SOL    HW213827   2.203   2.093   0.524
 4310SOL     OW13828   5.753   1.180   4.962
 4310SOL    HW113829   5.815   1.102   4.971
 4310SOL    HW213830   5.678   1.155   4.899
 4311SOL     OW13831   0.733   6.731   0.868
 4311SOL    HW113832   0.805   6.674   0.829
 4311SOL    HW213833   0.673   6.763   0.795
 4312SOL     OW13834   0.424   3.120   3.430
 4312SOL    HW113835   0.497   3.183   3.401
 4312SOL    HW213836   0.425   3.111   3.529
 4313SOL     OW13837   0.693   2.960   0.718
 4313SOL    HW113838   0.612   3.016   0.732
 4313SOL    HW213839   0.728   2.976   0.625
 4314SOL     OW13840   2.458   1.812   5.971
 4314SOL    HW113841   2.556   1.818   5.952
 4314SOL    HW213842   2.438   1.729   6.022
 4315SOL     OW13843   3.014   2.110   5.714
 4315SOL    HW113844   2.977   2.189   5.665
 4315SOL    HW213845   3.101   2.084   5.674
 4316SOL     OW13846   5.027   4.328   1.316
 4316SOL    HW113847   4.936   4.321   1.356
 4316SOL    HW213848   5.035   4.265   1.239
 4317SOL     OW13849   4.723   0.300   2.980
 4317SOL    HW113850   4.644   0.362   2.987
 4317SOL    HW213851   4.756   0.299   2.886
 4318SOL     OW13852   2.309   5.825   3.592
 4318SOL    HW113853   2.290   5.908   3.643
 4318SOL    HW213854   2.393   5.783   3.626
 4319SOL     OW13855   2.248   5.043   0.183
 4319SOL    HW113856   2.169   4.983   0.168
 4319SOL    HW213857   2.222   5.119   0.242
 4320SOL     OW13858   4.682   1.570   1.962
 4320SOL    HW113859   4.648   1.660   1.937
 4320SOL    HW213860   4.744   1.578   2.040
 4321SOL     OW13861   6.848   5.995   3.477
 4321SOL    HW113862   6.771   6.053   3.449
 4321SOL    HW213863   6.833   5.963   3.570
 4322SOL     OW13864   2.897   2.005   3.548
 4322SOL    HW113865   2.932   1.925   3.499
 4322SOL    HW213866   2.940   2.011   3.638
 4323SOL     OW13867   5.828   3.958   1.832
 4323SOL    HW113868   5.855   3.925   1.923
 4323SOL    HW213869   5.904   4.007   1.790
 4324SOL     OW13870   6.304   3.925   5.252
 4324SOL    HW113871   6.299   3.952   5.348
 4324SOL    HW213872   6.217   3.881   5.226
 4325SOL     OW13873   1.549   0.152   0.413
 4325SOL    HW113874   1.560   0.229   0.477
 4325SOL    HW213875   1.529   0.187   0.322
 4326SOL     OW13876   5.452   2.765   2.579
 4326SOL    HW113877   5.457   2.772   2.479
 4326SOL    HW213878   5.441   2.669   2.605
 4327SOL     OW13879   3.116   6.595   4.166
 4327SOL    HW113880   3.089   6.605   4.262
 4327SOL    HW213881   3.211   6.565   4.161
 4328SOL     OW13882   5.458   0.063   1.459
 4328SOL    HW113883   5.378   0.069   1.400
 4328SOL    HW213884   5.535   0.110   1.415
 4329SOL     OW13885   6.653   3.739   0.715
 4329SOL    HW113886   6.612   3.650   0.694
 4329SOL    HW213887   6.648   3.754   0.814
 4330SOL     OW13888   2.642   6.372   5.121
 4330SOL    HW113889   2.659   6.293   5.061
 4330SOL    HW213890   2.567   6.351   5.183
 4331SOL     OW13891   6.505   1.451   2.943
 4331SOL    HW113892   6.411   1.474   2.921
 4331SOL    HW213893   6.508   1.361   2.987
 4332SOL     OW13894   6.547   6.405   1.510
 4332SOL    HW113895   6.538   6.361   1.421
 4332SOL    HW213896   6.628   6.463   1.511
 4333SOL     OW13897   3.616   3.253   6.038
 4333SOL    HW113898   3.529   3.210   6.061
 4333SOL    HW213899   3.682   3.182   6.012
 4334SOL     OW13900   0.773   2.101   3.826
 4334SOL    HW113901   0.793   2.009   3.861
 4334SOL    HW213902   0.734   2.156   3.899
 4335SOL     OW13903   2.490   2.377   1.412
 4335SOL    HW113904   2.497   2.302   1.478
 4335SOL    HW213905   2.404   2.426   1.426
 4336SOL     OW13906   2.195   5.779   5.286
 4336SOL    HW113907   2.127   5.717   5.246
 4336SOL    HW213908   2.202   5.762   5.384
 4337SOL     OW13909   0.264   4.292   4.002
 4337SOL    HW113910   0.185   4.256   4.050
 4337SOL    HW213911   0.323   4.216   3.973
 4338SOL     OW13912   3.332   3.295   4.877
 4338SOL    HW113913   3.277   3.273   4.797
 4338SOL    HW213914   3.360   3.391   4.874
 4339SOL     OW13915   3.697   3.522   5.059
 4339SOL    HW113916   3.765   3.453   5.034
 4339SOL    HW213917   3.743   3.605   5.091
 4340SOL     OW13918   0.078   4.031   0.602
 4340SOL    HW113919   0.037   4.120   0.581
 4340SOL    HW213920   0.008   3.960   0.595
 4341SOL     OW13921   5.674   6.737   1.448
 4341SOL    HW113922   5.683   6.832   1.478
 4341SOL    HW213923   5.667   6.733   1.349
 4342SOL     OW13924   5.144   3.628   2.368
 4342SOL    HW113925   5.190   3.633   2.280
 4342SOL    HW213926   5.075   3.555   2.365
 4343SOL     OW13927   4.737   6.703   6.457
 4343SOL    HW113928   4.638   6.714   6.450
 4343SOL    HW213929   4.779   6.792   6.471
 4344SOL     OW13930   1.418   4.242   2.565
 4344SOL    HW113931   1.430   4.240   2.466
 4344SOL    HW213932   1.342   4.182   2.590
 4345SOL     OW13933   3.756   3.720   2.246
 4345SOL    HW113934   3.773   3.803   2.193
 4345SOL    HW213935   3.843   3.682   2.277
 4346SOL     OW13936   1.254   2.919   1.593
 4346SOL    HW113937   1.222   2.885   1.681
 4346SOL    HW213938   1.176   2.936   1.533
 4347SOL     OW13939   5.780   6.170   0.889
 4347SOL    HW113940   5.851   6.212   0.946
 4347SOL    HW213941   5.774   6.072   0.910
 4348SOL     OW13942   6.910   4.344   6.235
 4348SOL    HW113943   6.813   4.359   6.215
 4348SOL    HW213944   6.966   4.387   6.165
 4349SOL     OW13945   0.797   3.838   3.703
 4349SOL    HW113946   0.759   3.931   3.698
 4349SOL    HW213947   0.813   3.814   3.799
 4350SOL     OW13948   4.753   6.988   3.961
 4350SOL    HW113949   4.776   6.946   4.049
 4350SOL    HW213950   4.738   0.061   3.973
 4351SOL     OW13951   0.130   6.907   1.851
 4351SOL    HW113952   0.107   6.813   1.877
 4351SOL    HW213953   0.199   6.942   1.915
 4352SOL     OW13954   4.415   4.303   1.309
 4352SOL    HW113955   4.471   4.381   1.280
 4352SOL    HW213956   4.319   4.331   1.313
 4353SOL     OW13957   2.265   3.703   0.127
 4353SOL    HW113958   2.350   3.754   0.132
 4353SOL    HW213959   2.275   3.616   0.176
 4354SOL     OW13960   6.661   4.216   2.977
 4354SOL    HW113961   6.594   4.280   2.938
 4354SOL    HW213962   6.660   4.131   2.926
 4355SOL     OW13963   2.055   5.017   4.221
 4355SOL    HW113964   1.997   5.015   4.302
 4355SOL    HW213965   2.128   4.949   4.230
 4356SOL     OW13966   5.586   1.700   5.261
 4356SOL    HW113967   5.669   1.720   5.312
 4356SOL    HW213968   5.601   1.717   5.164
 4357SOL     OW13969   5.035   5.678   2.776
 4357SOL    HW113970   5.101   5.628   2.831
 4357SOL    HW213971   5.036   5.775   2.801
 4358SOL     OW13972   3.321   0.535   1.326
 4358SOL    HW113973   3.330   0.554   1.228
 4358SOL    HW213974   3.388   0.589   1.376
 4359SOL     OW13975   2.908   4.202   1.393
 4359SOL    HW113976   2.904   4.300   1.409
 4359SOL    HW213977   3.002   4.176   1.368
 4360SOL     OW13978   2.910   6.603   3.767
 4360SOL    HW113979   2.824   6.594   3.817
 4360SOL    HW213980   2.913   6.691   3.719
 4361SOL     OW13981   1.966   0.222   6.530
 4361SOL    HW113982   1.926   0.292   6.589
 4361SOL    HW213983   1.897   0.152   6.511
 4362SOL     OW13984   5.900   5.403   1.982
 4362SOL    HW113985   5.931   5.362   1.896
 4362SOL    HW213986   5.890   5.332   2.052
 4363SOL     OW13987   4.462   0.698   2.441
 4363SOL    HW113988   4.561   0.716   2.443
 4363SOL    HW213989   4.437   0.642   2.520
 4364SOL     OW13990   3.607   3.403   2.831
 4364SOL    HW113991   3.610   3.357   2.920
 4364SOL    HW213992   3.696   3.446   2.813
 4365SOL     OW13993   2.280   1.168   0.854
 4365SOL    HW113994   2.380   1.179   0.851
 4365SOL    HW213995   2.247   1.193   0.945
 4366SOL     OW13996   4.856   5.356   5.120
 4366SOL    HW113997   4.930   5.417   5.091
 4366SOL    HW213998   4.813   5.394   5.202
 4367SOL     OW13999   1.352   0.110   1.654
 4367SOL    HW114000   1.319   0.057   1.732
 4367SOL    HW214001   1.367   0.205   1.682
 4368SOL     OW14002   5.043   5.313   4.172
 4368SOL    HW114003   5.065   5.337   4.077
 4368SOL    HW214004   4.947   5.286   4.177
 4369SOL     OW14005   6.824   4.145   3.730
 4369SOL    HW114006   6.796   4.097   3.646
 4369SOL    HW214007   6.744   4.157   3.789
 4370SOL     OW14008   5.721   4.521   1.436
 4370SOL    HW114009   5.757   4.570   1.515
 4370SOL    HW214010   5.622   4.509   1.446
 4371SOL     OW14011   3.160   0.670   3.413
 4371SOL    HW114012   3.225   0.655   3.339
 4371SOL    HW214013   3.188   0.749   3.467
 4372SOL     OW14014   1.945   4.322   5.616
 4372SOL    HW114015   1.915   4.403   5.666
 4372SOL    HW214016   1.997   4.262   5.677
 4373SOL     OW14017   4.301   0.586   0.680
 4373SOL    HW114018   4.220   0.550   0.633
 4373SOL    HW214019   4.312   0.541   0.768
 4374SOL     OW14020   1.898   6.280   0.350
 4374SOL    HW114021   1.900   6.380   0.347
 4374SOL    HW214022   1.906   6.243   0.257
 4375SOL     OW14023   4.503   0.830   5.421
 4375SOL    HW114024   4.547   0.801   5.335
 4375SOL    HW214025   4.417   0.876   5.401
 4376SOL     OW14026   1.999   4.603   6.674
 4376SOL    HW114027   2.037   4.588   6.765
 4376SOL    HW214028   1.966   4.697   6.667
 4377SOL     OW14029   5.660   6.128   0.183
 4377SOL    HW114030   5.601   6.132   0.264
 4377SOL    HW214031   5.667   6.034   0.151
 4378SOL     OW14032   2.582   5.248   0.980
 4378SOL    HW114033   2.511   5.206   1.035
 4378SOL    HW214034   2.575   5.215   0.886
 4379SOL     OW14035   5.645   6.735   0.956
 4379SOL    HW114036   5.670   6.653   0.905
 4379SOL    HW214037   5.583   6.791   0.901
 4380SOL     OW14038   1.577   6.153   4.722
 4380SOL    HW114039   1.523   6.213   4.663
 4380SOL    HW214040   1.666   6.136   4.681
 4381SOL     OW14041   3.751   5.937   4.992
 4381SOL    HW114042   3.666   5.971   4.952
 4381SOL    HW214043   3.784   5.860   4.937
 4382SOL     OW14044   5.554   3.514   3.447
 4382SOL    HW114045   5.496   3.444   3.407
 4382SOL    HW214046   5.637   3.524   3.391
 4383SOL     OW14047   1.027   6.918   6.685
 4383SOL    HW114048   0.943   6.951   6.728
 4383SOL    HW214049   1.014   6.916   6.586
 4384SOL     OW14050   3.550   0.285   1.665
 4384SOL    HW114051   3.547   0.341   1.748
 4384SOL    HW214052   3.518   0.193   1.687
 4385SOL     OW14053   5.650   2.772   4.632
 4385SOL    HW114054   5.667   2.835   4.557
 4385SOL    HW214055   5.648   2.822   4.719
 4386SOL     OW14056   1.919   5.445   0.294
 4386SOL    HW114057   1.942   5.469   0.200
 4386SOL    HW214058   1.972   5.365   0.322
 4387SOL     OW14059   6.603   2.802   1.064
 4387SOL    HW114060   6.595   2.800   1.163
 4387SOL    HW214061   6.694   2.772   1.036
 4388SOL     OW14062   3.653   0.900   5.671
 4388SOL    HW114063   3.729   0.849   5.632
 4388SOL    HW214064   3.657   0.995   5.641
 4389SOL     OW14065   1.270   3.173   2.684
 4389SOL    HW114066   1.179   3.213   2.676
 4389SOL    HW214067   1.288   3.115   2.605
 4390SOL     OW14068   5.119   3.791   1.068
 4390SOL    HW114069   5.128   3.810   0.971
 4390SOL    HW214070   5.046   3.725   1.083
 4391SOL     OW14071   0.331   5.673   1.366
 4391SOL    HW114072   0.425   5.698   1.340
 4391SOL    HW214073   0.320   5.687   1.465
 4392SOL     OW14074   5.260   5.679   4.527
 4392SOL    HW114075   5.359   5.684   4.510
 4392SOL    HW214076   5.218   5.617   4.460
 4393SOL     OW14077   5.357   7.024   2.739
 4393SOL    HW114078   5.398   0.031   2.825
 4393SOL    HW214079   5.429   7.011   2.671
 4394SOL     OW14080   4.754   1.348   2.855
 4394SOL    HW114081   4.701   1.330   2.938
 4394SOL    HW214082   4.784   1.443   2.854
 4395SOL     OW14083   5.394   3.024   1.481
 4395SOL    HW114084   5.366   3.105   1.533
 4395SOL    HW214085   5.434   2.957   1.543
 4396SOL     OW14086   2.298   0.569   2.356
 4396SOL    HW114087   2.347   0.647   2.318
 4396SOL    HW214088   2.230   0.601   2.422
 4397SOL     OW14089   4.127   2.346   0.722
 4397SOL    HW114090   4.143   2.285   0.800
 4397SOL    HW214091   4.204   2.341   0.659
 4398SOL     OW14092   0.578   5.255   5.135
 4398SOL    HW114093   0.577   5.295   5.226
 4398SOL    HW214094   0.498   5.287   5.084
 4399SOL     OW14095   2.861   0.254   1.682
 4399SOL    HW114096   2.910   0.168   1.666
 4399SOL    HW214097   2.780   0.257   1.623
 4400SOL     OW14098   3.891   4.992   2.454
 4400SOL    HW114099   3.951   5.003   2.374
 4400SOL    HW214100   3.800   4.963   2.423
 4401SOL     OW14101   4.474   6.755   4.742
 4401SOL    HW114102   4.509   6.706   4.821
 4401SOL    HW214103   4.468   6.693   4.664
 4402SOL     OW14104   0.347   6.393   0.750
 4402SOL    HW114105   0.419   6.343   0.701
 4402SOL    HW214106   0.315   6.337   0.827
 4403SOL     OW14107   6.401   1.610   3.275
 4403SOL    HW114108   6.451   1.659   3.204
 4403SOL    HW214109   6.397   1.666   3.358
 4404SOL     OW14110   1.660   3.736   2.782
 4404SOL    HW114111   1.671   3.650   2.832
 4404SOL    HW214112   1.715   3.733   2.698
 4405SOL     OW14113   3.057   3.943   6.999
 4405SOL    HW114114   2.993   3.869   7.018
 4405SOL    HW214115   3.023   4.028   0.013
 4406SOL     OW14116   6.412   2.380   2.996
 4406SOL    HW114117   6.360   2.465   2.995
 4406SOL    HW214118   6.441   2.358   3.089
 4407SOL     OW14119   0.727   0.763   0.460
 4407SOL    HW114120   0.707   0.845   0.406
 4407SOL    HW214121   0.822   0.767   0.492
 4408SOL     OW14122   4.796   6.154   1.179
 4408SOL    HW114123   4.845   6.097   1.113
 4408SOL    HW214124   4.811   6.250   1.158
 4409SOL     OW14125   3.828   1.561   3.219
 4409SOL    HW114126   3.888   1.503   3.163
 4409SOL    HW214127   3.780   1.503   3.285
 4410SOL     OW14128   2.166   5.399   0.451
 4410SOL    HW114129   2.078   5.426   0.491
 4410SOL    HW214130   2.239   5.416   0.516
 4411SOL     OW14131   3.410   3.367   1.734
 4411SOL    HW114132   3.392   3.271   1.755
 4411SOL    HW214133   3.397   3.383   1.636
 4412SOL     OW14134   2.881   1.106   6.785
 4412SOL    HW114135   2.955   1.044   6.812
 4412SOL    HW214136   2.891   1.193   6.834
 4413SOL     OW14137   3.881   5.951   4.131
 4413SOL    HW114138   3.934   6.020   4.181
 4413SOL    HW214139   3.787   5.984   4.118
 4414SOL     OW14140   3.479   4.431   1.417
 4414SOL    HW114141   3.494   4.458   1.513
 4414SOL    HW214142   3.550   4.366   1.390
 4415SOL     OW14143   4.919   1.210   1.903
 4415SOL    HW114144   5.003   1.208   1.958
 4415SOL    HW214145   4.909   1.300   1.861
 4416SOL     OW14146   2.794   2.012   5.292
 4416SOL    HW114147   2.874   2.009   5.231
 4416SOL    HW214148   2.731   1.938   5.267
 4417SOL     OW14149   4.954   1.209   1.352
 4417SOL    HW114150   4.945   1.109   1.348
 4417SOL    HW214151   4.977   1.244   1.261
 4418SOL     OW14152   4.129   0.576   2.848
 4418SOL    HW114153   4.200   0.646   2.847
 4418SOL    HW214154   4.148   0.509   2.920
 4419SOL     OW14155   6.341   5.405   6.446
 4419SOL    HW114156   6.295   5.325   6.408
 4419SOL    HW214157   6.282   5.447   6.515
 4420SOL     OW14158   5.298   1.493   0.689
 4420SOL    HW114159   5.252   1.510   0.776
 4420SOL    HW214160   5.392   1.465   0.706
 4421SOL     OW14161   0.892   1.597   3.263
 4421SOL    HW114162   0.916   1.645   3.178
 4421SOL    HW214163   0.950   1.631   3.337
 4422SOL     OW14164   1.812   4.065   5.641
 4422SOL    HW114165   1.824   4.008   5.560
 4422SOL    HW214166   1.786   4.157   5.613
 4423SOL     OW14167   6.991   2.313   6.203
 4423SOL    HW114168   6.968   2.343   6.111
 4423SOL    HW214169   0.064   2.321   6.218
 4424SOL     OW14170   2.030   5.356   3.122
 4424SOL    HW114171   2.035   5.455   3.136
 4424SOL    HW214172   1.940   5.332   3.087
 4425SOL     OW14173   5.895   4.087   2.834
 4425SOL    HW114174   5.806   4.121   2.802
 4425SOL    HW214175   5.948   4.053   2.757
 4426SOL     OW14176   0.284   6.438   6.690
 4426SOL    HW114177   0.232   6.489   6.621
 4426SOL    HW214178   0.232   6.433   6.775
 4427SOL     OW14179   0.406   4.826   3.949
 4427SOL    HW114180   0.420   4.756   3.879
 4427SOL    HW214181   0.332   4.888   3.921
 4428SOL     OW14182   1.737   0.043   2.259
 4428SOL    HW114183   1.650   0.088   2.239
 4428SOL    HW214184   1.736   0.006   2.352
 4429SOL     OW14185   2.189   6.905   1.241
 4429SOL    HW114186   2.133   6.941   1.167
 4429SOL    HW214187   2.132   6.887   1.321
 4430SOL     OW14188   1.984   0.369   2.206
 4430SOL    HW114189   1.917   0.440   2.228
 4430SOL    HW214190   2.036   0.347   2.288
 4431SOL     OW14191   2.459   1.852   2.315
 4431SOL    HW114192   2.393   1.876   2.386
 4431SOL    HW214193   2.502   1.936   2.280
 4432SOL     OW14194   3.827   3.761   4.534
 4432SOL    HW114195   3.731   3.775   4.559
 4432SOL    HW214196   3.874   3.849   4.534
 4433SOL     OW14197   5.670   6.817   1.196
 4433SOL    HW114198   5.733   6.895   1.189
 4433SOL    HW214199   5.665   6.771   1.107
 4434SOL     OW14200   5.973   2.157   5.873
 4434SOL    HW114201   5.962   2.105   5.789
 4434SOL    HW214202   5.889   2.150   5.927
 4435SOL     OW14203   3.695   2.543   1.699
 4435SOL    HW114204   3.685   2.615   1.767
 4435SOL    HW214205   3.700   2.454   1.744
 4436SOL     OW14206   5.843   6.939   0.103
 4436SOL    HW114207   5.810   7.006   0.169
 4436SOL    HW214208   5.903   6.984   0.037
 4437SOL     OW14209   2.820   6.987   5.614
 4437SOL    HW114210   2.885   6.912   5.603
 4437SOL    HW214211   2.871   0.047   5.629
 4438SOL     OW14212   4.039   2.177   7.000
 4438SOL    HW114213   4.080   2.104   0.028
 4438SOL    HW214214   4.026   2.258   0.032
 4439SOL     OW14215   0.980   5.293   2.818
 4439SOL    HW114216   1.073   5.327   2.804
 4439SOL    HW214217   0.929   5.301   2.732
 4440SOL     OW14218   6.207   1.532   0.122
 4440SOL    HW114219   6.259   1.565   0.201
 4440SOL    HW214220   6.110   1.547   0.137
 4441SOL     OW14221   5.963   0.941   4.439
 4441SOL    HW114222   6.024   0.862   4.438
 4441SOL    HW214223   5.968   0.989   4.351
 4442SOL     OW14224   1.862   6.181   1.343
 4442SOL    HW114225   1.916   6.219   1.268
 4442SOL    HW214226   1.893   6.088   1.362
 4443SOL     OW14227   1.659   1.048   1.379
 4443SOL    HW114228   1.758   1.051   1.367
 4443SOL    HW214229   1.615   1.064   1.291
 4444SOL     OW14230   5.270   1.964   2.926
 4444SOL    HW114231   5.176   1.948   2.957
 4444SOL    HW214232   5.268   2.011   2.838
 4445SOL     OW14233   1.210   2.007   6.203
 4445SOL    HW114234   1.126   2.022   6.151
 4445SOL    HW214235   1.289   2.038   6.151
 4446SOL     OW14236   6.390   5.573   4.450
 4446SOL    HW114237   6.433   5.647   4.399
 4446SOL    HW214238   6.460   5.523   4.501
 4447SOL     OW14239   4.915   3.827   4.798
 4447SOL    HW114240   4.874   3.762   4.862
 4447SOL    HW214241   4.852   3.904   4.785
 4448SOL     OW14242   2.286   3.152   6.613
 4448SOL    HW114243   2.242   3.080   6.560
 4448SOL    HW214244   2.373   3.176   6.571
 4449SOL     OW14245   0.425   1.753   5.461
 4449SOL    HW114246   0.370   1.702   5.527
 4449SOL    HW214247   0.470   1.688   5.399
 4450SOL     OW14248   4.092   3.278   2.715
 4450SOL    HW114249   4.032   3.220   2.770
 4450SOL    HW214250   4.179   3.231   2.699
 4451SOL     OW14251   0.285   5.468   1.145
 4451SOL    HW114252   0.201   5.495   1.098
 4451SOL    HW214253   0.283   5.505   1.238
 4452SOL     OW14254   0.903   3.605   6.591
 4452SOL    HW114255   0.859   3.690   6.622
 4452SOL    HW214256   0.870   3.528   6.646
 4453SOL     OW14257   5.481   1.038   0.511
 4453SOL    HW114258   5.521   0.994   0.431
 4453SOL    HW214259   5.382   1.045   0.500
 4454SOL     OW14260   5.896   3.356   2.109
 4454SOL    HW114261   5.820   3.315   2.158
 4454SOL    HW214262   5.864   3.392   2.022
 4455SOL     OW14263   4.910   2.497   2.622
 4455SOL    HW114264   4.864   2.447   2.548
 4455SOL    HW214265   4.937   2.587   2.589
 4456SOL     OW14266   6.785   5.567   2.814
 4456SOL    HW114267   6.836   5.488   2.778
 4456SOL    HW214268   6.760   5.628   2.739
 4457SOL     OW14269   4.992   2.480   6.422
 4457SOL    HW114270   5.082   2.498   6.462
 4457SOL    HW214271   4.996   2.399   6.365
 4458SOL     OW14272   4.532   2.150   1.315
 4458SOL    HW114273   4.526   2.214   1.392
 4458SOL    HW214274   4.546   2.057   1.351
 4459SOL     OW14275   6.606   5.358   6.557
 4459SOL    HW114276   6.643   5.366   6.464
 4459SOL    HW214277   6.507   5.345   6.552
 4460SOL     OW14278   1.709   6.944   0.111
 4460SOL    HW114279   1.796   6.899   0.129
 4460SOL    HW214280   1.639   6.905   0.170
 4461SOL     OW14281   2.011   0.002   3.275
 4461SOL    HW114282   2.057   7.022   3.187
 4461SOL    HW214283   2.074   6.998   3.348
 4462SOL     OW14284   0.543   3.026   1.446
 4462SOL    HW114285   0.448   3.043   1.473
 4462SOL    HW214286   0.545   2.952   1.379
 4463SOL     OW14287   0.387   3.671   6.529
 4463SOL    HW114288   0.411   3.676   6.626
 4463SOL    HW214289   0.445   3.735   6.477
 4464SOL     OW14290   6.973   3.650   0.851
 4464SOL    HW114291   0.024   3.589   0.827
 4464SOL    HW214292   7.002   3.745   0.839
 4465SOL     OW14293   5.943   4.601   1.272
 4465SOL    HW114294   5.996   4.528   1.315
 4465SOL    HW214295   5.863   4.622   1.327
 4466SOL     OW14296   0.112   2.916   4.060
 4466SOL    HW114297   0.015   2.906   4.038
 4466SOL    HW214298   0.133   3.011   4.081
 4467SOL     OW14299   1.463   0.060   4.317
 4467SOL    HW114300   1.440   0.143   4.368
 4467SOL    HW214301   1.381   0.021   4.276
 4468SOL     OW14302   0.866   1.018   0.417
 4468SOL    HW114303   0.835   1.112   0.401
 4468SOL    HW214304   0.942   0.997   0.355
 4469SOL     OW14305   4.817   6.674   0.432
 4469SOL    HW114306   4.738   6.663   0.492
 4469SOL    HW214307   4.786   6.672   0.337
 4470SOL     OW14308   4.648   4.471   1.529
 4470SOL    HW114309   4.558   4.464   1.571
 4470SOL    HW214310   4.691   4.381   1.525
 4471SOL     OW14311   6.662   2.223   1.735
 4471SOL    HW114312   6.757   2.210   1.764
 4471SOL    HW214313   6.623   2.135   1.711
 4472SOL     OW14314   2.176   5.247   1.449
 4472SOL    HW114315   2.175   5.316   1.521
 4472SOL    HW214316   2.267   5.204   1.445
 4473SOL     OW14317   5.314   0.838   0.122
 4473SOL    HW114318   5.387   0.890   0.167
 4473SOL    HW214319   5.234   0.898   0.109
 4474SOL     OW14320   6.825   1.757   4.966
 4474SOL    HW114321   6.793   1.850   4.954
 4474SOL    HW214322   6.849   1.743   5.062
 4475SOL     OW14323   1.391   3.251   0.739
 4475SOL    HW114324   1.354   3.225   0.829
 4475SOL    HW214325   1.465   3.189   0.715
 4476SOL     OW14326   3.448   6.346   2.660
 4476SOL    HW114327   3.380   6.399   2.711
 4476SOL    HW214328   3.440   6.249   2.684
 4477SOL     OW14329   1.338   1.966   1.088
 4477SOL    HW114330   1.303   1.908   1.015
 4477SOL    HW214331   1.343   1.914   1.173
 4478SOL     OW14332   1.226   4.411   0.724
 4478SOL    HW114333   1.243   4.313   0.736
 4478SOL    HW214334   1.234   4.457   0.813
 4479SOL     OW14335   0.930   5.775   6.162
 4479SOL    HW114336   0.850   5.798   6.217
 4479SOL    HW214337   1.001   5.735   6.220
 4480SOL     OW14338   6.821   3.172   3.216
 4480SOL    HW114339   6.855   3.155   3.124
 4480SOL    HW214340   6.805   3.270   3.228
 4481SOL     OW14341   0.565   0.851   3.695
 4481SOL    HW114342   0.591   0.865   3.790
 4481SOL    HW214343   0.520   0.762   3.685
 4482SOL     OW14344   0.595   4.024   3.901
 4482SOL    HW114345   0.592   4.056   3.807
 4482SOL    HW214346   0.526   3.952   3.914
 4483SOL     OW14347   6.581   4.386   1.040
 4483SOL    HW114348   6.674   4.413   1.016
 4483SOL    HW214349   6.577   4.287   1.052
 4484SOL     OW14350   3.790   3.685   6.365
 4484SOL    HW114351   3.807   3.784   6.358
 4484SOL    HW214352   3.755   3.652   6.277
 4485SOL     OW14353   4.387   6.583   5.522
 4485SOL    HW114354   4.409   6.583   5.424
 4485SOL    HW214355   4.330   6.504   5.544
 4486SOL     OW14356   6.017   3.644   4.406
 4486SOL    HW114357   6.032   3.576   4.477
 4486SOL    HW214358   5.922   3.677   4.410
 4487SOL     OW14359   3.576   2.810   6.110
 4487SOL    HW114360   3.479   2.795   6.090
 4487SOL    HW214361   3.631   2.788   6.030
 4488SOL     OW14362   6.999   2.726   6.762
 4488SOL    HW114363   6.965   2.638   6.797
 4488SOL    HW214364   6.964   2.741   6.670
 4489SOL     OW14365   0.708   2.306   4.041
 4489SOL    HW114366   0.718   2.369   4.118
 4489SOL    HW214367   0.637   2.239   4.063
 4490SOL     OW14368   0.001   1.774   3.713
 4490SOL    HW114369   7.025   1.719   3.629
 4490SOL    HW214370   0.067   1.848   3.703
 4491SOL     OW14371   2.250   5.288   2.022
 4491SOL    HW114372   2.303   5.231   1.958
 4491SOL    HW214373   2.176   5.333   1.972
 4492SOL     OW14374   5.660   3.875   5.192
 4492SOL    HW114375   5.595   3.868   5.268
 4492SOL    HW214376   5.750   3.899   5.228
 4493SOL     OW14377   6.127   4.751   3.532
 4493SOL    HW114378   6.114   4.661   3.575
 4493SOL    HW214379   6.190   4.805   3.587
 4494SOL     OW14380   5.126   3.138   2.106
 4494SOL    HW114381   5.177   3.180   2.181
 4494SOL    HW214382   5.028   3.147   2.123
 4495SOL     OW14383   5.841   4.476   2.274
 4495SOL    HW114384   5.785   4.449   2.196
 4495SOL    HW214385   5.882   4.394   2.315
 4496SOL     OW14386   6.094   3.588   6.342
 4496SOL    HW114387   6.184   3.621   6.313
 4496SOL    HW214388   6.042   3.558   6.262
 4497SOL     OW14389   5.943   0.025   0.690
 4497SOL    HW114390   5.959   6.966   0.639
 4497SOL    HW214391   6.028   0.077   0.698
 4498SOL     OW14392   1.324   4.805   6.223
 4498SOL    HW114393   1.325   4.862   6.141
 4498SOL    HW214394   1.318   4.863   6.304
 4499SOL     OW14395   5.839   4.135   0.239
 4499SOL    HW114396   5.875   4.091   0.157
 4499SOL    HW214397   5.741   4.115   0.247
 4500SOL     OW14398   3.333   3.951   1.903
 4500SOL    HW114399   3.402   3.888   1.938
 4500SOL    HW214400   3.285   3.993   1.980
 4501SOL     OW14401   1.294   5.428   4.832
 4501SOL    HW114402   1.377   5.377   4.850
 4501SOL    HW214403   1.227   5.369   4.787
 4502SOL     OW14404   5.965   3.052   0.543
 4502SOL    HW114405   5.874   3.092   0.531
 4502SOL    HW214406   5.996   3.010   0.458
 4503SOL     OW14407   0.860   3.753   2.460
 4503SOL    HW114408   0.883   3.809   2.540
 4503SOL    HW214409   0.928   3.768   2.388
 4504SOL     OW14410   4.644   2.143   4.466
 4504SOL    HW114411   4.547   2.122   4.453
 4504SOL    HW214412   4.698   2.091   4.400
 4505SOL     OW14413   2.713   5.647   6.833
 4505SOL    HW114414   2.638   5.622   6.894
 4505SOL    HW214415   2.780   5.701   6.884
 4506SOL     OW14416   3.346   6.084   6.076
 4506SOL    HW114417   3.345   6.032   6.161
 4506SOL    HW214418   3.328   6.022   5.999
 4507SOL     OW14419   6.593   3.991   2.808
 4507SOL    HW114420   6.497   3.961   2.814
 4507SOL    HW214421   6.651   3.912   2.787
 4508SOL     OW14422   1.815   4.527   1.184
 4508SOL    HW114423   1.732   4.477   1.161
 4508SOL    HW214424   1.792   4.610   1.234
 4509SOL     OW14425   0.774   2.443   3.718
 4509SOL    HW114426   0.725   2.381   3.780
 4509SOL    HW214427   0.846   2.393   3.670
 4510SOL     OW14428   2.626   0.051   0.466
 4510SOL    HW114429   2.678   0.115   0.524
 4510SOL    HW214430   2.616   6.989   0.513
 4511SOL     OW14431   0.352   2.288   0.556
 4511SOL    HW114432   0.305   2.364   0.512
 4511SOL    HW214433   0.357   2.211   0.492
 4512SOL     OW14434   2.219   3.826   0.376
 4512SOL    HW114435   2.145   3.835   0.309
 4512SOL    HW214436   2.303   3.866   0.337
 4513SOL     OW14437   6.463   1.863   2.293
 4513SOL    HW114438   6.502   1.772   2.305
 4513SOL    HW214439   6.526   1.931   2.332
 4514SOL     OW14440   1.618   0.262   4.592
 4514SOL    HW114441   1.586   0.192   4.529
 4514SOL    HW214442   1.661   0.219   4.671
 4515SOL     OW14443   0.515   4.129   0.588
 4515SOL    HW114444   0.593   4.174   0.544
 4515SOL    HW214445   0.448   4.104   0.519
 4516SOL     OW14446   6.891   0.407   3.871
 4516SOL    HW114447   6.860   0.498   3.898
 4516SOL    HW214448   6.912   0.407   3.773
 4517SOL     OW14449   2.558   0.843   0.251
 4517SOL    HW114450   2.585   0.766   0.308
 4517SOL    HW214451   2.567   0.928   0.304
 4518SOL     OW14452   0.771   1.076   3.502
 4518SOL    HW114453   0.708   1.141   3.543
 4518SOL    HW214454   0.719   1.000   3.462
 4519SOL     OW14455   0.204   2.467   4.542
 4519SOL    HW114456   0.249   2.424   4.464
 4519SOL    HW214457   0.128   2.524   4.510
 4520SOL     OW14458   0.118   3.879   3.380
 4520SOL    HW114459   0.163   3.823   3.449
 4520SOL    HW214460   0.060   3.947   3.426
 4521SOL     OW14461   4.922   1.319   6.414
 4521SOL    HW114462   4.951   1.225   6.394
 4521SOL    HW214463   4.911   1.369   6.329
 4522SOL     OW14464   5.035   6.752   3.205
 4522SOL    HW114465   4.960   6.687   3.208
 4522SOL    HW214466   4.999   6.843   3.185
 4523SOL     OW14467   4.874   1.785   5.866
 4523SOL    HW114468   4.870   1.695   5.821
 4523SOL    HW214469   4.791   1.797   5.921
 4524SOL     OW14470   5.764   2.047   5.108
 4524SOL    HW114471   5.664   2.044   5.102
 4524SOL    HW214472   5.802   1.958   5.081
 4525SOL     OW14473   6.944   1.567   3.966
 4525SOL    HW114474   0.015   1.582   3.945
 4525SOL    HW214475   6.910   1.643   4.020
 4526SOL     OW14476   2.304   2.306   0.993
 4526SOL    HW114477   2.208   2.284   1.007
 4526SOL    HW214478   2.326   2.299   0.895
 4527SOL     OW14479   4.794   0.020   2.536
 4527SOL    HW114480   4.802   6.946   2.525
 4527SOL    HW214481   4.711   0.052   2.490
 4528SOL     OW14482   4.405   0.055   6.448
 4528SOL    HW114483   4.312   0.035   6.420
 4528SOL    HW214484   4.424   0.152   6.436
 4529SOL     OW14485   2.746   6.949   3.939
 4529SOL    HW114486   2.756   6.915   3.846
 4529SOL    HW214487   2.807   6.898   4.000
 4530SOL     OW14488   6.490   2.048   4.429
 4530SOL    HW114489   6.467   2.029   4.334
 4530SOL    HW214490   6.562   2.118   4.433
 4531SOL     OW14491   6.999   4.259   3.252
 4531SOL    HW114492   6.901   4.275   3.250
 4531SOL    HW214493   7.024   4.217   3.339
 4532SOL     OW14494   0.476   1.843   0.709
 4532SOL    HW114495   0.396   1.806   0.756
 4532SOL    HW214496   0.552   1.779   0.717
 4533SOL     OW14497   3.574   6.338   1.636
 4533SOL    HW114498   3.595   6.327   1.538
 4533SOL    HW214499   3.476   6.325   1.650
 4534SOL     OW14500   6.389   4.522   6.475
 4534SOL    HW114501   6.369   4.463   6.397
 4534SOL    HW214502   6.318   4.509   6.545
 4535SOL     OW14503   4.577   1.474   2.600
 4535SOL    HW114504   4.546   1.528   2.678
 4535SOL    HW214505   4.633   1.398   2.632
 4536SOL     OW14506   6.794   0.049   3.544
 4536SOL    HW114507   6.892   0.061   3.562
 4536SOL    HW214508   6.782   7.015   3.465
 4537SOL     OW14509   4.893   3.149   5.606
 4537SOL    HW114510   4.979   3.137   5.556
 4537SOL    HW214511   4.829   3.078   5.579
 4538SOL     OW14512   3.429   2.153   1.464
 4538SOL    HW114513   3.460   2.179   1.555
 4538SOL    HW214514   3.339   2.193   1.446
 4539SOL     OW14515   2.423   4.020   0.654
 4539SOL    HW114516   2.514   4.038   0.618
 4539SOL    HW214517   2.430   3.964   0.736
 4540SOL     OW14518   3.780   3.264   4.053
 4540SOL    HW114519   3.744   3.262   3.959
 4540SOL    HW214520   3.740   3.341   4.103
 4541SOL     OW14521   5.986   1.410   1.631
 4541SOL    HW114522   6.053   1.477   1.599
 4541SOL    HW214523   5.992   1.328   1.575
 4542SOL     OW14524   5.455   6.275   3.447
 4542SOL    HW114525   5.412   6.241   3.531
 4542SOL    HW214526   5.425   6.369   3.431
 4543SOL     OW14527   5.026   2.831   2.768
 4543SOL    HW114528   5.061   2.786   2.686
 4543SOL    HW214529   5.067   2.921   2.777
 4544SOL     OW14530   5.518   4.385   0.399
 4544SOL    HW114531   5.527   4.300   0.450
 4544SOL    HW214532   5.485   4.458   0.459
 4545SOL     OW14533   4.869   3.746   0.639
 4545SOL    HW114534   4.891   3.811   0.567
 4545SOL    HW214535   4.840   3.659   0.598
 4546SOL     OW14536   0.891   6.055   0.747
 4546SOL    HW114537   0.928   6.035   0.837
 4546SOL    HW214538   0.966   6.076   0.684
 4547SOL     OW14539   4.472   1.570   2.870
 4547SOL    HW114540   4.478   1.471   2.883
 4547SOL    HW214541   4.376   1.598   2.870
 4548SOL     OW14542   1.385   3.266   4.449
 4548SOL    HW114543   1.401   3.264   4.350
 4548SOL    HW214544   1.389   3.361   4.481
 4549SOL     OW14545   5.978   1.651   2.853
 4549SOL    HW114546   5.988   1.552   2.848
 4549SOL    HW214547   6.013   1.693   2.769
 4550SOL     OW14548   1.866   5.385   5.679
 4550SOL    HW114549   1.856   5.448   5.602
 4550SOL    HW214550   1.958   5.394   5.717
 4551SOL     OW14551   6.350   3.465   0.941
 4551SOL    HW114552   6.394   3.387   0.897
 4551SOL    HW214553   6.287   3.509   0.877
 4552SOL     OW14554   0.201   3.968   5.471
 4552SOL    HW114555   0.180   4.028   5.393
 4552SOL    HW214556   0.117   3.952   5.523
 4553SOL     OW14557   5.191   5.394   0.221
 4553SOL    HW114558   5.129   5.461   0.179
 4553SOL    HW214559   5.155   5.302   0.208
 4554SOL     OW14560   6.405   5.855   4.014
 4554SOL    HW114561   6.453   5.929   4.061
 4554SOL    HW214562   6.367   5.889   3.928
 4555SOL     OW14563   3.939   2.416   6.672
 4555SOL    HW114564   3.938   2.449   6.578
 4555SOL    HW214565   3.996   2.334   6.678
 4556SOL     OW14566   3.616   0.601   4.601
 4556SOL    HW114567   3.621   0.521   4.661
 4556SOL    HW214568   3.560   0.579   4.522
 4557SOL     OW14569   5.355   0.612   3.533
 4557SOL    HW114570   5.315   0.655   3.614
 4557SOL    HW214571   5.330   0.664   3.452
 4558SOL     OW14572   0.652   4.229   0.150
 4558SOL    HW114573   0.690   4.163   0.214
 4558SOL    HW214574   0.699   4.317   0.161
 4559SOL     OW14575   1.599   6.694   1.209
 4559SOL    HW114576   1.655   6.770   1.177
 4559SOL    HW214577   1.505   6.705   1.176
 4560SOL     OW14578   6.198   1.966   4.314
 4560SOL    HW114579   6.266   1.973   4.242
 4560SOL    HW214580   6.118   2.021   4.290
 4561SOL     OW14581   2.473   6.183   6.375
 4561SOL    HW114582   2.424   6.123   6.438
 4561SOL    HW214583   2.560   6.211   6.417
 4562SOL     OW14584   3.335   4.197   5.317
 4562SOL    HW114585   3.281   4.198   5.232
 4562SOL    HW214586   3.372   4.105   5.332
 4563SOL     OW14587   5.326   2.815   6.766
 4563SOL    HW114588   5.240   2.830   6.716
 4563SOL    HW214589   5.305   2.785   6.859
 4564SOL     OW14590   6.525   5.617   0.425
 4564SOL    HW114591   6.538   5.555   0.348
 4564SOL    HW214592   6.432   5.653   0.423
 4565SOL     OW14593   4.674   0.692   4.203
 4565SOL    HW114594   4.698   0.738   4.118
 4565SOL    HW214595   4.576   0.704   4.221
 4566SOL     OW14596   1.657   0.683   1.614
 4566SOL    HW114597   1.708   0.600   1.638
 4566SOL    HW214598   1.633   0.680   1.517
 4567SOL     OW14599   6.069   2.623   0.589
 4567SOL    HW114600   6.051   2.691   0.660
 4567SOL    HW214601   6.119   2.666   0.514
 4568SOL     OW14602   4.214   4.757   3.563
 4568SOL    HW114603   4.291   4.694   3.576
 4568SOL    HW214604   4.173   4.777   3.652
 4569SOL     OW14605   2.264   1.237   3.348
 4569SOL    HW114606   2.322   1.299   3.402
 4569SOL    HW214607   2.229   1.164   3.407
 4570SOL     OW14608   5.208   6.169   4.703
 4570SOL    HW114609   5.201   6.268   4.692
 4570SOL    HW214610   5.122   6.132   4.737
 4571SOL     OW14611   4.012   3.083   3.638
 4571SOL    HW114612   3.956   3.050   3.714
 4571SOL    HW214613   4.059   3.166   3.665
 4572SOL     OW14614   2.450   4.919   1.345
 4572SOL    HW114615   2.425   4.828   1.312
 4572SOL    HW214616   2.520   4.910   1.416
 4573SOL     OW14617   5.230   6.436   1.650
 4573SOL    HW114618   5.238   6.475   1.558
 4573SOL    HW214619   5.135   6.411   1.667
 4574SOL     OW14620   6.965   4.853   1.918
 4574SOL    HW114621   6.943   4.949   1.904
 4574SOL    HW214622   6.996   4.813   1.831
 4575SOL     OW14623   6.139   5.866   1.589
 4575SOL    HW114624   6.232   5.829   1.589
 4575SOL    HW214625   6.116   5.900   1.680
 4576SOL     OW14626   3.566   5.984   4.790
 4576SOL    HW114627   3.606   5.988   4.698
 4576SOL    HW214628   3.500   6.059   4.801
 4577SOL     OW14629   2.490   4.978   3.270
 4577SOL    HW114630   2.515   5.028   3.187
 4577SOL    HW214631   2.573   4.939   3.311
 4578SOL     OW14632   5.964   6.212   3.556
 4578SOL    HW114633   5.911   6.214   3.641
 4578SOL    HW214634   5.926   6.142   3.495
 4579SOL     OW14635   4.799   1.714   3.254
 4579SOL    HW114636   4.729   1.681   3.318
 4579SOL    HW214637   4.882   1.736   3.305
 4580SOL     OW14638   0.800   4.724   0.758
 4580SOL    HW114639   0.778   4.778   0.840
 4580SOL    HW214640   0.716   4.685   0.720
 4581SOL     OW14641   2.720   5.388   4.460
 4581SOL    HW114642   2.747   5.292   4.452
 4581SOL    HW214643   2.801   5.445   4.475
 4582SOL     OW14644   4.957   5.828   2.340
 4582SOL    HW114645   5.032   5.762   2.341
 4582SOL    HW214646   4.973   5.898   2.409
 4583SOL     OW14647   3.988   6.928   5.065
 4583SOL    HW114648   4.074   6.979   5.070
 4583SOL    HW214649   3.915   6.980   5.108
 4584SOL     OW14650   0.142   5.400   5.244
 4584SOL    HW114651   0.047   5.377   5.263
 4584SOL    HW214652   0.187   5.428   5.328
 4585SOL     OW14653   3.352   6.761   2.204
 4585SOL    HW114654   3.278   6.818   2.169
 4585SOL    HW214655   3.416   6.817   2.256
 4586SOL     OW14656   1.277   6.131   1.599
 4586SOL    HW114657   1.298   6.100   1.507
 4586SOL    HW214658   1.349   6.192   1.632
 4587SOL     OW14659   3.430   4.665   1.305
 4587SOL    HW114660   3.454   4.576   1.344
 4587SOL    HW214661   3.382   4.650   1.218
 4588SOL     OW14662   3.659   3.906   4.907
 4588SOL    HW114663   3.741   3.849   4.916
 4588SOL    HW214664   3.611   3.881   4.823
 4589SOL     OW14665   2.222   2.015   4.059
 4589SOL    HW114666   2.213   1.985   4.155
 4589SOL    HW214667   2.318   2.028   4.037
 4590SOL     OW14668   3.952   6.879   2.557
 4590SOL    HW114669   3.869   6.829   2.533
 4590SOL    HW214670   3.952   6.968   2.512
 4591SOL     OW14671   4.923   5.496   4.782
 4591SOL    HW114672   4.898   5.427   4.714
 4591SOL    HW214673   5.023   5.499   4.791
 4592SOL     OW14674   3.525   2.453   6.432
 4592SOL    HW114675   3.591   2.393   6.388
 4592SOL    HW214676   3.530   2.544   6.391
 4593SOL     OW14677   5.014   5.153   1.553
 4593SOL    HW114678   5.093   5.213   1.553
 4593SOL    HW214679   4.933   5.204   1.524
 4594SOL     OW14680   4.553   2.200   2.709
 4594SOL    HW114681   4.631   2.217   2.769
 4594SOL    HW214682   4.524   2.105   2.718
 4595SOL     OW14683   4.207   3.121   5.381
 4595SOL    HW114684   4.214   3.210   5.336
 4595SOL    HW214685   4.269   3.118   5.459
 4596SOL     OW14686   4.699   1.075   2.208
 4596SOL    HW114687   4.663   1.158   2.166
 4596SOL    HW214688   4.654   0.995   2.168
 4597SOL     OW14689   6.763   3.470   6.443
 4597SOL    HW114690   6.834   3.532   6.410
 4597SOL    HW214691   6.805   3.394   6.492
 4598SOL     OW14692   2.415   3.988   0.300
 4598SOL    HW114693   2.419   4.070   0.242
 4598SOL    HW214694   2.481   3.921   0.267
 4599SOL     OW14695   3.089   4.703   0.531
 4599SOL    HW114696   3.036   4.684   0.613
 4599SOL    HW214697   3.029   4.736   0.458
 4600SOL     OW14698   2.437   3.505   0.895
 4600SOL    HW114699   2.436   3.589   0.841
 4600SOL    HW214700   2.445   3.426   0.835
 4601SOL     OW14701   2.074   5.449   3.573
 4601SOL    HW114702   2.158   5.455   3.627
 4601SOL    HW214703   1.996   5.477   3.629
 4602SOL     OW14704   0.812   0.387   1.800
 4602SOL    HW114705   0.863   0.471   1.780
 4602SOL    HW214706   0.871   0.322   1.847
 4603SOL     OW14707   2.332   1.444   1.519
 4603SOL    HW114708   2.364   1.369   1.461
 4603SOL    HW214709   2.401   1.465   1.588
 4604SOL     OW14710   0.918   6.648   3.525
 4604SOL    HW114711   0.886   6.581   3.593
 4604SOL    HW214712   0.862   6.642   3.443
 4605SOL     OW14713   5.172   6.704   5.493
 4605SOL    HW114714   5.103   6.658   5.548
 4605SOL    HW214715   5.253   6.722   5.550
 4606SOL     OW14716   6.254   6.104   4.415
 4606SOL    HW114717   6.216   6.026   4.365
 4606SOL    HW214718   6.194   6.128   4.491
 4607SOL     OW14719   2.616   3.430   7.024
 4607SOL    HW114720   2.712   3.412   7.005
 4607SOL    HW214721   2.595   3.404   0.093
 4608SOL     OW14722   1.558   3.870   6.215
 4608SOL    HW114723   1.652   3.839   6.200
 4608SOL    HW214724   1.494   3.805   6.175
 4609SOL     OW14725   3.441   0.110   0.147
 4609SOL    HW114726   3.392   0.181   0.196
 4609SOL    HW214727   3.416   0.020   0.183
 4610SOL     OW14728   6.788   3.437   0.804
 4610SOL    HW114729   6.826   3.529   0.814
 4610SOL    HW214730   6.799   3.387   0.890
 4611SOL     OW14731   1.722   4.918   5.466
 4611SOL    HW114732   1.821   4.921   5.454
 4611SOL    HW214733   1.695   4.985   5.535
 4612SOL     OW14734   1.153   0.343   6.595
 4612SOL    HW114735   1.152   0.282   6.675
 4612SOL    HW214736   1.069   0.330   6.542
 4613SOL     OW14737   4.090   4.694   1.410
 4613SOL    HW114738   4.057   4.773   1.461
 4613SOL    HW214739   4.178   4.715   1.368
 4614SOL     OW14740   1.866   3.724   0.931
 4614SOL    HW114741   1.906   3.644   0.975
 4614SOL    HW214742   1.923   3.753   0.855
 4615SOL     OW14743   5.787   3.072   6.702
 4615SOL    HW114744   5.699   3.027   6.688
 4615SOL    HW214745   5.841   3.022   6.769
 4616SOL     OW14746   5.422   0.638   6.598
 4616SOL    HW114747   5.371   0.594   6.672
 4616SOL    HW214748   5.459   0.568   6.537
 4617SOL     OW14749   0.374   4.339   2.124
 4617SOL    HW114750   0.440   4.385   2.063
 4617SOL    HW214751   0.393   4.364   2.219
 4618SOL     OW14752   1.617   2.490   6.811
 4618SOL    HW114753   1.656   2.525   6.725
 4618SOL    HW214754   1.591   2.567   6.869
 4619SOL     OW14755   4.578   0.977   4.396
 4619SOL    HW114756   4.491   0.965   4.349
 4619SOL    HW214757   4.647   1.007   4.331
 4620SOL     OW14758   1.611   5.510   0.864
 4620SOL    HW114759   1.601   5.438   0.795
 4620SOL    HW214760   1.524   5.521   0.912
 4621SOL     OW14761   6.448   0.927   0.385
 4621SOL    HW114762   6.373   0.944   0.449
 4621SOL    HW214763   6.476   1.013   0.343
 4622SOL     OW14764   1.668   4.153   0.690
 4622SOL    HW114765   1.673   4.251   0.668
 4622SOL    HW214766   1.754   4.124   0.732
 4623SOL     OW14767   6.740   3.743   4.650
 4623SOL    HW114768   6.743   3.840   4.623
 4623SOL    HW214769   6.670   3.696   4.596
 4624SOL     OW14770   4.440   6.406   5.790
 4624SOL    HW114771   4.396   6.390   5.701
 4624SOL    HW214772   4.425   6.328   5.849
 4625SOL     OW14773   0.369   4.463   6.377
 4625SOL    HW114774   0.431   4.460   6.456
 4625SOL    HW214775   0.369   4.375   6.331
 4626SOL     OW14776   6.662   4.615   2.370
 4626SOL    HW114777   6.755   4.642   2.396
 4626SOL    HW214778   6.600   4.693   2.382
 4627SOL     OW14779   2.050   6.772   4.381
 4627SOL    HW114780   2.055   6.857   4.328
 4627SOL    HW214781   2.089   6.697   4.328
 4628SOL     OW14782   6.436   2.738   2.195
 4628SOL    HW114783   6.476   2.647   2.213
 4628SOL    HW214784   6.367   2.730   2.123
 4629SOL     OW14785   4.523   5.595   3.962
 4629SOL    HW114786   4.516   5.497   3.941
 4629SOL    HW214787   4.437   5.627   4.001
 4630SOL     OW14788   2.531   6.052   2.491
 4630SOL    HW114789   2.610   6.076   2.546
 4630SOL    HW214790   2.486   6.135   2.457
 4631SOL     OW14791   1.719   0.509   2.314
 4631SOL    HW114792   1.622   0.505   2.337
 4631SOL    HW214793   1.743   0.603   2.288
 4632SOL     OW14794   6.101   5.881   4.299
 4632SOL    HW114795   6.042   5.915   4.372
 4632SOL    HW214796   6.054   5.890   4.211
 4633SOL     OW14797   4.603   3.102   6.240
 4633SOL    HW114798   4.693   3.061   6.249
 4633SOL    HW214799   4.585   3.163   6.318
 4634SOL     OW14800   2.490   3.570   0.279
 4634SOL    HW114801   2.549   3.598   0.356
 4634SOL    HW214802   2.504   3.473   0.260
 4635SOL     OW14803   4.625   2.976   1.237
 4635SOL    HW114804   4.676   3.028   1.306
 4635SOL    HW214805   4.674   2.891   1.217
 4636SOL     OW14806   0.850   5.283   1.333
 4636SOL    HW114807   0.851   5.193   1.376
 4636SOL    HW214808   0.944   5.314   1.318
 4637SOL     OW14809   0.489   0.914   5.698
 4637SOL    HW114810   0.504   0.980   5.625
 4637SOL    HW214811   0.571   0.910   5.756
 4638SOL     OW14812   4.505   5.044   5.823
 4638SOL    HW114813   4.420   5.093   5.804
 4638SOL    HW214814   4.532   5.059   5.919
 4639SOL     OW14815   6.983   2.537   5.478
 4639SOL    HW114816   6.981   2.587   5.391
 4639SOL    HW214817   7.005   2.600   5.552
 4640SOL     OW14818   0.876   5.594   3.455
 4640SOL    HW114819   0.814   5.535   3.507
 4640SOL    HW214820   0.967   5.592   3.497
 4641SOL     OW14821   2.127   3.885   5.186
 4641SOL    HW114822   2.185   3.890   5.267
 4641SOL    HW214823   2.178   3.915   5.105
 4642SOL     OW14824   6.044   5.391   4.556
 4642SOL    HW114825   5.982   5.315   4.573
 4642SOL    HW214826   6.019   5.437   4.471
 4643SOL     OW14827   4.358   3.710   0.929
 4643SOL    HW114828   4.457   3.707   0.911
 4643SOL    HW214829   4.328   3.805   0.926
 4644SOL     OW14830   3.409   4.922   5.472
 4644SOL    HW114831   3.347   4.997   5.448
 4644SOL    HW214832   3.421   4.862   5.394
 4645SOL     OW14833   1.789   5.813   4.847
 4645SOL    HW114834   1.864   5.876   4.828
 4645SOL    HW214835   1.780   5.747   4.773
 4646SOL     OW14836   3.698   1.357   0.864
 4646SOL    HW114837   3.710   1.383   0.960
 4646SOL    HW214838   3.773   1.298   0.836
 4647SOL     OW14839   5.971   0.428   5.265
 4647SOL    HW114840   5.949   0.472   5.352
 4647SOL    HW214841   5.923   0.341   5.259
 4648SOL     OW14842   2.298   6.709   3.409
 4648SOL    HW114843   2.387   6.670   3.430
 4648SOL    HW214844   2.225   6.651   3.446
 4649SOL     OW14845   5.385   5.051   6.155
 4649SOL    HW114846   5.412   5.147   6.151
 4649SOL    HW214847   5.453   4.999   6.208
 4650SOL     OW14848   6.541   5.190   1.802
 4650SOL    HW114849   6.613   5.244   1.759
 4650SOL    HW214850   6.521   5.226   1.893
 4651SOL     OW14851   6.179   2.020   1.043
 4651SOL    HW114852   6.093   2.059   1.076
 4651SOL    HW214853   6.192   2.045   0.947
 4652SOL     OW14854   0.433   6.341   5.874
 4652SOL    HW114855   0.378   6.272   5.921
 4652SOL    HW214856   0.454   6.309   5.782
 4653SOL     OW14857   1.972   4.674   0.479
 4653SOL    HW114858   2.013   4.721   0.556
 4653SOL    HW214859   1.908   4.735   0.432
 4654SOL     OW14860   1.906   1.640   0.313
 4654SOL    HW114861   1.815   1.615   0.344
 4654SOL    HW214862   1.903   1.663   0.216
 4655SOL     OW14863   0.329   5.040   5.099
 4655SOL    HW114864   0.331   4.969   5.029
 4655SOL    HW214865   0.263   5.015   5.170
 4656SOL     OW14866   2.218   0.089   2.588
 4656SOL    HW114867   2.256   0.030   2.517
 4656SOL    HW214868   2.285   0.099   2.662
 4657SOL     OW14869   6.047   1.148   5.437
 4657SOL    HW114870   6.103   1.112   5.362
 4657SOL    HW214871   6.055   1.247   5.440
 4658SOL     OW14872   5.339   6.897   3.470
 4658SOL    HW114873   5.425   6.849   3.458
 4658SOL    HW214874   5.325   6.918   3.566
 4659SOL     OW14875   2.043   3.286   3.602
 4659SOL    HW114876   2.083   3.283   3.511
 4659SOL    HW214877   1.943   3.288   3.595
 4660SOL     OW14878   6.668   1.283   5.144
 4660SOL    HW114879   6.734   1.343   5.099
 4660SOL    HW214880   6.583   1.332   5.160
 4661SOL     OW14881   3.248   2.930   3.485
 4661SOL    HW114882   3.339   2.910   3.448
 4661SOL    HW214883   3.218   2.854   3.542
 4662SOL     OW14884   6.674   6.886   4.744
 4662SOL    HW114885   6.735   6.933   4.807
 4662SOL    HW214886   6.707   6.792   4.730
 4663SOL     OW14887   0.616   1.567   2.743
 4663SOL    HW114888   0.586   1.564   2.839
 4663SOL    HW214889   0.560   1.505   2.689
 4664SOL     OW14890   3.740   5.203   0.288
 4664SOL    HW114891   3.795   5.127   0.253
 4664SOL    HW214892   3.771   5.227   0.380
 4665SOL     OW14893   5.579   1.067   6.373
 4665SOL    HW114894   5.529   1.001   6.318
 4665SOL    HW214895   5.519   1.104   6.444
 4666SOL     OW14896   1.872   1.183   0.460
 4666SOL    HW114897   1.788   1.157   0.509
 4666SOL    HW214898   1.927   1.243   0.517
 4667SOL     OW14899   0.152   5.858   3.833
 4667SOL    HW114900   0.160   5.921   3.755
 4667SOL    HW214901   0.243   5.826   3.859
 4668SOL     OW14902   5.865   0.947   5.037
 4668SOL    HW114903   5.844   0.851   5.056
 4668SOL    HW214904   5.845   1.002   5.118
 4669SOL     OW14905   2.385   2.473   2.297
 4669SOL    HW114906   2.337   2.408   2.239
 4669SOL    HW214907   2.484   2.460   2.287
 4670SOL     OW14908   2.762   2.331   4.912
 4670SOL    HW114909   2.750   2.390   4.832
 4670SOL    HW214910   2.855   2.294   4.912
 4671SOL     OW14911   6.862   2.376   3.085
 4671SOL    HW114912   6.929   2.447   3.064
 4671SOL    HW214913   6.873   2.346   3.180
 4672SOL     OW14914   2.965   2.414   5.328
 4672SOL    HW114915   2.910   2.488   5.286
 4672SOL    HW214916   3.053   2.409   5.283
 4673SOL     OW14917   5.518   0.768   2.552
 4673SOL    HW114918   5.561   0.703   2.489
 4673SOL    HW214919   5.419   0.762   2.542
 4674SOL     OW14920   4.528   6.965   6.033
 4674SOL    HW114921   4.484   0.023   6.003
 4674SOL    HW214922   4.621   6.960   5.996
 4675SOL     OW14923   0.607   4.353   6.143
 4675SOL    HW114924   0.562   4.441   6.159
 4675SOL    HW214925   0.703   4.359   6.170
 4676SOL     OW14926   1.598   4.562   3.611
 4676SOL    HW114927   1.554   4.645   3.645
 4676SOL    HW214928   1.694   4.582   3.592
 4677SOL     OW14929   1.412   3.705   1.190
 4677SOL    HW114930   1.488   3.734   1.247
 4677SOL    HW214931   1.443   3.696   1.095
 4678SOL     OW14932   1.113   1.738   1.023
 4678SOL    HW114933   1.168   1.774   0.947
 4678SOL    HW214934   1.069   1.814   1.070
 4679SOL     OW14935   4.894   6.749   1.714
 4679SOL    HW114936   4.986   6.761   1.753
 4679SOL    HW214937   4.844   6.680   1.768
 4680SOL     OW14938   2.877   0.989   0.216
 4680SOL    HW114939   2.809   0.975   0.287
 4680SOL    HW214940   2.896   1.087   0.208
 4681SOL     OW14941   4.892   5.257   2.016
 4681SOL    HW114942   4.965   5.293   2.075
 4681SOL    HW214943   4.932   5.196   1.947
 4682SOL     OW14944   3.577   3.413   6.785
 4682SOL    HW114945   3.593   3.316   6.800
 4682SOL    HW214946   3.650   3.466   6.827
 4683SOL     OW14947   6.836   3.869   4.089
 4683SOL    HW114948   6.768   3.827   4.029
 4683SOL    HW214949   6.789   3.924   4.159
 4684SOL     OW14950   4.924   0.552   5.785
 4684SOL    HW114951   4.876   0.638   5.804
 4684SOL    HW214952   4.881   0.477   5.834
 4685SOL     OW14953   3.004   3.823   4.221
 4685SOL    HW114954   3.030   3.805   4.126
 4685SOL    HW214955   3.057   3.763   4.282
 4686SOL     OW14956   1.788   6.667   5.947
 4686SOL    HW114957   1.748   6.758   5.946
 4686SOL    HW214958   1.875   6.668   5.897
 4687SOL     OW14959   1.265   0.087   2.390
 4687SOL    HW114960   1.243   0.182   2.414
 4687SOL    HW214961   1.232   0.067   2.298
 4688SOL     OW14962   4.862   2.250   4.594
 4688SOL    HW114963   4.865   2.350   4.589
 4688SOL    HW214964   4.773   2.219   4.560
 4689SOL     OW14965   6.359   1.161   1.145
 4689SOL    HW114966   6.316   1.224   1.080
 4689SOL    HW214967   6.337   1.188   1.238
 4690SOL     OW14968   3.346   2.079   1.065
 4690SOL    HW114969   3.294   2.095   0.981
 4690SOL    HW214970   3.401   1.996   1.055
 4691SOL     OW14971   6.050   2.662   2.076
 4691SOL    HW114972   6.031   2.746   2.127
 4691SOL    HW214973   5.977   2.596   2.094
 4692SOL     OW14974   6.676   2.651   3.392
 4692SOL    HW114975   6.581   2.630   3.414
 4692SOL    HW214976   6.681   2.736   3.340
 4693SOL     OW14977   0.048   0.763   3.702
 4693SOL    HW114978   0.105   0.792   3.778
 4693SOL    HW214979   0.104   0.752   3.620
 4694SOL     OW14980   1.339   6.491   5.814
 4694SOL    HW114981   1.321   6.408   5.761
 4694SOL    HW214982   1.363   6.466   5.907
 4695SOL     OW14983   1.292   4.941   1.738
 4695SOL    HW114984   1.228   5.017   1.731
 4695SOL    HW214985   1.377   4.972   1.781
 4696SOL     OW14986   2.267   6.365   5.942
 4696SOL    HW114987   2.171   6.378   5.966
 4696SOL    HW214988   2.323   6.376   6.024
 4697SOL     OW14989   4.398   5.695   1.315
 4697SOL    HW114990   4.422   5.599   1.302
 4697SOL    HW214991   4.352   5.730   1.234
 4698SOL     OW14992   5.923   1.324   4.476
 4698SOL    HW114993   5.954   1.279   4.560
 4698SOL    HW214994   5.964   1.278   4.397
 4699SOL     OW14995   0.948   1.773   2.964
 4699SOL    HW114996   0.937   1.799   2.868
 4699SOL    HW214997   0.871   1.716   2.992
 4700SOL     OW14998   6.678   1.971   3.412
 4700SOL    HW114999   6.708   1.876   3.404
 4700SOL    HW215000   6.752   2.025   3.453
 4701SOL     OW15001   2.239   2.833   1.791
 4701SOL    HW115002   2.256   2.765   1.862
 4701SOL    HW215003   2.295   2.811   1.710
 4702SOL     OW15004   6.152   4.681   1.516
 4702SOL    HW115005   6.168   4.778   1.529
 4702SOL    HW215006   6.053   4.663   1.517
 4703SOL     OW15007   6.703   5.496   4.123
 4703SOL    HW115008   6.641   5.442   4.066
 4703SOL    HW215009   6.659   5.583   4.146
 4704SOL     OW15010   1.588   4.781   3.851
 4704SOL    HW115011   1.642   4.863   3.872
 4704SOL    HW215012   1.561   4.783   3.755
 4705SOL     OW15013   3.218   2.534   1.463
 4705SOL    HW115014   3.204   2.439   1.492
 4705SOL    HW215015   3.312   2.561   1.482
 4706SOL     OW15016   2.226   1.240   1.113
 4706SOL    HW115017   2.172   1.202   1.188
 4706SOL    HW215018   2.286   1.312   1.147
 4707SOL     OW15019   2.172   5.711   2.105
 4707SOL    HW115020   2.135   5.755   2.023
 4707SOL    HW215021   2.109   5.639   2.135
 4708SOL     OW15022   1.995   3.322   6.376
 4708SOL    HW115023   1.897   3.302   6.384
 4708SOL    HW215024   2.039   3.307   6.465
 4709SOL     OW15025   6.002   3.526   4.648
 4709SOL    HW115026   5.986   3.431   4.673
 4709SOL    HW215027   5.963   3.586   4.718
 4710SOL     OW15028   6.168   4.592   5.573
 4710SOL    HW115029   6.223   4.508   5.571
 4710SOL    HW215030   6.124   4.600   5.662
 4711SOL     OW15031   4.905   4.498   3.114
 4711SOL    HW115032   4.897   4.540   3.204
 4711SOL    HW215033   4.943   4.563   3.049
 4712SOL     OW15034   4.108   4.907   5.962
 4712SOL    HW115035   4.021   4.862   5.984
 4712SOL    HW215036   4.163   4.847   5.903
 4713SOL     OW15037   5.854   4.393   1.690
 4713SOL    HW115038   5.794   4.439   1.755
 4713SOL    HW215039   5.819   4.302   1.670
 4714SOL     OW15040   5.205   2.187   5.714
 4714SOL    HW115041   5.153   2.272   5.719
 4714SOL    HW215042   5.149   2.112   5.749
 4715SOL     OW15043   0.167   1.048   1.882
 4715SOL    HW115044   0.129   1.077   1.970
 4715SOL    HW215045   0.153   0.950   1.870
 4716SOL     OW15046   3.952   4.361   5.488
 4716SOL    HW115047   4.033   4.327   5.440
 4716SOL    HW215048   3.870   4.333   5.438
 4717SOL     OW15049   1.204   4.542   6.243
 4717SOL    HW115050   1.256   4.480   6.185
 4717SOL    HW215051   1.248   4.632   6.242
 4718SOL     OW15052   4.911   3.461   2.336
 4718SOL    HW115053   4.881   3.509   2.254
 4718SOL    HW215054   4.974   3.388   2.311
 4719SOL     OW15055   5.571   4.297   3.654
 4719SOL    HW115056   5.540   4.221   3.712
 4719SOL    HW215057   5.567   4.269   3.558
 4720SOL     OW15058   1.187   1.540   5.916
 4720SOL    HW115059   1.129   1.533   5.835
 4720SOL    HW215060   1.281   1.562   5.888
 4721SOL     OW15061   0.930   2.705   2.335
 4721SOL    HW115062   0.930   2.789   2.280
 4721SOL    HW215063   0.844   2.698   2.385
 4722SOL     OW15064   1.271   5.829   6.225
 4722SOL    HW115065   1.350   5.807   6.282
 4722SOL    HW215066   1.189   5.787   6.264
 4723SOL     OW15067   3.178   4.362   6.029
 4723SOL    HW115068   3.086   4.399   6.040
 4723SOL    HW215069   3.215   4.390   5.941
 4724SOL     OW15070   0.335   0.605   4.025
 4724SOL    HW115071   0.323   0.506   4.039
 4724SOL    HW215072   0.318   0.652   4.111
 4725SOL     OW15073   5.051   5.950   1.296
 4725SOL    HW115074   5.106   5.875   1.332
 4725SOL    HW215075   5.010   5.922   1.209
 4726SOL     OW15076   1.950   2.685   6.651
 4726SOL    HW115077   1.901   2.598   6.657
 4726SOL    HW215078   1.897   2.756   6.698
 4727SOL     OW15079   6.800   5.263   1.690
 4727SOL    HW115080   6.753   5.315   1.618
 4727SOL    HW215081   6.847   5.185   1.649
 4728SOL     OW15082   4.211   0.760   3.709
 4728SOL    HW115083   4.209   0.858   3.692
 4728SOL    HW215084   4.168   0.711   3.633
 4729SOL     OW15085   0.723   0.788   3.109
 4729SOL    HW115086   0.764   0.828   3.028
 4729SOL    HW215087   0.670   0.708   3.084
 4730SOL     OW15088   2.923   1.440   3.237
 4730SOL    HW115089   3.005   1.397   3.198
 4730SOL    HW215090   2.896   1.517   3.178
 4731SOL     OW15091   3.550   6.768   2.626
 4731SOL    HW115092   3.515   6.861   2.637
 4731SOL    HW215093   3.642   6.762   2.663
 4732SOL     OW15094   0.512   4.822   4.210
 4732SOL    HW115095   0.462   4.819   4.123
 4732SOL    HW215096   0.583   4.752   4.211
 4733SOL     OW15097   2.388   4.353   3.262
 4733SOL    HW115098   2.480   4.342   3.223
 4733SOL    HW215099   2.391   4.421   3.335
 4734SOL     OW15100   4.351   4.805   5.830
 4734SOL    HW115101   4.396   4.742   5.767
 4734SOL    HW215102   4.392   4.896   5.823
 4735SOL     OW15103   0.020   0.948   5.335
 4735SOL    HW115104   0.084   0.998   5.393
 4735SOL    HW215105   0.002   1.001   5.252
 4736SOL     OW15106   6.196   0.353   4.357
 4736SOL    HW115107   6.280   0.404   4.372
 4736SOL    HW215108   6.164   0.367   4.263
 4737SOL     OW15109   1.799   4.849   0.324
 4737SOL    HW115110   1.848   4.914   0.266
 4737SOL    HW215111   1.704   4.878   0.334
 4738SOL     OW15112   0.233   6.041   3.640
 4738SOL    HW115113   0.226   6.137   3.666
 4738SOL    HW215114   0.329   6.012   3.645
 4739SOL     OW15115   5.878   3.704   2.867
 4739SOL    HW115116   5.861   3.606   2.860
 4739SOL    HW215117   5.839   3.738   2.953
 4740SOL     OW15118   1.741   6.208   0.539
 4740SOL    HW115119   1.800   6.246   0.468
 4740SOL    HW215120   1.646   6.231   0.520
 4741SOL     OW15121   5.845   4.223   2.416
 4741SOL    HW115122   5.866   4.132   2.450
 4741SOL    HW215123   5.893   4.291   2.471
 4742SOL     OW15124   2.346   5.583   1.794
 4742SOL    HW115125   2.327   5.680   1.781
 4742SOL    HW215126   2.390   5.570   1.883
 4743SOL     OW15127   2.826   3.160   0.618
 4743SOL    HW115128   2.892   3.235   0.622
 4743SOL    HW215129   2.869   3.075   0.651
 4744SOL     OW15130   2.954   1.805   5.968
 4744SOL    HW115131   2.947   1.902   5.994
 4744SOL    HW215132   2.871   1.778   5.919
 4745SOL     OW15133   4.563   5.955   4.406
 4745SOL    HW115134   4.489   5.966   4.340
 4745SOL    HW215135   4.535   5.994   4.494
 4746SOL     OW15136   5.666   1.397   1.060
 4746SOL    HW115137   5.654   1.493   1.086
 4746SOL    HW215138   5.759   1.383   1.026
 4747SOL     OW15139   0.980   2.981   2.250
 4747SOL    HW115140   1.023   3.010   2.165
 4747SOL    HW215141   0.960   3.061   2.307
 4748SOL     OW15142   1.739   6.729   0.520
 4748SOL    HW115143   1.647   6.760   0.539
 4748SOL    HW215144   1.779   6.689   0.603
 4749SOL     OW15145   3.962   0.767   0.133
 4749SOL    HW115146   3.939   0.726   0.045
 4749SOL    HW215147   3.929   0.862   0.136
 4750SOL     OW15148   1.230   2.275   5.226
 4750SOL    HW115149   1.170   2.223   5.165
 4750SOL    HW215150   1.275   2.348   5.174
 4751SOL     OW15151   1.498   4.115   6.386
 4751SOL    HW115152   1.458   4.037   6.339
 4751SOL    HW215153   1.544   4.084   6.469
 4752SOL     OW15154   2.110   5.687   0.749
 4752SOL    HW115155   2.150   5.602   0.781
 4752SOL    HW215156   2.011   5.683   0.757
 4753SOL     OW15157   6.961   1.386   6.874
 4753SOL    HW115158   6.969   1.477   6.915
 4753SOL    HW215159   6.939   1.395   6.777
 4754SOL     OW15160   1.515   0.490   6.550
 4754SOL    HW115161   1.529   0.587   6.571
 4754SOL    HW215162   1.534   0.436   6.632
 4755SOL     OW15163   2.888   6.664   3.009
 4755SOL    HW115164   2.804   6.717   3.013
 4755SOL    HW215165   2.948   6.702   2.938
 4756SOL     OW15166   5.502   2.857   1.071
 4756SOL    HW115167   5.492   2.793   1.147
 4756SOL    HW215168   5.537   2.944   1.106
 4757SOL     OW15169   2.088   3.250   0.633
 4757SOL    HW115170   2.102   3.182   0.561
 4757SOL    HW215171   2.152   3.232   0.708
 4758SOL     OW15172   6.592   3.879   6.310
 4758SOL    HW115173   6.644   3.942   6.253
 4758SOL    HW215174   6.654   3.831   6.372
 4759SOL     OW15175   6.741   3.882   6.739
 4759SOL    HW115176   6.671   3.860   6.807
 4759SOL    HW215177   6.709   3.954   6.679
 4760SOL     OW15178   0.831   2.676   0.040
 4760SOL    HW115179   0.855   2.762   7.020
 4760SOL    HW215180   0.876   2.671   0.129
 4761SOL     OW15181   2.928   6.164   6.928
 4761SOL    HW115182   2.940   6.245   6.870
 4761SOL    HW215183   2.840   6.121   6.907
 4762SOL     OW15184   3.286   0.908   3.041
 4762SOL    HW115185   3.352   0.834   3.052
 4762SOL    HW215186   3.225   0.889   2.964
 4763SOL     OW15187   5.173   4.939   4.561
 4763SOL    HW115188   5.253   4.890   4.526
 4763SOL    HW215189   5.108   4.954   4.486
 4764SOL     OW15190   3.299   3.532   3.925
 4764SOL    HW115191   3.278   3.522   3.828
 4764SOL    HW215192   3.389   3.575   3.936
 4765SOL     OW15193   6.810   5.198   6.925
 4765SOL    HW115194   6.874   5.232   6.856
 4765SOL    HW215195   6.846   5.113   6.964
 4766SOL     OW15196   3.440   1.513   3.148
 4766SOL    HW115197   3.470   1.561   3.065
 4766SOL    HW215198   3.521   1.484   3.200
 4767SOL     OW15199   4.919   0.226   6.459
 4767SOL    HW115200   5.008   0.267   6.480
 4767SOL    HW215201   4.911   0.211   6.360
 4768SOL     OW15202   2.311   0.203   5.171
 4768SOL    HW115203   2.337   0.130   5.109
 4768SOL    HW215204   2.231   0.251   5.134
 4769SOL     OW15205   4.666   0.831   2.016
 4769SOL    HW115206   4.722   0.910   1.993
 4769SOL    HW215207   4.693   0.753   1.960
 4770SOL     OW15208   3.053   1.456   3.505
 4770SOL    HW115209   3.058   1.473   3.407
 4770SOL    HW215210   2.961   1.426   3.529
 4771SOL     OW15211   3.815   4.985   6.730
 4771SOL    HW115212   3.819   4.984   6.630
 4771SOL    HW215213   3.732   5.034   6.758
 4772SOL     OW15214   4.083   2.333   0.351
 4772SOL    HW115215   4.035   2.413   0.386
 4772SOL    HW215216   4.172   2.361   0.315
 4773SOL     OW15217   0.136   4.705   4.105
 4773SOL    HW115218   0.079   4.634   4.063
 4773SOL    HW215219   0.219   4.663   4.142
 4774SOL     OW15220   2.088   4.121   7.007
 4774SOL    HW115221   2.086   4.182   6.927
 4774SOL    HW215222   2.041   4.035   6.984
 4775SOL     OW15223   1.835   3.122   2.456
 4775SOL    HW115224   1.785   3.201   2.490
 4775SOL    HW215225   1.804   3.040   2.505
 4776SOL     OW15226   4.692   5.538   1.113
 4776SOL    HW115227   4.615   5.479   1.086
 4776SOL    HW215228   4.669   5.633   1.093
 4777SOL     OW15229   1.660   3.886   1.567
 4777SOL    HW115230   1.577   3.928   1.604
 4777SOL    HW215231   1.739   3.944   1.588
 4778SOL     OW15232   5.767   3.466   2.924
 4778SOL    HW115233   5.670   3.448   2.904
 4778SOL    HW215234   5.809   3.382   2.959
 4779SOL     OW15235   6.226   1.508   2.822
 4779SOL    HW115236   6.181   1.419   2.810
 4779SOL    HW215237   6.280   1.529   2.740
 4780SOL     OW15238   1.322   1.216   5.315
 4780SOL    HW115239   1.301   1.119   5.328
 4780SOL    HW215240   1.342   1.257   5.404
 4781SOL     OW15241   2.425   5.847   3.054
 4781SOL    HW115242   2.342   5.902   3.067
 4781SOL    HW215243   2.414   5.758   3.098
 4782SOL     OW15244   6.274   6.415   6.791
 4782SOL    HW115245   6.366   6.378   6.789
 4782SOL    HW215246   6.265   6.481   6.865
 4783SOL     OW15247   5.508   4.992   3.333
 4783SOL    HW115248   5.481   4.937   3.254
 4783SOL    HW215249   5.517   5.088   3.305
 4784SOL     OW15250   4.845   4.410   4.530
 4784SOL    HW115251   4.880   4.348   4.600
 4784SOL    HW215252   4.891   4.392   4.443
 4785SOL     OW15253   5.843   6.116   0.548
 4785SOL    HW115254   5.885   6.175   0.479
 4785SOL    HW215255   5.775   6.168   0.600
 4786SOL     OW15256   1.426   4.634   3.261
 4786SOL    HW115257   1.451   4.543   3.294
 4786SOL    HW215258   1.493   4.664   3.193
 4787SOL     OW15259   4.063   1.960   2.739
 4787SOL    HW115260   3.972   1.988   2.770
 4787SOL    HW215261   4.126   1.962   2.816
 4788SOL     OW15262   2.354   0.921   4.573
 4788SOL    HW115263   2.304   0.863   4.509
 4788SOL    HW215264   2.302   0.927   4.659
 4789SOL     OW15265   4.773   5.527   6.607
 4789SOL    HW115266   4.718   5.559   6.530
 4789SOL    HW215267   4.726   5.548   6.693
 4790SOL     OW15268   5.650   6.784   6.169
 4790SOL    HW115269   5.743   6.745   6.167
 4790SOL    HW215270   5.601   6.749   6.248
 4791SOL     OW15271   4.855   2.388   3.375
 4791SOL    HW115272   4.766   2.415   3.337
 4791SOL    HW215273   4.923   2.387   3.302
 4792SOL     OW15274   3.370   3.024   0.343
 4792SOL    HW115275   3.378   2.951   0.276
 4792SOL    HW215276   3.393   2.990   0.434
 4793SOL     OW15277   0.730   1.001   6.867
 4793SOL    HW115278   0.726   0.976   6.770
 4793SOL    HW215279   0.673   1.082   6.882
 4794SOL     OW15280   5.775   1.446   1.954
 4794SOL    HW115281   5.732   1.383   1.891
 4794SOL    HW215282   5.709   1.516   1.982
 4795SOL     OW15283   6.488   1.845   4.614
 4795SOL    HW115284   6.453   1.768   4.561
 4795SOL    HW215285   6.504   1.922   4.553
 4796SOL     OW15286   4.920   3.933   0.458
 4796SOL    HW115287   4.842   3.995   0.458
 4796SOL    HW215288   4.999   3.979   0.500
 4797SOL     OW15289   1.371   5.696   4.775
 4797SOL    HW115290   1.328   5.608   4.797
 4797SOL    HW215291   1.417   5.689   4.687
 4798SOL     OW15292   0.455   5.614   6.615
 4798SOL    HW115293   0.512   5.533   6.601
 4798SOL    HW215294   0.465   5.676   6.537
 4799SOL     OW15295   5.128   1.212   5.082
 4799SOL    HW115296   5.207   1.167   5.040
 4799SOL    HW215297   5.119   1.183   5.177
 4800SOL     OW15298   1.605   3.042   4.269
 4800SOL    HW115299   1.704   3.050   4.264
 4800SOL    HW215300   1.580   2.986   4.348
 4801SOL     OW15301   0.006   1.628   0.921
 4801SOL    HW115302   6.973   1.623   0.840
 4801SOL    HW215303   7.007   1.708   0.975
 4802SOL     OW15304   1.582   6.922   1.687
 4802SOL    HW115305   1.508   6.990   1.692
 4802SOL    HW215306   1.626   6.928   1.597
 4803SOL     OW15307   0.321   6.643   1.643
 4803SOL    HW115308   0.367   6.686   1.566
 4803SOL    HW215309   0.229   6.614   1.615
 4804SOL     OW15310   4.407   4.672   6.789
 4804SOL    HW115311   4.481   4.662   6.723
 4804SOL    HW215312   4.376   4.767   6.791
 4805SOL     OW15313   6.660   6.736   1.443
 4805SOL    HW115314   6.643   6.830   1.473
 4805SOL    HW215315   6.649   6.674   1.521
 4806SOL     OW15316   0.377   2.384   4.362
 4806SOL    HW115317   0.420   2.311   4.415
 4806SOL    HW215318   0.415   2.384   4.269
 4807SOL     OW15319   0.936   6.921   2.477
 4807SOL    HW115320   0.907   6.987   2.409
 4807SOL    HW215321   0.868   6.915   2.550
 4808SOL     OW15322   6.433   1.357   0.476
 4808SOL    HW115323   6.495   1.292   0.520
 4808SOL    HW215324   6.478   1.446   0.469
 4809SOL     OW15325   4.542   6.791   1.370
 4809SOL    HW115326   4.519   6.696   1.346
 4809SOL    HW215327   4.626   6.817   1.323
 4810SOL     OW15328   1.830   0.157   5.397
 4810SOL    HW115329   1.741   0.182   5.435
 4810SOL    HW215330   1.891   0.126   5.470
 4811SOL     OW15331   4.993   4.625   4.260
 4811SOL    HW115332   5.017   4.556   4.191
 4811SOL    HW215333   5.030   4.714   4.233
 4812SOL     OW15334   6.577   4.884   3.270
 4812SOL    HW115335   6.644   4.952   3.239
 4812SOL    HW215336   6.622   4.796   3.283
 4813SOL     OW15337   5.951   3.529   2.522
 4813SOL    HW115338   5.864   3.480   2.513
 4813SOL    HW215339   5.933   3.627   2.531
 4814SOL     OW15340   0.215   2.700   1.512
 4814SOL    HW115341   0.259   2.675   1.426
 4814SOL    HW215342   0.277   2.756   1.566
 4815SOL     OW15343   4.767   1.368   3.550
 4815SOL    HW115344   4.771   1.386   3.648
 4815SOL    HW215345   4.860   1.369   3.512
 4816SOL     OW15346   6.356   3.842   4.406
 4816SOL    HW115347   6.266   3.818   4.369
 4816SOL    HW215348   6.376   3.937   4.386
 4817SOL     OW15349   5.392   1.585   6.866
 4817SOL    HW115350   5.449   1.519   6.915
 4817SOL    HW215351   5.433   1.602   6.776
 4818SOL     OW15352   6.938   6.515   3.094
 4818SOL    HW115353   6.894   6.598   3.128
 4818SOL    HW215354   0.012   6.523   3.106
 4819SOL     OW15355   0.821   2.594   0.770
 4819SOL    HW115356   0.758   2.592   0.692
 4819SOL    HW215357   0.833   2.688   0.801
 4820SOL     OW15358   5.991   3.134   2.004
 4820SOL    HW115359   5.967   3.217   2.053
 4820SOL    HW215360   6.041   3.073   2.066
 4821SOL     OW15361   0.212   5.558   3.499
 4821SOL    HW115362   0.292   5.605   3.463
 4821SOL    HW215363   0.224   5.541   3.597
 4822SOL     OW15364   3.277   5.880   4.640
 4822SOL    HW115365   3.303   5.952   4.575
 4822SOL    HW215366   3.218   5.919   4.711
 4823SOL     OW15367   0.958   2.004   0.376
 4823SOL    HW115368   1.040   1.964   0.335
 4823SOL    HW215369   0.903   2.048   0.306
 4824SOL     OW15370   6.492   1.984   0.117
 4824SOL    HW115371   6.474   2.040   0.036
 4824SOL    HW215372   6.505   2.043   0.196
 4825SOL     OW15373   1.104   5.635   3.626
 4825SOL    HW115374   1.164   5.567   3.669
 4825SOL    HW215375   1.154   5.682   3.552
 4826SOL     OW15376   4.566   6.613   0.515
 4826SOL    HW115377   4.527   6.599   0.424
 4826SOL    HW215378   4.494   6.607   0.584
 4827SOL     OW15379   5.439   1.286   1.807
 4827SOL    HW115380   5.448   1.385   1.808
 4827SOL    HW215381   5.529   1.244   1.820
 4828SOL     OW15382   5.421   1.479   6.290
 4828SOL    HW115383   5.484   1.406   6.264
 4828SOL    HW215384   5.452   1.565   6.251
 4829SOL     OW15385   4.526   5.739   5.181
 4829SOL    HW115386   4.521   5.835   5.152
 4829SOL    HW215387   4.620   5.706   5.171
 4830SOL     OW15388   1.655   6.564   2.823
 4830SOL    HW115389   1.640   6.483   2.767
 4830SOL    HW215390   1.622   6.645   2.774
 4831SOL     OW15391   2.411   4.511   6.033
 4831SOL    HW115392   2.340   4.555   6.088
 4831SOL    HW215393   2.469   4.456   6.092
 4832SOL     OW15394   3.800   3.539   3.588
 4832SOL    HW115395   3.879   3.596   3.615
 4832SOL    HW215396   3.784   3.550   3.490
 4833SOL     OW15397   5.669   2.527   5.270
 4833SOL    HW115398   5.713   2.443   5.236
 4833SOL    HW215399   5.577   2.534   5.230
 4834SOL     OW15400   1.188   3.848   1.195
 4834SOL    HW115401   1.134   3.836   1.112
 4834SOL    HW215402   1.285   3.830   1.175
 4835SOL     OW15403   0.860   3.786   6.299
 4835SOL    HW115404   0.891   3.705   6.249
 4835SOL    HW215405   0.935   3.823   6.353
 4836SOL     OW15406   3.909   6.988   5.809
 4836SOL    HW115407   3.981   6.930   5.771
 4836SOL    HW215408   3.915   6.988   5.909
 4837SOL     OW15409   1.749   3.728   4.474
 4837SOL    HW115410   1.746   3.772   4.384
 4837SOL    HW215411   1.790   3.637   4.465
 4838SOL     OW15412   1.406   4.645   6.659
 4838SOL    HW115413   1.361   4.734   6.664
 4838SOL    HW215414   1.351   4.583   6.603
 4839SOL     OW15415   2.917   1.067   1.873
 4839SOL    HW115416   2.921   0.968   1.859
 4839SOL    HW215417   2.838   1.089   1.930
 4840SOL     OW15418   5.388   2.233   3.762
 4840SOL    HW115419   5.392   2.323   3.806
 4840SOL    HW215420   5.480   2.207   3.733
 4841SOL     OW15421   2.882   5.092   3.466
 4841SOL    HW115422   2.959   5.148   3.434
 4841SOL    HW215423   2.889   5.000   3.427
 4842SOL     OW15424   4.128   5.015   3.478
 4842SOL    HW115425   4.193   4.949   3.517
 4842SOL    HW215426   4.057   4.967   3.427
 4843SOL     OW15427   6.059   2.545   6.663
 4843SOL    HW115428   6.024   2.637   6.643
 4843SOL    HW215429   6.132   2.523   6.598
 4844SOL     OW15430   1.086   4.969   6.428
 4844SOL    HW115431   1.082   4.936   6.522
 4844SOL    HW215432   1.173   5.016   6.412
 4845SOL     OW15433   5.588   4.542   5.471
 4845SOL    HW115434   5.653   4.535   5.395
 4845SOL    HW215435   5.495   4.554   5.435
 4846SOL     OW15436   6.140   3.835   4.245
 4846SOL    HW115437   6.112   3.750   4.291
 4846SOL    HW215438   6.136   3.822   4.146
 4847SOL     OW15439   1.850   0.003   6.442
 4847SOL    HW115440   1.917   6.955   6.457
 4847SOL    HW215441   1.834   0.014   6.344
 4848SOL     OW15442   5.025   1.290   3.466
 4848SOL    HW115443   5.042   1.193   3.485
 4848SOL    HW215444   5.108   1.342   3.486
 4849SOL     OW15445   1.046   5.495   1.580
 4849SOL    HW115446   0.969   5.450   1.626
 4849SOL    HW215447   1.125   5.433   1.581
 4850SOL     OW15448   3.349   0.254   2.290
 4850SOL    HW115449   3.364   0.170   2.238
 4850SOL    HW215450   3.435   0.282   2.333
 4851SOL     OW15451   4.672   4.638   6.681
 4851SOL    HW115452   4.761   4.618   6.641
 4851SOL    HW215453   4.684   4.669   6.775
 4852SOL     OW15454   4.164   4.315   5.887
 4852SOL    HW115455   4.084   4.339   5.941
 4852SOL    HW215456   4.138   4.250   5.816
 4853SOL     OW15457   4.501   0.396   2.088
 4853SOL    HW115458   4.584   0.399   2.143
 4853SOL    HW215459   4.455   0.308   2.102
 4854SOL     OW15460   3.659   6.971   1.774
 4854SOL    HW115461   3.724   6.896   1.781
 4854SOL    HW215462   3.650   7.015   1.864
 4855SOL     OW15463   4.499   4.872   5.528
 4855SOL    HW115464   4.400   4.858   5.527
 4855SOL    HW215465   4.538   4.839   5.442
 4856SOL     OW15466   0.585   2.958   3.286
 4856SOL    HW115467   0.576   2.995   3.194
 4856SOL    HW215468   0.518   3.001   3.346
 4857SOL     OW15469   2.709   1.198   5.796
 4857SOL    HW115470   2.667   1.184   5.706
 4857SOL    HW215471   2.776   1.127   5.813
 4858SOL     OW15472   2.833   5.654   5.256
 4858SOL    HW115473   2.872   5.723   5.318
 4858SOL    HW215474   2.902   5.584   5.236
 4859SOL     OW15475   0.129   5.505   3.133
 4859SOL    HW115476   0.213   5.457   3.157
 4859SOL    HW215477   0.074   5.520   3.216
 4860SOL     OW15478   3.708   5.536   0.584
 4860SOL    HW115479   3.738   5.445   0.556
 4860SOL    HW215480   3.626   5.528   0.642
 4861SOL     OW15481   5.022   5.121   4.711
 4861SOL    HW115482   5.077   5.063   4.652
 4861SOL    HW215483   4.930   5.084   4.718
 4862SOL     OW15484   1.547   5.211   3.744
 4862SOL    HW115485   1.558   5.309   3.726
 4862SOL    HW215486   1.462   5.196   3.796
 4863SOL     OW15487   5.846   1.483   2.268
 4863SOL    HW115488   5.893   1.411   2.319
 4863SOL    HW215489   5.765   1.446   2.224
 4864SOL     OW15490   2.523   3.062   1.693
 4864SOL    HW115491   2.597   3.129   1.698
 4864SOL    HW215492   2.561   2.971   1.682
 4865SOL     OW15493   3.813   0.097   4.849
 4865SOL    HW115494   3.733   0.050   4.811
 4865SOL    HW215495   3.843   0.050   4.932
 4866SOL     OW15496   1.265   5.290   1.592
 4866SOL    HW115497   1.317   5.245   1.519
 4866SOL    HW215498   1.205   5.224   1.636
 4867SOL     OW15499   5.575   4.788   6.312
 4867SOL    HW115500   5.672   4.782   6.335
 4867SOL    HW215501   5.563   4.775   6.214
 4868SOL     OW15502   1.496   5.959   2.025
 4868SOL    HW115503   1.516   6.041   1.971
 4868SOL    HW215504   1.569   5.944   2.091
 4869SOL     OW15505   0.530   1.879   1.654
 4869SOL    HW115506   0.543   1.887   1.753
 4869SOL    HW215507   0.613   1.841   1.612
 4870SOL     OW15508   6.038   1.620   1.863
 4870SOL    HW115509   6.051   1.521   1.872
 4870SOL    HW215510   5.953   1.647   1.909
 4871SOL     OW15511   1.481   2.349   5.581
 4871SOL    HW115512   1.420   2.315   5.653
 4871SOL    HW215513   1.427   2.373   5.500
 4872SOL     OW15514   2.419   2.616   2.977
 4872SOL    HW115515   2.488   2.586   3.042
 4872SOL    HW215516   2.340   2.553   2.979
 4873SOL     OW15517   1.125   6.879   5.704
 4873SOL    HW115518   1.115   6.780   5.717
 4873SOL    HW215519   1.220   6.905   5.723
 4874SOL     OW15520   6.152   1.835   4.766
 4874SOL    HW115521   6.120   1.879   4.850
 4874SOL    HW215522   6.158   1.903   4.693
 4875SOL     OW15523   0.124   3.323   0.611
 4875SOL    HW115524   0.162   3.370   0.690
 4875SOL    HW215525   0.032   3.290   0.634
 4876SOL     OW15526   6.635   1.257   6.799
 4876SOL    HW115527   6.591   1.299   6.720
 4876SOL    HW215528   6.569   1.200   6.848
 4877SOL     OW15529   4.332   2.071   2.250
 4877SOL    HW115530   4.379   1.985   2.231
 4877SOL    HW215531   4.280   2.062   2.335
 4878SOL     OW15532   1.202   2.543   2.827
 4878SOL    HW115533   1.271   2.567   2.758
 4878SOL    HW215534   1.215   2.449   2.856
 4879SOL     OW15535   3.336   6.514   2.885
 4879SOL    HW115536   3.317   6.566   2.802
 4879SOL    HW215537   3.289   6.556   2.963
 4880SOL     OW15538   0.069   2.569   6.261
 4880SOL    HW115539   0.112   2.572   6.171
 4880SOL    HW215540   0.111   2.496   6.316
 4881SOL     OW15541   3.266   6.588   5.874
 4881SOL    HW115542   3.189   6.536   5.911
 4881SOL    HW215543   3.271   6.677   5.920
 4882SOL     OW15544   5.457   6.251   6.542
 4882SOL    HW115545   5.422   6.343   6.522
 4882SOL    HW215546   5.407   6.184   6.488
 4883SOL     OW15547   6.060   5.735   0.236
 4883SOL    HW115548   6.018   5.764   0.150
 4883SOL    HW215549   6.046   5.805   0.306
 4884SOL     OW15550   4.404   6.375   2.190
 4884SOL    HW115551   4.338   6.308   2.225
 4884SOL    HW215552   4.479   6.386   2.256
 4885SOL     OW15553   0.529   0.143   1.749
 4885SOL    HW115554   0.625   0.116   1.735
 4885SOL    HW215555   0.474   0.109   1.673
 4886SOL     OW15556   6.062   1.425   5.533
 4886SOL    HW115557   6.100   1.383   5.615
 4886SOL    HW215558   5.968   1.454   5.551
 4887SOL     OW15559   0.299   2.799   5.764
 4887SOL    HW115560   0.376   2.739   5.743
 4887SOL    HW215561   0.280   2.858   5.685
 4888SOL     OW15562   4.877   5.837   0.828
 4888SOL    HW115563   4.856   5.902   0.755
 4888SOL    HW215564   4.942   5.768   0.794
 4889SOL     OW15565   1.262   3.113   5.992
 4889SOL    HW115566   1.179   3.058   5.992
 4889SOL    HW215567   1.342   3.054   5.987
 4890SOL     OW15568   6.099   0.431   4.098
 4890SOL    HW115569   6.186   0.412   4.052
 4890SOL    HW215570   6.029   0.367   4.065
 4891SOL     OW15571   0.311   4.797   0.532
 4891SOL    HW115572   0.407   4.821   0.541
 4891SOL    HW215573   0.255   4.857   0.590
 4892SOL     OW15574   2.068   5.452   1.920
 4892SOL    HW115575   1.979   5.439   1.964
 4892SOL    HW215576   2.079   5.548   1.894
 4893SOL     OW15577   6.717   4.324   6.847
 4893SOL    HW115578   6.639   4.296   6.791
 4893SOL    HW215579   6.798   4.273   6.818
 4894SOL     OW15580   0.227   0.014   3.347
 4894SOL    HW115581   0.201   6.962   3.289
 4894SOL    HW215582   0.215   7.014   3.443
 4895SOL     OW15583   6.605   3.571   6.773
 4895SOL    HW115584   6.700   3.575   6.744
 4895SOL    HW215585   6.591   3.635   6.849
 4896SOL     OW15586   4.354   1.635   5.517
 4896SOL    HW115587   4.436   1.668   5.469
 4896SOL    HW215588   4.345   1.537   5.502
 4897SOL     OW15589   2.633   5.817   0.268
 4897SOL    HW115590   2.713   5.778   0.314
 4897SOL    HW215591   2.654   5.910   0.239
 4898SOL     OW15592   4.929   2.569   4.658
 4898SOL    HW115593   4.833   2.567   4.632
 4898SOL    HW215594   4.984   2.605   4.582
 4899SOL     OW15595   0.441   3.175   4.267
 4899SOL    HW115596   0.498   3.157   4.347
 4899SOL    HW215597   0.374   3.246   4.289
 4900SOL     OW15598   0.032   6.447   6.289
 4900SOL    HW115599   0.031   6.515   6.363
 4900SOL    HW215600   6.996   6.476   6.217
 4901SOL     OW15601   6.386   6.550   2.972
 4901SOL    HW115602   6.430   6.629   3.016
 4901SOL    HW215603   6.454   6.502   2.916
 4902SOL     OW15604   3.012   6.141   0.154
 4902SOL    HW115605   3.002   6.156   0.056
 4902SOL    HW215606   3.069   6.060   0.170
 4903SOL     OW15607   5.909   4.726   6.634
 4903SOL    HW115608   5.934   4.816   6.670
 4903SOL    HW215609   5.968   4.704   6.556
 4904SOL     OW15610   2.796   0.848   3.560
 4904SOL    HW115611   2.764   0.910   3.631
 4904SOL    HW215612   2.805   0.756   3.597
 4905SOL     OW15613   5.835   4.024   3.098
 4905SOL    HW115614   5.825   4.105   3.156
 4905SOL    HW215615   5.869   4.052   3.008
 4906SOL     OW15616   5.497   0.538   1.796
 4906SOL    HW115617   5.498   0.604   1.872
 4906SOL    HW215618   5.580   0.483   1.800
 4907SOL     OW15619   3.154   2.543   1.207
 4907SOL    HW115620   3.187   2.543   1.302
 4907SOL    HW215621   3.110   2.456   1.187
 4908SOL     OW15622   5.065   4.663   6.196
 4908SOL    HW115623   4.975   4.707   6.198
 4908SOL    HW215624   5.059   4.578   6.143
 4909SOL     OW15625   6.296   6.850   5.598
 4909SOL    HW115626   6.225   6.865   5.667
 4909SOL    HW215627   6.303   6.930   5.539
 4910SOL     OW15628   5.188   6.905   5.091
 4910SOL    HW115629   5.203   6.971   5.016
 4910SOL    HW215630   5.223   6.815   5.063
 4911SOL     OW15631   6.992   3.809   0.061
 4911SOL    HW115632   6.976   3.866   7.006
 4911SOL    HW215633   6.939   3.844   0.138
 4912SOL     OW15634   1.443   3.073   1.723
 4912SOL    HW115635   1.357   3.046   1.680
 4912SOL    HW215636   1.468   3.006   1.793
 4913SOL     OW15637   2.798   3.590   1.838
 4913SOL    HW115638   2.796   3.634   1.928
 4913SOL    HW215639   2.786   3.659   1.767
 4914SOL     OW15640   1.140   0.086   2.669
 4914SOL    HW115641   1.236   0.094   2.640
 4914SOL    HW215642   1.088   0.042   2.596
 4915SOL     OW15643   4.263   6.752   3.867
 4915SOL    HW115644   4.191   6.814   3.838
 4915SOL    HW215645   4.325   6.799   3.930
 4916SOL     OW15646   1.633   1.372   1.921
 4916SOL    HW115647   1.638   1.276   1.951
 4916SOL    HW215648   1.686   1.383   1.838
 4917SOL     OW15649   0.725   5.668   7.000
 4917SOL    HW115650   0.653   5.735   7.021
 4917SOL    HW215651   0.747   5.672   6.903
 4918SOL     OW15652   2.390   6.486   3.746
 4918SOL    HW115653   2.290   6.486   3.744
 4918SOL    HW215654   2.425   6.521   3.659
 4919SOL     OW15655   2.429   2.827   1.123
 4919SOL    HW115656   2.365   2.843   1.199
 4919SOL    HW215657   2.427   2.731   1.097
 4920SOL     OW15658   4.044   2.409   6.274
 4920SOL    HW115659   4.116   2.439   6.211
 4920SOL    HW215660   4.023   2.484   6.337
 4921SOL     OW15661   6.686   4.644   1.936
 4921SOL    HW115662   6.642   4.570   1.986
 4921SOL    HW215663   6.640   4.731   1.958
 4922SOL     OW15664   1.632   3.746   5.696
 4922SOL    HW115665   1.646   3.657   5.741
 4922SOL    HW215666   1.582   3.806   5.758
 4923SOL     OW15667   3.899   2.014   0.249
 4923SOL    HW115668   3.936   1.925   0.223
 4923SOL    HW215669   3.939   2.042   0.337
 4924SOL     OW15670   1.184   3.122   4.665
 4924SOL    HW115671   1.224   3.210   4.640
 4924SOL    HW215672   1.087   3.134   4.685
 4925SOL     OW15673   5.111   5.161   4.951
 4925SOL    HW115674   5.069   5.249   4.971
 4925SOL    HW215675   5.080   5.129   4.861
 4926SOL     OW15676   4.360   3.539   0.626
 4926SOL    HW115677   4.362   3.492   0.714
 4926SOL    HW215678   4.327   3.476   0.556
 4927SOL     OW15679   2.958   3.194   2.314
 4927SOL    HW115680   2.865   3.181   2.279
 4927SOL    HW215681   2.974   3.292   2.331
 4928SOL     OW15682   6.645   1.947   5.966
 4928SOL    HW115683   6.654   1.851   5.994
 4928SOL    HW215684   6.693   2.005   6.031
 4929SOL     OW15685   1.383   4.649   3.997
 4929SOL    HW115686   1.391   4.622   4.093
 4929SOL    HW215687   1.468   4.691   3.966
 4930SOL     OW15688   0.767   3.395   0.367
 4930SOL    HW115689   0.775   3.486   0.326
 4930SOL    HW215690   0.694   3.344   0.322
 4931SOL     OW15691   5.535   6.896   0.761
 4931SOL    HW115692   5.595   6.969   0.793
 4931SOL    HW215693   5.513   6.910   0.664
 4932SOL     OW15694   2.801   1.836   0.735
 4932SOL    HW115695   2.770   1.851   0.641
 4932SOL    HW215696   2.778   1.917   0.790
 4933SOL     OW15697   2.759   0.016   4.642
 4933SOL    HW115698   2.828   6.995   4.697
 4933SOL    HW215699   2.669   7.003   4.661
 4934SOL     OW15700   1.720   6.243   5.414
 4934SOL    HW115701   1.774   6.325   5.429
 4934SOL    HW215702   1.771   6.179   5.356
 4935SOL     OW15703   0.826   2.545   1.048
 4935SOL    HW115704   0.893   2.540   0.973
 4935SOL    HW215705   0.796   2.453   1.072
 4936SOL     OW15706   6.442   3.764   1.234
 4936SOL    HW115707   6.342   3.774   1.235
 4936SOL    HW215708   6.477   3.770   1.328
 4937SOL     OW15709   0.885   3.922   5.511
 4937SOL    HW115710   0.829   3.847   5.547
 4937SOL    HW215711   0.937   3.963   5.586
 4938SOL     OW15712   2.926   3.786   0.956
 4938SOL    HW115713   2.924   3.702   0.902
 4938SOL    HW215714   2.836   3.800   0.999
 4939SOL     OW15715   0.880   1.396   1.752
 4939SOL    HW115716   0.948   1.413   1.823
 4939SOL    HW215717   0.893   1.304   1.715
 4940SOL     OW15718   1.832   1.617   5.141
 4940SOL    HW115719   1.838   1.707   5.185
 4940SOL    HW215720   1.737   1.597   5.118
 4941SOL     OW15721   3.383   2.318   6.067
 4941SOL    HW115722   3.356   2.328   6.163
 4941SOL    HW215723   3.482   2.329   6.059
 4942SOL     OW15724   0.754   0.835   2.586
 4942SOL    HW115725   0.807   0.836   2.671
 4942SOL    HW215726   0.673   0.777   2.599
 4943SOL     OW15727   5.526   1.903   6.836
 4943SOL    HW115728   5.535   1.988   6.785
 4943SOL    HW215729   5.517   1.826   6.772
 4944SOL     OW15730   1.332   4.396   0.468
 4944SOL    HW115731   1.314   4.437   0.558
 4944SOL    HW215732   1.245   4.372   0.425
 4945SOL     OW15733   2.673   0.332   6.723
 4945SOL    HW115734   2.640   0.421   6.693
 4945SOL    HW215735   2.681   0.332   6.823
 4946SOL     OW15736   2.120   6.187   6.885
 4946SOL    HW115737   2.152   6.112   6.943
 4946SOL    HW215738   2.100   6.152   6.793
 4947SOL     OW15739   1.336   6.825   1.091
 4947SOL    HW115740   1.396   6.902   1.109
 4947SOL    HW215741   1.270   6.816   1.166
 4948SOL     OW15742   1.536   3.656   2.169
 4948SOL    HW115743   1.556   3.729   2.104
 4948SOL    HW215744   1.552   3.567   2.126
 4949SOL     OW15745   6.478   5.009   6.661
 4949SOL    HW115746   6.426   4.926   6.679
 4949SOL    HW215747   6.560   5.010   6.718
 4950SOL     OW15748   3.964   3.824   5.948
 4950SOL    HW115749   3.879   3.866   5.979
 4950SOL    HW215750   4.020   3.797   6.026
 4951SOL     OW15751   4.624   5.341   3.746
 4951SOL    HW115752   4.629   5.392   3.661
 4951SOL    HW215753   4.700   5.367   3.805
 4952SOL     OW15754   0.707   0.757   6.378
 4952SOL    HW115755   0.806   0.760   6.365
 4952SOL    HW215756   0.674   0.664   6.363
 4953SOL     OW15757   0.999   1.200   5.664
 4953SOL    HW115758   1.064   1.277   5.667
 4953SOL    HW215759   0.908   1.235   5.641
 4954SOL     OW15760   3.515   3.947   5.710
 4954SOL    HW115761   3.504   3.879   5.782
 4954SOL    HW215762   3.432   3.950   5.654
 4955SOL     OW15763   3.931   6.248   0.084
 4955SOL    HW115764   3.929   6.207   0.176
 4955SOL    HW215765   4.005   6.315   0.079
 4956SOL     OW15766   2.384   0.309   3.453
 4956SOL    HW115767   2.479   0.305   3.422
 4956SOL    HW215768   2.382   0.306   3.553
 4957SOL     OW15769   6.196   5.680   0.661
 4957SOL    HW115770   6.292   5.682   0.691
 4957SOL    HW215771   6.192   5.685   0.561
 4958SOL     OW15772   2.830   5.324   0.698
 4958SOL    HW115773   2.872   5.384   0.630
 4958SOL    HW215774   2.868   5.346   0.789
 4959SOL     OW15775   2.269   1.274   2.504
 4959SOL    HW115776   2.320   1.354   2.538
 4959SOL    HW215777   2.179   1.303   2.471
 4960SOL     OW15778   5.267   4.016   4.690
 4960SOL    HW115779   5.245   3.966   4.774
 4960SOL    HW215780   5.366   4.017   4.677
 4961SOL     OW15781   3.979   3.444   2.515
 4961SOL    HW115782   3.924   3.375   2.468
 4961SOL    HW215783   4.043   3.399   2.578
 4962SOL     OW15784   1.500   2.737   0.690
 4962SOL    HW115785   1.533   2.827   0.662
 4962SOL    HW215786   1.439   2.700   0.620
 4963SOL     OW15787   0.488   3.693   6.770
 4963SOL    HW115788   0.484   3.641   6.855
 4963SOL    HW215789   0.567   3.754   6.773
 4964SOL     OW15790   1.512   5.126   3.405
 4964SOL    HW115791   1.443   5.096   3.339
 4964SOL    HW215792   1.496   5.222   3.429
 4965SOL     OW15793   2.356   6.860   2.671
 4965SOL    HW115794   2.433   6.918   2.698
 4965SOL    HW215795   2.270   6.907   2.694
 4966SOL     OW15796   4.150   6.699   5.610
 4966SOL    HW115797   4.226   6.640   5.581
 4966SOL    HW215798   4.170   6.794   5.588
 4967SOL     OW15799   4.361   4.688   3.098
 4967SOL    HW115800   4.296   4.694   3.173
 4967SOL    HW215801   4.450   4.658   3.133
 4968SOL     OW15802   6.636   2.909   3.614
 4968SOL    HW115803   6.686   2.961   3.544
 4968SOL    HW215804   6.556   2.867   3.572
 4969SOL     OW15805   1.445   5.554   3.732
 4969SOL    HW115806   1.469   5.533   3.827
 4969SOL    HW215807   1.359   5.508   3.709
 4970SOL     OW15808   2.729   0.735   0.700
 4970SOL    HW115809   2.774   0.660   0.651
 4970SOL    HW215810   2.653   0.699   0.753
 4971SOL     OW15811   0.604   6.166   2.257
 4971SOL    HW115812   0.535   6.192   2.324
 4971SOL    HW215813   0.664   6.096   2.295
 4972SOL     OW15814   0.587   3.589   1.072
 4972SOL    HW115815   0.487   3.590   1.066
 4972SOL    HW215816   0.622   3.505   1.031
 4973SOL     OW15817   5.373   2.815   0.268
 4973SOL    HW115818   5.418   2.734   0.231
 4973SOL    HW215819   5.438   2.867   0.323
 4974SOL     OW15820   3.290   0.441   5.406
 4974SOL    HW115821   3.362   0.405   5.465
 4974SOL    HW215822   3.318   0.433   5.310
 4975SOL     OW15823   6.343   4.171   1.263
 4975SOL    HW115824   6.333   4.270   1.273
 4975SOL    HW215825   6.438   4.150   1.237
 4976SOL     OW15826   1.819   0.212   3.988
 4976SOL    HW115827   1.770   0.299   3.994
 4976SOL    HW215828   1.764   0.146   3.935
 4977SOL     OW15829   1.344   3.720   4.378
 4977SOL    HW115830   1.271   3.706   4.311
 4977SOL    HW215831   1.376   3.815   4.372
 4978SOL     OW15832   6.316   5.285   4.463
 4978SOL    HW115833   6.286   5.375   4.493
 4978SOL    HW215834   6.362   5.292   4.375
 4979SOL     OW15835   3.141   0.099   5.689
 4979SOL    HW115836   3.119   0.090   5.592
 4979SOL    HW215837   3.208   0.029   5.714
 4980SOL     OW15838   6.031   2.859   4.325
 4980SOL    HW115839   6.024   2.867   4.226
 4980SOL    HW215840   6.022   2.950   4.366
 4981SOL     OW15841   3.180   6.855   2.747
 4981SOL    HW115842   3.239   6.776   2.731
 4981SOL    HW215843   3.085   6.829   2.729
 4982SOL     OW15844   3.547   2.079   5.215
 4982SOL    HW115845   3.476   2.137   5.255
 4982SOL    HW215846   3.634   2.128   5.213
 4983SOL     OW15847   5.332   3.756   3.051
 4983SOL    HW115848   5.347   3.837   2.994
 4983SOL    HW215849   5.413   3.739   3.106
 4984SOL     OW15850   5.010   3.736   5.150
 4984SOL    HW115851   4.966   3.826   5.158
 4984SOL    HW215852   4.957   3.679   5.088
 4985SOL     OW15853   4.734   0.330   2.238
 4985SOL    HW115854   4.802   0.320   2.167
 4985SOL    HW215855   4.779   0.335   2.327
 4986SOL     OW15856   1.575   5.610   1.325
 4986SOL    HW115857   1.635   5.635   1.249
 4986SOL    HW215858   1.482   5.599   1.292
 4987SOL     OW15859   2.219   4.013   2.073
 4987SOL    HW115860   2.279   4.044   1.999
 4987SOL    HW215861   2.131   4.059   2.066
 4988SOL     OW15862   6.497   4.723   4.031
 4988SOL    HW115863   6.547   4.800   4.070
 4988SOL    HW215864   6.415   4.756   3.984
 4989SOL     OW15865   6.923   0.424   4.456
 4989SOL    HW115866   6.840   0.445   4.509
 4989SOL    HW215867   6.988   0.375   4.514
 4990SOL     OW15868   4.258   1.420   6.091
 4990SOL    HW115869   4.308   1.361   6.028
 4990SOL    HW215870   4.322   1.481   6.138
 4991SOL     OW15871   2.202   5.231   5.162
 4991SOL    HW115872   2.159   5.306   5.112
 4991SOL    HW215873   2.301   5.237   5.152
 4992SOL     OW15874   3.071   2.721   5.303
 4992SOL    HW115875   3.129   2.649   5.264
 4992SOL    HW215876   3.012   2.682   5.374
 4993SOL     OW15877   2.483   5.269   3.770
 4993SOL    HW115878   2.464   5.274   3.671
 4993SOL    HW215879   2.580   5.283   3.786
 4994SOL     OW15880   3.414   4.628   5.996
 4994SOL    HW115881   3.403   4.634   5.897
 4994SOL    HW215882   3.327   4.651   6.040
 4995SOL     OW15883   0.557   2.042   6.351
 4995SOL    HW115884   0.494   2.078   6.419
 4995SOL    HW215885   0.508   1.981   6.289
 4996SOL     OW15886   0.013   0.804   4.714
 4996SOL    HW115887   0.097   0.825   4.663
 4996SOL    HW215888   7.018   0.879   4.776
 4997SOL     OW15889   3.562   1.795   0.945
 4997SOL    HW115890   3.551   1.701   0.913
 4997SOL    HW215891   3.554   1.797   1.045
 4998SOL     OW15892   1.032   4.060   3.327
 4998SOL    HW115893   0.998   4.033   3.417
 4998SOL    HW215894   1.124   4.023   3.314
 4999SOL     OW15895   6.752   2.855   3.244
 4999SOL    HW115896   6.827   2.792   3.266
 4999SOL    HW215897   6.759   2.937   3.300
 5000SOL     OW15898   2.200   6.487   2.712
 5000SOL    HW115899   2.229   6.557   2.777
 5000SOL    HW215900   2.259   6.407   2.721
 5001SOL     OW15901   0.288   6.064   3.088
 5001SOL    HW115902   0.285   6.156   3.050
 5001SOL    HW215903   0.383   6.040   3.109
 5002SOL     OW15904   1.263   5.193   3.878
 5002SOL    HW115905   1.200   5.117   3.864
 5002SOL    HW215906   1.263   5.218   3.975
 5003SOL     OW15907   4.094   1.669   1.262
 5003SOL    HW115908   4.013   1.693   1.315
 5003SOL    HW215909   4.163   1.740   1.271
 5004SOL     OW15910   3.738   5.965   0.514
 5004SOL    HW115911   3.747   5.990   0.611
 5004SOL    HW215912   3.719   6.047   0.460
 5005SOL     OW15913   4.643   2.994   0.798
 5005SOL    HW115914   4.545   2.977   0.814
 5005SOL    HW215915   4.672   2.945   0.716
 5006SOL     OW15916   4.504   1.022   2.406
 5006SOL    HW115917   4.407   1.042   2.387
 5006SOL    HW215918   4.561   1.096   2.368
 5007SOL     OW15919   6.922   5.347   3.011
 5007SOL    HW115920   7.013   5.359   3.049
 5007SOL    HW215921   6.919   5.263   2.957
 5008SOL     OW15922   4.130   0.350   4.051
 5008SOL    HW115923   4.202   0.393   4.105
 5008SOL    HW215924   4.052   0.412   4.042
 5009SOL     OW15925   0.987   1.622   6.128
 5009SOL    HW115926   1.034   1.651   6.211
 5009SOL    HW215927   1.055   1.594   6.060
 5010SOL     OW15928   5.385   4.771   0.992
 5010SOL    HW115929   5.441   4.692   0.967
 5010SOL    HW215930   5.429   4.855   0.960
 5011SOL     OW15931   1.709   2.071   5.817
 5011SOL    HW115932   1.699   1.972   5.816
 5011SOL    HW215933   1.716   2.105   5.723
 5012SOL     OW15934   5.746   2.785   5.676
 5012SOL    HW115935   5.786   2.817   5.590
 5012SOL    HW215936   5.654   2.749   5.659
 5013SOL     OW15937   6.387   5.890   5.846
 5013SOL    HW115938   6.386   5.861   5.942
 5013SOL    HW215939   6.472   5.939   5.827
 5014SOL     OW15940   6.311   3.255   0.223
 5014SOL    HW115941   6.296   3.199   0.305
 5014SOL    HW215942   6.242   3.231   0.154
 5015SOL     OW15943   6.358   4.803   4.654
 5015SOL    HW115944   6.339   4.896   4.622
 5015SOL    HW215945   6.457   4.793   4.669
 5016SOL     OW15946   1.220   2.052   6.707
 5016SOL    HW115947   1.307   2.060   6.756
 5016SOL    HW215948   1.232   2.085   6.613
 5017SOL     OW15949   1.200   2.560   1.819
 5017SOL    HW115950   1.296   2.556   1.848
 5017SOL    HW215951   1.167   2.467   1.803
 5018SOL     OW15952   0.396   0.403   0.644
 5018SOL    HW115953   0.310   0.453   0.651
 5018SOL    HW215954   0.451   0.441   0.570
 5019SOL     OW15955   1.784   4.105   4.303
 5019SOL    HW115956   1.878   4.083   4.327
 5019SOL    HW215957   1.722   4.038   4.343
 5020SOL     OW15958   1.620   0.247   2.566
 5020SOL    HW115959   1.706   0.298   2.561
 5020SOL    HW215960   1.547   0.307   2.599
 5021SOL     OW15961   2.485   0.494   1.104
 5021SOL    HW115962   2.440   0.583   1.113
 5021SOL    HW215963   2.532   0.490   1.016
 5022SOL     OW15964   7.018   3.312   1.513
 5022SOL    HW115965   6.922   3.326   1.538
 5022SOL    HW215966   0.049   3.377   1.564
 5023SOL     OW15967   0.443   1.971   3.511
 5023SOL    HW115968   0.369   2.038   3.506
 5023SOL    HW215969   0.531   2.018   3.520
 5024SOL     OW15970   4.389   3.905   0.395
 5024SOL    HW115971   4.364   4.002   0.391
 5024SOL    HW215972   4.402   3.878   0.490
 5025SOL     OW15973   4.361   2.089   4.472
 5025SOL    HW115974   4.281   2.125   4.423
 5025SOL    HW215975   4.332   2.016   4.533
 5026SOL     OW15976   5.299   6.028   5.002
 5026SOL    HW115977   5.274   6.106   5.060
 5026SOL    HW215978   5.221   6.002   4.946
 5027SOL     OW15979   5.567   6.292   1.435
 5027SOL    HW115980   5.613   6.349   1.367
 5027SOL    HW215981   5.563   6.340   1.522
 5028SOL     OW15982   0.453   2.066   2.583
 5028SOL    HW115983   0.496   1.983   2.619
 5028SOL    HW215984   0.399   2.043   2.502
 5029SOL     OW15985   6.111   2.987   3.151
 5029SOL    HW115986   6.015   2.964   3.135
 5029SOL    HW215987   6.149   2.924   3.219
 5030SOL     OW15988   0.497   3.153   0.755
 5030SOL    HW115989   0.475   3.166   0.852
 5030SOL    HW215990   0.420   3.108   0.709
 5031SOL     OW15991   5.857   0.753   6.308
 5031SOL    HW115992   5.890   0.753   6.213
 5031SOL    HW215993   5.844   0.847   6.338
 5032SOL     OW15994   1.928   4.499   6.276
 5032SOL    HW115995   1.849   4.493   6.215
 5032SOL    HW215996   1.906   4.454   6.363
 5033SOL     OW15997   2.214   6.986   3.811
 5033SOL    HW115998   2.132   7.013   3.760
 5033SOL    HW215999   2.209   6.889   3.833
 5034SOL     OW16000   4.157   6.062   3.598
 5034SOL    HW116001   4.202   5.988   3.547
 5034SOL    HW216002   4.077   6.026   3.646
 5035SOL     OW16003   2.048   4.349   3.946
 5035SOL    HW116004   2.025   4.365   4.042
 5035SOL    HW216005   2.000   4.268   3.913
 5036SOL     OW16006   1.167   2.611   4.475
 5036SOL    HW116007   1.167   2.687   4.540
 5036SOL    HW216008   1.260   2.596   4.443
 5037SOL     OW16009   5.191   4.701   1.342
 5037SOL    HW116010   5.119   4.743   1.397
 5037SOL    HW216011   5.192   4.742   1.251
 5038SOL     OW16012   3.046   3.901   4.812
 5038SOL    HW116013   3.024   3.803   4.810
 5038SOL    HW216014   3.016   3.940   4.899
 5039SOL     OW16015   0.259   2.963   6.596
 5039SOL    HW116016   0.165   2.967   6.630
 5039SOL    HW216017   0.318   2.924   6.667
 5040SOL     OW16018   1.082   1.400   5.040
 5040SOL    HW116019   1.181   1.413   5.032
 5040SOL    HW216020   1.057   1.312   5.000
 5041SOL     OW16021   6.528   2.518   1.286
 5041SOL    HW116022   6.552   2.455   1.359
 5041SOL    HW216023   6.562   2.482   1.199
 5042SOL     OW16024   1.304   1.582   5.513
 5042SOL    HW116025   1.304   1.682   5.504
 5042SOL    HW216026   1.394   1.552   5.545
 5043SOL     OW16027   2.454   0.311   1.347
 5043SOL    HW116028   2.440   0.219   1.310
 5043SOL    HW216029   2.472   0.375   1.272
 5044SOL     OW16030   6.826   5.961   1.256
 5044SOL    HW116031   6.737   6.005   1.241
 5044SOL    HW216032   6.876   5.956   1.170
 5045SOL     OW16033   6.022   2.724   2.502
 5045SOL    HW116034   6.083   2.689   2.432
 5045SOL    HW216035   6.048   2.817   2.527
 5046SOL     OW16036   4.240   3.165   1.813
 5046SOL    HW116037   4.231   3.261   1.839
 5046SOL    HW216038   4.330   3.150   1.773
 5047SOL     OW16039   2.454   4.935   3.586
 5047SOL    HW116040   2.534   4.905   3.533
 5047SOL    HW216041   2.403   5.002   3.533
 5048SOL     OW16042   1.758   6.925   5.551
 5048SOL    HW116043   1.822   6.961   5.619
 5048SOL    HW216044   1.675   6.980   5.552
 5049SOL     OW16045   3.946   1.872   6.230
 5049SOL    HW116046   3.868   1.824   6.271
 5049SOL    HW216047   3.936   1.970   6.244
 5050SOL     OW16048   1.320   0.253   0.809
 5050SOL    HW116049   1.277   0.168   0.778
 5050SOL    HW216050   1.394   0.231   0.873
 5051SOL     OW16051   4.229   4.131   1.101
 5051SOL    HW116052   4.175   4.214   1.116
 5051SOL    HW216053   4.229   4.075   1.184
 5052SOL     OW16054   1.747   3.821   4.225
 5052SOL    HW116055   1.758   3.753   4.152
 5052SOL    HW216056   1.673   3.884   4.200
 5053SOL     OW16057   6.937   0.804   0.539
 5053SOL    HW116058   6.887   0.717   0.541
 5053SOL    HW216059   6.872   0.880   0.549
 5054SOL     OW16060   4.177   5.389   3.107
 5054SOL    HW116061   4.199   5.368   3.202
 5054SOL    HW216062   4.256   5.366   3.049
 5055SOL     OW16063   5.852   4.540   5.566
 5055SOL    HW116064   5.761   4.559   5.528
 5055SOL    HW216065   5.905   4.487   5.500
 5056SOL     OW16066   6.725   5.091   3.124
 5056SOL    HW116067   6.744   5.147   3.204
 5056SOL    HW216068   6.634   5.114   3.088
 5057SOL     OW16069   6.712   6.447   2.674
 5057SOL    HW116070   6.735   6.524   2.733
 5057SOL    HW216071   6.795   6.395   2.653
 5058SOL     OW16072   2.399   5.702   5.699
 5058SOL    HW116073   2.446   5.790   5.709
 5058SOL    HW216074   2.302   5.718   5.683
 5059SOL     OW16075   6.483   6.374   2.764
 5059SOL    HW116076   6.562   6.400   2.709
 5059SOL    HW216077   6.402   6.372   2.707
 5060SOL     OW16078   6.669   2.989   0.285
 5060SOL    HW116079   6.637   3.081   0.266
 5060SOL    HW216080   6.749   2.969   0.228
 5061SOL     OW16081   5.700   3.481   0.746
 5061SOL    HW116082   5.737   3.544   0.678
 5061SOL    HW216083   5.606   3.508   0.768
 5062SOL     OW16084   6.685   0.321   6.835
 5062SOL    HW116085   6.654   0.277   6.751
 5062SOL    HW216086   6.676   0.420   6.827
 5063SOL     OW16087   1.210   6.430   2.367
 5063SOL    HW116088   1.286   6.491   2.391
 5063SOL    HW216089   1.150   6.419   2.446
 5064SOL     OW16090   5.115   4.657   6.829
 5064SOL    HW116091   5.154   4.574   6.788
 5064SOL    HW216092   5.182   4.732   6.821
 5065SOL     OW16093   2.025   6.892   5.658
 5065SOL    HW116094   2.058   6.840   5.736
 5065SOL    HW216095   2.000   6.829   5.584
 5066SOL     OW16096   5.210   4.835   0.313
 5066SOL    HW116097   5.215   4.790   0.223
 5066SOL    HW216098   5.121   4.881   0.321
 5067SOL     OW16099   5.398   1.139   6.540
 5067SOL    HW116100   5.438   1.174   6.625
 5067SOL    HW216101   5.341   1.209   6.498
 5068SOL     OW16102   3.357   5.362   1.518
 5068SOL    HW116103   3.364   5.262   1.516
 5068SOL    HW216104   3.265   5.388   1.550
 5069SOL     OW16105   0.236   5.187   2.991
 5069SOL    HW116106   0.195   5.198   3.081
 5069SOL    HW216107   0.308   5.117   2.995
 5070SOL     OW16108   5.122   2.248   3.570
 5070SOL    HW116109   5.168   2.199   3.496
 5070SOL    HW216110   5.166   2.227   3.657
 5071SOL     OW16111   5.191   1.181   1.808
 5071SOL    HW116112   5.288   1.206   1.813
 5071SOL    HW216113   5.174   1.131   1.723
 5072SOL     OW16114   0.681   4.178   2.489
 5072SOL    HW116115   0.653   4.113   2.559
 5072SOL    HW216116   0.641   4.152   2.401
 5073SOL     OW16117   4.457   2.367   3.538
 5073SOL    HW116118   4.394   2.292   3.517
 5073SOL    HW216119   4.498   2.400   3.453
 5074SOL     OW16120   4.202   3.585   5.174
 5074SOL    HW116121   4.164   3.670   5.208
 5074SOL    HW216122   4.186   3.579   5.075
 5075SOL     OW16123   6.363   0.262   4.114
 5075SOL    HW116124   6.441   0.323   4.128
 5075SOL    HW216125   6.365   0.226   4.020
 5076SOL     OW16126   5.362   0.474   0.268
 5076SOL    HW116127   5.309   0.523   0.200
 5076SOL    HW216128   5.306   0.458   0.349
 5077SOL     OW16129   0.242   1.273   2.725
 5077SOL    HW116130   0.240   1.185   2.677
 5077SOL    HW216131   0.203   1.261   2.816
 5078SOL     OW16132   0.716   1.856   4.750
 5078SOL    HW116133   0.661   1.835   4.832
 5078SOL    HW216134   0.663   1.914   4.689
 5079SOL     OW16135   5.095   5.374   4.592
 5079SOL    HW116136   5.101   5.401   4.495
 5079SOL    HW216137   5.081   5.276   4.598
 5080SOL     OW16138   4.739   0.277   5.771
 5080SOL    HW116139   4.780   0.187   5.754
 5080SOL    HW216140   4.699   0.279   5.862
 5081SOL     OW16141   2.899   3.451   3.139
 5081SOL    HW116142   2.911   3.523   3.207
 5081SOL    HW216143   2.970   3.382   3.151
 5082SOL     OW16144   1.259   1.753   5.115
 5082SOL    HW116145   1.272   1.660   5.150
 5082SOL    HW216146   1.336   1.778   5.056
 5083SOL     OW16147   0.925   3.451   2.390
 5083SOL    HW116148   0.877   3.530   2.426
 5083SOL    HW216149   1.009   3.481   2.344
 5084SOL     OW16150   1.396   5.598   2.408
 5084SOL    HW116151   1.336   5.665   2.365
 5084SOL    HW216152   1.382   5.508   2.366
 5085SOL     OW16153   6.855   2.548   0.882
 5085SOL    HW116154   6.885   2.613   0.952
 5085SOL    HW216155   6.867   2.455   0.915
 5086SOL     OW16156   6.631   4.781   4.914
 5086SOL    HW116157   6.731   4.775   4.921
 5086SOL    HW216158   6.592   4.689   4.915
 5087SOL     OW16159   5.480   5.267   5.845
 5087SOL    HW116160   5.558   5.294   5.789
 5087SOL    HW216161   5.435   5.187   5.805
 5088SOL     OW16162   5.681   1.389   6.535
 5088SOL    HW116163   5.770   1.419   6.569
 5088SOL    HW216164   5.685   1.381   6.436
 5089SOL     OW16165   5.440   2.916   4.289
 5089SOL    HW116166   5.367   2.955   4.346
 5089SOL    HW216167   5.402   2.844   4.231
 5090SOL     OW16168   1.003   4.833   0.120
 5090SOL    HW116169   0.947   4.794   0.047
 5090SOL    HW216170   1.100   4.816   0.101
 5091SOL     OW16171   0.676   5.829   4.017
 5091SOL    HW116172   0.773   5.842   3.998
 5091SOL    HW216173   0.635   5.916   4.043
 5092SOL     OW16174   3.673   3.167   0.441
 5092SOL    HW116175   3.606   3.192   0.370
 5092SOL    HW216176   3.669   3.068   0.457
 5093SOL     OW16177   0.814   0.844   2.329
 5093SOL    HW116178   0.739   0.815   2.270
 5093SOL    HW216179   0.792   0.822   2.424
 5094SOL     OW16180   1.033   0.105   6.096
 5094SOL    HW116181   1.048   0.097   5.997
 5094SOL    HW216182   0.940   0.137   6.113
 5095SOL     OW16183   3.094   6.531   4.770
 5095SOL    HW116184   3.160   6.568   4.705
 5095SOL    HW216185   3.051   6.450   4.732
 5096SOL     OW16186   3.281   6.013   2.466
 5096SOL    HW116187   3.240   5.922   2.471
 5096SOL    HW216188   3.341   6.018   2.386
 5097SOL     OW16189   0.805   2.188   6.904
 5097SOL    HW116190   0.780   2.233   6.818
 5097SOL    HW216191   0.793   2.252   6.980
 5098SOL     OW16192   1.481   3.021   2.990
 5098SOL    HW116193   1.534   3.056   2.913
 5098SOL    HW216194   1.384   3.019   2.966
 5099SOL     OW16195   0.948   1.627   4.393
 5099SOL    HW116196   0.945   1.595   4.487
 5099SOL    HW216197   0.943   1.727   4.391
 5100SOL     OW16198   5.117   4.660   5.237
 5100SOL    HW116199   5.107   4.751   5.197
 5100SOL    HW216200   5.026   4.624   5.260
 5101SOL     OW16201   5.688   6.274   0.678
 5101SOL    HW116202   5.589   6.280   0.675
 5101SOL    HW216203   5.716   6.225   0.761
 5102SOL     OW16204   3.925   5.871   3.538
 5102SOL    HW116205   3.844   5.917   3.502
 5102SOL    HW216206   3.964   5.812   3.468
 5103SOL     OW16207   1.832   2.288   3.820
 5103SOL    HW116208   1.848   2.189   3.819
 5103SOL    HW216209   1.876   2.328   3.900
 5104SOL     OW16210   0.838   0.346   0.848
 5104SOL    HW116211   0.847   0.283   0.925
 5104SOL    HW216212   0.810   0.436   0.882
 5105SOL     OW16213   1.574   3.475   0.714
 5105SOL    HW116214   1.516   3.394   0.727
 5105SOL    HW216215   1.665   3.457   0.751
 5106SOL     OW16216   2.229   6.636   1.978
 5106SOL    HW116217   2.250   6.731   1.958
 5106SOL    HW216218   2.132   6.627   2.000
 5107SOL     OW16219   1.665   0.134   5.915
 5107SOL    HW116220   1.618   0.190   5.984
 5107SOL    HW216221   1.750   0.179   5.888
 5108SOL     OW16222   4.108   3.521   4.533
 5108SOL    HW116223   4.111   3.615   4.564
 5108SOL    HW216224   4.098   3.460   4.611
 5109SOL     OW16225   0.827   2.454   2.312
 5109SOL    HW116226   0.838   2.414   2.221
 5109SOL    HW216227   0.868   2.546   2.313
 5110SOL     OW16228   1.393   6.018   5.294
 5110SOL    HW116229   1.414   6.095   5.354
 5110SOL    HW216230   1.373   5.937   5.350
 5111SOL     OW16231   1.073   1.047   6.708
 5111SOL    HW116232   1.088   1.138   6.744
 5111SOL    HW216233   1.068   0.981   6.783
 5112SOL     OW16234   0.485   0.068   3.432
 5112SOL    HW116235   0.395   0.048   3.392
 5112SOL    HW216236   0.544   0.109   3.363
 5113SOL     OW16237   0.492   1.859   6.595
 5113SOL    HW116238   0.566   1.904   6.545
 5113SOL    HW216239   0.404   1.898   6.568
 5114SOL     OW16240   5.199   4.982   6.463
 5114SOL    HW116241   5.114   4.928   6.464
 5114SOL    HW216242   5.180   5.072   6.425
 5115SOL     OW16243   2.704   3.890   5.259
 5115SOL    HW116244   2.721   3.812   5.319
 5115SOL    HW216245   2.607   3.892   5.234
 5116SOL     OW16246   6.701   4.171   1.461
 5116SOL    HW116247   6.703   4.072   1.472
 5116SOL    HW216248   6.625   4.209   1.512
 5117SOL     OW16249   2.587   5.767   2.296
 5117SOL    HW116250   2.627   5.856   2.319
 5117SOL    HW216251   2.659   5.704   2.267
 5118SOL     OW16252   4.478   0.037   1.646
 5118SOL    HW116253   4.418   0.001   1.575
 5118SOL    HW216254   4.570   0.001   1.634
 5119SOL     OW16255   6.516   1.040   3.359
 5119SOL    HW116256   6.554   0.958   3.402
 5119SOL    HW216257   6.534   1.038   3.261
 5120SOL     OW16258   3.489   1.124   1.226
 5120SOL    HW116259   3.471   1.125   1.128
 5120SOL    HW216260   3.403   1.120   1.276
 5121SOL     OW16261   0.973   3.835   4.371
 5121SOL    HW116262   1.029   3.871   4.446
 5121SOL    HW216263   1.028   3.771   4.316
 5122SOL     OW16264   2.545   5.928   2.810
 5122SOL    HW116265   2.532   5.863   2.735
 5122SOL    HW216266   2.493   5.897   2.890
 5123SOL     OW16267   6.418   3.002   2.017
 5123SOL    HW116268   6.470   2.917   2.020
 5123SOL    HW216269   6.459   3.068   2.081
 5124SOL     OW16270   3.322   6.860   6.868
 5124SOL    HW116271   3.272   6.824   6.789
 5124SOL    HW216272   3.258   6.896   6.935
 5125SOL     OW16273   0.782   1.893   6.650
 5125SOL    HW116274   0.855   1.825   6.655
 5125SOL    HW216275   0.732   1.895   6.736
 5126SOL     OW16276   3.921   1.298   0.452
 5126SOL    HW116277   3.986   1.316   0.525
 5126SOL    HW216278   3.833   1.340   0.475
 5127SOL     OW16279   4.733   3.670   5.814
 5127SOL    HW116280   4.830   3.652   5.824
 5127SOL    HW216281   4.681   3.586   5.831
 5128SOL     OW16282   0.403   0.680   0.052
 5128SOL    HW116283   0.398   0.660   6.980
 5128SOL    HW216284   0.403   0.779   0.067
 5129SOL     OW16285   4.574   2.596   4.156
 5129SOL    HW116286   4.618   2.547   4.231
 5129SOL    HW216287   4.576   2.694   4.175
 5130SOL     OW16288   1.671   6.548   4.893
 5130SOL    HW116289   1.759   6.507   4.869
 5130SOL    HW216290   1.612   6.480   4.935
 5131SOL     OW16291   3.601   4.925   2.744
 5131SOL    HW116292   3.609   4.900   2.647
 5131SOL    HW216293   3.509   4.904   2.777
 5132SOL     OW16294   3.395   1.668   6.236
 5132SOL    HW116295   3.446   1.681   6.152
 5132SOL    HW216296   3.314   1.611   6.217
 5133SOL     OW16297   2.570   3.874   6.602
 5133SOL    HW116298   2.626   3.943   6.556
 5133SOL    HW216299   2.499   3.920   6.655
 5134SOL     OW16300   5.281   6.027   1.488
 5134SOL    HW116301   5.348   5.953   1.495
 5134SOL    HW216302   5.305   6.087   1.412
 5135SOL     OW16303   1.360   2.772   2.450
 5135SOL    HW116304   1.319   2.760   2.360
 5135SOL    HW216305   1.379   2.869   2.465
 5136SOL     OW16306   0.087   0.285   5.193
 5136SOL    HW116307   0.096   0.364   5.132
 5136SOL    HW216308   0.005   0.234   5.170
 5137SOL     OW16309   5.349   0.757   3.280
 5137SOL    HW116310   5.338   0.841   3.225
 5137SOL    HW216311   5.444   0.748   3.307
 5138SOL     OW16312   3.348   3.816   2.780
 5138SOL    HW116313   3.314   3.851   2.692
 5138SOL    HW216314   3.435   3.768   2.765
 5139SOL     OW16315   5.339   0.695   5.036
 5139SOL    HW116316   5.240   0.704   5.045
 5139SOL    HW216317   5.374   0.635   5.108
 5140SOL     OW16318   2.816   3.349   5.306
 5140SOL    HW116319   2.793   3.259   5.343
 5140SOL    HW216320   2.781   3.357   5.213
 5141SOL     OW16321   0.803   2.467   1.823
 5141SOL    HW116322   0.794   2.524   1.741
 5141SOL    HW216323   0.761   2.514   1.901
 5142SOL     OW16324   6.931   6.245   2.944
 5142SOL    HW116325   6.926   6.333   2.991
 5142SOL    HW216326   6.946   6.173   3.012
 5143SOL     OW16327   5.781   5.753   2.685
 5143SOL    HW116328   5.791   5.715   2.593
 5143SOL    HW216329   5.768   5.679   2.751
 5144SOL     OW16330   1.632   2.607   5.145
 5144SOL    HW116331   1.572   2.687   5.146
 5144SOL    HW216332   1.624   2.558   5.232
 5145SOL     OW16333   0.918   5.304   6.350
 5145SOL    HW116334   0.878   5.252   6.274
 5145SOL    HW216335   1.018   5.295   6.347
 5146SOL     OW16336   5.310   5.785   6.550
 5146SOL    HW116337   5.287   5.861   6.488
 5146SOL    HW216338   5.390   5.736   6.514
 5147SOL     OW16339   3.860   1.050   3.352
 5147SOL    HW116340   3.822   0.958   3.341
 5147SOL    HW216341   3.837   1.105   3.271
 5148SOL     OW16342   6.229   1.222   0.745
 5148SOL    HW116343   6.218   1.309   0.696
 5148SOL    HW216344   6.205   1.234   0.841
 5149SOL     OW16345   2.896   7.014   3.295
 5149SOL    HW116346   2.799   0.010   3.301
 5149SOL    HW216347   2.948   0.072   3.278
 5150SOL     OW16348   6.768   1.017   4.470
 5150SOL    HW116349   6.790   1.027   4.373
 5150SOL    HW216350   6.675   1.050   4.487
 5151SOL     OW16351   5.208   4.843   1.993
 5151SOL    HW116352   5.305   4.851   2.016
 5151SOL    HW216353   5.195   4.870   1.897
 5152SOL     OW16354   2.301   1.050   0.323
 5152SOL    HW116355   2.236   1.121   0.296
 5152SOL    HW216356   2.254   0.983   0.381
 5153SOL     OW16357   2.213   1.957   6.893
 5153SOL    HW116358   2.227   1.863   6.925
 5153SOL    HW216359   2.216   2.020   6.971
 5154SOL     OW16360   0.880   3.106   6.290
 5154SOL    HW116361   0.962   3.163   6.283
 5154SOL    HW216362   0.907   3.014   6.319
 5155SOL     OW16363   1.481   0.302   0.166
 5155SOL    HW116364   1.574   0.277   0.141
 5155SOL    HW216365   1.469   0.401   0.156
 5156SOL     OW16366   5.175   3.589   5.580
 5156SOL    HW116367   5.268   3.623   5.599
 5156SOL    HW216368   5.179   3.523   5.505
 5157SOL     OW16369   3.444   0.759   2.379
 5157SOL    HW116370   3.432   0.783   2.283
 5157SOL    HW216371   3.535   0.788   2.409
 5158SOL     OW16372   1.064   2.792   1.776
 5158SOL    HW116373   1.006   2.779   1.695
 5158SOL    HW216374   1.104   2.705   1.803
 5159SOL     OW16375   6.404   3.288   6.120
 5159SOL    HW116376   6.399   3.215   6.188
 5159SOL    HW216377   6.500   3.300   6.092
 5160SOL     OW16378   6.082   1.420   3.144
 5160SOL    HW116379   6.107   1.399   3.050
 5160SOL    HW216380   6.165   1.430   3.199
 5161SOL     OW16381   1.383   1.771   6.669
 5161SOL    HW116382   1.469   1.781   6.720
 5161SOL    HW216383   1.307   1.769   6.733
 5162SOL     OW16384   0.284   0.842   6.260
 5162SOL    HW116385   0.268   0.821   6.357
 5162SOL    HW216386   0.381   0.834   6.240
 5163SOL     OW16387   3.555   1.905   1.395
 5163SOL    HW116388   3.513   1.994   1.413
 5163SOL    HW216389   3.615   1.881   1.471
 5164SOL     OW16390   2.209   2.790   0.181
 5164SOL    HW116391   2.123   2.806   0.133
 5164SOL    HW216392   2.224   2.692   0.192
 5165SOL     OW16393   1.308   5.745   5.302
 5165SOL    HW116394   1.296   5.648   5.319
 5165SOL    HW216395   1.260   5.771   5.218
 5166SOL     OW16396   6.325   6.112   6.314
 5166SOL    HW116397   6.322   6.070   6.405
 5166SOL    HW216398   6.378   6.197   6.319
 5167SOL     OW16399   5.854   3.311   5.984
 5167SOL    HW116400   5.859   3.356   5.895
 5167SOL    HW216401   5.908   3.227   5.982
 5168SOL     OW16402   5.977   0.841   3.657
 5168SOL    HW116403   5.983   0.768   3.726
 5168SOL    HW216404   5.978   0.800   3.566
 5169SOL     OW16405   4.891   5.806   4.679
 5169SOL    HW116406   4.904   5.722   4.733
 5169SOL    HW216407   4.860   5.781   4.588
 5170SOL     OW16408   2.704   2.960   6.519
 5170SOL    HW116409   2.731   2.983   6.425
 5170SOL    HW216410   2.740   2.870   6.542
 5171SOL     OW16411   1.396   6.777   5.869
 5171SOL    HW116412   1.360   6.783   5.962
 5171SOL    HW216413   1.395   6.682   5.838
 5172SOL     OW16414   4.852   5.393   5.925
 5172SOL    HW116415   4.785   5.392   5.999
 5172SOL    HW216416   4.836   5.472   5.867
 5173SOL     OW16417   4.480   6.333   4.106
 5173SOL    HW116418   4.420   6.267   4.062
 5173SOL    HW216419   4.575   6.303   4.099
 5174SOL     OW16420   0.984   5.695   3.864
 5174SOL    HW116421   1.039   5.755   3.922
 5174SOL    HW216422   1.023   5.691   3.772
 5175SOL     OW16423   2.859   2.136   6.344
 5175SOL    HW116424   2.954   2.145   6.375
 5175SOL    HW216425   2.798   2.165   6.418
 5176SOL     OW16426   5.472   6.547   5.592
 5176SOL    HW116427   5.440   6.624   5.648
 5176SOL    HW216428   5.497   6.580   5.501
 5177SOL     OW16429   4.886   5.062   1.166
 5177SOL    HW116430   4.922   5.046   1.075
 5177SOL    HW216431   4.961   5.063   1.232
 5178SOL     OW16432   1.087   3.687   1.437
 5178SOL    HW116433   1.149   3.738   1.377
 5178SOL    HW216434   1.138   3.654   1.517
 5179SOL     OW16435   3.871   5.538   2.614
 5179SOL    HW116436   3.826   5.452   2.592
 5179SOL    HW216437   3.953   5.549   2.557
 5180SOL     OW16438   3.007   5.170   2.492
 5180SOL    HW116439   2.948   5.223   2.553
 5180SOL    HW216440   3.004   5.209   2.400
 5181SOL     OW16441   6.694   1.645   5.339
 5181SOL    HW116442   6.782   1.647   5.291
 5181SOL    HW216443   6.679   1.731   5.388
 5182SOL     OW16444   2.188   6.223   1.988
 5182SOL    HW116445   2.186   6.273   1.901
 5182SOL    HW216446   2.283   6.209   2.016
 5183SOL     OW16447   5.233   2.136   3.288
 5183SOL    HW116448   5.193   2.044   3.282
 5183SOL    HW216449   5.330   2.128   3.312
 5184SOL     OW16450   3.244   1.459   1.933
 5184SOL    HW116451   3.196   1.510   1.861
 5184SOL    HW216452   3.177   1.408   1.987
 5185SOL     OW16453   6.389   0.575   0.977
 5185SOL    HW116454   6.386   0.662   1.026
 5185SOL    HW216455   6.314   0.517   1.008
 5186SOL     OW16456   6.581   2.446   6.640
 5186SOL    HW116457   6.584   2.532   6.690
 5186SOL    HW216458   6.601   2.370   6.702
 5187SOL     OW16459   1.180   4.665   5.040
 5187SOL    HW116460   1.265   4.621   5.067
 5187SOL    HW216461   1.150   4.726   5.114
 5188SOL     OW16462   6.631   0.622   1.440
 5188SOL    HW116463   6.612   0.717   1.413
 5188SOL    HW216464   6.689   0.579   1.371
 5189SOL     OW16465   5.484   5.912   6.202
 5189SOL    HW116466   5.427   5.943   6.127
 5189SOL    HW216467   5.481   5.812   6.209
 5190SOL     OW16468   1.682   5.077   0.927
 5190SOL    HW116469   1.687   5.036   0.836
 5190SOL    HW216470   1.759   5.139   0.941
 5191SOL     OW16471   3.107   3.985   0.944
 5191SOL    HW116472   3.043   3.909   0.940
 5191SOL    HW216473   3.127   4.008   1.039
 5192SOL     OW16474   0.744   4.651   2.657
 5192SOL    HW116475   0.805   4.577   2.628
 5192SOL    HW216476   0.663   4.612   2.701
 5193SOL     OW16477   3.961   0.597   4.853
 5193SOL    HW116478   3.983   0.673   4.791
 5193SOL    HW216479   3.963   0.511   4.802
 5194SOL     OW16480   4.031   1.505   5.404
 5194SOL    HW116481   4.029   1.602   5.430
 5194SOL    HW216482   3.994   1.450   5.478
 5195SOL     OW16483   1.875   1.195   5.115
 5195SOL    HW116484   1.952   1.187   5.051
 5195SOL    HW216485   1.839   1.104   5.134
 5196SOL     OW16486   6.276   6.048   2.977
 5196SOL    HW116487   6.372   6.066   2.955
 5196SOL    HW216488   6.221   6.049   2.893
 5197SOL     OW16489   2.592   3.589   5.629
 5197SOL    HW116490   2.508   3.535   5.628
 5197SOL    HW216491   2.651   3.560   5.554
 5198SOL     OW16492   6.566   5.519   3.612
 5198SOL    HW116493   6.619   5.566   3.683
 5198SOL    HW216494   6.473   5.555   3.611
 5199SOL     OW16495   0.383   5.150   1.312
 5199SOL    HW116496   0.386   5.155   1.412
 5199SOL    HW216497   0.400   5.241   1.274
 5200SOL     OW16498   0.174   4.503   6.035
 5200SOL    HW116499   0.105   4.434   6.013
 5200SOL    HW216500   0.145   4.554   6.116
 5201SOL     OW16501   1.052   5.515   4.494
 5201SOL    HW116502   1.083   5.609   4.512
 5201SOL    HW216503   0.995   5.483   4.570
 5202SOL     OW16504   0.169   5.104   1.531
 5202SOL    HW116505   0.146   5.152   1.616
 5202SOL    HW216506   0.238   5.034   1.550
 5203SOL     OW16507   6.745   3.157   6.996
 5203SOL    HW116508   6.666   3.144   6.936
 5203SOL    HW216509   6.716   3.194   0.059
 5204SOL     OW16510   5.384   5.410   6.375
 5204SOL    HW116511   5.444   5.392   6.297
 5204SOL    HW216512   5.304   5.351   6.371
 5205SOL     OW16513   2.585   6.136   0.419
 5205SOL    HW116514   2.502   6.121   0.472
 5205SOL    HW216515   2.563   6.138   0.321
 5206SOL     OW16516   0.178   4.208   4.711
 5206SOL    HW116517   0.203   4.202   4.614
 5206SOL    HW216518   0.124   4.291   4.726
 5207SOL     OW16519   1.631   6.678   1.854
 5207SOL    HW116520   1.589   6.706   1.941
 5207SOL    HW216521   1.597   6.736   1.780
 5208SOL     OW16522   4.221   2.027   0.362
 5208SOL    HW116523   4.297   1.963   0.369
 5208SOL    HW216524   4.223   2.091   0.439
 5209SOL     OW16525   6.366   5.326   3.316
 5209SOL    HW116526   6.399   5.414   3.283
 5209SOL    HW216527   6.406   5.307   3.406
 5210SOL     OW16528   4.879   3.608   3.582
 5210SOL    HW116529   4.955   3.573   3.527
 5210SOL    HW216530   4.795   3.560   3.556
 5211SOL     OW16531   2.963   4.323   1.723
 5211SOL    HW116532   2.951   4.400   1.786
 5211SOL    HW216533   2.944   4.353   1.630
 5212SOL     OW16534   0.421   6.949   6.276
 5212SOL    HW116535   0.499   6.896   6.309
 5212SOL    HW216536   0.341   6.889   6.269
 5213SOL     OW16537   4.676   1.892   6.827
 5213SOL    HW116538   4.622   1.948   6.765
 5213SOL    HW216539   4.756   1.857   6.779
 5214SOL     OW16540   4.431   2.056   6.944
 5214SOL    HW116541   4.374   2.008   6.877
 5214SOL    HW216542   4.475   1.989   7.005
 5215SOL     OW16543   5.978   5.695   4.690
 5215SOL    HW116544   6.000   5.601   4.717
 5215SOL    HW216545   6.058   5.738   4.649
 5216SOL     OW16546   2.924   6.597   0.751
 5216SOL    HW116547   2.830   6.584   0.719
 5216SOL    HW216548   2.967   6.508   0.764
 5217SOL     OW16549   2.819   5.730   3.652
 5217SOL    HW116550   2.850   5.676   3.730
 5217SOL    HW216551   2.794   5.822   3.682
 5218SOL     OW16552   1.022   0.522   3.514
 5218SOL    HW116553   0.954   0.518   3.587
 5218SOL    HW216554   1.017   0.612   3.469
 5219SOL     OW16555   3.100   6.871   0.914
 5219SOL    HW116556   3.012   6.842   0.953
 5219SOL    HW216557   3.102   6.850   0.816
 5220SOL     OW16558   0.858   6.687   2.023
 5220SOL    HW116559   0.907   6.700   2.109
 5220SOL    HW216560   0.909   6.625   1.964
 5221SOL     OW16561   4.639   0.843   0.186
 5221SOL    HW116562   4.671   0.869   0.278
 5221SOL    HW216563   4.703   0.777   0.146
 5222SOL     OW16564   6.542   5.214   2.269
 5222SOL    HW116565   6.468   5.211   2.336
 5222SOL    HW216566   6.623   5.254   2.312
 5223SOL     OW16567   3.941   6.709   1.480
 5223SOL    HW116568   3.847   6.735   1.456
 5223SOL    HW216569   3.944   6.676   1.574
 5224SOL     OW16570   5.314   0.284   3.182
 5224SOL    HW116571   5.341   0.192   3.212
 5224SOL    HW216572   5.257   0.277   3.099
 5225SOL     OW16573   6.972   0.106   6.002
 5225SOL    HW116574   6.917   0.166   5.943
 5225SOL    HW216575   0.039   0.145   6.011
 5226SOL     OW16576   2.397   0.762   3.310
 5226SOL    HW116577   2.305   0.800   3.301
 5226SOL    HW216578   2.462   0.835   3.330
 5227SOL     OW16579   5.528   4.038   4.201
 5227SOL    HW116580   5.506   3.952   4.248
 5227SOL    HW216581   5.520   4.024   4.102
 5228SOL     OW16582   5.170   6.900   2.561
 5228SOL    HW116583   5.222   6.955   2.626
 5228SOL    HW216584   5.111   6.959   2.507
 5229SOL     OW16585   0.798   3.796   3.985
 5229SOL    HW116586   0.813   3.700   4.008
 5229SOL    HW216587   0.829   3.853   4.061
 5230SOL     OW16588   0.587   1.592   6.604
 5230SOL    HW116589   0.549   1.684   6.599
 5230SOL    HW216590   0.658   1.581   6.534
 5231SOL     OW16591   3.274   3.816   3.434
 5231SOL    HW116592   3.242   3.752   3.504
 5231SOL    HW216593   3.195   3.852   3.384
 5232SOL     OW16594   5.367   2.691   4.798
 5232SOL    HW116595   5.456   2.646   4.787
 5232SOL    HW216596   5.316   2.645   4.871
 5233SOL     OW16597   0.567   6.910   2.710
 5233SOL    HW116598   0.549   6.946   2.619
 5233SOL    HW216599   0.654   6.946   2.743
 5234SOL     OW16600   3.512   4.125   1.583
 5234SOL    HW116601   3.486   4.176   1.665
 5234SOL    HW216602   3.607   4.146   1.559
 5235SOL     OW16603   0.936   1.680   1.915
 5235SOL    HW116604   0.960   1.583   1.915
 5235SOL    HW216605   0.844   1.690   1.954
 5236SOL     OW16606   6.989   3.014   1.159
 5236SOL    HW116607   7.008   2.978   1.250
 5236SOL    HW216608   6.962   3.110   1.165
 5237SOL     OW16609   1.934   2.174   2.669
 5237SOL    HW116610   2.030   2.154   2.688
 5237SOL    HW216611   1.877   2.135   2.741
 5238SOL     OW16612   1.895   3.547   1.735
 5238SOL    HW116613   1.862   3.454   1.718
 5238SOL    HW216614   1.993   3.551   1.718
 5239SOL     OW16615   3.012   3.195   4.957
 5239SOL    HW116616   3.012   3.103   4.995
 5239SOL    HW216617   3.072   3.198   4.877
 5240SOL     OW16618   4.368   2.341   3.793
 5240SOL    HW116619   4.445   2.377   3.847
 5240SOL    HW216620   4.371   2.380   3.701
 5241SOL     OW16621   4.559   5.994   5.099
 5241SOL    HW116622   4.639   5.997   5.040
 5241SOL    HW216623   4.500   6.072   5.079
 5242SOL     OW16624   2.976   0.697   6.281
 5242SOL    HW116625   2.951   0.765   6.350
 5242SOL    HW216626   2.937   0.608   6.305
 5243SOL     OW16627   1.996   3.579   6.751
 5243SOL    HW116628   1.944   3.561   6.834
 5243SOL    HW216629   2.013   3.492   6.703
 5244SOL     OW16630   6.219   2.877   6.804
 5244SOL    HW116631   6.230   2.976   6.803
 5244SOL    HW216632   6.268   2.838   6.882
 5245SOL     OW16633   4.137   4.617   5.877
 5245SOL    HW116634   4.217   4.585   5.927
 5245SOL    HW216635   4.165   4.655   5.788
 5246SOL     OW16636   1.618   3.606   3.379
 5246SOL    HW116637   1.603   3.541   3.453
 5246SOL    HW216638   1.556   3.586   3.304
 5247SOL     OW16639   0.962   4.183   6.955
 5247SOL    HW116640   1.005   4.163   6.867
 5247SOL    HW216641   0.909   4.103   6.984
 5248SOL     OW16642   4.789   1.777   0.690
 5248SOL    HW116643   4.832   1.726   0.765
 5248SOL    HW216644   4.716   1.721   0.649
 5249SOL     OW16645   0.887   5.221   6.870
 5249SOL    HW116646   0.842   5.189   6.786
 5249SOL    HW216647   0.824   5.277   6.923
 5250SOL     OW16648   1.568   1.488   5.587
 5250SOL    HW116649   1.583   1.482   5.685
 5250SOL    HW216650   1.627   1.560   5.549
 5251SOL     OW16651   0.898   2.225   2.149
 5251SOL    HW116652   0.984   2.180   2.172
 5251SOL    HW216653   0.877   2.210   2.052
 5252SOL     OW16654   5.495   5.491   1.263
 5252SOL    HW116655   5.567   5.433   1.301
 5252SOL    HW216656   5.457   5.447   1.182
 5253SOL     OW16657   5.969   3.108   4.471
 5253SOL    HW116658   5.968   3.157   4.558
 5253SOL    HW216659   5.893   3.043   4.469
 5254SOL     OW16660   5.465   0.443   5.170
 5254SOL    HW116661   5.412   0.372   5.217
 5254SOL    HW216662   5.524   0.401   5.102
 5255SOL     OW16663   1.941   5.540   2.221
 5255SOL    HW116664   1.855   5.542   2.171
 5255SOL    HW216665   1.953   5.450   2.263
 5256SOL     OW16666   4.756   5.993   2.002
 5256SOL    HW116667   4.786   5.921   2.065
 5256SOL    HW216668   4.692   6.054   2.049
 5257SOL     OW16669   2.315   1.424   2.083
 5257SOL    HW116670   2.268   1.481   2.016
 5257SOL    HW216671   2.247   1.373   2.136
 5258SOL     OW16672   5.356   2.274   1.671
 5258SOL    HW116673   5.332   2.187   1.714
 5258SOL    HW216674   5.354   2.263   1.572
 5259SOL     OW16675   5.712   5.080   0.836
 5259SOL    HW116676   5.740   5.121   0.750
 5259SOL    HW216677   5.787   5.024   0.872
 5260SOL     OW16678   5.168   3.323   1.865
 5260SOL    HW116679   5.101   3.251   1.843
 5260SOL    HW216680   5.203   3.309   1.957
 5261SOL     OW16681   2.333   2.801   4.936
 5261SOL    HW116682   2.372   2.874   4.992
 5261SOL    HW216683   2.401   2.730   4.920
 5262SOL     OW16684   1.221   0.620   2.195
 5262SOL    HW116685   1.302   0.603   2.140
 5262SOL    HW216686   1.167   0.694   2.154
 5263SOL     OW16687   1.484   6.544   6.371
 5263SOL    HW116688   1.478   6.449   6.340
 5263SOL    HW216689   1.575   6.562   6.407
 5264SOL     OW16690   1.292   0.872   0.936
 5264SOL    HW116691   1.254   0.780   0.926
 5264SOL    HW216692   1.249   0.934   0.871
 5265SOL     OW16693   4.982   5.244   3.846
 5265SOL    HW116694   5.004   5.341   3.862
 5265SOL    HW216695   5.067   5.194   3.826
 5266SOL     OW16696   0.705   6.709   1.145
 5266SOL    HW116697   0.742   6.712   1.053
 5266SOL    HW216698   0.728   6.794   1.193
 5267SOL     OW16699   3.525   3.574   4.592
 5267SOL    HW116700   3.539   3.582   4.691
 5267SOL    HW216701   3.612   3.555   4.548
 5268SOL     OW16702   5.826   4.426   6.566
 5268SOL    HW116703   5.744   4.392   6.611
 5268SOL    HW216704   5.843   4.520   6.595
 5269SOL     OW16705   2.691   5.199   5.345
 5269SOL    HW116706   2.698   5.101   5.363
 5269SOL    HW216707   2.653   5.246   5.425
 5270SOL     OW16708   0.139   1.196   2.979
 5270SOL    HW116709   0.154   1.262   3.053
 5270SOL    HW216710   0.160   1.104   3.011
 5271SOL     OW16711   5.869   3.709   4.792
 5271SOL    HW116712   5.852   3.736   4.886
 5271SOL    HW216713   5.874   3.790   4.734
 5272SOL     OW16714   2.312   2.495   3.584
 5272SOL    HW116715   2.328   2.591   3.605
 5272SOL    HW216716   2.254   2.488   3.502
 5273SOL     OW16717   0.159   1.306   5.362
 5273SOL    HW116718   0.174   1.212   5.393
 5273SOL    HW216719   0.111   1.304   5.274
 5274SOL     OW16720   0.446   5.006   4.803
 5274SOL    HW116721   0.398   4.926   4.840
 5274SOL    HW216722   0.545   4.990   4.806
 5275SOL     OW16723   2.192   6.489   6.509
 5275SOL    HW116724   2.221   6.545   6.431
 5275SOL    HW216725   2.178   6.395   6.479
 5276SOL     OW16726   6.918   1.155   6.688
 5276SOL    HW116727   6.823   1.185   6.676
 5276SOL    HW216728   6.957   1.200   6.767
 5277SOL     OW16729   0.977   0.545   1.240
 5277SOL    HW116730   1.035   0.576   1.165
 5277SOL    HW216731   1.000   0.450   1.262
 5278SOL     OW16732   0.105   4.878   6.899
 5278SOL    HW116733   0.109   4.809   6.826
 5278SOL    HW216734   0.154   4.845   6.979
 5279SOL     OW16735   2.615   6.438   0.139
 5279SOL    HW116736   2.602   6.428   0.040
 5279SOL    HW216737   2.641   6.533   0.160
 5280SOL     OW16738   4.387   6.212   6.078
 5280SOL    HW116739   4.401   6.113   6.083
 5280SOL    HW216740   4.313   6.238   6.139
 5281SOL     OW16741   2.027   6.343   4.484
 5281SOL    HW116742   2.024   6.353   4.385
 5281SOL    HW216743   2.081   6.262   4.508
 5282SOL     OW16744   6.595   6.081   1.267
 5282SOL    HW116745   6.568   6.176   1.252
 5282SOL    HW216746   6.526   6.020   1.229
 5283SOL     OW16747   1.572   0.288   4.157
 5283SOL    HW116748   1.567   0.188   4.159
 5283SOL    HW216749   1.530   0.325   4.240
 5284SOL     OW16750   4.850   3.422   1.890
 5284SOL    HW116751   4.863   3.343   1.831
 5284SOL    HW216752   4.938   3.466   1.908
 5285SOL     OW16753   2.329   1.490   4.037
 5285SOL    HW116754   2.320   1.451   4.129
 5285SOL    HW216755   2.374   1.579   4.042
 5286SOL     OW16756   0.498   2.605   1.880
 5286SOL    HW116757   0.404   2.638   1.885
 5286SOL    HW216758   0.546   2.628   1.965
 5287SOL     OW16759   0.174   5.586   2.030
 5287SOL    HW116760   0.103   5.644   1.990
 5287SOL    HW216761   0.146   5.558   2.122
 5288SOL     OW16762   4.216   0.804   1.846
 5288SOL    HW116763   4.133   0.786   1.794
 5288SOL    HW216764   4.238   0.723   1.902
 5289SOL     OW16765   1.407   5.526   6.707
 5289SOL    HW116766   1.457   5.463   6.647
 5289SOL    HW216767   1.363   5.473   6.781
 5290SOL     OW16768   1.965   2.228   5.434
 5290SOL    HW116769   2.005   2.182   5.514
 5290SOL    HW216770   2.036   2.238   5.363
 5291SOL     OW16771   2.715   6.573   4.517
 5291SOL    HW116772   2.711   6.545   4.613
 5291SOL    HW216773   2.795   6.632   4.503
 5292SOL     OW16774   0.920   3.991   4.148
 5292SOL    HW116775   0.891   3.939   4.227
 5292SOL    HW216776   1.019   4.002   4.149
 5293SOL     OW16777   2.442   0.656   3.580
 5293SOL    HW116778   2.422   0.674   3.484
 5293SOL    HW216779   2.357   0.654   3.632
 5294SOL     OW16780   5.101   0.186   4.267
 5294SOL    HW116781   5.167   0.116   4.240
 5294SOL    HW216782   5.008   0.150   4.256
 5295SOL     OW16783   2.154   0.239   1.045
 5295SOL    HW116784   2.137   0.184   0.963
 5295SOL    HW216785   2.252   0.248   1.061
 5296SOL     OW16786   4.633   5.008   1.920
 5296SOL    HW116787   4.645   5.101   1.886
 5296SOL    HW216788   4.689   4.945   1.866
 5297SOL     OW16789   3.985   5.077   5.580
 5297SOL    HW116790   4.024   5.158   5.536
 5297SOL    HW216791   3.885   5.088   5.585
 5298SOL     OW16792   3.384   0.978   6.667
 5298SOL    HW116793   3.481   0.997   6.679
 5298SOL    HW216794   3.362   0.890   6.710
 5299SOL     OW16795   1.444   0.021   1.220
 5299SOL    HW116796   1.356   0.030   1.267
 5299SOL    HW216797   1.518   0.021   1.287
 5300SOL     OW16798   2.855   4.856   6.387
 5300SOL    HW116799   2.770   4.819   6.349
 5300SOL    HW216800   2.868   4.950   6.355
 5301SOL     OW16801   6.053   0.339   5.802
 5301SOL    HW116802   6.097   0.299   5.882
 5301SOL    HW216803   6.070   0.438   5.800
 5302SOL     OW16804   4.682   5.644   3.353
 5302SOL    HW116805   4.601   5.668   3.299
 5302SOL    HW216806   4.745   5.721   3.355
 5303SOL     OW16807   1.632   5.909   5.098
 5303SOL    HW116808   1.559   5.969   5.133
 5303SOL    HW216809   1.627   5.906   4.998
 5304SOL     OW16810   0.266   0.189   3.141
 5304SOL    HW116811   0.207   0.167   3.063
 5304SOL    HW216812   0.254   0.120   3.213
 5305SOL     OW16813   6.150   5.480   4.790
 5305SOL    HW116814   6.133   5.412   4.862
 5305SOL    HW216815   6.117   5.445   4.703
 5306SOL     OW16816   1.117   1.802   6.785
 5306SOL    HW116817   1.079   1.791   6.877
 5306SOL    HW216818   1.146   1.897   6.773
 5307SOL     OW16819   1.234   1.078   1.618
 5307SOL    HW116820   1.142   1.081   1.580
 5307SOL    HW216821   1.231   1.102   1.715
 5308SOL     OW16822   1.972   4.374   3.317
 5308SOL    HW116823   1.883   4.329   3.311
 5308SOL    HW216824   2.018   4.346   3.402
 5309SOL     OW16825   6.155   6.077   2.741
 5309SOL    HW116826   6.055   6.072   2.730
 5309SOL    HW216827   6.199   6.025   2.668
 5310SOL     OW16828   6.199   1.909   3.849
 5310SOL    HW116829   6.164   1.942   3.761
 5310SOL    HW216830   6.140   1.834   3.882
 5311SOL     OW16831   6.056   0.410   0.095
 5311SOL    HW116832   6.115   0.367   0.164
 5311SOL    HW216833   5.979   0.454   0.141
 5312SOL     OW16834   5.157   6.602   1.015
 5312SOL    HW116835   5.211   6.627   0.935
 5312SOL    HW216836   5.140   6.683   1.071
 5313SOL     OW16837   0.791   6.575   5.731
 5313SOL    HW116838   0.726   6.521   5.678
 5313SOL    HW216839   0.772   6.564   5.829
 5314SOL     OW16840   5.623   1.834   2.599
 5314SOL    HW116841   5.702   1.774   2.593
 5314SOL    HW216842   5.607   1.877   2.510
 5315SOL     OW16843   4.139   1.676   3.878
 5315SOL    HW116844   4.228   1.646   3.843
 5315SOL    HW216845   4.073   1.602   3.868
 5316SOL     OW16846   0.247   2.866   5.465
 5316SOL    HW116847   0.291   2.783   5.430
 5316SOL    HW216848   0.306   2.945   5.450
 5317SOL     OW16849   5.512   2.880   1.868
 5317SOL    HW116850   5.421   2.900   1.831
 5317SOL    HW216851   5.572   2.849   1.794
 5318SOL     OW16852   6.779   4.712   6.557
 5318SOL    HW116853   6.863   4.658   6.569
 5318SOL    HW216854   6.775   4.783   6.627
 5319SOL     OW16855   4.111   5.568   2.389
 5319SOL    HW116856   4.137   5.573   2.293
 5319SOL    HW216857   4.133   5.477   2.425
 5320SOL     OW16858   4.630   5.935   0.403
 5320SOL    HW116859   4.682   5.851   0.384
 5320SOL    HW216860   4.568   5.955   0.327
 5321SOL     OW16861   1.531   4.057   5.581
 5321SOL    HW116862   1.621   4.054   5.624
 5321SOL    HW216863   1.537   4.023   5.487
 5322SOL     OW16864   4.284   5.644   1.739
 5322SOL    HW116865   4.288   5.668   1.836
 5322SOL    HW216866   4.349   5.700   1.688
 5323SOL     OW16867   4.162   6.988   6.348
 5323SOL    HW116868   4.137   6.920   6.279
 5323SOL    HW216869   4.079   0.000   6.389
 5324SOL     OW16870   0.920   1.050   1.979
 5324SOL    HW116871   0.835   1.037   1.928
 5324SOL    HW216872   0.905   1.118   2.051
 5325SOL     OW16873   2.005   3.126   4.321
 5325SOL    HW116874   2.020   3.196   4.251
 5325SOL    HW216875   2.058   3.148   4.403
 5326SOL     OW16876   6.089   0.433   0.933
 5326SOL    HW116877   6.024   0.418   1.008
 5326SOL    HW216878   6.140   0.349   0.916
 5327SOL     OW16879   0.294   2.017   6.478
 5327SOL    HW116880   0.230   2.012   6.402
 5327SOL    HW216881   0.270   2.094   6.537
 5328SOL     OW16882   3.928   4.984   0.469
 5328SOL    HW116883   3.934   4.891   0.506
 5328SOL    HW216884   3.839   5.023   0.494
 5329SOL     OW16885   2.399   5.922   6.291
 5329SOL    HW116886   2.425   6.018   6.281
 5329SOL    HW216887   2.472   5.863   6.256
 5330SOL     OW16888   2.352   5.087   0.576
 5330SOL    HW116889   2.443   5.128   0.587
 5330SOL    HW216890   2.361   4.988   0.564
 5331SOL     OW16891   6.148   1.626   6.819
 5331SOL    HW116892   6.194   1.673   6.894
 5331SOL    HW216893   6.101   1.693   6.762
 5332SOL     OW16894   1.047   5.000   2.612
 5332SOL    HW116895   1.119   5.040   2.668
 5332SOL    HW216896   0.997   4.931   2.664
 5333SOL     OW16897   0.743   6.113   4.373
 5333SOL    HW116898   0.768   6.204   4.408
 5333SOL    HW216899   0.692   6.063   4.443
 5334SOL     OW16900   3.190   6.686   5.096
 5334SOL    HW116901   3.097   6.711   5.122
 5334SOL    HW216902   3.234   6.637   5.171
 5335SOL     OW16903   5.776   6.747   0.663
 5335SOL    HW116904   5.817   6.684   0.729
 5335SOL    HW216905   5.694   6.788   0.703
 5336SOL     OW16906   1.185   3.560   1.663
 5336SOL    HW116907   1.182   3.462   1.643
 5336SOL    HW216908   1.270   3.599   1.626
 5337SOL     OW16909   5.595   4.793   1.593
 5337SOL    HW116910   5.578   4.845   1.677
 5337SOL    HW216911   5.655   4.846   1.533
 5338SOL     OW16912   5.728   2.757   0.945
 5338SOL    HW116913   5.648   2.813   0.967
 5338SOL    HW216914   5.697   2.663   0.926
 5339SOL     OW16915   6.206   0.833   2.120
 5339SOL    HW116916   6.152   0.909   2.157
 5339SOL    HW216917   6.170   0.747   2.155
 5340SOL     OW16918   5.273   2.265   6.975
 5340SOL    HW116919   5.341   2.227   0.011
 5340SOL    HW216920   5.269   2.364   6.987
 5341SOL     OW16921   4.018   0.673   1.376
 5341SOL    HW116922   4.110   0.641   1.400
 5341SOL    HW216923   4.019   0.705   1.281
 5342SOL     OW16924   1.825   0.371   5.669
 5342SOL    HW116925   1.893   0.343   5.601
 5342SOL    HW216926   1.736   0.332   5.646
 5343SOL     OW16927   3.177   4.103   1.331
 5343SOL    HW116928   3.275   4.122   1.324
 5343SOL    HW216929   3.156   4.018   1.282
 5344SOL     OW16930   1.638   2.758   2.851
 5344SOL    HW116931   1.595   2.846   2.870
 5344SOL    HW216932   1.733   2.760   2.882
 5345SOL     OW16933   5.002   0.563   2.982
 5345SOL    HW116934   5.085   0.594   3.027
 5345SOL    HW216935   5.006   0.464   2.970
 5346SOL     OW16936   3.584   0.810   4.219
 5346SOL    HW116937   3.527   0.879   4.263
 5346SOL    HW216938   3.673   0.850   4.196
 5347SOL     OW16939   6.889   1.431   2.235
 5347SOL    HW116940   6.974   1.388   2.204
 5347SOL    HW216941   6.906   1.527   2.256
 5348SOL     OW16942   6.395   1.858   0.496
 5348SOL    HW116943   6.422   1.866   0.592
 5348SOL    HW216944   6.431   1.935   0.444
 5349SOL     OW16945   4.891   0.738   0.522
 5349SOL    HW116946   4.973   0.735   0.465
 5349SOL    HW216947   4.813   0.765   0.465
 5350SOL     OW16948   2.790   0.584   6.995
 5350SOL    HW116949   2.842   0.664   7.025
 5350SOL    HW216950   2.692   0.606   6.996
 5351SOL     OW16951   4.549   1.317   2.216
 5351SOL    HW116952   4.480   1.339   2.285
 5351SOL    HW216953   4.514   1.340   2.125
 5352SOL     OW16954   4.090   0.967   4.064
 5352SOL    HW116955   4.009   0.920   4.028
 5352SOL    HW216956   4.158   0.975   3.991
 5353SOL     OW16957   6.472   0.450   6.182
 5353SOL    HW116958   6.437   0.357   6.166
 5353SOL    HW216959   6.396   0.514   6.186
 5354SOL     OW16960   0.668   2.605   1.611
 5354SOL    HW116961   0.573   2.582   1.634
 5354SOL    HW216962   0.706   2.533   1.553
 5355SOL     OW16963   4.639   1.299   5.366
 5355SOL    HW116964   4.611   1.348   5.283
 5355SOL    HW216965   4.559   1.258   5.410
 5356SOL     OW16966   6.401   3.976   1.812
 5356SOL    HW116967   6.454   4.060   1.828
 5356SOL    HW216968   6.449   3.919   1.745
 5357SOL     OW16969   4.404   5.715   7.022
 5357SOL    HW116970   4.450   5.701   6.934
 5357SOL    HW216971   4.307   5.693   7.013
 5358SOL     OW16972   5.467   4.292   1.623
 5358SOL    HW116973   5.415   4.227   1.568
 5358SOL    HW216974   5.479   4.377   1.571
 5359SOL     OW16975   3.103   0.471   5.839
 5359SOL    HW116976   3.036   0.521   5.785
 5359SOL    HW216977   3.057   0.418   5.910
 5360SOL     OW16978   4.326   2.432   0.274
 5360SOL    HW116979   4.324   2.527   0.242
 5360SOL    HW216980   4.380   2.426   0.358
 5361SOL     OW16981   0.600   1.246   6.891
 5361SOL    HW116982   0.585   1.316   6.821
 5361SOL    HW216983   0.515   1.195   6.906
 5362SOL     OW16984   4.325   6.143   3.987
 5362SOL    HW116985   4.300   6.199   3.908
 5362SOL    HW216986   4.349   6.051   3.956
 5363SOL     OW16987   0.452   5.829   4.459
 5363SOL    HW116988   0.464   5.746   4.406
 5363SOL    HW216989   0.359   5.831   4.496
 5364SOL     OW16990   1.003   5.585   6.833
 5364SOL    HW116991   0.914   5.622   6.807
 5364SOL    HW216992   1.032   5.516   6.766
 5365SOL     OW16993   4.534   2.624   6.191
 5365SOL    HW116994   4.520   2.526   6.174
 5365SOL    HW216995   4.611   2.637   6.253
 5366SOL     OW16996   4.150   3.922   5.726
 5366SOL    HW116997   4.094   3.880   5.798
 5366SOL    HW216998   4.103   4.003   5.691
 5367SOL     OW16999   0.596   3.693   1.322
 5367SOL    HW117000   0.588   3.650   1.232
 5367SOL    HW217001   0.532   3.770   1.328
 5368SOL     OW17002   0.453   6.794   3.528
 5368SOL    HW117003   0.454   6.893   3.544
 5368SOL    HW217004   0.380   6.772   3.462
 5369SOL     OW17005   1.815   3.512   2.424
 5369SOL    HW117006   1.732   3.519   2.369
 5369SOL    HW217007   1.838   3.601   2.462
 5370SOL     OW17008   3.746   2.778   1.876
 5370SOL    HW117009   3.766   2.875   1.860
 5370SOL    HW217010   3.772   2.754   1.970
 5371SOL     OW17011   2.283   4.328   4.990
 5371SOL    HW117012   2.217   4.360   5.059
 5371SOL    HW217013   2.305   4.232   5.007
 5372SOL     OW17014   3.690   6.187   2.383
 5372SOL    HW117015   3.644   6.276   2.388
 5372SOL    HW217016   3.731   6.175   2.292
 5373SOL     OW17017   3.070   5.048   3.899
 5373SOL    HW117018   3.089   5.143   3.926
 5373SOL    HW217019   3.145   5.014   3.843
 5374SOL     OW17020   3.197   2.491   0.903
 5374SOL    HW117021   3.263   2.564   0.922
 5374SOL    HW217022   3.141   2.475   0.984
 5375SOL     OW17023   1.707   4.413   4.471
 5375SOL    HW117024   1.721   4.330   4.526
 5375SOL    HW217025   1.666   4.388   4.384
 5376SOL     OW17026   3.013   4.711   5.959
 5376SOL    HW117027   2.971   4.623   5.939
 5376SOL    HW217028   3.076   4.702   6.037
 5377SOL     OW17029   1.381   2.135   1.578
 5377SOL    HW117030   1.377   2.234   1.594
 5377SOL    HW217031   1.409   2.089   1.662
 5378SOL     OW17032   5.244   6.894   6.707
 5378SOL    HW117033   5.208   6.840   6.784
 5378SOL    HW217034   5.319   6.845   6.664
 5379SOL     OW17035   0.086   0.414   6.989
 5379SOL    HW117036   0.070   0.489   0.027
 5379SOL    HW217037   0.129   0.338   0.011
 5380SOL     OW17038   2.057   1.641   4.972
 5380SOL    HW117039   2.060   1.736   4.941
 5380SOL    HW217040   1.979   1.629   5.034
 5381SOL     OW17041   5.861   3.708   2.039
 5381SOL    HW117042   5.808   3.729   2.121
 5381SOL    HW217043   5.956   3.690   2.064
 5382SOL     OW17044   1.720   6.455   1.218
 5382SOL    HW117045   1.664   6.534   1.243
 5382SOL    HW217046   1.808   6.461   1.266
 5383SOL     OW17047   2.656   2.052   4.903
 5383SOL    HW117048   2.557   2.066   4.903
 5383SOL    HW217049   2.702   2.140   4.902
 5384SOL     OW17050   5.385   6.403   4.951
 5384SOL    HW117051   5.298   6.363   4.925
 5384SOL    HW217052   5.457   6.371   4.889
 5385SOL     OW17053   3.352   3.916   2.237
 5385SOL    HW117054   3.269   3.896   2.184
 5385SOL    HW217055   3.331   3.914   2.334
 5386SOL     OW17056   5.892   6.265   5.495
 5386SOL    HW117057   5.986   6.287   5.470
 5386SOL    HW217058   5.849   6.345   5.537
 5387SOL     OW17059   4.132   5.139   0.543
 5387SOL    HW117060   4.065   5.067   0.529
 5387SOL    HW217061   4.203   5.133   0.473
 5388SOL     OW17062   6.128   5.842   3.110
 5388SOL    HW117063   6.168   5.827   3.200
 5388SOL    HW217064   6.179   5.913   3.062
 5389SOL     OW17065   5.866   3.170   1.403
 5389SOL    HW117066   5.780   3.143   1.358
 5389SOL    HW217067   5.924   3.089   1.414
 5390SOL     OW17068   6.644   4.668   6.900
 5390SOL    HW117069   6.567   4.670   6.836
 5390SOL    HW217070   6.707   4.594   6.875
 5391SOL     OW17071   3.370   5.033   6.953
 5391SOL    HW117072   3.389   4.935   6.962
 5391SOL    HW217073   3.329   5.051   6.864
 5392SOL     OW17074   0.735   2.566   3.160
 5392SOL    HW117075   0.812   2.571   3.224
 5392SOL    HW217076   0.743   2.641   3.093
 5393SOL     OW17077   6.480   0.786   6.472
 5393SOL    HW117078   6.428   0.799   6.387
 5393SOL    HW217079   6.419   0.758   6.545
 5394SOL     OW17080   2.517   3.479   6.305
 5394SOL    HW117081   2.603   3.525   6.330
 5394SOL    HW217082   2.505   3.399   6.363
 5395SOL     OW17083   4.905   0.482   1.676
 5395SOL    HW117084   4.909   0.488   1.576
 5395SOL    HW217085   4.996   0.461   1.712
 5396SOL     OW17086   4.612   2.296   0.826
 5396SOL    HW117087   4.622   2.205   0.787
 5396SOL    HW217088   4.520   2.306   0.864
 5397SOL     OW17089   1.533   2.384   2.102
 5397SOL    HW117090   1.445   2.338   2.111
 5397SOL    HW217091   1.586   2.374   2.186
 5398SOL     OW17092   3.020   3.751   2.476
 5398SOL    HW117093   3.063   3.670   2.514
 5398SOL    HW217094   3.031   3.752   2.377
 5399SOL     OW17095   0.594   4.673   0.333
 5399SOL    HW117096   0.539   4.696   0.253
 5399SOL    HW217097   0.677   4.729   0.335
 5400SOL     OW17098   2.537   3.781   0.136
 5400SOL    HW117099   2.523   3.692   0.179
 5400SOL    HW217100   2.561   3.768   0.040
 5401SOL     OW17101   5.973   1.835   1.206
 5401SOL    HW117102   5.944   1.777   1.282
 5401SOL    HW217103   5.909   1.827   1.130
 5402SOL     OW17104   0.706   6.075   2.002
 5402SOL    HW117105   0.660   6.119   2.079
 5402SOL    HW217106   0.639   6.035   1.941
 5403SOL     OW17107   0.764   2.193   6.290
 5403SOL    HW117108   0.684   2.134   6.297
 5403SOL    HW217109   0.816   2.190   6.376
 5404SOL     OW17110   0.380   2.726   2.885
 5404SOL    HW117111   0.411   2.656   2.820
 5404SOL    HW217112   0.459   2.763   2.934
 5405SOL     OW17113   6.386   4.200   5.036
 5405SOL    HW117114   6.304   4.242   4.996
 5405SOL    HW217115   6.395   4.107   5.001
 5406SOL     OW17116   2.107   7.017   3.013
 5406SOL    HW117117   2.122   6.975   2.923
 5406SOL    HW217118   2.161   0.076   3.019
 5407SOL     OW17119   4.155   2.736   6.642
 5407SOL    HW117120   4.081   2.778   6.695
 5407SOL    HW217121   4.179   2.794   6.565
 5408SOL     OW17122   4.390   1.253   6.770
 5408SOL    HW117123   4.425   1.283   6.858
 5408SOL    HW217124   4.292   1.235   6.777
 5409SOL     OW17125   4.705   0.628   1.824
 5409SOL    HW117126   4.784   0.592   1.775
 5409SOL    HW217127   4.636   0.660   1.759
 5410SOL     OW17128   1.806   2.639   2.465
 5410SOL    HW117129   1.755   2.711   2.417
 5410SOL    HW217130   1.903   2.664   2.469
 5411SOL     OW17131   3.030   4.961   5.269
 5411SOL    HW117132   3.004   4.885   5.329
 5411SOL    HW217133   3.060   4.926   5.181
 5412SOL     OW17134   0.065   1.745   2.549
 5412SOL    HW117135   0.136   1.710   2.610
 5412SOL    HW217136   7.024   1.798   2.603
 5413SOL     OW17137   1.373   6.774   2.239
 5413SOL    HW117138   1.380   6.748   2.336
 5413SOL    HW217139   1.464   6.773   2.198
 5414SOL     OW17140   4.463   6.784   6.370
 5414SOL    HW117141   4.442   6.711   6.304
 5414SOL    HW217142   4.382   6.842   6.382
 5415SOL     OW17143   6.106   3.694   3.072
 5415SOL    HW117144   6.137   3.612   3.024
 5415SOL    HW217145   6.128   3.775   3.017
 5416SOL     OW17146   4.393   5.002   4.582
 5416SOL    HW117147   4.375   5.099   4.569
 5416SOL    HW217148   4.307   4.954   4.599
 5417SOL     OW17149   2.718   6.957   5.858
 5417SOL    HW117150   2.708   6.953   5.759
 5417SOL    HW217151   2.645   6.903   5.901
 5418SOL     OW17152   3.426   1.541   3.596
 5418SOL    HW117153   3.479   1.584   3.523
 5418SOL    HW217154   3.354   1.604   3.626
 5419SOL     OW17155   3.007   4.190   0.074
 5419SOL    HW117156   2.954   4.165   0.155
 5419SOL    HW217157   2.964   4.269   0.030
 5420SOL     OW17158   1.543   2.308   2.760
 5420SOL    HW117159   1.616   2.369   2.732
 5420SOL    HW217160   1.505   2.262   2.679
 5421SOL     OW17161   2.546   3.130   0.641
 5421SOL    HW117162   2.526   3.068   0.565
 5421SOL    HW217163   2.642   3.154   0.640
 5422SOL     OW17164   0.562   3.232   0.311
 5422SOL    HW117165   0.471   3.263   0.341
 5422SOL    HW217166   0.578   3.140   0.345
 5423SOL     OW17167   4.173   3.750   5.473
 5423SOL    HW117168   4.153   3.795   5.560
 5423SOL    HW217169   4.195   3.654   5.490
 5424SOL     OW17170   5.684   3.370   5.370
 5424SOL    HW117171   5.689   3.329   5.461
 5424SOL    HW217172   5.646   3.462   5.377
 5425SOL     OW17173   5.371   1.295   4.854
 5425SOL    HW117174   5.454   1.281   4.801
 5425SOL    HW217175   5.381   1.378   4.910
 5426SOL     OW17176   0.169   0.524   4.356
 5426SOL    HW117177   0.097   0.593   4.349
 5426SOL    HW217178   0.142   0.442   4.306
 5427SOL     OW17179   4.140   6.524   0.438
 5427SOL    HW117180   4.096   6.575   0.365
 5427SOL    HW217181   4.161   6.585   0.514
 5428SOL     OW17182   1.762   7.011   0.434
 5428SOL    HW117183   1.751   6.912   0.447
 5428SOL    HW217184   1.673   0.028   0.421
 5429SOL     OW17185   1.154   2.303   5.984
 5429SOL    HW117186   1.099   2.241   6.040
 5429SOL    HW217187   1.238   2.326   6.032
 5430SOL     OW17188   2.383   2.328   5.122
 5430SOL    HW117189   2.420   2.407   5.075
 5430SOL    HW217190   2.457   2.275   5.163
 5431SOL     OW17191   3.162   5.300   3.997
 5431SOL    HW117192   3.137   5.290   4.093
 5431SOL    HW217193   3.262   5.293   3.988
 5432SOL     OW17194   6.246   4.078   0.724
 5432SOL    HW117195   6.333   4.126   0.716
 5432SOL    HW217196   6.262   3.985   0.757
 5433SOL     OW17197   1.765   1.760   3.350
 5433SOL    HW117198   1.769   1.681   3.289
 5433SOL    HW217199   1.847   1.762   3.407
 5434SOL     OW17200   2.232   6.362   4.796
 5434SOL    HW117201   2.256   6.459   4.798
 5434SOL    HW217202   2.280   6.315   4.871
 5435SOL     OW17203   4.522   2.183   1.980
 5435SOL    HW117204   4.446   2.208   2.040
 5435SOL    HW217205   4.490   2.179   1.886
 5436SOL     OW17206   5.233   4.274   3.497
 5436SOL    HW117207   5.165   4.204   3.475
 5436SOL    HW217208   5.200   4.363   3.466
 5437SOL     OW17209   3.215   5.218   5.967
 5437SOL    HW117210   3.148   5.158   6.011
 5437SOL    HW217211   3.303   5.171   5.960
 5438SOL     OW17212   6.472   1.198   0.260
 5438SOL    HW117213   6.410   1.221   0.336
 5438SOL    HW217214   6.492   1.281   0.207
 5439SOL     OW17215   1.431   2.084   0.781
 5439SOL    HW117216   1.416   2.182   0.797
 5439SOL    HW217217   1.440   2.067   0.683
 5440SOL     OW17218   1.962   0.433   1.134
 5440SOL    HW117219   2.014   0.351   1.109
 5440SOL    HW217220   1.865   0.415   1.123
 5441SOL     OW17221   3.489   1.905   5.488
 5441SOL    HW117222   3.435   1.953   5.419
 5441SOL    HW217223   3.565   1.963   5.518
 5442SOL     OW17224   3.983   1.201   1.682
 5442SOL    HW117225   4.053   1.269   1.659
 5442SOL    HW217226   3.933   1.176   1.599
 5443SOL     OW17227   0.855   5.755   5.499
 5443SOL    HW117228   0.894   5.676   5.546
 5443SOL    HW217229   0.929   5.809   5.458
 5444SOL     OW17230   0.213   0.782   3.482
 5444SOL    HW117231   0.276   0.769   3.405
 5444SOL    HW217232   0.207   0.880   3.503
 5445SOL     OW17233   5.444   3.277   2.033
 5445SOL    HW117234   5.431   3.366   2.077
 5445SOL    HW217235   5.502   3.220   2.091
 5446SOL     OW17236   6.493   0.131   5.897
 5446SOL    HW117237   6.457   0.038   5.893
 5446SOL    HW217238   6.521   0.159   5.805
 5447SOL     OW17239   3.367   2.730   1.101
 5447SOL    HW117240   3.295   2.662   1.111
 5447SOL    HW217241   3.382   2.775   1.189
 5448SOL     OW17242   5.086   1.761   6.490
 5448SOL    HW117243   5.146   1.841   6.498
 5448SOL    HW217244   5.021   1.776   6.416
 5449SOL     OW17245   0.004   2.939   6.923
 5449SOL    HW117246   0.008   2.860   6.862
 5449SOL    HW217247   0.088   2.944   6.977
 5450SOL     OW17248   1.825   5.668   0.731
 5450SOL    HW117249   1.768   5.714   0.662
 5450SOL    HW217250   1.768   5.637   0.806
 5451SOL     OW17251   2.555   0.058   2.390
 5451SOL    HW117252   2.461   0.029   2.369
 5451SOL    HW217253   2.612   0.049   2.308
 5452SOL     OW17254   2.593   3.857   6.159
 5452SOL    HW117255   2.603   3.855   6.059
 5452SOL    HW217256   2.684   3.859   6.202
 5453SOL     OW17257   0.233   5.470   5.508
 5453SOL    HW117258   0.289   5.551   5.493
 5453SOL    HW217259   0.218   5.457   5.606
 5454SOL     OW17260   1.406   3.799   5.883
 5454SOL    HW117261   1.354   3.749   5.813
 5454SOL    HW217262   1.402   3.749   5.970
 5455SOL     OW17263   5.922   1.676   1.423
 5455SOL    HW117264   5.895   1.580   1.427
 5455SOL    HW217265   6.017   1.685   1.454
 5456SOL     OW17266   3.916   0.283   1.446
 5456SOL    HW117267   3.844   0.352   1.459
 5456SOL    HW217268   3.894   0.202   1.499
 5457SOL     OW17269   6.398   3.149   1.490
 5457SOL    HW117270   6.387   3.195   1.578
 5457SOL    HW217271   6.495   3.141   1.468
 5458SOL     OW17272   1.613   4.404   5.658
 5458SOL    HW117273   1.543   4.356   5.710
 5458SOL    HW217274   1.685   4.435   5.720
 5459SOL     OW17275   1.929   4.620   6.001
 5459SOL    HW117276   2.004   4.649   5.940
 5459SOL    HW217277   1.922   4.683   6.078
 5460SOL     OW17278   4.393   0.648   4.567
 5460SOL    HW117279   4.447   0.568   4.540
 5460SOL    HW217280   4.297   0.633   4.541
 5461SOL     OW17281   3.927   6.394   4.803
 5461SOL    HW117282   4.010   6.419   4.752
 5461SOL    HW217283   3.884   6.476   4.840
 5462SOL     OW17284   0.097   1.100   2.151
 5462SOL    HW117285   0.004   1.066   2.162
 5462SOL    HW217286   0.102   1.194   2.185
 5463SOL     OW17287   6.665   3.140   1.368
 5463SOL    HW117288   6.669   3.196   1.451
 5463SOL    HW217289   6.755   3.138   1.325
 5464SOL     OW17290   1.446   6.387   4.381
 5464SOL    HW117291   1.455   6.483   4.354
 5464SOL    HW217292   1.537   6.348   4.395
 5465SOL     OW17293   2.722   6.141   6.024
 5465SOL    HW117294   2.807   6.130   5.973
 5465SOL    HW217295   2.718   6.233   6.064
 5466SOL     OW17296   4.404   6.296   3.559
 5466SOL    HW117297   4.370   6.270   3.649
 5466SOL    HW217298   4.453   6.382   3.565
 5467SOL     OW17299   6.409   1.376   1.737
 5467SOL    HW117300   6.332   1.366   1.800
 5467SOL    HW217301   6.444   1.470   1.743
 5468SOL     OW17302   4.466   1.583   6.228
 5468SOL    HW117303   4.524   1.550   6.303
 5468SOL    HW217304   4.419   1.666   6.257
 5469SOL     OW17305   4.887   4.513   1.130
 5469SOL    HW117306   4.909   4.467   1.216
 5469SOL    HW217307   4.956   4.491   1.061
 5470SOL     OW17308   0.541   4.756   3.110
 5470SOL    HW117309   0.507   4.722   3.198
 5470SOL    HW217310   0.534   4.682   3.042
 5471SOL     OW17311   6.350   3.118   2.715
 5471SOL    HW117312   6.295   3.074   2.786
 5471SOL    HW217313   6.314   3.209   2.697
 5472SOL     OW17314   3.480   5.324   5.142
 5472SOL    HW117315   3.512   5.380   5.065
 5472SOL    HW217316   3.499   5.228   5.123
 5473SOL     OW17317   2.663   4.602   3.612
 5473SOL    HW117318   2.572   4.560   3.604
 5473SOL    HW217319   2.701   4.582   3.702
 5474SOL     OW17320   1.468   6.257   3.086
 5474SOL    HW117321   1.389   6.194   3.085
 5474SOL    HW217322   1.472   6.304   3.173
 5475SOL     OW17323   3.233   1.773   2.172
 5475SOL    HW117324   3.329   1.781   2.144
 5475SOL    HW217325   3.178   1.745   2.093
 5476SOL     OW17326   2.051   3.199   6.863
 5476SOL    HW117327   2.056   3.250   6.778
 5476SOL    HW217328   2.132   3.141   6.872
 5477SOL     OW17329   2.159   2.226   2.451
 5477SOL    HW117330   2.157   2.318   2.491
 5477SOL    HW217331   2.214   2.227   2.368
 5478SOL     OW17332   0.404   5.324   4.820
 5478SOL    HW117333   0.406   5.227   4.797
 5478SOL    HW217334   0.337   5.340   4.893
 5479SOL     OW17335   4.124   6.751   4.853
 5479SOL    HW117336   4.156   6.818   4.920
 5479SOL    HW217337   4.155   6.660   4.880
 5480SOL     OW17338   0.098   2.053   5.954
 5480SOL    HW117339   0.015   2.108   5.945
 5480SOL    HW217340   0.178   2.112   5.945
 5481SOL     OW17341   4.693   6.601   2.816
 5481SOL    HW117342   4.624   6.528   2.821
 5481SOL    HW217343   4.673   6.660   2.737
 5482SOL     OW17344   1.475   6.269   1.714
 5482SOL    HW117345   1.432   6.240   1.799
 5482SOL    HW217346   1.547   6.335   1.734
 5483SOL     OW17347   1.153   2.656   6.417
 5483SOL    HW117348   1.248   2.632   6.439
 5483SOL    HW217349   1.139   2.647   6.318
 5484SOL     OW17350   5.200   6.226   5.135
 5484SOL    HW117351   5.278   6.288   5.146
 5484SOL    HW217352   5.137   6.237   5.212
 5485SOL     OW17353   3.963   0.287   4.496
 5485SOL    HW117354   3.907   0.350   4.443
 5485SOL    HW217355   3.966   0.317   4.591
 5486SOL     OW17356   2.906   5.574   3.900
 5486SOL    HW117357   2.830   5.516   3.871
 5486SOL    HW217358   2.892   5.602   3.995
 5487SOL     OW17359   3.840   6.003   5.262
 5487SOL    HW117360   3.775   6.079   5.262
 5487SOL    HW217361   3.862   5.977   5.168
 5488SOL     OW17362   4.700   2.184   6.253
 5488SOL    HW117363   4.691   2.088   6.229
 5488SOL    HW217364   4.794   2.215   6.235
 5489SOL     OW17365   6.918   2.594   4.139
 5489SOL    HW117366   6.999   2.536   4.139
 5489SOL    HW217367   6.922   2.656   4.061
 5490SOL     OW17368   0.644   4.967   1.544
 5490SOL    HW117369   0.573   5.035   1.565
 5490SOL    HW217370   0.610   4.904   1.475
 5491SOL     OW17371   0.401   4.000   0.807
 5491SOL    HW117372   0.438   4.044   0.725
 5491SOL    HW217373   0.329   4.058   0.846
 5492SOL     OW17374   0.933   1.649   0.054
 5492SOL    HW117375   0.989   1.731   0.062
 5492SOL    HW217376   0.893   1.645   6.988
 5493SOL     OW17377   4.596   3.912   5.441
 5493SOL    HW117378   4.636   3.936   5.530
 5493SOL    HW217379   4.650   3.838   5.399
 5494SOL     OW17380   6.046   2.005   4.997
 5494SOL    HW117381   6.086   1.990   5.087
 5494SOL    HW217382   5.984   2.084   5.000
 5495SOL     OW17383   5.299   1.385   0.226
 5495SOL    HW117384   5.338   1.476   0.244
 5495SOL    HW217385   5.202   1.395   0.204
 5496SOL     OW17386   4.173   6.315   6.232
 5496SOL    HW117387   4.120   6.244   6.277
 5496SOL    HW217388   4.128   6.340   6.146
 5497SOL     OW17389   0.719   0.669   5.551
 5497SOL    HW117390   0.739   0.659   5.649
 5497SOL    HW217391   0.620   0.680   5.539
 5498SOL     OW17392   6.998   5.705   1.895
 5498SOL    HW117393   6.930   5.708   1.968
 5498SOL    HW217394   6.959   5.744   1.812
 5499SOL     OW17395   2.362   0.102   3.266
 5499SOL    HW117396   2.356   0.182   3.325
 5499SOL    HW217397   2.314   0.025   3.309
 5500SOL     OW17398   0.322   6.384   1.677
 5500SOL    HW117399   0.409   6.339   1.693
 5500SOL    HW217400   0.337   6.481   1.661
 5501SOL     OW17401   4.930   3.515   1.096
 5501SOL    HW117402   4.900   3.424   1.125
 5501SOL    HW217403   4.925   3.522   0.996
 5502SOL     OW17404   4.550   3.527   0.413
 5502SOL    HW117405   4.575   3.434   0.441
 5502SOL    HW217406   4.492   3.568   0.483
 5503SOL     OW17407   6.133   2.577   1.600
 5503SOL    HW117408   6.216   2.628   1.619
 5503SOL    HW217409   6.054   2.629   1.631
 5504SOL     OW17410   3.708   2.251   0.251
 5504SOL    HW117411   3.782   2.184   0.249
 5504SOL    HW217412   3.744   2.339   0.282
 5505SOL     OW17413   2.829   5.639   3.230
 5505SOL    HW117414   2.917   5.595   3.251
 5505SOL    HW217415   2.828   5.668   3.135
 5506SOL     OW17416   6.854   2.939   0.102
 5506SOL    HW117417   6.869   3.018   0.042
 5506SOL    HW217418   6.909   2.862   0.071
 5507SOL     OW17419   4.233   6.293   6.796
 5507SOL    HW117420   4.143   6.320   6.763
 5507SOL    HW217421   4.289   6.374   6.812
 5508SOL     OW17422   6.665   3.096   5.925
 5508SOL    HW117423   6.616   3.067   5.843
 5508SOL    HW217424   6.697   3.015   5.975
 5509SOL     OW17425   6.060   4.225   0.564
 5509SOL    HW117426   6.097   4.315   0.542
 5509SOL    HW217427   6.130   4.171   0.611
 5510SOL     OW17428   4.891   6.259   6.845
 5510SOL    HW117429   4.963   6.240   6.911
 5510SOL    HW217430   4.930   6.299   6.762
 5511SOL     OW17431   0.603   2.889   5.847
 5511SOL    HW117432   0.557   2.928   5.926
 5511SOL    HW217433   0.556   2.805   5.819
 5512SOL     OW17434   2.954   0.103   2.188
 5512SOL    HW117435   2.869   0.056   2.162
 5512SOL    HW217436   2.949   0.199   2.162
 5513SOL     OW17437   3.361   4.923   6.228
 5513SOL    HW117438   3.430   4.988   6.196
 5513SOL    HW217439   3.395   4.875   6.309
 5514SOL     OW17440   3.802   1.309   6.986
 5514SOL    HW117441   3.736   1.321   6.912
 5514SOL    HW217442   3.759   1.333   0.047
 5515SOL     OW17443   3.627   4.907   2.447
 5515SOL    HW117444   3.541   4.860   2.466
 5515SOL    HW217445   3.662   4.877   2.358
 5516SOL     OW17446   1.408   2.651   5.986
 5516SOL    HW117447   1.393   2.668   5.889
 5516SOL    HW217448   1.506   2.646   6.005
 5517SOL     OW17449   1.073   2.282   4.485
 5517SOL    HW117450   1.125   2.307   4.567
 5517SOL    HW217451   1.122   2.209   4.436
 5518SOL     OW17452   3.876   4.053   5.436
 5518SOL    HW117453   3.920   4.105   5.508
 5518SOL    HW217454   3.943   4.031   5.365
 5519SOL     OW17455   5.241   2.536   5.511
 5519SOL    HW117456   5.180   2.518   5.588
 5519SOL    HW217457   5.197   2.507   5.426
 5520SOL     OW17458   4.675   5.596   1.445
 5520SOL    HW117459   4.588   5.641   1.422
 5520SOL    HW217460   4.745   5.623   1.379
 5521SOL     OW17461   5.134   6.771   1.839
 5521SOL    HW117462   5.171   6.696   1.894
 5521SOL    HW217463   5.207   6.810   1.783
 5522SOL     OW17464   4.997   6.089   6.480
 5522SOL    HW117465   4.898   6.070   6.476
 5522SOL    HW217466   5.044   6.035   6.410
 5523SOL     OW17467   5.716   1.475   0.505
 5523SOL    HW117468   5.621   1.447   0.519
 5523SOL    HW217469   5.730   1.499   0.409
 5524SOL     OW17470   2.698   1.755   2.728
 5524SOL    HW117471   2.728   1.745   2.633
 5524SOL    HW217472   2.771   1.798   2.782
 5525SOL     OW17473   6.465   1.311   0.855
 5525SOL    HW117474   6.526   1.259   0.915
 5525SOL    HW217475   6.435   1.253   0.780
 5526SOL     OW17476   4.874   4.518   3.980
 5526SOL    HW117477   4.804   4.494   4.047
 5526SOL    HW217478   4.901   4.436   3.930
 5527SOL     OW17479   6.819   0.009   2.408
 5527SOL    HW117480   6.757   6.967   2.370
 5527SOL    HW217481   6.801   0.099   2.368
 5528SOL     OW17482   2.246   1.490   0.244
 5528SOL    HW117483   2.310   1.520   0.173
 5528SOL    HW217484   2.245   1.557   0.318
 5529SOL     OW17485   3.412   1.251   1.910
 5529SOL    HW117486   3.349   1.173   1.901
 5529SOL    HW217487   3.359   1.334   1.927
 5530SOL     OW17488   0.936   1.414   1.373
 5530SOL    HW117489   0.866   1.365   1.426
 5530SOL    HW217490   0.985   1.349   1.315
 5531SOL     OW17491   0.957   4.570   6.373
 5531SOL    HW117492   1.046   4.568   6.327
 5531SOL    HW217493   0.903   4.646   6.338
 5532SOL     OW17494   6.945   5.057   5.761
 5532SOL    HW117495   6.919   5.147   5.795
 5532SOL    HW217496   6.929   4.989   5.832
 5533SOL     OW17497   3.831   1.224   4.125
 5533SOL    HW117498   3.916   1.276   4.126
 5533SOL    HW217499   3.806   1.203   4.030
 5534SOL     OW17500   1.625   6.869   4.315
 5534SOL    HW117501   1.565   6.949   4.311
 5534SOL    HW217502   1.676   6.870   4.402
 5535SOL     OW17503   1.215   1.678   3.034
 5535SOL    HW117504   1.278   1.740   3.080
 5535SOL    HW217505   1.129   1.727   3.014
 5536SOL     OW17506   4.619   0.729   5.168
 5536SOL    HW117507   4.707   0.776   5.182
 5536SOL    HW217508   4.598   0.727   5.070
 5537SOL     OW17509   2.583   2.304   2.925
 5537SOL    HW117510   2.644   2.378   2.952
 5537SOL    HW217511   2.578   2.236   2.998
 5538SOL     OW17512   3.868   5.649   3.872
 5538SOL    HW117513   3.950   5.662   3.928
 5538SOL    HW217514   3.894   5.628   3.778
 5539SOL     OW17515   2.140   4.035   0.529
 5539SOL    HW117516   2.221   4.071   0.574
 5539SOL    HW217517   2.161   3.946   0.487
 5540SOL     OW17518   3.410   5.437   1.265
 5540SOL    HW117519   3.314   5.450   1.238
 5540SOL    HW217520   3.415   5.421   1.363
 5541SOL     OW17521   4.559   0.324   6.469
 5541SOL    HW117522   4.619   0.358   6.397
 5541SOL    HW217523   4.574   0.376   6.553
 5542SOL     OW17524   5.675   3.732   6.561
 5542SOL    HW117525   5.692   3.754   6.465
 5542SOL    HW217526   5.760   3.740   6.613
 5543SOL     OW17527   0.796   2.961   5.050
 5543SOL    HW117528   0.736   3.030   5.090
 5543SOL    HW217529   0.761   2.933   4.961
 5544SOL     OW17530   5.272   6.617   0.228
 5544SOL    HW117531   5.311   6.691   0.174
 5544SOL    HW217532   5.176   6.606   0.205
 5545SOL     OW17533   2.829   2.219   1.688
 5545SOL    HW117534   2.890   2.190   1.615
 5545SOL    HW217535   2.881   2.272   1.755
 5546SOL     OW17536   3.346   6.051   4.414
 5546SOL    HW117537   3.430   6.000   4.396
 5546SOL    HW217538   3.366   6.127   4.475
 5547SOL     OW17539   3.090   5.357   3.722
 5547SOL    HW117540   3.035   5.440   3.722
 5547SOL    HW217541   3.124   5.341   3.815
 5548SOL     OW17542   6.258   1.381   4.535
 5548SOL    HW117543   6.207   1.384   4.620
 5548SOL    HW217544   6.348   1.421   4.548
 5549SOL     OW17545   3.806   5.043   5.048
 5549SOL    HW117546   3.751   5.047   5.132
 5549SOL    HW217547   3.851   4.954   5.041
 5550SOL     OW17548   2.972   5.773   1.637
 5550SOL    HW117549   3.018   5.850   1.682
 5550SOL    HW217550   2.885   5.804   1.600
 5551SOL     OW17551   0.896   1.114   2.442
 5551SOL    HW117552   0.859   1.029   2.406
 5551SOL    HW217553   0.904   1.109   2.541
 5552SOL     OW17554   2.320   2.732   2.073
 5552SOL    HW117555   2.329   2.831   2.086
 5552SOL    HW217556   2.270   2.692   2.150
 5553SOL     OW17557   4.826   6.613   5.951
 5553SOL    HW117558   4.856   6.547   6.019
 5553SOL    HW217559   4.726   6.608   5.941
 5554SOL     OW17560   2.995   0.294   6.106
 5554SOL    HW117561   3.018   0.268   6.200
 5554SOL    HW217562   2.939   0.222   6.065
 5555SOL     OW17563   1.131   6.048   1.815
 5555SOL    HW117564   1.138   5.952   1.789
 5555SOL    HW217565   1.199   6.102   1.766
 5556SOL     OW17566   0.123   1.551   4.833
 5556SOL    HW117567   0.062   1.620   4.795
 5556SOL    HW217568   0.100   1.461   4.794
 5557SOL     OW17569   3.599   0.822   2.835
 5557SOL    HW117570   3.663   0.852   2.764
 5557SOL    HW217571   3.505   0.830   2.801
 5558SOL     OW17572   5.538   2.174   6.766
 5558SOL    HW117573   5.556   2.224   6.681
 5558SOL    HW217574   5.500   2.237   6.834
 5559SOL     OW17575   3.486   1.399   1.327
 5559SOL    HW117576   3.509   1.425   1.234
 5559SOL    HW217577   3.491   1.300   1.336
 5560SOL     OW17578   0.244   2.635   5.081
 5560SOL    HW117579   0.253   2.539   5.056
 5560SOL    HW217580   0.211   2.687   5.002
 5561SOL     OW17581   1.976   4.777   2.596
 5561SOL    HW117582   1.981   4.677   2.590
 5561SOL    HW217583   1.966   4.804   2.691
 5562SOL     OW17584   5.045   3.335   0.381
 5562SOL    HW117585   4.950   3.310   0.365
 5562SOL    HW217586   5.096   3.255   0.412
 5563SOL     OW17587   4.153   4.489   0.950
 5563SOL    HW117588   4.079   4.431   0.984
 5563SOL    HW217589   4.118   4.580   0.930
 5564SOL     OW17590   5.922   0.982   2.624
 5564SOL    HW117591   5.911   1.076   2.657
 5564SOL    HW217592   5.842   0.928   2.649
 5565SOL     OW17593   1.971   2.548   6.207
 5565SOL    HW117594   2.023   2.539   6.291
 5565SOL    HW217595   2.023   2.510   6.130
 5566SOL     OW17596   2.321   4.361   0.568
 5566SOL    HW117597   2.368   4.342   0.481
 5566SOL    HW217598   2.227   4.387   0.549
 5567SOL     OW17599   1.341   5.845   3.047
 5567SOL    HW117600   1.409   5.826   3.118
 5567SOL    HW217601   1.298   5.933   3.064
 5568SOL     OW17602   4.984   2.830   0.053
 5568SOL    HW117603   4.887   2.808   0.061
 5568SOL    HW217604   4.998   2.893   7.003
 5569SOL     OW17605   4.064   1.214   6.200
 5569SOL    HW117606   4.120   1.290   6.167
 5569SOL    HW217607   4.007   1.180   6.125
 5570SOL     OW17608   1.954   1.655   6.060
 5570SOL    HW117609   2.014   1.617   6.130
 5570SOL    HW217610   2.003   1.726   6.009
 5571SOL     OW17611   1.023   4.904   6.689
 5571SOL    HW117612   1.009   4.962   6.770
 5571SOL    HW217613   0.976   4.817   6.703
 5572SOL     OW17614   1.186   3.508   5.353
 5572SOL    HW117615   1.275   3.483   5.392
 5572SOL    HW217616   1.190   3.501   5.254
 5573SOL     OW17617   0.649   4.078   6.878
 5573SOL    HW117618   0.667   4.162   6.928
 5573SOL    HW217619   0.550   4.064   6.871
 5574SOL     OW17620   1.843   6.027   4.453
 5574SOL    HW117621   1.746   6.005   4.447
 5574SOL    HW217622   1.895   5.944   4.474
 5575SOL     OW17623   1.330   1.830   2.618
 5575SOL    HW117624   1.402   1.803   2.682
 5575SOL    HW217625   1.262   1.757   2.612
 5576SOL     OW17626   5.217   6.478   6.796
 5576SOL    HW117627   5.134   6.532   6.785
 5576SOL    HW217628   5.198   6.401   6.856
 5577SOL     OW17629   1.534   5.285   5.296
 5577SOL    HW117630   1.600   5.311   5.225
 5577SOL    HW217631   1.499   5.194   5.277
 5578SOL     OW17632   4.011   1.496   6.017
 5578SOL    HW117633   4.039   1.499   5.920
 5578SOL    HW217634   4.090   1.472   6.073
 5579SOL     OW17635   5.077   4.786   2.495
 5579SOL    HW117636   5.166   4.755   2.461
 5579SOL    HW217637   5.004   4.745   2.441
 5580SOL     OW17638   6.536   0.709   2.446
 5580SOL    HW117639   6.621   0.657   2.442
 5580SOL    HW217640   6.499   0.721   2.354
 5581SOL     OW17641   3.293   3.098   0.788
 5581SOL    HW117642   3.356   3.175   0.788
 5581SOL    HW217643   3.214   3.120   0.730
 5582SOL     OW17644   3.033   3.853   5.353
 5582SOL    HW117645   2.979   3.773   5.326
 5582SOL    HW217646   3.093   3.828   5.429
 5583SOL     OW17647   3.954   0.726   6.871
 5583SOL    HW117648   4.030   0.783   6.842
 5583SOL    HW217649   3.905   0.692   6.791
 5584SOL     OW17650   5.536   3.785   4.836
 5584SOL    HW117651   5.472   3.831   4.898
 5584SOL    HW217652   5.574   3.705   4.882
 5585SOL     OW17653   0.353   1.063   3.811
 5585SOL    HW117654   0.441   1.018   3.795
 5585SOL    HW217655   0.298   1.008   3.873
 5586SOL     OW17656   1.835   0.942   0.322
 5586SOL    HW117657   1.883   1.028   0.343
 5586SOL    HW217658   1.772   0.921   0.396
 5587SOL     OW17659   3.824   0.422   2.914
 5587SOL    HW117660   3.819   0.324   2.895
 5587SOL    HW217661   3.810   0.438   3.012
 5588SOL     OW17662   4.377   5.780   0.249
 5588SOL    HW117663   4.403   5.706   0.312
 5588SOL    HW217664   4.385   5.748   0.155
 5589SOL     OW17665   1.396   2.384   6.386
 5589SOL    HW117666   1.407   2.481   6.410
 5589SOL    HW217667   1.460   2.329   6.439
 5590SOL     OW17668   5.711   7.001   3.542
 5590SOL    HW117669   5.810   7.002   3.529
 5590SOL    HW217670   5.680   0.067   3.566
 5591SOL     OW17671   5.101   1.226   5.804
 5591SOL    HW117672   5.080   1.130   5.826
 5591SOL    HW217673   5.106   1.279   5.888
 5592SOL     OW17674   1.088   3.833   2.985
 5592SOL    HW117675   1.033   3.897   3.040
 5592SOL    HW217676   1.149   3.782   3.045
 5593SOL     OW17677   2.706   3.630   5.376
 5593SOL    HW117678   2.783   3.592   5.325
 5593SOL    HW217679   2.621   3.609   5.329
 5594SOL     OW17680   3.334   0.844   5.849
 5594SOL    HW117681   3.378   0.831   5.760
 5594SOL    HW217682   3.362   0.771   5.911
 5595SOL     OW17683   6.566   3.649   1.033
 5595SOL    HW117684   6.497   3.592   0.990
 5595SOL    HW217685   6.524   3.705   1.104
 5596SOL     OW17686   5.286   4.361   4.488
 5596SOL    HW117687   5.274   4.340   4.585
 5596SOL    HW217688   5.371   4.319   4.455
 5597SOL     OW17689   0.795   2.360   6.672
 5597SOL    HW117690   0.759   2.406   6.590
 5597SOL    HW217691   0.884   2.319   6.651
 5598SOL     OW17692   7.004   0.354   3.166
 5598SOL    HW117693   6.918   0.347   3.217
 5598SOL    HW217694   0.054   0.368   3.230
 5599SOL     OW17695   4.991   3.158   2.527
 5599SOL    HW117696   5.047   3.075   2.534
 5599SOL    HW217697   4.986   3.186   2.431
 5600SOL     OW17698   2.123   3.652   2.221
 5600SOL    HW117699   2.208   3.619   2.178
 5600SOL    HW217700   2.049   3.650   2.154
 5601SOL     OW17701   5.184   2.452   6.644
 5601SOL    HW117702   5.279   2.422   6.659
 5601SOL    HW217703   5.171   2.543   6.685
 5602SOL     OW17704   5.121   1.131   2.446
 5602SOL    HW117705   5.022   1.131   2.432
 5602SOL    HW217706   5.141   1.115   2.543
 5603SOL     OW17707   3.469   1.461   6.695
 5603SOL    HW117708   3.428   1.444   6.784
 5603SOL    HW217709   3.407   1.517   6.640
 5604SOL     OW17710   1.971   4.749   4.329
 5604SOL    HW117711   1.974   4.658   4.370
 5604SOL    HW217712   2.044   4.757   4.260
 5605SOL     OW17713   3.466   0.082   3.991
 5605SOL    HW117714   3.561   0.090   3.958
 5605SOL    HW217715   3.440   7.011   3.995
 5606SOL     OW17716   3.921   4.718   0.569
 5606SOL    HW117717   3.843   4.673   0.612
 5606SOL    HW217718   3.979   4.649   0.526
 5607SOL     OW17719   1.777   1.862   1.678
 5607SOL    HW117720   1.737   1.808   1.752
 5607SOL    HW217721   1.750   1.958   1.689
 5608SOL     OW17722   6.263   6.223   3.209
 5608SOL    HW117723   6.361   6.233   3.228
 5608SOL    HW217724   6.251   6.162   3.130
 5609SOL     OW17725   0.061   0.798   0.782
 5609SOL    HW117726   0.016   0.814   0.870
 5609SOL    HW217727   7.019   0.797   0.709
 5610SOL     OW17728   5.561   6.551   6.333
 5610SOL    HW117729   5.525   6.535   6.241
 5610SOL    HW217730   5.494   6.520   6.401
 5611SOL     OW17731   0.084   3.721   1.743
 5611SOL    HW117732   0.122   3.642   1.695
 5611SOL    HW217733   7.011   3.726   1.727
 5612SOL     OW17734   5.173   2.274   0.892
 5612SOL    HW117735   5.138   2.364   0.919
 5612SOL    HW217736   5.110   2.233   0.826
 5613SOL     OW17737   6.754   5.103   4.969
 5613SOL    HW117738   6.751   5.203   4.972
 5613SOL    HW217739   6.712   5.070   4.885
 5614SOL     OW17740   6.131   2.026   4.579
 5614SOL    HW117741   6.084   2.110   4.603
 5614SOL    HW217742   6.120   2.008   4.481
 5615SOL     OW17743   0.880   4.024   3.100
 5615SOL    HW117744   0.933   4.048   3.182
 5615SOL    HW217745   0.837   3.935   3.113
 5616SOL     OW17746   1.535   2.939   1.934
 5616SOL    HW117747   1.611   2.976   1.989
 5616SOL    HW217748   1.498   2.858   1.979
 5617SOL     OW17749   0.920   5.567   5.678
 5617SOL    HW117750   0.955   5.608   5.762
 5617SOL    HW217751   0.988   5.504   5.640
 5618SOL     OW17752   5.189   1.495   3.553
 5618SOL    HW117753   5.139   1.471   3.636
 5618SOL    HW217754   5.150   1.579   3.514
 5619SOL     OW17755   3.878   4.017   4.516
 5619SOL    HW117756   3.820   4.049   4.591
 5619SOL    HW217757   3.827   4.020   4.430
 5620SOL     OW17758   4.815   4.430   5.163
 5620SOL    HW117759   4.832   4.451   5.259
 5620SOL    HW217760   4.796   4.332   5.153
 5621SOL     OW17761   0.862   3.710   0.564
 5621SOL    HW117762   0.886   3.629   0.617
 5621SOL    HW217763   0.837   3.785   0.626
 5622SOL     OW17764   6.000   4.890   3.987
 5622SOL    HW117765   6.010   4.940   4.073
 5622SOL    HW217766   6.014   4.953   3.910
 5623SOL     OW17767   4.693   4.470   3.648
 5623SOL    HW117768   4.662   4.395   3.707
 5623SOL    HW217769   4.659   4.557   3.684
 5624SOL     OW17770   4.942   3.972   4.381
 5624SOL    HW117771   4.936   3.883   4.428
 5624SOL    HW217772   4.894   3.967   4.294
 5625SOL     OW17773   3.776   0.132   6.797
 5625SOL    HW117774   3.691   0.099   6.837
 5625SOL    HW217775   3.840   0.056   6.787
 5626SOL     OW17776   1.865   4.199   6.023
 5626SOL    HW117777   1.927   4.198   6.102
 5626SOL    HW217778   1.884   4.120   5.965
 5627SOL     OW17779   0.846   5.088   1.109
 5627SOL    HW117780   0.853   5.073   1.208
 5627SOL    HW217781   0.774   5.154   1.091
 5628SOL     OW17782   1.201   2.572   0.045
 5628SOL    HW117783   1.215   2.478   0.075
 5628SOL    HW217784   1.199   2.576   6.971
 5629SOL     OW17785   0.961   3.184   4.980
 5629SOL    HW117786   1.038   3.180   5.043
 5629SOL    HW217787   0.908   3.100   4.985
 5630SOL     OW17788   0.879   4.432   6.863
 5630SOL    HW117789   0.919   4.343   6.886
 5630SOL    HW217790   0.861   4.436   6.765
 5631SOL     OW17791   2.536   0.906   3.783
 5631SOL    HW117792   2.447   0.949   3.773
 5631SOL    HW217793   2.543   0.830   3.718
 5632SOL     OW17794   2.997   6.489   5.850
 5632SOL    HW117795   3.028   6.420   5.915
 5632SOL    HW217796   2.898   6.483   5.840
 5633SOL     OW17797   1.375   4.954   4.843
 5633SOL    HW117798   1.409   4.868   4.880
 5633SOL    HW217799   1.298   4.936   4.782
 5634SOL     OW17800   1.063   0.290   1.430
 5634SOL    HW117801   0.970   0.251   1.434
 5634SOL    HW217802   1.130   0.216   1.437
 5635SOL     OW17803   3.853   0.731   3.329
 5635SOL    HW117804   3.811   0.699   3.245
 5635SOL    HW217805   3.937   0.781   3.307
 5636SOL     OW17806   4.432   0.122   4.997
 5636SOL    HW117807   4.410   0.059   5.072
 5636SOL    HW217808   4.468   0.207   5.034
 5637SOL     OW17809   5.707   6.690   5.087
 5637SOL    HW117810   5.717   6.601   5.042
 5637SOL    HW217811   5.796   6.736   5.090
 5638SOL     OW17812   1.862   6.192   0.070
 5638SOL    HW117813   1.807   6.163   7.017
 5638SOL    HW217814   1.933   6.123   0.089
 5639SOL     OW17815   3.424   7.001   1.647
 5639SOL    HW117816   3.512   6.968   1.678
 5639SOL    HW217817   3.365   7.019   1.726
 5640SOL     OW17818   4.533   6.553   4.263
 5640SOL    HW117819   4.573   6.610   4.192
 5640SOL    HW217820   4.513   6.462   4.226
 5641SOL     OW17821   6.269   5.026   3.887
 5641SOL    HW117822   6.176   5.062   3.886
 5641SOL    HW217823   6.276   4.951   3.821
 5642SOL     OW17824   1.864   1.692   6.629
 5642SOL    HW117825   1.826   1.700   6.537
 5642SOL    HW217826   1.917   1.774   6.649
 5643SOL     OW17827   4.646   2.221   3.708
 5643SOL    HW117828   4.574   2.265   3.654
 5643SOL    HW217829   4.726   2.282   3.713
 5644SOL     OW17830   2.644   0.710   5.169
 5644SOL    HW117831   2.740   0.729   5.149
 5644SOL    HW217832   2.637   0.653   5.250
 5645SOL     OW17833   6.916   6.104   4.438
 5645SOL    HW117834   6.818   6.108   4.453
 5645SOL    HW217835   6.938   6.025   4.381
 5646SOL     OW17836   6.368   1.025   2.440
 5646SOL    HW117837   6.305   0.997   2.368
 5646SOL    HW217838   6.322   1.021   2.529
 5647SOL     OW17839   5.702   3.435   6.684
 5647SOL    HW117840   5.717   3.534   6.673
 5647SOL    HW217841   5.790   3.389   6.694
 5648SOL     OW17842   1.621   2.060   4.560
 5648SOL    HW117843   1.553   2.132   4.572
 5648SOL    HW217844   1.712   2.100   4.552
 5649SOL     OW17845   6.668   0.669   5.052
 5649SOL    HW117846   6.690   0.744   5.114
 5649SOL    HW217847   6.581   0.627   5.079
 5650SOL     OW17848   6.040   4.590   5.829
 5650SOL    HW117849   5.990   4.596   5.916
 5650SOL    HW217850   6.078   4.498   5.819
 5651SOL     OW17851   5.650   0.681   3.118
 5651SOL    HW117852   5.592   0.733   3.056
 5651SOL    HW217853   5.620   0.585   3.119
 5652SOL     OW17854   3.747   4.402   6.545
 5652SOL    HW117855   3.663   4.354   6.571
 5652SOL    HW217856   3.778   4.459   6.622
 5653SOL     OW17857   2.024   0.126   5.594
 5653SOL    HW117858   2.035   0.036   5.637
 5653SOL    HW217859   2.105   0.147   5.539
 5654SOL     OW17860   3.128   6.869   0.149
 5654SOL    HW117861   3.076   6.817   0.217
 5654SOL    HW217862   3.224   6.870   0.175
 5655SOL     OW17863   5.788   4.808   2.186
 5655SOL    HW117864   5.816   4.875   2.117
 5655SOL    HW217865   5.859   4.737   2.193
 5656SOL     OW17866   2.736   4.389   6.465
 5656SOL    HW117867   2.733   4.448   6.384
 5656SOL    HW217868   2.831   4.366   6.486
 5657SOL     OW17869   5.200   5.438   1.419
 5657SOL    HW117870   5.233   5.360   1.472
 5657SOL    HW217871   5.185   5.516   1.480
 5658SOL     OW17872   4.303   6.566   6.240
 5658SOL    HW117873   4.309   6.600   6.146
 5658SOL    HW217874   4.253   6.479   6.241
 5659SOL     OW17875   3.044   3.205   2.603
 5659SOL    HW117876   2.993   3.165   2.527
 5659SOL    HW217877   2.986   3.204   2.685
 5660SOL     OW17878   0.948   4.250   2.106
 5660SOL    HW117879   0.948   4.317   2.181
 5660SOL    HW217880   0.905   4.290   2.026
 5661SOL     OW17881   5.525   5.514   5.513
 5661SOL    HW117882   5.495   5.421   5.533
 5661SOL    HW217883   5.562   5.556   5.597
 5662SOL     OW17884   1.720   4.627   5.184
 5662SOL    HW117885   1.691   4.605   5.277
 5662SOL    HW217886   1.807   4.677   5.187
 5663SOL     OW17887   2.532   3.298   0.244
 5663SOL    HW117888   2.618   3.248   0.247
 5663SOL    HW217889   2.459   3.240   0.281
 5664SOL     OW17890   6.238   7.015   1.495
 5664SOL    HW117891   6.194   0.039   1.420
 5664SOL    HW217892   6.179   7.017   1.576
 5665SOL     OW17893   1.127   0.441   5.965
 5665SOL    HW117894   1.100   0.532   5.935
 5665SOL    HW217895   1.144   0.383   5.885
 5666SOL     OW17896   4.623   6.059   6.262
 5666SOL    HW117897   4.634   6.154   6.291
 5666SOL    HW217898   4.678   5.999   6.321
 5667SOL     OW17899   5.534   5.218   3.179
 5667SOL    HW117900   5.514   5.316   3.184
 5667SOL    HW217901   5.625   5.204   3.140
 5668SOL     OW17902   6.641   2.830   6.231
 5668SOL    HW117903   6.622   2.820   6.329
 5668SOL    HW217904   6.556   2.827   6.180
 5669SOL     OW17905   1.352   1.986   5.791
 5669SOL    HW117906   1.319   2.073   5.754
 5669SOL    HW217907   1.390   1.931   5.716
 5670SOL     OW17908   1.385   2.565   2.608
 5670SOL    HW117909   1.481   2.540   2.622
 5670SOL    HW217910   1.379   2.643   2.546
 5671SOL     OW17911   0.571   0.901   6.168
 5671SOL    HW117912   0.626   0.868   6.245
 5671SOL    HW217913   0.509   0.973   6.200
 5672SOL     OW17914   3.936   4.693   6.217
 5672SOL    HW117915   3.952   4.711   6.120
 5672SOL    HW217916   3.885   4.608   6.227
 5673SOL     OW17917   2.108   6.101   1.192
 5673SOL    HW117918   2.022   6.131   1.150
 5673SOL    HW217919   2.130   6.009   1.161
 5674SOL     OW17920   0.225   2.937   0.056
 5674SOL    HW117921   0.299   2.896   0.110
 5674SOL    HW217922   0.247   3.033   0.038
 5675SOL     OW17923   4.341   1.572   5.790
 5675SOL    HW117924   4.340   1.611   5.698
 5675SOL    HW217925   4.258   1.601   5.840
 5676SOL     OW17926   2.054   5.725   1.848
 5676SOL    HW117927   2.119   5.801   1.842
 5676SOL    HW217928   1.966   5.759   1.881
 5677SOL     OW17929   5.993   1.018   3.339
 5677SOL    HW117930   6.090   1.038   3.355
 5677SOL    HW217931   5.938   1.094   3.374
 5678SOL     OW17932   1.143   5.539   2.568
 5678SOL    HW117933   1.146   5.478   2.489
 5678SOL    HW217934   1.106   5.628   2.541
 5679SOL     OW17935   3.721   5.995   5.737
 5679SOL    HW117936   3.789   5.931   5.701
 5679SOL    HW217937   3.740   6.012   5.834
 5680SOL     OW17938   0.905   0.416   6.462
 5680SOL    HW117939   0.886   0.436   6.558
 5680SOL    HW217940   0.918   0.501   6.411
 5681SOL     OW17941   2.977   3.411   0.357
 5681SOL    HW117942   3.003   3.327   0.405
 5681SOL    HW217943   3.057   3.470   0.345
 5682SOL     OW17944   1.845   5.012   4.403
 5682SOL    HW117945   1.871   4.920   4.435
 5682SOL    HW217946   1.853   5.076   4.479
 5683SOL     OW17947   3.126   3.528   4.670
 5683SOL    HW117948   3.043   3.505   4.619
 5683SOL    HW217949   3.196   3.459   4.651
 5684SOL     OW17950   3.115   4.004   2.603
 5684SOL    HW117951   3.049   3.930   2.590
 5684SOL    HW217952   3.077   4.072   2.665
 5685SOL     OW17953   6.597   0.770   1.919
 5685SOL    HW117954   6.612   0.868   1.922
 5685SOL    HW217955   6.518   0.750   1.860
 5686SOL     OW17956   3.190   4.493   6.349
 5686SOL    HW117957   3.224   4.403   6.324
 5686SOL    HW217958   3.200   4.506   6.448
 5687SOL     OW17959   4.872   0.012   5.706
 5687SOL    HW117960   4.964   0.025   5.670
 5687SOL    HW217961   4.815   6.992   5.637
 5688SOL     OW17962   5.418   1.151   2.114
 5688SOL    HW117963   5.503   1.203   2.100
 5688SOL    HW217964   5.389   1.161   2.209
 5689SOL     OW17965   3.922   3.671   5.371
 5689SOL    HW117966   3.926   3.572   5.386
 5689SOL    HW217967   4.012   3.711   5.390
 5690SOL     OW17968   2.947   0.613   2.989
 5690SOL    HW117969   2.958   0.560   3.072
 5690SOL    HW217970   2.895   0.696   3.009
 5691SOL     OW17971   3.248   0.372   4.662
 5691SOL    HW117972   3.151   0.352   4.656
 5691SOL    HW217973   3.264   0.469   4.643
 5692SOL     OW17974   6.331   2.933   0.656
 5692SOL    HW117975   6.252   2.923   0.717
 5692SOL    HW217976   6.393   2.856   0.669
 5693SOL     OW17977   5.620   3.286   1.808
 5693SOL    HW117978   5.646   3.382   1.805
 5693SOL    HW217979   5.546   3.274   1.875
 5694SOL     OW17980   1.899   2.356   4.947
 5694SOL    HW117981   1.813   2.309   4.966
 5694SOL    HW217982   1.935   2.397   5.030
 5695SOL     OW17983   1.807   3.523   2.867
 5695SOL    HW117984   1.781   3.456   2.797
 5695SOL    HW217985   1.902   3.550   2.853
 5696SOL     OW17986   3.052   1.502   6.419
 5696SOL    HW117987   2.962   1.465   6.442
 5696SOL    HW217988   3.047   1.549   6.331
 5697SOL     OW17989   6.328   3.891   0.896
 5697SOL    HW117990   6.296   3.907   0.989
 5697SOL    HW217991   6.423   3.920   0.888
 5698SOL     OW17992   1.649   5.034   4.212
 5698SOL    HW117993   1.696   5.034   4.301
 5698SOL    HW217994   1.679   4.955   4.159
 5699SOL     OW17995   1.185   2.069   5.477
 5699SOL    HW117996   1.216   2.134   5.407
 5699SOL    HW217997   1.215   2.100   5.567
 5700SOL     OW17998   1.787   5.137   4.671
 5700SOL    HW117999   1.757   5.222   4.715
 5700SOL    HW218000   1.713   5.100   4.616
 5701SOL     OW18001   4.894   2.185   2.544
 5701SOL    HW118002   4.849   2.097   2.558
 5701SOL    HW218003   4.927   2.220   2.632
 5702SOL     OW18004   4.250   0.686   0.118
 5702SOL    HW118005   4.285   0.626   0.047
 5702SOL    HW218006   4.155   0.710   0.098
 5703SOL     OW18007   4.761   4.052   2.542
 5703SOL    HW118008   4.721   4.138   2.508
 5703SOL    HW218009   4.766   3.987   2.467
 5704SOL     OW18010   5.449   3.313   3.838
 5704SOL    HW118011   5.526   3.369   3.809
 5704SOL    HW218012   5.364   3.365   3.828
 5705SOL     OW18013   6.315   0.943   4.262
 5705SOL    HW118014   6.261   0.994   4.329
 5705SOL    HW218015   6.409   0.978   4.262
 5706SOL     OW18016   2.113   1.468   5.871
 5706SOL    HW118017   2.057   1.440   5.793
 5706SOL    HW218018   2.085   1.416   5.952
 5707SOL     OW18019   4.460   0.437   1.369
 5707SOL    HW118020   4.450   0.406   1.464
 5707SOL    HW218021   4.478   0.359   1.310
 5708SOL     OW18022   1.080   6.694   0.407
 5708SOL    HW118023   1.095   6.707   0.309
 5708SOL    HW218024   1.100   6.780   0.455
 5709SOL     OW18025   0.289   2.835   0.836
 5709SOL    HW118026   0.360   2.765   0.828
 5709SOL    HW218027   0.271   2.852   0.933
 5710SOL     OW18028   3.078   5.077   6.146
 5710SOL    HW118029   3.038   5.100   6.235
 5710SOL    HW218030   3.151   5.010   6.159
 5711SOL     OW18031   5.324   1.084   5.413
 5711SOL    HW118032   5.364   0.999   5.379
 5711SOL    HW218033   5.227   1.088   5.388
 5712SOL     OW18034   4.786   6.880   5.972
 5712SOL    HW118035   4.815   6.785   5.969
 5712SOL    HW218036   4.811   6.926   5.886
 5713SOL     OW18037   0.328   3.563   2.742
 5713SOL    HW118038   0.311   3.653   2.781
 5713SOL    HW218039   0.263   3.497   2.779
 5714SOL     OW18040   2.414   0.785   1.032
 5714SOL    HW118041   2.335   0.836   0.998
 5714SOL    HW218042   2.481   0.849   1.070
 5715SOL     OW18043   0.383   5.723   3.894
 5715SOL    HW118044   0.441   5.687   3.967
 5715SOL    HW218045   0.436   5.788   3.839
 5716SOL     OW18046   1.467   2.800   4.748
 5716SOL    HW118047   1.494   2.834   4.838
 5716SOL    HW218048   1.510   2.712   4.731
 5717SOL     OW18049   0.403   4.702   5.494
 5717SOL    HW118050   0.455   4.669   5.573
 5717SOL    HW218051   0.307   4.715   5.520
 5718SOL     OW18052   2.210   5.806   5.945
 5718SOL    HW118053   2.224   5.905   5.932
 5718SOL    HW218054   2.277   5.771   6.010
 5719SOL     OW18055   1.453   0.911   0.282
 5719SOL    HW118056   1.512   0.970   0.227
 5719SOL    HW218057   1.433   0.957   0.369
 5720SOL     OW18058   2.092   5.785   4.058
 5720SOL    HW118059   2.070   5.762   3.963
 5720SOL    HW218060   2.190   5.779   4.073
 5721SOL     OW18061   6.047   5.312   6.762
 5721SOL    HW118062   6.095   5.396   6.740
 5721SOL    HW218063   5.970   5.300   6.698
 5722SOL     OW18064   5.318   0.733   3.801
 5722SOL    HW118065   5.365   0.818   3.777
 5722SOL    HW218066   5.251   0.752   3.873
 5723SOL     OW18067   6.413   5.701   0.971
 5723SOL    HW118068   6.345   5.773   0.972
 5723SOL    HW218069   6.450   5.691   0.879
 5724SOL     OW18070   4.773   2.908   5.852
 5724SOL    HW118071   4.842   2.860   5.907
 5724SOL    HW218072   4.743   2.849   5.777
 5725SOL     OW18073   6.328   0.058   5.457
 5725SOL    HW118074   6.363   0.016   5.373
 5725SOL    HW218075   6.279   0.142   5.435
 5726SOL     OW18076   4.239   6.143   5.254
 5726SOL    HW118077   4.211   6.105   5.342
 5726SOL    HW218078   4.159   6.183   5.209
 5727SOL     OW18079   5.372   3.339   3.366
 5727SOL    HW118080   5.443   3.280   3.405
 5727SOL    HW218081   5.288   3.286   3.354
 5728SOL     OW18082   3.547   0.800   4.990
 5728SOL    HW118083   3.644   0.812   5.012
 5728SOL    HW218084   3.495   0.785   5.074
 5729SOL     OW18085   3.108   1.659   4.001
 5729SOL    HW118086   3.151   1.626   4.084
 5729SOL    HW218087   3.096   1.583   3.936
 5730SOL     OW18088   4.014   5.232   0.050
 5730SOL    HW118089   4.028   5.309   0.112
 5730SOL    HW218090   3.929   5.185   0.074
 5731SOL     OW18091   4.196   1.364   5.021
 5731SOL    HW118092   4.179   1.438   5.085
 5731SOL    HW218093   4.108   1.329   4.987
 5732SOL     OW18094   6.182   3.817   4.630
 5732SOL    HW118095   6.257   3.819   4.563
 5732SOL    HW218096   6.158   3.723   4.651
 5733SOL     OW18097   2.006   5.995   0.763
 5733SOL    HW118098   2.011   6.030   0.670
 5733SOL    HW218099   2.006   5.895   0.761
 5734SOL     OW18100   1.776   0.357   6.325
 5734SOL    HW118101   1.739   0.349   6.417
 5734SOL    HW218102   1.860   0.302   6.318
 5735SOL     OW18103   5.497   1.339   0.837
 5735SOL    HW118104   5.565   1.369   0.904
 5735SOL    HW218105   5.432   1.277   0.881
 5736SOL     OW18106   4.170   3.628   6.441
 5736SOL    HW118107   4.263   3.595   6.458
 5736SOL    HW218108   4.157   3.716   6.487
 5737SOL     OW18109   4.981   5.551   2.551
 5737SOL    HW118110   5.015   5.599   2.632
 5737SOL    HW218111   5.018   5.594   2.468
 5738SOL     OW18112   3.264   1.607   1.318
 5738SOL    HW118113   3.282   1.555   1.401
 5738SOL    HW218114   3.165   1.621   1.308
 5739SOL     OW18115   2.027   1.274   6.008
 5739SOL    HW118116   2.093   1.225   6.064
 5739SOL    HW218117   1.977   1.210   5.950
 5740SOL     OW18118   5.641   2.521   2.811
 5740SOL    HW118119   5.542   2.512   2.798
 5740SOL    HW218120   5.680   2.568   2.732
 5741SOL     OW18121   1.411   3.529   4.021
 5741SOL    HW118122   1.365   3.537   3.933
 5741SOL    HW218123   1.426   3.433   4.042
 5742SOL     OW18124   6.364   4.453   2.331
 5742SOL    HW118125   6.450   4.417   2.368
 5742SOL    HW218126   6.296   4.380   2.327
 5743SOL     OW18127   3.336   6.946   5.785
 5743SOL    HW118128   3.308   6.944   5.881
 5743SOL    HW218129   3.432   6.973   5.780
 5744SOL     OW18130   5.395   5.860   4.341
 5744SOL    HW118131   5.466   5.815   4.395
 5744SOL    HW218132   5.416   5.958   4.334
 5745SOL     OW18133   2.228   4.025   2.718
 5745SOL    HW118134   2.308   3.965   2.718
 5745SOL    HW218135   2.258   4.119   2.735
 5746SOL     OW18136   4.963   0.631   3.296
 5746SOL    HW118137   4.888   0.565   3.284
 5746SOL    HW218138   4.946   0.710   3.238
 5747SOL     OW18139   0.827   0.024   1.723
 5747SOL    HW118140   0.836   6.951   1.713
 5747SOL    HW218141   0.868   0.053   1.809
 5748SOL     OW18142   6.231   0.232   6.847
 5748SOL    HW118143   6.305   0.234   6.914
 5748SOL    HW218144   6.269   0.222   6.755
 5749SOL     OW18145   2.001   6.378   5.975
 5749SOL    HW118146   2.010   6.362   6.074
 5749SOL    HW218147   1.907   6.402   5.953
 5750SOL     OW18148   6.367   2.306   4.016
 5750SOL    HW118149   6.410   2.267   3.934
 5750SOL    HW218150   6.437   2.354   4.070
 5751SOL     OW18151   6.746   4.007   4.587
 5751SOL    HW118152   6.809   4.083   4.604
 5751SOL    HW218153   6.657   4.029   4.627
 5752SOL     OW18154   5.526   1.854   6.508
 5752SOL    HW118155   5.592   1.929   6.516
 5752SOL    HW218156   5.435   1.887   6.531
 5753SOL     OW18157   3.688   3.576   3.816
 5753SOL    HW118158   3.611   3.634   3.790
 5753SOL    HW218159   3.722   3.527   3.735
 5754SOL     OW18160   5.908   0.454   0.688
 5754SOL    HW118161   5.961   0.443   0.773
 5754SOL    HW218162   5.815   0.421   0.703
 5755SOL     OW18163   0.863   4.145   6.482
 5755SOL    HW118164   0.899   4.055   6.509
 5755SOL    HW218165   0.832   4.141   6.387
 5756SOL     OW18166   5.347   6.864   1.699
 5756SOL    HW118167   5.336   6.863   1.600
 5756SOL    HW218168   5.367   6.957   1.730
 5757SOL     OW18169   1.971   1.914   3.954
 5757SOL    HW118170   2.069   1.934   3.951
 5757SOL    HW218171   1.952   1.847   4.026
 5758SOL     OW18172   6.518   6.774   3.084
 5758SOL    HW118173   6.497   6.765   3.181
 5758SOL    HW218174   6.503   6.868   3.055
 5759SOL     OW18175   3.112   6.148   2.854
 5759SOL    HW118176   3.196   6.107   2.817
 5759SOL    HW218177   3.054   6.076   2.891
 5760SOL     OW18178   0.188   2.458   6.953
 5760SOL    HW118179   0.140   2.384   6.906
 5760SOL    HW218180   0.217   2.527   6.886
 5761SOL     OW18181   0.187   0.010   5.418
 5761SOL    HW118182   0.198   0.099   5.373
 5761SOL    HW218183   0.089   7.015   5.428
 5762SOL     OW18184   0.592   6.571   5.926
 5762SOL    HW118185   0.552   6.656   5.891
 5762SOL    HW218186   0.536   6.493   5.896
 5763SOL     OW18187   4.689   0.481   6.942
 5763SOL    HW118188   4.627   0.414   6.900
 5763SOL    HW218189   4.783   0.462   6.911
 5764SOL     OW18190   3.683   6.193   4.147
 5764SOL    HW118191   3.725   6.268   4.096
 5764SOL    HW218192   3.682   6.216   4.245
 5765SOL     OW18193   6.188   7.004   2.858
 5765SOL    HW118194   6.097   6.985   2.821
 5765SOL    HW218195   6.189   6.984   2.956
 5766SOL     OW18196   1.035   0.930   4.301
 5766SOL    HW118197   0.951   0.880   4.321
 5766SOL    HW218198   1.033   0.963   4.207
 5767SOL     OW18199   6.201   0.131   0.647
 5767SOL    HW118200   6.280   0.182   0.615
 5767SOL    HW218201   6.218   0.033   0.636
 5768SOL     OW18202   1.574   0.448   5.215
 5768SOL    HW118203   1.507   0.450   5.289
 5768SOL    HW218204   1.529   0.419   5.131
 5769SOL     OW18205   1.220   2.177   6.420
 5769SOL    HW118206   1.217   2.100   6.357
 5769SOL    HW218207   1.272   2.252   6.378
 5770SOL     OW18208   1.147   3.311   1.904
 5770SOL    HW118209   1.120   3.308   1.808
 5770SOL    HW218210   1.070   3.344   1.959
 5771SOL     OW18211   3.246   6.047   3.367
 5771SOL    HW118212   3.194   6.130   3.387
 5771SOL    HW218213   3.256   6.037   3.268
 5772SOL     OW18214   2.822   1.657   3.427
 5772SOL    HW118215   2.803   1.610   3.340
 5772SOL    HW218216   2.823   1.591   3.501
 5773SOL     OW18217   5.458   0.406   3.981
 5773SOL    HW118218   5.533   0.456   3.937
 5773SOL    HW218219   5.461   0.422   4.079
 5774SOL     OW18220   0.889   6.720   3.829
 5774SOL    HW118221   0.814   6.655   3.840
 5774SOL    HW218222   0.976   6.672   3.836
 5775SOL     OW18223   6.107   5.052   2.527
 5775SOL    HW118224   6.129   5.069   2.623
 5775SOL    HW218225   6.012   5.024   2.518
 5776SOL     OW18226   3.840   0.888   4.293
 5776SOL    HW118227   3.934   0.893   4.258
 5776SOL    HW218228   3.812   0.978   4.325
 5777SOL     OW18229   6.853   0.929   1.623
 5777SOL    HW118230   6.922   0.865   1.656
 5777SOL    HW218231   6.884   0.971   1.538
 5778SOL     OW18232   0.031   0.743   6.164
 5778SOL    HW118233   0.121   0.781   6.183
 5778SOL    HW218234   7.009   0.724   6.250
 5779SOL     OW18235   5.484   1.188   0.166
 5779SOL    HW118236   5.574   1.189   0.208
 5779SOL    HW218237   5.421   1.246   0.218
 5780SOL     OW18238   5.646   4.727   4.246
 5780SOL    HW118239   5.554   4.757   4.271
 5780SOL    HW218240   5.666   4.755   4.152
 5781SOL     OW18241   1.297   6.261   5.653
 5781SOL    HW118242   1.360   6.251   5.576
 5781SOL    HW218243   1.229   6.189   5.650
 5782SOL     OW18244   5.413   0.986   1.335
 5782SOL    HW118245   5.464   0.947   1.411
 5782SOL    HW218246   5.348   1.054   1.370
 5783SOL     OW18247   2.147   2.376   6.667
 5783SOL    HW118248   2.158   2.456   6.609
 5783SOL    HW218249   2.237   2.334   6.682
 5784SOL     OW18250   6.770   6.213   0.439
 5784SOL    HW118251   6.780   6.193   0.537
 5784SOL    HW218252   6.816   6.141   0.386
 5785SOL     OW18253   1.742   1.172   2.261
 5785SOL    HW118254   1.720   1.136   2.171
 5785SOL    HW218255   1.820   1.234   2.254
 5786SOL     OW18256   5.491   4.597   2.043
 5786SOL    HW118257   5.395   4.575   2.027
 5786SOL    HW218258   5.537   4.517   2.080
 5787SOL     OW18259   2.270   2.689   6.268
 5787SOL    HW118260   2.290   2.638   6.184
 5787SOL    HW218261   2.324   2.773   6.270
 5788SOL     OW18262   3.397   1.025   4.265
 5788SOL    HW118263   3.395   1.123   4.285
 5788SOL    HW218264   3.373   1.010   4.170
 5789SOL     OW18265   3.157   4.716   6.189
 5789SOL    HW118266   3.197   4.805   6.210
 5789SOL    HW218267   3.173   4.654   6.266
 5790SOL     OW18268   2.190   3.281   4.092
 5790SOL    HW118269   2.198   3.181   4.086
 5790SOL    HW218270   2.204   3.321   4.001
 5791SOL     OW18271   1.196   0.822   3.498
 5791SOL    HW118272   1.212   0.921   3.496
 5791SOL    HW218273   1.212   0.785   3.406
 5792SOL     OW18274   1.186   1.068   3.338
 5792SOL    HW118275   1.264   1.131   3.339
 5792SOL    HW218276   1.121   1.095   3.408
 5793SOL     OW18277   6.476   1.439   5.302
 5793SOL    HW118278   6.414   1.457   5.379
 5793SOL    HW218279   6.554   1.502   5.306
 5794SOL     OW18280   6.904   3.644   6.720
 5794SOL    HW118281   6.855   3.727   6.695
 5794SOL    HW218282   6.999   3.651   6.688
 5795SOL     OW18283   6.715   4.139   0.290
 5795SOL    HW118284   6.621   4.132   0.322
 5795SOL    HW218285   6.722   4.209   0.219
 5796SOL     OW18286   2.769   1.864   0.461
 5796SOL    HW118287   2.738   1.958   0.451
 5796SOL    HW218288   2.707   1.803   0.411
 5797SOL     OW18289   3.273   3.516   5.921
 5797SOL    HW118290   3.355   3.477   5.881
 5797SOL    HW218291   3.194   3.496   5.863
 5798SOL     OW18292   6.255   4.574   4.288
 5798SOL    HW118293   6.205   4.487   4.285
 5798SOL    HW218294   6.241   4.623   4.202
 5799SOL     OW18295   5.058   0.196   3.950
 5799SOL    HW118296   5.093   0.279   3.993
 5799SOL    HW218297   4.977   0.164   3.999
 5800SOL     OW18298   5.599   6.233   6.198
 5800SOL    HW118299   5.577   6.136   6.183
 5800SOL    HW218300   5.645   6.243   6.286
 5801SOL     OW18301   1.909   0.964   1.890
 5801SOL    HW118302   1.854   0.881   1.891
 5801SOL    HW218303   1.857   1.037   1.846
 5802SOL     OW18304   0.371   2.825   4.595
 5802SOL    HW118305   0.423   2.768   4.531
 5802SOL    HW218306   0.331   2.768   4.666
 5803SOL     OW18307   1.383   4.975   1.085
 5803SOL    HW118308   1.358   4.899   1.145
 5803SOL    HW218309   1.474   4.958   1.046
 5804SOL     OW18310   0.415   2.869   6.802
 5804SOL    HW118311   0.504   2.896   6.766
 5804SOL    HW218312   0.410   2.892   6.900
 5805SOL     OW18313   4.784   3.410   6.680
 5805SOL    HW118314   4.686   3.413   6.698
 5805SOL    HW218315   4.812   3.497   6.638
 5806SOL     OW18316   5.996   6.083   5.670
 5806SOL    HW118317   5.936   6.128   5.603
 5806SOL    HW218318   5.977   5.985   5.670
 5807SOL     OW18319   2.459   4.277   1.278
 5807SOL    HW118320   2.372   4.242   1.243
 5807SOL    HW218321   2.508   4.324   1.205
 5808SOL     OW18322   6.810   1.913   3.836
 5808SOL    HW118323   6.875   1.848   3.798
 5808SOL    HW218324   6.778   1.881   3.925
 5809SOL     OW18325   0.778   3.562   3.347
 5809SOL    HW118326   0.859   3.509   3.319
 5809SOL    HW218327   0.714   3.502   3.394
 5810SOL     OW18328   3.682   1.806   2.878
 5810SOL    HW118329   3.619   1.734   2.907
 5810SOL    HW218330   3.634   1.894   2.877
 5811SOL     OW18331   2.832   6.858   1.046
 5811SOL    HW118332   2.856   6.884   1.139
 5811SOL    HW218333   2.734   6.843   1.040
 5812SOL     OW18334   5.208   0.693   4.492
 5812SOL    HW118335   5.117   0.722   4.462
 5812SOL    HW218336   5.236   0.613   4.441
 5813SOL     OW18337   1.467   2.267   4.829
 5813SOL    HW118338   1.432   2.175   4.848
 5813SOL    HW218339   1.440   2.295   4.737
 5814SOL     OW18340   0.420   4.885   1.226
 5814SOL    HW118341   0.488   4.835   1.280
 5814SOL    HW218342   0.431   4.983   1.242
 5815SOL     OW18343   4.489   6.471   5.274
 5815SOL    HW118344   4.402   6.519   5.264
 5815SOL    HW218345   4.562   6.528   5.236
 5816SOL     OW18346   5.353   6.491   6.538
 5816SOL    HW118347   5.300   6.574   6.517
 5816SOL    HW218348   5.333   6.462   6.631
 5817SOL     OW18349   6.383   2.548   6.263
 5817SOL    HW118350   6.347   2.474   6.206
 5817SOL    HW218351   6.381   2.634   6.212
 5818SOL     OW18352   5.979   6.611   4.988
 5818SOL    HW118353   5.904   6.546   4.999
 5818SOL    HW218354   5.966   6.664   4.904
 5819SOL     OW18355   6.561   0.981   1.541
 5819SOL    HW118356   6.626   0.907   1.560
 5819SOL    HW218357   6.501   0.954   1.465
 5820SOL     OW18358   5.465   4.565   1.554
 5820SOL    HW118359   5.375   4.572   1.596
 5820SOL    HW218360   5.512   4.652   1.563
 5821SOL     OW18361   2.951   6.551   2.562
 5821SOL    HW118362   2.923   6.467   2.610
 5821SOL    HW218363   3.041   6.537   2.521
 5822SOL     OW18364   0.261   0.514   3.061
 5822SOL    HW118365   0.330   0.448   3.091
 5822SOL    HW218366   0.304   0.578   2.997
 5823SOL     OW18367   1.358   2.407   3.852
 5823SOL    HW118368   1.350   2.481   3.786
 5823SOL    HW218369   1.268   2.390   3.894
 5824SOL     OW18370   4.985   0.758   3.553
 5824SOL    HW118371   4.912   0.720   3.610
 5824SOL    HW218372   5.001   0.696   3.476
 5825SOL     OW18373   2.720   1.296   1.702
 5825SOL    HW118374   2.716   1.257   1.794
 5825SOL    HW218375   2.804   1.266   1.656
 5826SOL     OW18376   0.165   6.760   2.883
 5826SOL    HW118377   0.237   6.693   2.900
 5826SOL    HW218378   0.205   6.850   2.868
 5827SOL     OW18379   1.839   5.322   6.031
 5827SOL    HW118380   1.786   5.388   5.977
 5827SOL    HW218381   1.920   5.294   5.980
 5828SOL     OW18382   6.430   1.678   1.342
 5828SOL    HW118383   6.354   1.741   1.359
 5828SOL    HW218384   6.427   1.603   1.408
 5829SOL     OW18385   2.197   0.933   1.516
 5829SOL    HW118386   2.222   0.975   1.429
 5829SOL    HW218387   2.099   0.913   1.517
 5830SOL     OW18388   1.330   0.945   5.917
 5830SOL    HW118389   1.355   0.852   5.946
 5830SOL    HW218390   1.231   0.950   5.904
 5831SOL     OW18391   5.677   5.635   2.984
 5831SOL    HW118392   5.742   5.710   2.998
 5831SOL    HW218393   5.593   5.671   2.945
 5832SOL     OW18394   4.081   3.448   4.261
 5832SOL    HW118395   4.063   3.499   4.178
 5832SOL    HW218396   4.123   3.508   4.330
 5833SOL     OW18397   3.171   2.988   4.313
 5833SOL    HW118398   3.267   3.002   4.334
 5833SOL    HW218399   3.162   2.921   4.239
 5834SOL     OW18400   5.496   1.599   6.625
 5834SOL    HW118401   5.579   1.543   6.630
 5834SOL    HW218402   5.506   1.665   6.550
 5835SOL     OW18403   5.547   2.571   4.319
 5835SOL    HW118404   5.539   2.478   4.354
 5835SOL    HW218405   5.637   2.608   4.343
 5836SOL     OW18406   3.827   6.768   4.040
 5836SOL    HW118407   3.895   6.835   4.069
 5836SOL    HW218408   3.744   6.815   4.011
 5837SOL     OW18409   3.924   4.325   0.001
 5837SOL    HW118410   3.992   4.253   7.012
 5837SOL    HW218411   3.853   4.291   0.063
 5838SOL     OW18412   0.778   1.318   5.823
 5838SOL    HW118413   0.698   1.259   5.840
 5838SOL    HW218414   0.841   1.312   5.901
 5839SOL     OW18415   0.295   2.677   2.416
 5839SOL    HW118416   0.254   2.764   2.392
 5839SOL    HW218417   0.235   2.602   2.388
 5840SOL     OW18418   3.089   5.437   0.416
 5840SOL    HW118419   3.185   5.452   0.394
 5840SOL    HW218420   3.037   5.417   0.332
 5841SOL     OW18421   6.296   2.575   3.180
 5841SOL    HW118422   6.331   2.552   3.270
 5841SOL    HW218423   6.199   2.598   3.186
 5842SOL     OW18424   3.691   2.419   1.157
 5842SOL    HW118425   3.662   2.512   1.135
 5842SOL    HW218426   3.611   2.363   1.178
 5843SOL     OW18427   0.254   1.950   1.629
 5843SOL    HW118428   0.238   1.961   1.727
 5843SOL    HW218429   0.342   1.904   1.614
 5844SOL     OW18430   1.805   6.491   6.229
 5844SOL    HW118431   1.810   6.560   6.300
 5844SOL    HW218432   1.719   6.502   6.178
 5845SOL     OW18433   2.459   2.572   4.325
 5845SOL    HW118434   2.466   2.625   4.409
 5845SOL    HW218435   2.548   2.533   4.303
 5846SOL     OW18436   0.432   3.351   6.735
 5846SOL    HW118437   0.346   3.356   6.683
 5846SOL    HW218438   0.445   3.436   6.785
 5847SOL     OW18439   1.424   2.522   4.118
 5847SOL    HW118440   1.336   2.561   4.092
 5847SOL    HW218441   1.475   2.497   4.035
 5848SOL     OW18442   1.012   4.515   3.424
 5848SOL    HW118443   1.053   4.594   3.469
 5848SOL    HW218444   1.060   4.432   3.453
 5849SOL     OW18445   1.984   0.598   5.648
 5849SOL    HW118446   2.082   0.580   5.651
 5849SOL    HW218447   1.935   0.524   5.694
 5850SOL     OW18448   1.123   5.077   2.985
 5850SOL    HW118449   1.192   5.052   2.916
 5850SOL    HW218450   1.059   5.142   2.945
 5851SOL     OW18451   6.807   3.550   1.806
 5851SOL    HW118452   6.824   3.647   1.789
 5851SOL    HW218453   6.891   3.506   1.839
 5852SOL     OW18454   4.069   6.602   2.576
 5852SOL    HW118455   4.019   6.531   2.626
 5852SOL    HW218456   4.024   6.691   2.591
 5853SOL     OW18457   4.911   4.166   5.040
 5853SOL    HW118458   4.874   4.074   5.046
 5853SOL    HW218459   4.963   4.176   4.956
 5854SOL     OW18460   1.445   0.927   6.740
 5854SOL    HW118461   1.426   0.971   6.652
 5854SOL    HW218462   1.364   0.937   6.799
 5855SOL     OW18463   1.843   1.878   5.229
 5855SOL    HW118464   1.875   1.934   5.153
 5855SOL    HW218465   1.754   1.912   5.261
 5856SOL     OW18466   0.849   6.926   3.512
 5856SOL    HW118467   0.896   6.851   3.557
 5856SOL    HW218468   0.760   6.940   3.553
 5857SOL     OW18469   0.770   2.454   5.526
 5857SOL    HW118470   0.851   2.414   5.484
 5857SOL    HW218471   0.699   2.384   5.534
 5858SOL     OW18472   3.025   0.143   4.098
 5858SOL    HW118473   3.026   0.221   4.161
 5858SOL    HW218474   2.939   0.142   4.047
 5859SOL     OW18475   5.606   4.972   1.823
 5859SOL    HW118476   5.587   5.068   1.801
 5859SOL    HW218477   5.691   4.966   1.876
 5860SOL     OW18478   6.560   4.465   0.488
 5860SOL    HW118479   6.462   4.449   0.497
 5860SOL    HW218480   6.587   4.459   0.392
 5861SOL     OW18481   6.441   2.184   4.685
 5861SOL    HW118482   6.436   2.273   4.639
 5861SOL    HW218483   6.438   2.111   4.616
 5862SOL     OW18484   6.429   5.349   4.214
 5862SOL    HW118485   6.456   5.389   4.127
 5862SOL    HW218486   6.378   5.265   4.197
 5863SOL     OW18487   1.891   1.571   0.731
 5863SOL    HW118488   1.932   1.608   0.647
 5863SOL    HW218489   1.950   1.592   0.809
 5864SOL     OW18490   4.801   5.233   0.259
 5864SOL    HW118491   4.769   5.143   0.289
 5864SOL    HW218492   4.868   5.221   0.185
 5865SOL     OW18493   4.328   0.179   3.029
 5865SOL    HW118494   4.239   0.138   3.013
 5865SOL    HW218495   4.372   0.198   2.940
 5866SOL     OW18496   3.654   1.971   6.587
 5866SOL    HW118497   3.595   1.890   6.587
 5866SOL    HW218498   3.626   2.033   6.661
 5867SOL     OW18499   6.662   2.869   2.229
 5867SOL    HW118500   6.578   2.828   2.194
 5867SOL    HW218501   6.738   2.847   2.168
 5868SOL     OW18502   0.295   6.273   5.573
 5868SOL    HW118503   0.226   6.227   5.628
 5868SOL    HW218504   0.276   6.258   5.476
 5869SOL     OW18505   2.477   5.142   4.619
 5869SOL    HW118506   2.455   5.209   4.548
 5869SOL    HW218507   2.422   5.060   4.604
 5870SOL     OW18508   5.698   5.997   4.416
 5870SOL    HW118509   5.643   5.991   4.500
 5870SOL    HW218510   5.795   5.996   4.439
 5871SOL     OW18511   3.484   4.738   0.846
 5871SOL    HW118512   3.458   4.704   0.755
 5871SOL    HW218513   3.545   4.816   0.835
 5872SOL     OW18514   4.413   5.883   3.902
 5872SOL    HW118515   4.403   5.855   3.806
 5872SOL    HW218516   4.510   5.878   3.928
 5873SOL     OW18517   2.104   3.327   1.208
 5873SOL    HW118518   2.090   3.238   1.252
 5873SOL    HW218519   2.091   3.400   1.274
 5874SOL     OW18520   0.457   4.668   6.193
 5874SOL    HW118521   0.425   4.610   6.268
 5874SOL    HW218522   0.379   4.703   6.142
 5875SOL     OW18523   4.200   2.515   1.386
 5875SOL    HW118524   4.190   2.561   1.298
 5875SOL    HW218525   4.142   2.560   1.454
 5876SOL     OW18526   3.896   4.324   6.048
 5876SOL    HW118527   3.854   4.392   5.988
 5876SOL    HW218528   3.891   4.356   6.143
 5877SOL     OW18529   5.749   6.223   3.152
 5877SOL    HW118530   5.791   6.313   3.146
 5877SOL    HW218531   5.741   6.184   3.060
 5878SOL     OW18532   4.962   4.060   2.976
 5878SOL    HW118533   5.041   4.121   2.977
 5878SOL    HW218534   4.910   4.072   3.061
 5879SOL     OW18535   3.163   4.461   5.757
 5879SOL    HW118536   3.256   4.498   5.755
 5879SOL    HW218537   3.121   4.473   5.667
 5880SOL     OW18538   5.884   2.173   0.659
 5880SOL    HW118539   5.961   2.232   0.637
 5880SOL    HW218540   5.864   2.114   0.582
 5881SOL     OW18541   0.878   6.062   3.717
 5881SOL    HW118542   0.854   6.021   3.630
 5881SOL    HW218543   0.808   6.128   3.744
 5882SOL     OW18544   1.109   5.770   4.599
 5882SOL    HW118545   1.010   5.779   4.609
 5882SOL    HW218546   1.153   5.786   4.687
 5883SOL     OW18547   0.181   5.673   0.066
 5883SOL    HW118548   0.103   5.618   0.037
 5883SOL    HW218549   0.175   5.763   0.024
 5884SOL     OW18550   0.784   0.950   1.499
 5884SOL    HW118551   0.722   1.019   1.462
 5884SOL    HW218552   0.731   0.869   1.527
 5885SOL     OW18553   6.666   5.956   2.052
 5885SOL    HW118554   6.702   5.867   2.080
 5885SOL    HW218555   6.688   5.973   1.957
 5886SOL     OW18556   1.633   4.357   3.213
 5886SOL    HW118557   1.687   4.309   3.282
 5886SOL    HW218558   1.538   4.363   3.243
 5887SOL     OW18559   2.338   3.500   1.444
 5887SOL    HW118560   2.437   3.513   1.450
 5887SOL    HW218561   2.315   3.405   1.464
 5888SOL     OW18562   3.322   6.237   1.794
 5888SOL    HW118563   3.303   6.283   1.707
 5888SOL    HW218564   3.238   6.197   1.830
 5889SOL     OW18565   4.636   1.083   1.617
 5889SOL    HW118566   4.704   1.146   1.577
 5889SOL    HW218567   4.671   0.990   1.612
 5890SOL     OW18568   2.647   5.126   3.085
 5890SOL    HW118569   2.637   5.195   3.014
 5890SOL    HW218570   2.703   5.050   3.051
 5891SOL     OW18571   2.254   3.002   6.829
 5891SOL    HW118572   2.269   3.054   6.745
 5891SOL    HW218573   2.311   3.039   6.902
 5892SOL     OW18574   0.514   2.217   1.664
 5892SOL    HW118575   0.582   2.202   1.593
 5892SOL    HW218576   0.493   2.130   1.709
 5893SOL     OW18577   0.083   6.285   1.144
 5893SOL    HW118578   0.135   6.264   1.061
 5893SOL    HW218579   0.146   6.318   1.215
 5894SOL     OW18580   3.162   5.302   6.880
 5894SOL    HW118581   3.084   5.360   6.857
 5894SOL    HW218582   3.132   5.231   6.944
 5895SOL     OW18583   6.130   2.411   4.270
 5895SOL    HW118584   6.140   2.348   4.348
 5895SOL    HW218585   6.132   2.505   4.303
 5896SOL     OW18586   5.668   2.522   0.685
 5896SOL    HW118587   5.748   2.500   0.741
 5896SOL    HW218588   5.682   2.488   0.592
 5897SOL     OW18589   3.184   3.562   0.291
 5897SOL    HW118590   3.219   3.622   0.364
 5897SOL    HW218591   3.254   3.553   0.220
 5898SOL     OW18592   3.929   0.353   6.753
 5898SOL    HW118593   3.867   0.430   6.738
 5898SOL    HW218594   3.877   0.267   6.751
 5899SOL     OW18595   0.009   0.304   0.706
 5899SOL    HW118596   6.961   0.290   0.640
 5899SOL    HW218597   0.086   0.350   0.661
 5900SOL     OW18598   5.257   5.930   2.182
 5900SOL    HW118599   5.188   5.892   2.245
 5900SOL    HW218600   5.215   6.000   2.125
 5901SOL     OW18601   1.122   0.282   4.531
 5901SOL    HW118602   1.151   0.198   4.485
 5901SOL    HW218603   1.100   0.352   4.462
 5902SOL     OW18604   4.426   3.893   5.731
 5902SOL    HW118605   4.430   3.794   5.721
 5902SOL    HW218606   4.335   3.925   5.706
 5903SOL     OW18607   5.011   1.048   6.433
 5903SOL    HW118608   5.102   1.006   6.436
 5903SOL    HW218609   4.977   1.061   6.526
 5904SOL     OW18610   6.999   5.493   1.317
 5904SOL    HW118611   7.021   5.397   1.332
 5904SOL    HW218612   7.014   5.515   1.220
 5905SOL     OW18613   6.456   1.805   4.916
 5905SOL    HW118614   6.500   1.803   4.826
 5905SOL    HW218615   6.428   1.899   4.938
 5906SOL     OW18616   4.130   0.585   4.556
 5906SOL    HW118617   4.035   0.582   4.525
 5906SOL    HW218618   4.143   0.664   4.616
 5907SOL     OW18619   1.057   3.248   5.662
 5907SOL    HW118620   1.031   3.234   5.566
 5907SOL    HW218621   1.143   3.299   5.667
 5908SOL     OW18622   4.814   2.931   6.725
 5908SOL    HW118623   4.818   2.843   6.771
 5908SOL    HW218624   4.870   2.997   6.774
 5909SOL     OW18625   6.957   5.068   2.966
 5909SOL    HW118626   0.026   5.062   2.997
 5909SOL    HW218627   6.895   5.055   3.043
 5910SOL     OW18628   1.932   4.292   2.574
 5910SOL    HW118629   1.960   4.196   2.571
 5910SOL    HW218630   2.011   4.350   2.551
 5911SOL     OW18631   0.540   1.065   4.978
 5911SOL    HW118632   0.606   1.017   4.920
 5911SOL    HW218633   0.584   1.092   5.064
 5912SOL     OW18634   0.697   3.770   6.040
 5912SOL    HW118635   0.645   3.830   6.101
 5912SOL    HW218636   0.733   3.824   5.963
 5913SOL     OW18637   1.896   2.858   5.338
 5913SOL    HW118638   1.833   2.923   5.297
 5913SOL    HW218639   1.986   2.867   5.296
 5914SOL     OW18640   0.858   5.695   0.269
 5914SOL    HW118641   0.818   5.641   0.195
 5914SOL    HW218642   0.836   5.654   0.357
 5915SOL     OW18643   5.691   4.307   4.730
 5915SOL    HW118644   5.772   4.251   4.710
 5915SOL    HW218645   5.609   4.256   4.704
 5916SOL     OW18646   3.376   0.701   6.761
 5916SOL    HW118647   3.380   0.703   6.861
 5916SOL    HW218648   3.454   0.649   6.726
 5917SOL     OW18649   3.261   3.596   1.791
 5917SOL    HW118650   3.304   3.681   1.820
 5917SOL    HW218651   3.328   3.522   1.793
 5918SOL     OW18652   3.319   2.165   3.744
 5918SOL    HW118653   3.403   2.158   3.799
 5918SOL    HW218654   3.343   2.182   3.649
 5919SOL     OW18655   1.516   1.316   6.145
 5919SOL    HW118656   1.614   1.334   6.155
 5919SOL    HW218657   1.503   1.240   6.081
 5920SOL     OW18658   1.890   3.733   6.556
 5920SOL    HW118659   1.962   3.796   6.526
 5920SOL    HW218660   1.928   3.664   6.616
 5921SOL     OW18661   3.382   6.522   4.153
 5921SOL    HW118662   3.453   6.534   4.223
 5921SOL    HW218663   3.425   6.492   4.067
 5922SOL     OW18664   6.830   5.275   2.408
 5922SOL    HW118665   6.825   5.190   2.459
 5922SOL    HW218666   6.904   5.270   2.341
 5923SOL     OW18667   0.947   6.934   2.997
 5923SOL    HW118668   0.948   6.845   2.951
 5923SOL    HW218669   1.040   6.962   3.018
 5924SOL     OW18670   6.044   2.280   4.628
 5924SOL    HW118671   5.947   2.304   4.618
 5924SOL    HW218672   6.074   2.299   4.721
 5925SOL     OW18673   6.557   6.609   1.212
 5925SOL    HW118674   6.567   6.661   1.127
 5925SOL    HW218675   6.605   6.657   1.285
 5926SOL     OW18676   2.695   0.036   2.163
 5926SOL    HW118677   2.642   6.977   2.158
 5926SOL    HW218678   2.648   0.108   2.111
 5927SOL     OW18679   1.899   5.559   1.300
 5927SOL    HW118680   1.824   5.620   1.275
 5927SOL    HW218681   1.901   5.481   1.238
 5928SOL     OW18682   6.161   6.415   0.976
 5928SOL    HW118683   6.212   6.473   1.039
 5928SOL    HW218684   6.200   6.423   0.884
 5929SOL     OW18685   0.461   0.367   6.495
 5929SOL    HW118686   0.530   0.394   6.428
 5929SOL    HW218687   0.397   0.302   6.454
 5930SOL     OW18688   6.963   1.703   4.716
 5930SOL    HW118689   6.900   1.708   4.793
 5930SOL    HW218690   6.917   1.664   4.637
 5931SOL     OW18691   6.166   4.444   0.800
 5931SOL    HW118692   6.139   4.351   0.826
 5931SOL    HW218693   6.258   4.462   0.834
 5932SOL     OW18694   2.485   0.637   0.820
 5932SOL    HW118695   2.444   0.703   0.884
 5932SOL    HW218696   2.413   0.594   0.766
 5933SOL     OW18697   5.576   2.630   3.254
 5933SOL    HW118698   5.590   2.549   3.196
 5933SOL    HW218699   5.657   2.643   3.312
 5934SOL     OW18700   4.185   3.429   1.846
 5934SOL    HW118701   4.230   3.517   1.835
 5934SOL    HW218702   4.089   3.437   1.821
 5935SOL     OW18703   3.836   3.517   2.801
 5935SOL    HW118704   3.910   3.510   2.868
 5935SOL    HW218705   3.872   3.554   2.715
 5936SOL     OW18706   6.513   5.941   6.974
 5936SOL    HW118707   6.446   6.008   6.942
 5936SOL    HW218708   6.591   5.940   6.912
 5937SOL     OW18709   0.918   3.278   1.324
 5937SOL    HW118710   0.898   3.339   1.400
 5937SOL    HW218711   0.891   3.185   1.348
 5938SOL     OW18712   3.019   5.156   1.244
 5938SOL    HW118713   3.117   5.166   1.230
 5938SOL    HW218714   2.998   5.059   1.262
 5939SOL     OW18715   0.378   0.104   2.289
 5939SOL    HW118716   0.449   0.059   2.344
 5939SOL    HW218717   0.332   0.035   2.232
 5940SOL     OW18718   4.502   4.469   2.609
 5940SOL    HW118719   4.521   4.565   2.587
 5940SOL    HW218720   4.479   4.421   2.525
 5941SOL     OW18721   6.391   2.962   3.970
 5941SOL    HW118722   6.447   2.995   4.047
 5941SOL    HW218723   6.334   2.886   4.001
 5942SOL     OW18724   0.187   1.993   4.992
 5942SOL    HW118725   0.216   1.954   5.080
 5942SOL    HW218726   0.118   2.063   5.008
 5943SOL     OW18727   1.628   6.169   1.003
 5943SOL    HW118728   1.599   6.170   0.907
 5943SOL    HW218729   1.585   6.245   1.052
 5944SOL     OW18730   5.108   2.851   3.172
 5944SOL    HW118731   5.196   2.824   3.133
 5944SOL    HW218732   5.093   2.802   3.258
 5945SOL     OW18733   6.187   6.393   6.323
 5945SOL    HW118734   6.168   6.299   6.296
 5945SOL    HW218735   6.206   6.448   6.241
 5946SOL     OW18736   3.845   2.209   5.313
 5946SOL    HW118737   3.903   2.290   5.320
 5946SOL    HW218738   3.821   2.176   5.404
 5947SOL     OW18739   6.012   3.950   3.386
 5947SOL    HW118740   5.939   3.975   3.448
 5947SOL    HW218741   6.018   4.017   3.312
 5948SOL     OW18742   2.368   5.608   3.183
 5948SOL    HW118743   2.448   5.565   3.226
 5948SOL    HW218744   2.293   5.612   3.249
 5949SOL     OW18745   5.387   4.042   2.951
 5949SOL    HW118746   5.420   4.025   3.044
 5949SOL    HW218747   5.306   4.100   2.955
 5950SOL     OW18748   0.903   1.968   5.174
 5950SOL    HW118749   0.826   1.907   5.158
 5950SOL    HW218750   0.870   2.062   5.186
 5951SOL     OW18751   2.104   0.752   3.318
 5951SOL    HW118752   2.144   0.670   3.358
 5951SOL    HW218753   2.039   0.726   3.247
 5952SOL     OW18754   6.780   6.602   4.366
 5952SOL    HW118755   6.820   6.524   4.317
 5952SOL    HW218756   6.700   6.572   4.416
 5953SOL     OW18757   1.368   4.076   5.941
 5953SOL    HW118758   1.456   4.104   5.979
 5953SOL    HW218759   1.368   3.978   5.925
 5954SOL     OW18760   1.256   4.462   6.515
 5954SOL    HW118761   1.231   4.473   6.419
 5954SOL    HW218762   1.244   4.366   6.542
 5955SOL     OW18763   3.474   5.362   2.073
 5955SOL    HW118764   3.468   5.289   2.006
 5955SOL    HW218765   3.393   5.421   2.065
 5956SOL     OW18766   0.453   1.432   0.890
 5956SOL    HW118767   0.495   1.348   0.924
 5956SOL    HW218768   0.484   1.510   0.945
 5957SOL     OW18769   3.994   6.636   6.427
 5957SOL    HW118770   4.085   6.628   6.468
 5957SOL    HW218771   4.000   6.613   6.330
 5958SOL     OW18772   0.824   5.999   2.334
 5958SOL    HW118773   0.864   6.088   2.312
 5958SOL    HW218774   0.815   5.945   2.250
 5959SOL     OW18775   1.392   0.437   5.437
 5959SOL    HW118776   1.396   0.523   5.385
 5959SOL    HW218777   1.300   0.426   5.475
 5960SOL     OW18778   3.419   5.747   5.113
 5960SOL    HW118779   3.392   5.726   5.019
 5960SOL    HW218780   3.406   5.844   5.131
 5961SOL     OW18781   3.311   0.440   5.131
 5961SOL    HW118782   3.390   0.446   5.071
 5961SOL    HW218783   3.230   0.418   5.077
 5962SOL     OW18784   5.491   4.266   3.386
 5962SOL    HW118785   5.397   4.271   3.420
 5962SOL    HW218786   5.502   4.183   3.331
 5963SOL     OW18787   4.336   4.054   1.671
 5963SOL    HW118788   4.240   4.049   1.700
 5963SOL    HW218789   4.386   4.116   1.731
 5964SOL     OW18790   1.412   3.424   5.027
 5964SOL    HW118791   1.376   3.517   5.032
 5964SOL    HW218792   1.504   3.421   5.067
 5965SOL     OW18793   2.236   2.475   4.613
 5965SOL    HW118794   2.144   2.452   4.643
 5965SOL    HW218795   2.298   2.400   4.636
 5966SOL     OW18796   1.285   5.238   4.178
 5966SOL    HW118797   1.215   5.291   4.224
 5966SOL    HW218798   1.375   5.277   4.197
 5967SOL     OW18799   5.061   5.662   0.717
 5967SOL    HW118800   5.096   5.603   0.644
 5967SOL    HW218801   5.109   5.642   0.802
 5968SOL     OW18802   2.191   1.912   4.371
 5968SOL    HW118803   2.216   1.841   4.438
 5968SOL    HW218804   2.268   1.973   4.357
 5969SOL     OW18805   0.635   2.367   2.974
 5969SOL    HW118806   0.682   2.279   2.967
 5969SOL    HW218807   0.682   2.424   3.041
 5970SOL     OW18808   1.707   4.201   3.407
 5970SOL    HW118809   1.709   4.131   3.335
 5970SOL    HW218810   1.726   4.160   3.495
 5971SOL     OW18811   3.114   5.690   3.570
 5971SOL    HW118812   3.023   5.723   3.546
 5971SOL    HW218813   3.122   5.680   3.669
 5972SOL     OW18814   4.825   6.840   1.402
 5972SOL    HW118815   4.832   6.939   1.414
 5972SOL    HW218816   4.765   6.802   1.472
 5973SOL     OW18817   2.904   4.836   3.305
 5973SOL    HW118818   2.964   4.908   3.270
 5973SOL    HW218819   2.883   4.771   3.232
 5974SOL     OW18820   0.675   3.859   6.702
 5974SOL    HW118821   0.662   3.842   6.604
 5974SOL    HW218822   0.690   3.956   6.717
 5975SOL     OW18823   1.879   2.957   6.463
 5975SOL    HW118824   1.976   2.975   6.446
 5975SOL    HW218825   1.865   2.942   6.561
 5976SOL     OW18826   3.225   4.137   4.425
 5976SOL    HW118827   3.296   4.152   4.493
 5976SOL    HW218828   3.156   4.075   4.462
 5977SOL     OW18829   0.515   3.724   2.970
 5977SOL    HW118830   0.581   3.698   2.899
 5977SOL    HW218831   0.442   3.779   2.929
 5978SOL     OW18832   5.401   5.239   1.069
 5978SOL    HW118833   5.436   5.190   1.149
 5978SOL    HW218834   5.314   5.284   1.093
 5979SOL     OW18835   1.162   1.101   1.887
 5979SOL    HW118836   1.227   1.072   1.957
 5979SOL    HW218837   1.069   1.085   1.919
 5980SOL     OW18838   5.832   2.825   5.131
 5980SOL    HW118839   5.812   2.920   5.105
 5980SOL    HW218840   5.792   2.763   5.063
 5981SOL     OW18841   3.432   2.092   0.763
 5981SOL    HW118842   3.361   2.151   0.802
 5981SOL    HW218843   3.481   2.142   0.691
 5982SOL     OW18844   6.330   2.881   6.549
 5982SOL    HW118845   6.294   2.858   6.639
 5982SOL    HW218846   6.341   2.798   6.495
 5983SOL     OW18847   0.021   0.914   4.069
 5983SOL    HW118848   6.988   0.989   4.038
 5983SOL    HW218849   7.013   0.881   4.157
 5984SOL     OW18850   0.276   0.226   6.334
 5984SOL    HW118851   0.258   0.305   6.275
 5984SOL    HW218852   0.274   0.142   6.279
 5985SOL     OW18853   5.723   3.460   3.901
 5985SOL    HW118854   5.721   3.520   3.821
 5985SOL    HW218855   5.801   3.397   3.893
 5986SOL     OW18856   3.299   3.644   2.143
 5986SOL    HW118857   3.349   3.712   2.196
 5986SOL    HW218858   3.297   3.558   2.194
 5987SOL     OW18859   4.097   0.116   5.202
 5987SOL    HW118860   4.075   0.100   5.298
 5987SOL    HW218861   4.085   0.213   5.181
 5988SOL     OW18862   3.212   6.786   5.596
 5988SOL    HW118863   3.203   6.695   5.636
 5988SOL    HW218864   3.262   6.845   5.660
 5989SOL     OW18865   3.224   1.595   6.597
 5989SOL    HW118866   3.238   1.693   6.582
 5989SOL    HW218867   3.173   1.557   6.520
 5990SOL     OW18868   2.325   6.207   3.227
 5990SOL    HW118869   2.342   6.114   3.259
 5990SOL    HW218870   2.294   6.263   3.303
 5991SOL     OW18871   4.060   4.749   2.763
 5991SOL    HW118872   4.157   4.734   2.784
 5991SOL    HW218873   4.046   4.740   2.664
 5992SOL     OW18874   3.666   1.793   4.066
 5992SOL    HW118875   3.680   1.886   4.100
 5992SOL    HW218876   3.578   1.787   4.020
 5993SOL     OW18877   2.564   5.626   4.282
 5993SOL    HW118878   2.608   5.551   4.233
 5993SOL    HW218879   2.486   5.658   4.230
 5994SOL     OW18880   6.346   2.255   0.794
 5994SOL    HW118881   6.320   2.337   0.743
 5994SOL    HW218882   6.382   2.282   0.883
 5995SOL     OW18883   0.368   3.826   1.783
 5995SOL    HW118884   0.309   3.754   1.748
 5995SOL    HW218885   0.353   3.910   1.730
 5996SOL     OW18886   1.261   6.216   6.087
 5996SOL    HW118887   1.244   6.120   6.064
 5996SOL    HW218888   1.197   6.274   6.038
 5997SOL     OW18889   0.119   0.071   1.409
 5997SOL    HW118890   0.130   0.140   1.337
 5997SOL    HW218891   0.031   0.025   1.397
 5998SOL     OW18892   4.913   3.612   2.967
 5998SOL    HW118893   4.916   3.553   2.885
 5998SOL    HW218894   4.875   3.701   2.942
 5999SOL     OW18895   2.190   3.103   3.160
 5999SOL    HW118896   2.112   3.139   3.109
 5999SOL    HW218897   2.210   3.010   3.130
 6000SOL     OW18898   5.038   1.020   3.613
 6000SOL    HW118899   5.136   1.038   3.616
 6000SOL    HW218900   5.022   0.924   3.591
 6001SOL     OW18901   4.750   1.114   6.994
 6001SOL    HW118902   4.718   1.036   0.022
 6001SOL    HW218903   4.676   1.147   6.936
 6002SOL     OW18904   2.033   0.119   2.092
 6002SOL    HW118905   2.000   0.209   2.121
 6002SOL    HW218906   2.063   0.124   1.996
 6003SOL     OW18907   5.248   5.220   3.579
 6003SOL    HW118908   5.247   5.192   3.483
 6003SOL    HW218909   5.271   5.142   3.637
 6004SOL     OW18910   0.812   3.243   1.931
 6004SOL    HW118911   0.875   3.166   1.924
 6004SOL    HW218912   0.793   3.262   2.027
 6005SOL     OW18913   2.248   6.558   2.423
 6005SOL    HW118914   2.172   6.609   2.381
 6005SOL    HW218915   2.236   6.558   2.522
 6006SOL     OW18916   2.225   6.642   6.302
 6006SOL    HW118917   2.271   6.719   6.346
 6006SOL    HW218918   2.136   6.672   6.267
 6007SOL     OW18919   5.576   3.677   4.564
 6007SOL    HW118920   5.576   3.738   4.643
 6007SOL    HW218921   5.606   3.586   4.592
 6008SOL     OW18922   5.472   3.873   2.031
 6008SOL    HW118923   5.406   3.894   2.103
 6008SOL    HW218924   5.457   3.934   1.953
 6009SOL     OW18925   3.228   1.626   4.904
 6009SOL    HW118926   3.161   1.591   4.838
 6009SOL    HW218927   3.259   1.717   4.875
 6010SOL     OW18928   1.913   5.091   3.457
 6010SOL    HW118929   1.816   5.087   3.482
 6010SOL    HW218930   1.966   5.036   3.521
 6011SOL     OW18931   6.608   2.344   1.461
 6011SOL    HW118932   6.635   2.253   1.428
 6011SOL    HW218933   6.601   2.342   1.560
 6012SOL     OW18934   0.679   2.302   0.706
 6012SOL    HW118935   0.633   2.390   0.698
 6012SOL    HW218936   0.613   2.232   0.733
 6013SOL     OW18937   5.364   1.240   2.368
 6013SOL    HW118938   5.267   1.261   2.360
 6013SOL    HW218939   5.398   1.269   2.457
 6014SOL     OW18940   5.943   1.585   0.205
 6014SOL    HW118941   5.962   1.666   0.148
 6014SOL    HW218942   5.874   1.608   0.273
 6015SOL     OW18943   6.055   6.833   4.324
 6015SOL    HW118944   6.074   6.916   4.377
 6015SOL    HW218945   6.141   6.799   4.285
 6016SOL     OW18946   1.059   0.167   5.310
 6016SOL    HW118947   1.120   0.094   5.340
 6016SOL    HW218948   1.080   0.192   5.216
 6017SOL     OW18949   0.090   3.589   2.500
 6017SOL    HW118950   0.173   3.576   2.446
 6017SOL    HW218951   0.091   3.681   2.540
 6018SOL     OW18952   3.260   4.844   1.927
 6018SOL    HW118953   3.226   4.782   1.856
 6018SOL    HW218954   3.346   4.809   1.964
 6019SOL     OW18955   7.009   6.871   3.749
 6019SOL    HW118956   0.006   6.871   3.847
 6019SOL    HW218957   6.915   6.839   3.737
 6020SOL     OW18958   2.742   6.445   2.937
 6020SOL    HW118959   2.685   6.479   2.863
 6020SOL    HW218960   2.822   6.503   2.947
 6021SOL     OW18961   2.840   1.220   3.383
 6021SOL    HW118962   2.750   1.228   3.425
 6021SOL    HW218963   2.861   1.303   3.331
 6022SOL     OW18964   3.547   2.264   5.783
 6022SOL    HW118965   3.491   2.196   5.830
 6022SOL    HW218966   3.518   2.270   5.687
 6023SOL     OW18967   0.636   2.028   1.975
 6023SOL    HW118968   0.688   2.092   1.917
 6023SOL    HW218969   0.561   2.076   2.020
 6024SOL     OW18970   6.024   4.677   2.076
 6024SOL    HW118971   6.083   4.622   2.017
 6024SOL    HW218972   6.050   4.664   2.171
 6025SOL     OW18973   4.522   2.552   2.402
 6025SOL    HW118974   4.566   2.468   2.433
 6025SOL    HW218975   4.592   2.622   2.383
 6026SOL     OW18976   1.138   4.302   5.321
 6026SOL    HW118977   1.220   4.343   5.281
 6026SOL    HW218978   1.104   4.362   5.394
 6027SOL     OW18979   3.696   4.274   0.170
 6027SOL    HW118980   3.742   4.279   0.259
 6027SOL    HW218981   3.665   4.366   0.144
 6028SOL     OW18982   1.002   4.123   5.876
 6028SOL    HW118983   1.039   4.118   5.783
 6028SOL    HW218984   1.045   4.200   5.924
 6029SOL     OW18985   1.512   5.173   1.499
 6029SOL    HW118986   1.539   5.175   1.595
 6029SOL    HW218987   1.569   5.237   1.447
 6030SOL     OW18988   2.007   6.431   1.593
 6030SOL    HW118989   1.970   6.507   1.647
 6030SOL    HW218990   2.016   6.350   1.651
 6031SOL     OW18991   4.531   0.874   4.643
 6031SOL    HW118992   4.550   0.913   4.553
 6031SOL    HW218993   4.481   0.788   4.632
 6032SOL     OW18994   1.268   2.324   2.426
 6032SOL    HW118995   1.243   2.365   2.338
 6032SOL    HW218996   1.234   2.382   2.500
 6033SOL     OW18997   0.085   6.991   4.357
 6033SOL    HW118998   0.151   6.976   4.431
 6033SOL    HW218999   0.119   6.947   4.274
 6034SOL     OW19000   3.108   4.967   4.590
 6034SOL    HW119001   3.013   4.970   4.621
 6034SOL    HW219002   3.163   4.913   4.654
 6035SOL     OW19003   4.722   0.271   3.979
 6035SOL    HW119004   4.631   0.309   3.963
 6035SOL    HW219005   4.770   0.329   4.045
 6036SOL     OW19006   5.349   1.194   5.694
 6036SOL    HW119007   5.265   1.194   5.748
 6036SOL    HW219008   5.333   1.144   5.609
 6037SOL     OW19009   0.003   5.089   4.426
 6037SOL    HW119010   0.003   5.070   4.524
 6037SOL    HW219011   0.070   5.030   4.380
 6038SOL     OW19012   0.154   3.359   6.696
 6038SOL    HW119013   0.107   3.288   6.645
 6038SOL    HW219014   0.108   3.374   6.783
 6039SOL     OW19015   3.230   3.596   3.633
 6039SOL    HW119016   3.142   3.644   3.640
 6039SOL    HW219017   3.213   3.501   3.608
 6040SOL     OW19018   1.483   0.916   1.150
 6040SOL    HW119019   1.534   0.830   1.160
 6040SOL    HW219020   1.413   0.905   1.079
 6041SOL     OW19021   0.646   3.379   6.150
 6041SOL    HW119022   0.608   3.324   6.224
 6041SOL    HW219023   0.635   3.330   6.063
 6042SOL     OW19024   5.726   5.849   5.089
 6042SOL    HW119025   5.719   5.902   5.173
 6042SOL    HW219026   5.816   5.805   5.085
 6043SOL     OW19027   6.721   4.641   3.305
 6043SOL    HW119028   6.793   4.574   3.319
 6043SOL    HW219029   6.692   4.639   3.209
 6044SOL     OW19030   1.487   1.055   0.822
 6044SOL    HW119031   1.487   0.957   0.803
 6044SOL    HW219032   1.439   1.072   0.908
 6045SOL     OW19033   6.054   3.639   6.607
 6045SOL    HW119034   6.053   3.615   6.510
 6045SOL    HW219035   6.123   3.709   6.624
 6046SOL     OW19036   0.800   3.870   6.985
 6046SOL    HW119037   0.744   3.943   6.947
 6046SOL    HW219038   0.894   3.880   6.954
 6047SOL     OW19039   1.130   6.729   5.156
 6047SOL    HW119040   1.181   6.691   5.079
 6047SOL    HW219041   1.180   6.710   5.241
 6048SOL     OW19042   4.883   6.629   3.742
 6048SOL    HW119043   4.911   6.725   3.747
 6048SOL    HW219044   4.906   6.592   3.652
 6049SOL     OW19045   0.058   5.387   0.427
 6049SOL    HW119046   0.136   5.394   0.365
 6049SOL    HW219047   0.041   5.291   0.450
 6050SOL     OW19048   5.694   4.490   5.205
 6050SOL    HW119049   5.650   4.489   5.115
 6050SOL    HW219050   5.781   4.540   5.199
 6051SOL     OW19051   2.549   2.117   3.135
 6051SOL    HW119052   2.482   2.043   3.129
 6051SOL    HW219053   2.513   2.190   3.193
 6052SOL     OW19054   0.654   1.979   6.923
 6052SOL    HW119055   0.729   2.042   6.904
 6052SOL    HW219056   0.568   2.017   6.887
 6053SOL     OW19057   0.966   0.647   6.293
 6053SOL    HW119058   0.922   0.591   6.222
 6053SOL    HW219059   1.058   0.611   6.311
 6054SOL     OW19060   0.578   3.874   6.432
 6054SOL    HW119061   0.608   3.950   6.375
 6054SOL    HW219062   0.639   3.797   6.420
 6055SOL     OW19063   5.549   6.296   2.605
 6055SOL    HW119064   5.539   6.245   2.691
 6055SOL    HW219065   5.640   6.337   2.602
 6056SOL     OW19066   5.408   2.958   6.394
 6056SOL    HW119067   5.316   2.986   6.365
 6056SOL    HW219068   5.430   2.870   6.353
 6057SOL     OW19069   5.184   0.428   6.406
 6057SOL    HW119070   5.198   0.373   6.488
 6057SOL    HW219071   5.191   0.370   6.325
 6058SOL     OW19072   5.497   2.664   5.629
 6058SOL    HW119073   5.409   2.640   5.588
 6058SOL    HW219074   5.565   2.595   5.604
 6059SOL     OW19075   6.930   6.243   6.733
 6059SOL    HW119076   7.018   6.203   6.705
 6059SOL    HW219077   6.928   6.251   6.832
 6060SOL     OW19078   3.311   5.794   6.782
 6060SOL    HW119079   3.346   5.723   6.844
 6060SOL    HW219080   3.384   5.859   6.761
 6061SOL     OW19081   2.259   1.470   6.722
 6061SOL    HW119082   2.295   1.558   6.692
 6061SOL    HW219083   2.284   1.400   6.655
 6062SOL     OW19084   1.349   6.568   3.334
 6062SOL    HW119085   1.261   6.605   3.304
 6062SOL    HW219086   1.391   6.631   3.399
 6063SOL     OW19087   6.093   6.225   6.642
 6063SOL    HW119088   6.027   6.276   6.587
 6063SOL    HW219089   6.163   6.287   6.676
 6064SOL     OW19090   0.642   5.617   2.024
 6064SOL    HW119091   0.639   5.535   1.968
 6064SOL    HW219092   0.638   5.592   2.121
 6065SOL     OW19093   4.894   6.855   1.106
 6065SOL    HW119094   4.991   6.865   1.084
 6065SOL    HW219095   4.884   6.828   1.201
 6066SOL     OW19096   5.105   2.098   5.405
 6066SOL    HW119097   5.062   2.039   5.473
 6066SOL    HW219098   5.167   2.162   5.451
 6067SOL     OW19099   4.993   1.209   0.033
 6067SOL    HW119100   4.899   1.184   0.009
 6067SOL    HW219101   5.056   1.170   6.992
 6068SOL     OW19102   5.076   1.106   5.344
 6068SOL    HW119103   4.987   1.062   5.345
 6068SOL    HW219104   5.080   1.176   5.416
 6069SOL     OW19105   0.083   5.172   3.243
 6069SOL    HW119106   0.045   5.102   3.304
 6069SOL    HW219107   0.120   5.247   3.297
 6070SOL     OW19108   4.838   3.301   1.255
 6070SOL    HW119109   4.903   3.231   1.227
 6070SOL    HW219110   4.773   3.262   1.320
 6071SOL     OW19111   5.684   0.924   5.549
 6071SOL    HW119112   5.762   0.978   5.517
 6071SOL    HW219113   5.718   0.838   5.587
 6072SOL     OW19114   5.696   1.197   1.837
 6072SOL    HW119115   5.678   1.110   1.793
 6072SOL    HW219116   5.792   1.222   1.825
 6073SOL     OW19117   5.629   0.911   0.682
 6073SOL    HW119118   5.582   0.967   0.614
 6073SOL    HW219119   5.720   0.949   0.700
 6074SOL     OW19120   0.491   1.361   5.537
 6074SOL    HW119121   0.443   1.421   5.474
 6074SOL    HW219122   0.560   1.413   5.587
 6075SOL     OW19123   5.181   3.331   5.802
 6075SOL    HW119124   5.098   3.280   5.824
 6075SOL    HW219125   5.246   3.272   5.756
 6076SOL     OW19126   3.541   0.318   3.699
 6076SOL    HW119127   3.508   0.345   3.790
 6076SOL    HW219128   3.511   0.225   3.679
 6077SOL     OW19129   5.244   5.197   3.015
 6077SOL    HW119130   5.228   5.271   3.080
 6077SOL    HW219131   5.302   5.127   3.057
 6078SOL     OW19132   2.288   4.680   4.533
 6078SOL    HW119133   2.256   4.595   4.492
 6078SOL    HW219134   2.318   4.664   4.627
 6079SOL     OW19135   3.261   2.424   0.500
 6079SOL    HW119136   3.227   2.353   0.440
 6079SOL    HW219137   3.185   2.472   0.544
 6080SOL     OW19138   6.353   3.527   3.695
 6080SOL    HW119139   6.435   3.471   3.711
 6080SOL    HW219140   6.272   3.477   3.724
 6081SOL     OW19141   0.825   4.325   1.881
 6081SOL    HW119142   0.900   4.308   1.818
 6081SOL    HW219143   0.749   4.263   1.860
 6082SOL     OW19144   4.801   1.860   5.317
 6082SOL    HW119145   4.878   1.879   5.378
 6082SOL    HW219146   4.817   1.904   5.228
 6083SOL     OW19147   1.608   6.088   0.221
 6083SOL    HW119148   1.704   6.063   0.207
 6083SOL    HW219149   1.601   6.187   0.236
 6084SOL     OW19150   0.490   5.860   6.473
 6084SOL    HW119151   0.568   5.903   6.519
 6084SOL    HW219152   0.511   5.847   6.376
 6085SOL     OW19153   5.471   4.885   2.048
 6085SOL    HW119154   5.508   4.796   2.074
 6085SOL    HW219155   5.528   4.925   1.976
 6086SOL     OW19156   3.047   2.102   1.961
 6086SOL    HW119157   3.009   2.187   1.997
 6086SOL    HW219158   2.976   2.031   1.960
 6087SOL     OW19159   3.528   0.977   0.372
 6087SOL    HW119160   3.623   0.964   0.402
 6087SOL    HW219161   3.467   0.970   0.451
 6088SOL     OW19162   0.605   0.969   4.284
 6088SOL    HW119163   0.658   1.025   4.348
 6088SOL    HW219164   0.664   0.898   4.246
 6089SOL     OW19165   0.148   3.563   1.338
 6089SOL    HW119166   0.235   3.526   1.369
 6089SOL    HW219167   0.075   3.535   1.401
 6090SOL     OW19168   6.292   6.667   4.028
 6090SOL    HW119169   6.213   6.609   4.010
 6090SOL    HW219170   6.328   6.646   4.119
 6091SOL     OW19171   6.849   2.075   2.347
 6091SOL    HW119172   6.769   2.026   2.381
 6091SOL    HW219173   6.883   2.030   2.265
 6092SOL     OW19174   0.281   3.037   1.509
 6092SOL    HW119175   0.223   3.045   1.590
 6092SOL    HW219176   0.255   3.107   1.442
 6093SOL     OW19177   0.936   4.140   0.800
 6093SOL    HW119178   0.866   4.212   0.802
 6093SOL    HW219179   0.988   4.146   0.715
 6094SOL     OW19180   0.497   1.449   1.321
 6094SOL    HW119181   0.430   1.522   1.336
 6094SOL    HW219182   0.452   1.370   1.280
 6095SOL     OW19183   0.511   4.094   5.115
 6095SOL    HW119184   0.489   4.035   5.193
 6095SOL    HW219185   0.439   4.162   5.103
 6096SOL     OW19186   5.756   1.992   2.795
 6096SOL    HW119187   5.755   2.088   2.822
 6096SOL    HW219188   5.705   1.981   2.710
 6097SOL     OW19189   3.928   1.127   2.986
 6097SOL    HW119190   3.892   1.081   2.904
 6097SOL    HW219191   3.852   1.156   3.044
 6098SOL     OW19192   0.348   1.099   6.931
 6098SOL    HW119193   0.267   1.157   6.936
 6098SOL    HW219194   0.363   1.072   6.836
 6099SOL     OW19195   5.817   4.266   4.408
 6099SOL    HW119196   5.861   4.356   4.402
 6099SOL    HW219197   5.864   4.202   4.347
 6100SOL     OW19198   0.008   2.857   1.384
 6100SOL    HW119199   0.081   2.794   1.413
 6100SOL    HW219200   6.950   2.805   1.365
 6101SOL     OW19201   6.133   6.732   3.192
 6101SOL    HW119202   6.138   6.638   3.160
 6101SOL    HW219203   6.131   6.734   3.292
 6102SOL     OW19204   3.665   6.272   5.010
 6102SOL    HW119205   3.590   6.335   4.988
 6102SOL    HW219206   3.630   6.179   5.015
 6103SOL     OW19207   5.470   2.109   4.542
 6103SOL    HW119208   5.561   2.091   4.579
 6103SOL    HW219209   5.425   2.022   4.521
 6104SOL     OW19210   2.432   2.540   1.053
 6104SOL    HW119211   2.385   2.453   1.039
 6104SOL    HW219212   2.523   2.522   1.092
 6105SOL     OW19213   3.468   5.230   4.455
 6105SOL    HW119214   3.410   5.238   4.536
 6105SOL    HW219215   3.447   5.144   4.408
 6106SOL     OW19216   1.773   5.249   4.108
 6106SOL    HW119217   1.843   5.209   4.049
 6106SOL    HW219218   1.718   5.177   4.148
 6107SOL     OW19219   2.111   4.773   5.817
 6107SOL    HW119220   2.038   4.824   5.771
 6107SOL    HW219221   2.152   4.708   5.753
 6108SOL     OW19222   5.674   1.519   4.542
 6108SOL    HW119223   5.670   1.590   4.612
 6108SOL    HW219224   5.743   1.451   4.568
 6109SOL     OW19225   0.557   4.465   1.971
 6109SOL    HW119226   0.573   4.560   2.000
 6109SOL    HW219227   0.644   4.424   1.941
 6110SOL     OW19228   3.444   1.902   3.136
 6110SOL    HW119229   3.359   1.867   3.097
 6110SOL    HW219230   3.425   1.983   3.191
 6111SOL     OW19231   0.719   4.663   3.574
 6111SOL    HW119232   0.774   4.726   3.519
 6111SOL    HW219233   0.699   4.705   3.663
 6112SOL     OW19234   2.145   0.624   1.201
 6112SOL    HW119235   2.139   0.712   1.154
 6112SOL    HW219236   2.068   0.566   1.174
 6113SOL     OW19237   0.823   5.133   6.138
 6113SOL    HW119238   0.825   5.064   6.211
 6113SOL    HW219239   0.740   5.187   6.147
 6114SOL     OW19240   3.706   4.270   1.328
 6114SOL    HW119241   3.755   4.352   1.297
 6114SOL    HW219242   3.740   4.243   1.418
 6115SOL     OW19243   0.310   3.832   2.813
 6115SOL    HW119244   0.289   3.916   2.863
 6115SOL    HW219245   0.322   3.853   2.716
 6116SOL     OW19246   4.221   2.649   1.150
 6116SOL    HW119247   4.227   2.740   1.193
 6116SOL    HW219248   4.147   2.649   1.083
 6117SOL     OW19249   5.370   6.484   4.221
 6117SOL    HW119250   5.367   6.427   4.303
 6117SOL    HW219251   5.290   6.465   4.165
 6118SOL     OW19252   6.537   0.518   3.545
 6118SOL    HW119253   6.476   0.492   3.471
 6118SOL    HW219254   6.623   0.467   3.537
 6119SOL     OW19255   6.104   4.908   5.278
 6119SOL    HW119256   6.136   5.000   5.254
 6119SOL    HW219257   6.132   4.844   5.206
 6120SOL     OW19258   2.810   1.964   2.381
 6120SOL    HW119259   2.896   2.012   2.365
 6120SOL    HW219260   2.734   2.021   2.348
 6121SOL     OW19261   0.247   1.735   3.345
 6121SOL    HW119262   0.191   1.677   3.405
 6121SOL    HW219263   0.193   1.814   3.315
 6122SOL     OW19264   3.914   5.713   4.283
 6122SOL    HW119265   3.875   5.776   4.215
 6122SOL    HW219266   3.852   5.705   4.360
 6123SOL     OW19267   0.080   2.179   3.119
 6123SOL    HW119268   0.023   2.247   3.073
 6123SOL    HW219269   0.174   2.212   3.126
 6124SOL     OW19270   2.987   0.539   4.820
 6124SOL    HW119271   3.066   0.567   4.764
 6124SOL    HW219272   2.987   0.590   4.906
 6125SOL     OW19273   1.216   4.083   2.688
 6125SOL    HW119274   1.232   4.102   2.785
 6125SOL    HW219275   1.180   3.991   2.677
 6126SOL     OW19276   3.433   0.020   2.789
 6126SOL    HW119277   3.480   0.029   2.877
 6126SOL    HW219278   3.369   6.969   2.792
 6127SOL     OW19279   2.082   5.777   1.358
 6127SOL    HW119280   2.039   5.690   1.333
 6127SOL    HW219281   2.104   5.828   1.275
 6128SOL     OW19282   5.648   3.780   1.651
 6128SOL    HW119283   5.679   3.815   1.740
 6128SOL    HW219284   5.727   3.768   1.591
 6129SOL     OW19285   6.389   3.863   3.371
 6129SOL    HW119286   6.354   3.820   3.288
 6129SOL    HW219287   6.432   3.950   3.347
 6130SOL     OW19288   6.327   3.392   2.655
 6130SOL    HW119289   6.357   3.411   2.561
 6130SOL    HW219290   6.261   3.461   2.683
 6131SOL     OW19291   0.045   1.969   5.355
 6131SOL    HW119292   0.136   1.939   5.381
 6131SOL    HW219293   0.001   2.013   5.433
 6132SOL     OW19294   6.937   3.061   0.740
 6132SOL    HW119295   6.863   3.016   0.689
 6132SOL    HW219296   7.022   3.010   0.729
 6133SOL     OW19297   1.500   4.597   0.900
 6133SOL    HW119298   1.428   4.636   0.957
 6133SOL    HW219299   1.467   4.591   0.805
 6134SOL     OW19300   4.346   4.463   6.033
 6134SOL    HW119301   4.297   4.411   5.963
 6134SOL    HW219302   4.437   4.423   6.046
 6135SOL     OW19303   5.629   6.345   1.886
 6135SOL    HW119304   5.697   6.278   1.918
 6135SOL    HW219305   5.660   6.384   1.800
 6136SOL     OW19306   1.710   1.925   2.224
 6136SOL    HW119307   1.764   1.992   2.275
 6136SOL    HW219308   1.769   1.848   2.198
 6137SOL     OW19309   2.818   0.116   6.015
 6137SOL    HW119310   2.796   0.037   5.957
 6137SOL    HW219311   2.736   0.144   6.065
 6138SOL     OW19312   4.355   0.464   3.460
 6138SOL    HW119313   4.406   0.449   3.545
 6138SOL    HW219314   4.399   0.414   3.385
 6139SOL     OW19315   2.793   6.414   3.602
 6139SOL    HW119316   2.859   6.338   3.605
 6139SOL    HW219317   2.835   6.495   3.642
 6140SOL     OW19318   2.290   5.535   1.369
 6140SOL    HW119319   2.251   5.503   1.456
 6140SOL    HW219320   2.258   5.628   1.351
 6141SOL     OW19321   0.638   5.996   4.591
 6141SOL    HW119322   0.556   5.955   4.550
 6141SOL    HW219323   0.623   6.011   4.689
 6142SOL     OW19324   0.117   2.807   4.312
 6142SOL    HW119325   0.100   2.817   4.214
 6142SOL    HW219326   0.058   2.735   4.349
 6143SOL     OW19327   6.566   5.754   6.712
 6143SOL    HW119328   6.605   5.681   6.767
 6143SOL    HW219329   6.471   5.770   6.738
 6144SOL     OW19330   0.313   5.760   4.890
 6144SOL    HW119331   0.284   5.778   4.796
 6144SOL    HW219332   0.239   5.713   4.939
 6145SOL     OW19333   5.839   5.360   3.496
 6145SOL    HW119334   5.800   5.388   3.408
 6145SOL    HW219335   5.889   5.437   3.536
 6146SOL     OW19336   6.148   1.283   3.879
 6146SOL    HW119337   6.105   1.229   3.807
 6146SOL    HW219338   6.188   1.222   3.947
 6147SOL     OW19339   0.989   4.021   3.850
 6147SOL    HW119340   0.925   3.991   3.920
 6147SOL    HW219341   1.034   4.106   3.879
 6148SOL     OW19342   5.558   6.558   3.694
 6148SOL    HW119343   5.600   6.648   3.698
 6148SOL    HW219344   5.566   6.521   3.602
 6149SOL     OW19345   0.429   5.622   4.269
 6149SOL    HW119346   0.502   5.621   4.200
 6149SOL    HW219347   0.459   5.573   4.350
 6150SOL     OW19348   4.641   6.848   6.808
 6150SOL    HW119349   4.616   6.860   6.904
 6150SOL    HW219350   4.623   6.933   6.758
 6151SOL     OW19351   4.155   0.515   5.052
 6151SOL    HW119352   4.076   0.493   4.995
 6151SOL    HW219353   4.130   0.507   5.148
 6152SOL     OW19354   6.349   3.318   6.539
 6152SOL    HW119355   6.262   3.339   6.495
 6152SOL    HW219356   6.408   3.399   6.538
 6153SOL     OW19357   3.871   5.781   5.630
 6153SOL    HW119358   3.903   5.831   5.550
 6153SOL    HW219359   3.897   5.685   5.622
 6154SOL     OW19360   5.302   2.896   3.440
 6154SOL    HW119361   5.252   2.815   3.410
 6154SOL    HW219362   5.260   2.978   3.399
 6155SOL     OW19363   3.293   4.884   4.768
 6155SOL    HW119364   3.296   4.887   4.868
 6155SOL    HW219365   3.376   4.839   4.734
 6156SOL     OW19366   5.492   0.462   4.249
 6156SOL    HW119367   5.455   0.418   4.330
 6156SOL    HW219368   5.467   0.559   4.249
 6157SOL     OW19369   1.177   0.045   4.411
 6157SOL    HW119370   1.172   0.011   4.317
 6157SOL    HW219371   1.168   6.995   4.475
 6158SOL     OW19372   4.739   6.288   0.294
 6158SOL    HW119373   4.662   6.274   0.356
 6158SOL    HW219374   4.817   6.233   0.323
 6159SOL     OW19375   4.392   3.390   6.251
 6159SOL    HW119376   4.400   3.391   6.351
 6159SOL    HW219377   4.302   3.423   6.224
 6160SOL     OW19378   6.051   5.050   0.449
 6160SOL    HW119379   6.097   5.085   0.367
 6160SOL    HW219380   6.066   4.952   0.456
 6161SOL     OW19381   5.025   0.622   6.445
 6161SOL    HW119382   5.060   0.689   6.379
 6161SOL    HW219383   5.084   0.540   6.444
 6162SOL     OW19384   5.612   6.066   3.620
 6162SOL    HW119385   5.648   6.073   3.527
 6162SOL    HW219386   5.521   6.107   3.624
 6163SOL     OW19387   0.430   4.140   3.116
 6163SOL    HW119388   0.345   4.150   3.065
 6163SOL    HW219389   0.411   4.104   3.207
 6164SOL     OW19390   4.768   3.236   0.813
 6164SOL    HW119391   4.714   3.303   0.864
 6164SOL    HW219392   4.722   3.147   0.818
 6165SOL     OW19393   3.521   0.054   1.132
 6165SOL    HW119394   3.507   0.089   1.040
 6165SOL    HW219395   3.589   0.110   1.179
 6166SOL     OW19396   3.234   0.460   1.050
 6166SOL    HW119397   3.333   0.453   1.064
 6166SOL    HW219398   3.215   0.528   0.980
 6167SOL     OW19399   0.504   5.123   3.287
 6167SOL    HW119400   0.435   5.183   3.247
 6167SOL    HW219401   0.594   5.167   3.280
 6168SOL     OW19402   0.223   2.276   1.967
 6168SOL    HW119403   0.196   2.180   1.953
 6168SOL    HW219404   0.312   2.292   1.924
 6169SOL     OW19405   1.942   4.005   1.326
 6169SOL    HW119406   1.983   3.997   1.236
 6169SOL    HW219407   1.957   4.098   1.361
 6170SOL     OW19408   5.943   2.086   4.229
 6170SOL    HW119409   5.990   2.129   4.152
 6170SOL    HW219410   5.863   2.141   4.253
 6171SOL     OW19411   6.326   2.499   6.526
 6171SOL    HW119412   6.414   2.493   6.574
 6171SOL    HW219413   6.343   2.518   6.429
 6172SOL     OW19414   6.974   4.523   3.350
 6172SOL    HW119415   0.004   4.483   3.423
 6172SOL    HW219416   6.974   4.462   3.271
 6173SOL     OW19417   5.388   6.299   2.365
 6173SOL    HW119418   5.289   6.284   2.365
 6173SOL    HW219419   5.421   6.299   2.460
 6174SOL     OW19420   0.690   1.774   3.573
 6174SOL    HW119421   0.640   1.780   3.487
 6174SOL    HW219422   0.704   1.866   3.610
 6175SOL     OW19423   4.571   2.088   6.609
 6175SOL    HW119424   4.476   2.088   6.575
 6175SOL    HW219425   4.598   2.182   6.628
 6176SOL     OW19426   2.609   5.418   6.032
 6176SOL    HW119427   2.660   5.500   6.059
 6176SOL    HW219428   2.570   5.374   6.113
 6177SOL     OW19429   5.997   5.129   1.374
 6177SOL    HW119430   6.080   5.182   1.395
 6177SOL    HW219431   5.962   5.157   1.285
 6178SOL     OW19432   4.236   4.528   1.791
 6178SOL    HW119433   4.230   4.525   1.890
 6178SOL    HW219434   4.317   4.479   1.760
 6179SOL     OW19435   4.734   5.444   4.533
 6179SOL    HW119436   4.721   5.529   4.482
 6179SOL    HW219437   4.644   5.405   4.557
 6180SOL     OW19438   1.320   3.361   6.201
 6180SOL    HW119439   1.335   3.302   6.121
 6180SOL    HW219440   1.245   3.424   6.182
 6181SOL     OW19441   0.336   6.635   0.030
 6181SOL    HW119442   0.244   6.596   0.017
 6181SOL    HW219443   0.340   6.679   0.120
 6182SOL     OW19444   2.843   2.726   5.942
 6182SOL    HW119445   2.894   2.805   5.974
 6182SOL    HW219446   2.837   2.728   5.842
 6183SOL     OW19447   0.149   0.534   0.589
 6183SOL    HW119448   0.134   0.630   0.611
 6183SOL    HW219449   0.109   0.513   0.500
 6184SOL     OW19450   3.875   6.447   5.448
 6184SOL    HW119451   3.871   6.532   5.501
 6184SOL    HW219452   3.931   6.381   5.496
 6185SOL     OW19453   3.179   2.980   3.146
 6185SOL    HW119454   3.277   2.998   3.137
 6185SOL    HW219455   3.149   3.002   3.239
 6186SOL     OW19456   0.865   1.232   2.182
 6186SOL    HW119457   0.889   1.224   2.278
 6186SOL    HW219458   0.810   1.314   2.168
 6187SOL     OW19459   3.909   2.554   5.837
 6187SOL    HW119460   3.880   2.648   5.855
 6187SOL    HW219461   3.906   2.502   5.922
 6188SOL     OW19462   0.853   1.509   5.406
 6188SOL    HW119463   0.834   1.517   5.504
 6188SOL    HW219464   0.932   1.565   5.382
 6189SOL     OW19465   6.894   5.024   0.672
 6189SOL    HW119466   6.807   5.069   0.653
 6189SOL    HW219467   6.926   5.049   0.763
 6190SOL     OW19468   1.382   3.019   3.451
 6190SOL    HW119469   1.460   3.007   3.513
 6190SOL    HW219470   1.411   3.076   3.374
 6191SOL     OW19471   2.466   4.992   6.661
 6191SOL    HW119472   2.458   4.954   6.753
 6191SOL    HW219473   2.558   5.031   6.649
 6192SOL     OW19474   2.668   1.452   0.905
 6192SOL    HW119475   2.650   1.551   0.904
 6192SOL    HW219476   2.767   1.437   0.905
 6193SOL     OW19477   4.783   5.322   6.944
 6193SOL    HW119478   4.687   5.315   6.973
 6193SOL    HW219479   4.792   5.294   6.849
 6194SOL     OW19480   5.065   0.003   6.006
 6194SOL    HW119481   4.966   7.021   6.021
 6194SOL    HW219482   5.084   0.087   5.954
 6195SOL     OW19483   5.349   5.220   5.571
 6195SOL    HW119484   5.346   5.186   5.478
 6195SOL    HW219485   5.368   5.145   5.634
 6196SOL     OW19486   0.050   3.897   3.114
 6196SOL    HW119487   6.976   3.892   3.105
 6196SOL    HW219488   0.075   3.889   3.211
 6197SOL     OW19489   0.038   5.231   1.329
 6197SOL    HW119490   0.073   5.169   1.260
 6197SOL    HW219491   0.077   5.208   1.418
 6198SOL     OW19492   6.442   2.319   5.683
 6198SOL    HW119493   6.367   2.323   5.749
 6198SOL    HW219494   6.451   2.225   5.649
 6199SOL     OW19495   2.331   0.100   5.865
 6199SOL    HW119496   2.235   0.076   5.881
 6199SOL    HW219497   2.389   0.023   5.889
 6200SOL     OW19498   1.536   6.503   6.853
 6200SOL    HW119499   1.591   6.440   6.908
 6200SOL    HW219500   1.546   6.480   6.756
 6201SOL     OW19501   1.125   4.764   3.517
 6201SOL    HW119502   1.082   4.837   3.570
 6201SOL    HW219503   1.124   4.787   3.420
 6202SOL     OW19504   4.875   1.871   1.772
 6202SOL    HW119505   4.938   1.946   1.755
 6202SOL    HW219506   4.819   1.855   1.690
 6203SOL     OW19507   0.450   0.798   2.652
 6203SOL    HW119508   0.401   0.825   2.569
 6203SOL    HW219509   0.485   0.880   2.698
 6204SOL     OW19510   1.190   5.832   4.357
 6204SOL    HW119511   1.126   5.892   4.309
 6204SOL    HW219512   1.146   5.793   4.437
 6205SOL     OW19513   0.275   4.424   3.324
 6205SOL    HW119514   0.350   4.488   3.339
 6205SOL    HW219515   0.233   4.442   3.235
 6206SOL     OW19516   5.395   2.460   3.909
 6206SOL    HW119517   5.362   2.489   3.998
 6206SOL    HW219518   5.420   2.540   3.855
 6207SOL     OW19519   2.026   6.069   3.222
 6207SOL    HW119520   2.011   6.163   3.190
 6207SOL    HW219521   2.078   6.019   3.154
 6208SOL     OW19522   4.239   4.277   6.244
 6208SOL    HW119523   4.163   4.252   6.304
 6208SOL    HW219524   4.235   4.375   6.224
 6209SOL     OW19525   3.345   0.819   2.692
 6209SOL    HW119526   3.358   0.757   2.615
 6209SOL    HW219527   3.249   0.817   2.721
 6210SOL     OW19528   5.682   0.263   4.191
 6210SOL    HW119529   5.764   0.273   4.247
 6210SOL    HW219530   5.615   0.333   4.216
 6211SOL     OW19531   5.025   2.830   5.454
 6211SOL    HW119532   4.940   2.868   5.416
 6211SOL    HW219533   5.085   2.905   5.482
 6212SOL     OW19534   4.768   4.056   4.749
 6212SOL    HW119535   4.760   4.150   4.782
 6212SOL    HW219536   4.725   4.048   4.659
 6213SOL     OW19537   5.211   5.893   0.626
 6213SOL    HW119538   5.292   5.834   0.631
 6213SOL    HW219539   5.129   5.836   0.612
 6214SOL     OW19540   6.821   6.457   6.069
 6214SOL    HW119541   6.754   6.403   6.018
 6214SOL    HW219542   6.777   6.497   6.149
 6215SOL     OW19543   5.148   3.039   5.558
 6215SOL    HW119544   5.209   3.047   5.638
 6215SOL    HW219545   5.177   3.105   5.489
 6216SOL     OW19546   5.827   2.598   6.389
 6216SOL    HW119547   5.773   2.681   6.375
 6216SOL    HW219548   5.786   2.523   6.337
 6217SOL     OW19549   0.313   4.169   2.407
 6217SOL    HW119550   0.393   4.180   2.348
 6217SOL    HW219551   0.320   4.083   2.457
 6218SOL     OW19552   4.959   6.431   1.649
 6218SOL    HW119553   4.896   6.374   1.596
 6218SOL    HW219554   4.933   6.527   1.637
 6219SOL     OW19555   2.087   0.539   0.223
 6219SOL    HW119556   2.146   0.620   0.215
 6219SOL    HW219557   2.144   0.457   0.217
 6220SOL     OW19558   2.339   0.890   2.756
 6220SOL    HW119559   2.259   0.948   2.739
 6220SOL    HW219560   2.392   0.928   2.832
 6221SOL     OW19561   4.174   5.362   5.238
 6221SOL    HW119562   4.256   5.410   5.269
 6221SOL    HW219563   4.198   5.294   5.169
 6222SOL     OW19564   0.649   1.105   1.905
 6222SOL    HW119565   0.622   1.096   2.001
 6222SOL    HW219566   0.618   1.194   1.870
 6223SOL     OW19567   6.639   5.040   3.483
 6223SOL    HW119568   6.591   4.963   3.441
 6223SOL    HW219569   6.685   5.009   3.566
 6224SOL     OW19570   4.104   0.169   0.177
 6224SOL    HW119571   4.084   0.105   0.102
 6224SOL    HW219572   4.027   0.231   0.189
 6225SOL     OW19573   5.903   5.095   6.051
 6225SOL    HW119574   5.835   5.076   5.981
 6225SOL    HW219575   5.995   5.084   6.012
 6226SOL     OW19576   1.939   0.746   3.709
 6226SOL    HW119577   1.908   0.653   3.724
 6226SOL    HW219578   1.861   0.808   3.710
 6227SOL     OW19579   1.792   4.428   5.865
 6227SOL    HW119580   1.816   4.339   5.903
 6227SOL    HW219581   1.841   4.500   5.914
 6228SOL     OW19582   1.575   3.449   3.618
 6228SOL    HW119583   1.577   3.542   3.656
 6228SOL    HW219584   1.537   3.386   3.686
 6229SOL     OW19585   0.394   5.087   4.177
 6229SOL    HW119586   0.431   5.170   4.134
 6229SOL    HW219587   0.466   5.018   4.184
 6230SOL     OW19588   1.366   1.045   0.518
 6230SOL    HW119589   1.338   1.134   0.553
 6230SOL    HW219590   1.390   0.985   0.594
 6231SOL     OW19591   1.514   5.883   5.608
 6231SOL    HW119592   1.569   5.810   5.567
 6231SOL    HW219593   1.554   5.972   5.586
 6232SOL     OW19594   4.032   0.835   6.249
 6232SOL    HW119595   4.023   0.852   6.151
 6232SOL    HW219596   4.064   0.742   6.264
 6233SOL     OW19597   6.937   4.271   1.340
 6233SOL    HW119598   6.848   4.226   1.347
 6233SOL    HW219599   6.955   4.321   1.425
 6234SOL     OW19600   4.840   4.713   2.351
 6234SOL    HW119601   4.845   4.619   2.316
 6234SOL    HW219602   4.868   4.776   2.279
 6235SOL     OW19603   0.823   1.050   1.032
 6235SOL    HW119604   0.854   1.142   1.053
 6235SOL    HW219605   0.893   1.002   0.981
 6236SOL     OW19606   6.020   6.310   2.078
 6236SOL    HW119607   5.939   6.256   2.057
 6236SOL    HW219608   6.027   6.321   2.177
 6237SOL     OW19609   4.214   0.932   3.393
 6237SOL    HW119610   4.306   0.905   3.364
 6237SOL    HW219611   4.174   0.858   3.447
 6238SOL     OW19612   2.249   6.461   3.029
 6238SOL    HW119613   2.256   6.549   2.982
 6238SOL    HW219614   2.340   6.418   3.030
 6239SOL     OW19615   4.551   1.282   4.226
 6239SOL    HW119616   4.521   1.316   4.315
 6239SOL    HW219617   4.612   1.349   4.183
 6240SOL     OW19618   4.158   3.627   3.974
 6240SOL    HW119619   4.251   3.622   3.935
 6240SOL    HW219620   4.104   3.549   3.943
 6241SOL     OW19621   3.874   0.621   2.721
 6241SOL    HW119622   3.963   0.612   2.767
 6241SOL    HW219623   3.806   0.567   2.770
 6242SOL     OW19624   3.227   1.860   4.484
 6242SOL    HW119625   3.216   1.960   4.486
 6242SOL    HW219626   3.236   1.826   4.578
 6243SOL     OW19627   3.484   0.423   0.335
 6243SOL    HW119628   3.388   0.393   0.336
 6243SOL    HW219629   3.534   0.373   0.406
 6244SOL     OW19630   5.361   2.591   1.763
 6244SOL    HW119631   5.452   2.603   1.723
 6244SOL    HW219632   5.336   2.495   1.761
 6245SOL     OW19633   6.906   5.038   1.546
 6245SOL    HW119634   7.003   5.035   1.524
 6245SOL    HW219635   6.868   4.946   1.541
 6246SOL     OW19636   0.882   6.215   5.344
 6246SOL    HW119637   0.936   6.278   5.287
 6246SOL    HW219638   0.813   6.170   5.287
 6247SOL     OW19639   5.558   4.782   2.359
 6247SOL    HW119640   5.633   4.784   2.293
 6247SOL    HW219641   5.508   4.868   2.354
 6248SOL     OW19642   4.782   2.605   5.995
 6248SOL    HW119643   4.712   2.671   5.970
 6248SOL    HW219644   4.796   2.606   6.094
 6249SOL     OW19645   5.527   2.403   3.488
 6249SOL    HW119646   5.551   2.412   3.392
 6249SOL    HW219647   5.553   2.313   3.521
 6250SOL     OW19648   4.916   6.882   4.862
 6250SOL    HW119649   4.940   6.788   4.883
 6250SOL    HW219650   4.974   6.916   4.788
 6251SOL     OW19651   2.873   1.052   4.053
 6251SOL    HW119652   2.933   1.031   3.976
 6251SOL    HW219653   2.804   0.979   4.062
 6252SOL     OW19654   2.353   4.814   6.848
 6252SOL    HW119655   2.385   4.774   6.934
 6252SOL    HW219656   2.275   4.874   6.866
 6253SOL     OW19657   4.908   6.171   4.361
 6253SOL    HW119658   4.858   6.091   4.392
 6253SOL    HW219659   4.948   6.152   4.271
 6254SOL     OW19660   6.588   6.857   1.952
 6254SOL    HW119661   6.657   6.916   1.994
 6254SOL    HW219662   6.523   6.828   2.021
 6255SOL     OW19663   3.033   6.907   1.233
 6255SOL    HW119664   2.970   6.946   1.300
 6255SOL    HW219665   3.124   6.948   1.245
 6256SOL     OW19666   6.956   4.384   2.118
 6256SOL    HW119667   6.976   4.326   2.197
 6256SOL    HW219668   7.012   4.467   2.122
 6257SOL     OW19669   3.862   4.137   0.452
 6257SOL    HW119670   3.923   4.059   0.471
 6257SOL    HW219671   3.769   4.114   0.482
 6258SOL     OW19672   4.374   5.370   4.197
 6258SOL    HW119673   4.316   5.432   4.144
 6258SOL    HW219674   4.420   5.307   4.135
 6259SOL     OW19675   4.976   6.814   4.471
 6259SOL    HW119676   4.900   6.865   4.430
 6259SOL    HW219677   5.050   6.804   4.404
 6260SOL     OW19678   3.219   2.259   0.307
 6260SOL    HW119679   3.142   2.286   0.250
 6260SOL    HW219680   3.305   2.276   0.257
 6261SOL     OW19681   4.457   5.981   1.312
 6261SOL    HW119682   4.480   5.998   1.408
 6261SOL    HW219683   4.360   5.962   1.304
 6262SOL     OW19684   6.044   1.714   3.943
 6262SOL    HW119685   5.953   1.676   3.923
 6262SOL    HW219686   6.070   1.689   4.037
 6263SOL     OW19687   6.623   6.135   6.038
 6263SOL    HW119688   6.603   6.075   5.960
 6263SOL    HW219689   6.619   6.230   6.008
 6264SOL     OW19690   1.048   6.629   0.715
 6264SOL    HW119691   1.019   6.533   0.720
 6264SOL    HW219692   1.073   6.651   0.621
 6265SOL     OW19693   4.191   6.017   6.714
 6265SOL    HW119694   4.221   6.100   6.761
 6265SOL    HW219695   4.164   6.039   6.620
 6266SOL     OW19696   2.744   5.362   3.757
 6266SOL    HW119697   2.754   5.413   3.672
 6266SOL    HW219698   2.802   5.280   3.754
 6267SOL     OW19699   0.221   6.861   4.090
 6267SOL    HW119700   0.176   6.790   4.036
 6267SOL    HW219701   0.313   6.832   4.115
 6268SOL     OW19702   3.195   2.184   0.849
 6268SOL    HW119703   3.180   2.276   0.887
 6268SOL    HW219704   3.138   2.173   0.767
 6269SOL     OW19705   0.407   5.300   0.642
 6269SOL    HW119706   0.311   5.297   0.672
 6269SOL    HW219707   0.428   5.218   0.589
 6270SOL     OW19708   1.718   5.659   1.093
 6270SOL    HW119709   1.676   5.604   1.020
 6270SOL    HW219710   1.786   5.721   1.053
 6271SOL     OW19711   6.557   3.203   5.488
 6271SOL    HW119712   6.621   3.133   5.518
 6271SOL    HW219713   6.514   3.245   5.568
 6272SOL     OW19714   6.478   0.679   0.359
 6272SOL    HW119715   6.483   0.779   0.359
 6272SOL    HW219716   6.384   0.650   0.346
 6273SOL     OW19717   0.350   6.640   2.527
 6273SOL    HW119718   0.260   6.638   2.569
 6273SOL    HW219719   0.405   6.564   2.561
 6274SOL     OW19720   3.091   6.207   4.337
 6274SOL    HW119721   3.175   6.155   4.352
 6274SOL    HW219722   3.018   6.145   4.308
 6275SOL     OW19723   3.138   5.480   1.194
 6275SOL    HW119724   3.072   5.424   1.145
 6275SOL    HW219725   3.092   5.527   1.270
 6276SOL     OW19726   2.093   4.526   2.624
 6276SOL    HW119727   2.045   4.505   2.709
 6276SOL    HW219728   2.162   4.596   2.641
 6277SOL     OW19729   5.620   1.887   1.042
 6277SOL    HW119730   5.565   1.970   1.050
 6277SOL    HW219731   5.620   1.839   1.129
 6278SOL     OW19732   4.247   3.140   0.177
 6278SOL    HW119733   4.253   3.240   0.172
 6278SOL    HW219734   4.156   3.113   0.207
 6279SOL     OW19735   0.857   6.062   1.771
 6279SOL    HW119736   0.952   6.048   1.796
 6279SOL    HW219737   0.803   6.083   1.852
 6280SOL     OW19738   4.918   0.779   0.010
 6280SOL    HW119739   4.970   0.815   6.958
 6280SOL    HW219740   4.904   0.852   0.077
 6281SOL     OW19741   5.754   3.781   6.294
 6281SOL    HW119742   5.808   3.764   6.212
 6281SOL    HW219743   5.752   3.878   6.314
 6282SOL     OW19744   6.830   4.648   6.002
 6282SOL    HW119745   6.738   4.629   5.969
 6282SOL    HW219746   6.833   4.740   6.041
 6283SOL     OW19747   2.977   6.368   4.543
 6283SOL    HW119748   2.887   6.326   4.535
 6283SOL    HW219749   3.043   6.318   4.488
 6284SOL     OW19750   2.178   4.844   6.062
 6284SOL    HW119751   2.238   4.923   6.055
 6284SOL    HW219752   2.146   4.818   5.971
 6285SOL     OW19753   1.802   4.856   4.099
 6285SOL    HW119754   1.842   4.914   4.029
 6285SOL    HW219755   1.873   4.827   4.164
 6286SOL     OW19756   0.762   3.323   6.949
 6286SOL    HW119757   0.851   3.299   6.990
 6286SOL    HW219758   0.688   3.287   7.006
 6287SOL     OW19759   3.999   5.130   4.776
 6287SOL    HW119760   3.950   5.193   4.836
 6287SOL    HW219761   3.934   5.065   4.737
 6288SOL     OW19762   2.933   4.097   5.603
 6288SOL    HW119763   2.980   4.127   5.520
 6288SOL    HW219764   2.928   3.998   5.605
 6289SOL     OW19765   2.911   5.617   5.912
 6289SOL    HW119766   2.875   5.563   5.835
 6289SOL    HW219767   2.981   5.563   5.959
 6290SOL     OW19768   6.753   0.413   3.253
 6290SOL    HW119769   6.723   0.421   3.348
 6290SOL    HW219770   6.683   0.450   3.192
 6291SOL     OW19771   3.019   3.203   1.973
 6291SOL    HW119772   3.088   3.180   2.042
 6291SOL    HW219773   3.015   3.303   1.963
 6292SOL     OW19774   0.929   4.207   4.773
 6292SOL    HW119775   0.862   4.240   4.840
 6292SOL    HW219776   0.885   4.147   4.707
 6293SOL     OW19777   3.274   1.725   0.607
 6293SOL    HW119778   3.218   1.790   0.557
 6293SOL    HW219779   3.357   1.770   0.639
 6294SOL     OW19780   0.578   0.338   2.002
 6294SOL    HW119781   0.626   0.420   1.969
 6294SOL    HW219782   0.548   0.284   1.924
 6295SOL     OW19783   4.518   3.030   5.826
 6295SOL    HW119784   4.515   3.095   5.902
 6295SOL    HW219785   4.599   2.973   5.834
 6296SOL     OW19786   6.676   2.379   0.458
 6296SOL    HW119787   6.692   2.448   0.529
 6296SOL    HW219788   6.607   2.413   0.394
 6297SOL     OW19789   0.984   1.905   4.731
 6297SOL    HW119790   0.884   1.899   4.723
 6297SOL    HW219791   1.009   1.903   4.828
 6298SOL     OW19792   0.585   1.164   5.957
 6298SOL    HW119793   0.518   1.233   5.929
 6298SOL    HW219794   0.539   1.094   6.012
 6299SOL     OW19795   3.422   1.807   3.896
 6299SOL    HW119796   3.331   1.797   3.937
 6299SOL    HW219797   3.415   1.803   3.797
 6300SOL     OW19798   2.656   2.239   0.759
 6300SOL    HW119799   2.709   2.309   0.805
 6300SOL    HW219800   2.635   2.164   0.822
 6301SOL     OW19801   4.450   5.868   0.603
 6301SOL    HW119802   4.509   5.926   0.547
 6301SOL    HW219803   4.445   5.777   0.563
 6302SOL     OW19804   1.826   3.445   0.783
 6302SOL    HW119805   1.858   3.429   0.877
 6302SOL    HW219806   1.901   3.429   0.719
 6303SOL     OW19807   6.602   4.645   5.293
 6303SOL    HW119808   6.522   4.617   5.240
 6303SOL    HW219809   6.683   4.601   5.256
 6304SOL     OW19810   1.988   2.787   4.919
 6304SOL    HW119811   2.054   2.747   4.983
 6304SOL    HW219812   2.018   2.879   4.895
 6305SOL     OW19813   1.418   6.169   5.064
 6305SOL    HW119814   1.371   6.131   5.143
 6305SOL    HW219815   1.410   6.106   4.987
 6306SOL     OW19816   2.000   4.379   4.205
 6306SOL    HW119817   1.970   4.444   4.275
 6306SOL    HW219818   2.084   4.334   4.236
 6307SOL     OW19819   3.886   3.178   2.239
 6307SOL    HW119820   3.982   3.195   2.220
 6307SOL    HW219821   3.875   3.150   2.335
 6308SOL     OW19822   1.647   0.685   1.066
 6308SOL    HW119823   1.710   0.690   0.988
 6308SOL    HW219824   1.565   0.634   1.039
 6309SOL     OW19825   2.048   5.938   4.763
 6309SOL    HW119826   2.064   5.875   4.687
 6309SOL    HW219827   2.109   5.915   4.839
 6310SOL     OW19828   0.744   6.721   2.582
 6310SOL    HW119829   0.662   6.752   2.630
 6310SOL    HW219830   0.746   6.621   2.580
 6311SOL     OW19831   5.091   1.356   6.044
 6311SOL    HW119832   5.171   1.406   6.009
 6311SOL    HW219833   5.041   1.414   6.108
 6312SOL     OW19834   4.355   4.738   1.348
 6312SOL    HW119835   4.410   4.663   1.311
 6312SOL    HW219836   4.378   4.823   1.300
 6313SOL     OW19837   5.496   5.491   3.192
 6313SOL    HW119838   5.417   5.518   3.247
 6313SOL    HW219839   5.524   5.567   3.133
 6314SOL     OW19840   1.576   5.236   2.809
 6314SOL    HW119841   1.675   5.237   2.796
 6314SOL    HW219842   1.536   5.166   2.750
 6315SOL     OW19843   1.966   2.392   3.611
 6315SOL    HW119844   1.898   2.353   3.550
 6315SOL    HW219845   1.940   2.376   3.706
 6316SOL     OW19846   4.991   0.680   5.540
 6316SOL    HW119847   4.948   0.626   5.613
 6316SOL    HW219848   5.015   0.619   5.464
 6317SOL     OW19849   4.643   4.434   3.120
 6317SOL    HW119850   4.589   4.413   3.039
 6317SOL    HW219851   4.739   4.444   3.095
 6318SOL     OW19852   5.657   6.414   0.125
 6318SOL    HW119853   5.667   6.447   0.031
 6318SOL    HW219854   5.672   6.315   0.127
 6319SOL     OW19855   5.362   2.219   4.179
 6319SOL    HW119856   5.301   2.156   4.129
 6319SOL    HW219857   5.456   2.205   4.149
 6320SOL     OW19858   6.013   2.773   6.533
 6320SOL    HW119859   5.959   2.705   6.484
 6320SOL    HW219860   6.063   2.830   6.468
 6321SOL     OW19861   0.302   3.161   6.966
 6321SOL    HW119862   0.286   3.247   7.015
 6321SOL    HW219863   0.263   3.168   6.874
 6322SOL     OW19864   2.153   1.097   2.657
 6322SOL    HW119865   2.229   1.144   2.612
 6322SOL    HW219866   2.111   1.159   2.724
 6323SOL     OW19867   1.524   5.916   0.850
 6323SOL    HW119868   1.489   6.009   0.847
 6323SOL    HW219869   1.476   5.860   0.782
 6324SOL     OW19870   5.435   4.264   2.284
 6324SOL    HW119871   5.402   4.182   2.331
 6324SOL    HW219872   5.378   4.282   2.204
 6325SOL     OW19873   0.797   3.367   3.658
 6325SOL    HW119874   0.809   3.269   3.679
 6325SOL    HW219875   0.707   3.381   3.616
 6326SOL     OW19876   5.654   5.789   4.836
 6326SOL    HW119877   5.692   5.701   4.807
 6326SOL    HW219878   5.648   5.791   4.935
 6327SOL     OW19879   0.630   0.772   2.158
 6327SOL    HW119880   0.605   0.698   2.095
 6327SOL    HW219881   0.563   0.846   2.151
 6328SOL     OW19882   4.073   3.780   4.662
 6328SOL    HW119883   4.108   3.835   4.586
 6328SOL    HW219884   3.988   3.734   4.634
 6329SOL     OW19885   0.111   3.230   4.578
 6329SOL    HW119886   0.150   3.232   4.670
 6329SOL    HW219887   0.101   3.136   4.548
 6330SOL     OW19888   4.294   1.664   3.485
 6330SOL    HW119889   4.359   1.739   3.475
 6330SOL    HW219890   4.307   1.620   3.574
 6331SOL     OW19891   1.441   2.778   3.751
 6331SOL    HW119892   1.356   2.725   3.753
 6331SOL    HW219893   1.479   2.783   3.844
 6332SOL     OW19894   4.358   1.559   0.300
 6332SOL    HW119895   4.425   1.493   0.266
 6332SOL    HW219896   4.266   1.530   0.274
 6333SOL     OW19897   5.996   1.776   0.042
 6333SOL    HW119898   5.977   1.873   0.058
 6333SOL    HW219899   5.957   1.749   6.980
 6334SOL     OW19900   2.905   1.280   2.233
 6334SOL    HW119901   2.952   1.235   2.157
 6334SOL    HW219902   2.808   1.289   2.212
 6335SOL     OW19903   6.118   2.441   5.431
 6335SOL    HW119904   6.095   2.430   5.335
 6335SOL    HW219905   6.059   2.382   5.486
 6336SOL     OW19906   1.033   5.717   5.871
 6336SOL    HW119907   1.068   5.809   5.851
 6336SOL    HW219908   1.002   5.714   5.966
 6337SOL     OW19909   6.395   0.694   5.776
 6337SOL    HW119910   6.361   0.777   5.733
 6337SOL    HW219911   6.442   0.637   5.708
 6338SOL     OW19912   1.236   0.988   2.293
 6338SOL    HW119913   1.247   0.940   2.380
 6338SOL    HW219914   1.156   0.953   2.245
 6339SOL     OW19915   0.267   4.421   3.755
 6339SOL    HW119916   0.267   4.370   3.841
 6339SOL    HW219917   0.316   4.507   3.767
 6340SOL     OW19918   2.928   5.564   0.039
 6340SOL    HW119919   2.915   5.656   0.001
 6340SOL    HW219920   3.025   5.550   0.060
 6341SOL     OW19921   1.298   4.464   3.050
 6341SOL    HW119922   1.346   4.536   3.100
 6341SOL    HW219923   1.204   4.457   3.084
 6342SOL     OW19924   2.581   6.898   1.167
 6342SOL    HW119925   2.528   6.818   1.196
 6342SOL    HW219926   2.555   6.977   1.223
 6343SOL     OW19927   1.859   3.548   7.023
 6343SOL    HW119928   1.767   3.521   6.998
 6343SOL    HW219929   1.911   3.468   0.026
 6344SOL     OW19930   2.051   0.642   3.985
 6344SOL    HW119931   2.137   0.691   4.000
 6344SOL    HW219932   2.016   0.663   3.894
 6345SOL     OW19933   0.003   3.691   4.148
 6345SOL    HW119934   0.050   3.712   4.233
 6345SOL    HW219935   6.961   3.762   4.128
 6346SOL     OW19936   0.698   4.577   4.188
 6346SOL    HW119937   0.773   4.620   4.237
 6346SOL    HW219938   0.727   4.553   4.095
 6347SOL     OW19939   1.903   1.707   2.188
 6347SOL    HW119940   1.915   1.677   2.283
 6347SOL    HW219941   1.920   1.631   2.126
 6348SOL     OW19942   0.562   2.369   6.993
 6348SOL    HW119943   0.562   2.452   6.938
 6348SOL    HW219944   0.596   2.390   0.060
 6349SOL     OW19945   6.109   0.954   0.861
 6349SOL    HW119946   6.057   0.877   0.899
 6349SOL    HW219947   6.194   0.965   0.912
 6350SOL     OW19948   6.881   7.012   1.466
 6350SOL    HW119949   6.854   6.985   1.559
 6350SOL    HW219950   6.850   0.080   1.448
 6351SOL     OW19951   6.712   2.187   2.613
 6351SOL    HW119952   6.690   2.284   2.603
 6351SOL    HW219953   6.725   2.166   2.710
 6352SOL     OW19954   3.400   0.691   5.208
 6352SOL    HW119955   3.334   0.739   5.266
 6352SOL    HW219956   3.363   0.601   5.183
 6353SOL     OW19957   3.980   6.308   5.641
 6353SOL    HW119958   3.920   6.371   5.690
 6353SOL    HW219959   3.939   6.217   5.640
 6354SOL     OW19960   6.458   4.697   3.461
 6354SOL    HW119961   6.511   4.736   3.386
 6354SOL    HW219962   6.404   4.769   3.505
 6355SOL     OW19963   4.134   6.436   0.048
 6355SOL    HW119964   4.121   6.499   6.997
 6355SOL    HW219965   4.229   6.405   0.050
 6356SOL     OW19966   6.961   6.880   6.574
 6356SOL    HW119967   6.979   6.970   6.615
 6356SOL    HW219968   6.884   6.887   6.511
 6357SOL     OW19969   4.891   2.081   3.487
 6357SOL    HW119970   4.886   2.181   3.493
 6357SOL    HW219971   4.831   2.050   3.414
 6358SOL     OW19972   1.122   0.867   4.670
 6358SOL    HW119973   1.185   0.809   4.618
 6358SOL    HW219974   1.092   0.818   4.752
 6359SOL     OW19975   7.007   4.700   1.421
 6359SOL    HW119976   0.027   4.756   1.352
 6359SOL    HW219977   6.908   4.714   1.415
 6360SOL     OW19978   3.244   2.748   0.451
 6360SOL    HW119979   3.186   2.674   0.484
 6360SOL    HW219980   3.189   2.813   0.399
 6361SOL     OW19981   0.370   1.474   3.350
 6361SOL    HW119982   0.467   1.469   3.323
 6361SOL    HW219983   0.342   1.570   3.355
 6362SOL     OW19984   1.953   5.062   0.216
 6362SOL    HW119985   1.891   5.129   0.175
 6362SOL    HW219986   2.015   5.108   0.279
 6363SOL     OW19987   0.295   1.631   1.592
 6363SOL    HW119988   0.278   1.646   1.494
 6363SOL    HW219989   0.381   1.581   1.604
 6364SOL     OW19990   2.947   2.247   3.374
 6364SOL    HW119991   2.876   2.202   3.428
 6364SOL    HW219992   2.982   2.184   3.305
 6365SOL     OW19993   5.908   6.997   1.958
 6365SOL    HW119994   5.880   0.061   1.923
 6365SOL    HW219995   5.834   6.932   1.945
 6366SOL     OW19996   6.532   1.813   5.195
 6366SOL    HW119997   6.546   1.800   5.097
 6366SOL    HW219998   6.595   1.754   5.245
 6367SOL     OW19999   1.844   3.422   4.437
 6367SOL    HW120000   1.918   3.365   4.401
 6367SOL    HW220001   1.786   3.367   4.497
 6368SOL     OW20002   5.583   3.302   5.117
 6368SOL    HW120003   5.524   3.377   5.088
 6368SOL    HW220004   5.634   3.329   5.198
 6369SOL     OW20005   2.956   4.396   0.730
 6369SOL    HW120006   3.034   4.333   0.731
 6369SOL    HW220007   2.896   4.373   0.654
 6370SOL     OW20008   6.181   3.484   5.112
 6370SOL    HW120009   6.258   3.516   5.167
 6370SOL    HW220010   6.115   3.439   5.172
 6371SOL     OW20011   6.241   4.432   1.417
 6371SOL    HW120012   6.238   4.515   1.473
 6371SOL    HW220013   6.148   4.405   1.392
 6372SOL     OW20014   5.649   1.729   2.027
 6372SOL    HW120015   5.588   1.693   2.098
 6372SOL    HW220016   5.609   1.711   1.937
 6373SOL     OW20017   5.567   1.942   1.542
 6373SOL    HW120018   5.665   1.957   1.551
 6373SOL    HW220019   5.528   1.922   1.632
 6374SOL     OW20020   3.751   3.449   6.493
 6374SOL    HW120021   3.795   3.409   6.573
 6374SOL    HW220022   3.782   3.543   6.480
 6375SOL     OW20023   5.286   1.699   1.916
 6375SOL    HW120024   5.322   1.765   1.983
 6375SOL    HW220025   5.289   1.607   1.956
 6376SOL     OW20026   3.423   6.436   6.726
 6376SOL    HW120027   3.481   6.517   6.741
 6376SOL    HW220028   3.345   6.439   6.787
 6377SOL     OW20029   0.086   1.887   0.411
 6377SOL    HW120030   0.177   1.922   0.436
 6377SOL    HW220031   0.051   1.939   0.334
 6378SOL     OW20032   6.332   3.948   2.740
 6378SOL    HW120033   6.320   3.907   2.650
 6378SOL    HW220034   6.275   3.900   2.806
 6379SOL     OW20035   2.292   4.634   6.619
 6379SOL    HW120036   2.318   4.683   6.702
 6379SOL    HW220037   2.195   4.610   6.623
 6380SOL     OW20038   2.105   2.758   4.366
 6380SOL    HW120039   2.152   2.801   4.443
 6380SOL    HW220040   2.173   2.725   4.300
 6381SOL     OW20041   3.445   4.687   0.588
 6381SOL    HW120042   3.396   4.632   0.520
 6381SOL    HW220043   3.413   4.782   0.583
 6382SOL     OW20044   1.865   1.120   1.123
 6382SOL    HW120045   1.940   1.125   1.189
 6382SOL    HW220046   1.903   1.121   1.030
 6383SOL     OW20047   2.862   1.881   1.990
 6383SOL    HW120048   2.796   1.956   1.995
 6383SOL    HW220049   2.842   1.815   2.062
 6384SOL     OW20050   0.687   1.418   2.085
 6384SOL    HW120051   0.669   1.384   1.993
 6384SOL    HW220052   0.708   1.516   2.081
 6385SOL     OW20053   0.629   3.818   1.918
 6385SOL    HW120054   0.534   3.829   1.889
 6385SOL    HW220055   0.637   3.735   1.973
 6386SOL     OW20056   3.109   4.930   1.103
 6386SOL    HW120057   3.023   4.889   1.075
 6386SOL    HW220058   3.180   4.860   1.109
 6387SOL     OW20059   6.419   1.888   5.836
 6387SOL    HW120060   6.433   1.789   5.827
 6387SOL    HW220061   6.488   1.926   5.897
 6388SOL     OW20062   6.668   4.963   2.224
 6388SOL    HW120063   6.760   4.955   2.186
 6388SOL    HW220064   6.648   5.060   2.241
 6389SOL     OW20065   6.823   0.543   0.556
 6389SOL    HW120066   6.914   0.507   0.536
 6389SOL    HW220067   6.753   0.478   0.525
 6390SOL     OW20068   4.364   6.184   0.519
 6390SOL    HW120069   4.450   6.235   0.528
 6390SOL    HW220070   4.385   6.086   0.510
 6391SOL     OW20071   0.934   1.633   4.695
 6391SOL    HW120072   1.006   1.574   4.732
 6391SOL    HW220073   0.949   1.727   4.728
 6392SOL     OW20074   4.492   6.335   3.181
 6392SOL    HW120075   4.536   6.424   3.192
 6392SOL    HW220076   4.394   6.348   3.164
 6393SOL     OW20077   2.156   4.194   0.256
 6393SOL    HW120078   2.135   4.122   0.323
 6393SOL    HW220079   2.128   4.162   0.165
 6394SOL     OW20080   1.528   5.296   2.065
 6394SOL    HW120081   1.493   5.389   2.075
 6394SOL    HW220082   1.486   5.252   1.986
 6395SOL     OW20083   1.166   3.555   5.093
 6395SOL    HW120084   1.118   3.528   5.009
 6395SOL    HW220085   1.219   3.638   5.076
 6396SOL     OW20086   1.089   3.647   3.923
 6396SOL    HW120087   1.138   3.577   3.871
 6396SOL    HW220088   0.991   3.639   3.905
 6397SOL     OW20089   1.151   3.762   4.773
 6397SOL    HW120090   1.246   3.733   4.783
 6397SOL    HW220091   1.139   3.853   4.813
 6398SOL     OW20092   0.113   0.131   2.179
 6398SOL    HW120093   0.182   0.191   2.138
 6398SOL    HW220094   0.140   0.036   2.167
 6399SOL     OW20095   2.079   0.065   6.202
 6399SOL    HW120096   2.064   0.044   6.106
 6399SOL    HW220097   2.119   7.011   6.248
 6400SOL     OW20098   1.710   6.960   2.891
 6400SOL    HW120099   1.713   6.900   2.971
 6400SOL    HW220100   1.799   7.003   2.879
 6401SOL     OW20101   3.836   4.942   1.028
 6401SOL    HW120102   3.765   4.881   1.063
 6401SOL    HW220103   3.898   4.967   1.102
 6402SOL     OW20104   3.590   3.145   6.812
 6402SOL    HW120105   3.609   3.114   6.905
 6402SOL    HW220106   3.545   3.072   6.761
 6403SOL     OW20107   3.661   5.410   6.236
 6403SOL    HW120108   3.729   5.345   6.270
 6403SOL    HW220109   3.698   5.503   6.242
 6404SOL     OW20110   5.049   6.318   6.626
 6404SOL    HW120111   5.102   6.385   6.572
 6404SOL    HW220112   5.041   6.233   6.574
 6405SOL     OW20113   4.250   1.047   3.819
 6405SOL    HW120114   4.220   1.137   3.788
 6405SOL    HW220115   4.336   1.024   3.774
 6406SOL     OW20116   0.367   3.302   2.155
 6406SOL    HW120117   0.306   3.369   2.113
 6406SOL    HW220118   0.343   3.210   2.122
 6407SOL     OW20119   0.795   7.014   2.797
 6407SOL    HW120120   0.848   0.070   2.775
 6407SOL    HW220121   0.829   6.972   2.881
 6408SOL     OW20122   0.741   0.429   2.752
 6408SOL    HW120123   0.658   0.484   2.756
 6408SOL    HW220124   0.719   0.334   2.772
 6409SOL     OW20125   6.606   4.479   3.987
 6409SOL    HW120126   6.690   4.503   3.938
 6409SOL    HW220127   6.559   4.563   4.014
 6410SOL     OW20128   2.420   0.469   0.035
 6410SOL    HW120129   2.461   0.416   6.986
 6410SOL    HW220130   2.490   0.524   0.079
 6411SOL     OW20131   1.612   2.203   4.300
 6411SOL    HW120132   1.702   2.175   4.334
 6411SOL    HW220133   1.567   2.125   4.255
 6412SOL     OW20134   4.644   0.258   0.295
 6412SOL    HW120135   4.549   0.271   0.322
 6412SOL    HW220136   4.702   0.318   0.349
 6413SOL     OW20137   4.319   5.862   3.454
 6413SOL    HW120138   4.276   5.807   3.382
 6413SOL    HW220139   4.414   5.882   3.428
 6414SOL     OW20140   3.152   0.127   7.000
 6414SOL    HW120141   3.218   0.200   6.981
 6414SOL    HW220142   3.178   0.080   0.059
 6415SOL     OW20143   0.216   1.618   3.878
 6415SOL    HW120144   0.298   1.571   3.844
 6415SOL    HW220145   0.185   1.685   3.810
 6416SOL     OW20146   2.597   4.496   0.749
 6416SOL    HW120147   2.579   4.405   0.710
 6416SOL    HW220148   2.572   4.496   0.846
 6417SOL     OW20149   4.831   3.160   5.284
 6417SOL    HW120150   4.870   3.148   5.193
 6417SOL    HW220151   4.787   3.250   5.290
 6418SOL     OW20152   4.882   5.757   6.969
 6418SOL    HW120153   4.793   5.789   7.002
 6418SOL    HW220154   4.927   5.831   6.918
 6419SOL     OW20155   1.752   6.651   7.001
 6419SOL    HW120156   1.657   6.680   6.996
 6419SOL    HW220157   1.812   6.727   6.975
 6420SOL     OW20158   2.850   5.079   3.730
 6420SOL    HW120159   2.848   5.075   3.630
 6420SOL    HW220160   2.934   5.037   3.764
 6421SOL     OW20161   4.515   6.229   1.977
 6421SOL    HW120162   4.424   6.201   1.949
 6421SOL    HW220163   4.509   6.290   2.056
 6422SOL     OW20164   1.058   0.989   5.861
 6422SOL    HW120165   1.055   1.049   5.781
 6422SOL    HW220166   1.001   1.028   5.933
 6423SOL     OW20167   1.045   3.439   3.574
 6423SOL    HW120168   1.039   3.461   3.476
 6423SOL    HW220169   0.954   3.419   3.609
 6424SOL     OW20170   5.813   4.403   5.811
 6424SOL    HW120171   5.795   4.460   5.891
 6424SOL    HW220172   5.842   4.460   5.734
 6425SOL     OW20173   1.031   6.971   3.958
 6425SOL    HW120174   0.973   6.890   3.948
 6425SOL    HW220175   1.015   7.013   4.047
 6426SOL     OW20176   3.452   5.314   4.018
 6426SOL    HW120177   3.434   5.404   4.058
 6426SOL    HW220178   3.540   5.317   3.970
 6427SOL     OW20179   3.063   3.428   2.398
 6427SOL    HW120180   3.145   3.427   2.340
 6427SOL    HW220181   3.081   3.375   2.480
 6428SOL     OW20182   6.982   3.965   6.881
 6428SOL    HW120183   7.006   4.061   6.863
 6428SOL    HW220184   6.894   3.945   6.838
 6429SOL     OW20185   3.130   1.542   4.663
 6429SOL    HW120186   3.115   1.445   4.678
 6429SOL    HW220187   3.205   1.556   4.599
 6430SOL     OW20188   6.234   1.439   4.214
 6430SOL    HW120189   6.326   1.428   4.178
 6430SOL    HW220190   6.233   1.421   4.312
 6431SOL     OW20191   3.472   5.263   3.029
 6431SOL    HW120192   3.560   5.230   3.065
 6431SOL    HW220193   3.431   5.192   2.972
 6432SOL     OW20194   3.516   3.444   0.312
 6432SOL    HW120195   3.579   3.455   0.235
 6432SOL    HW220196   3.495   3.534   0.351
 6433SOL     OW20197   4.055   5.728   6.398
 6433SOL    HW120198   3.964   5.717   6.359
 6433SOL    HW220199   4.098   5.638   6.409
 6434SOL     OW20200   6.355   4.875   6.936
 6434SOL    HW120201   6.381   4.968   6.907
 6434SOL    HW220202   6.347   4.816   6.856
 6435SOL     OW20203   4.357   0.419   0.413
 6435SOL    HW120204   4.298   0.359   0.359
 6435SOL    HW220205   4.308   0.503   0.436
 6436SOL     OW20206   1.078   1.377   3.722
 6436SOL    HW120207   1.153   1.366   3.657
 6436SOL    HW220208   1.107   1.439   3.795
 6437SOL     OW20209   1.154   2.775   6.770
 6437SOL    HW120210   1.160   2.856   6.712
 6437SOL    HW220211   1.065   2.730   6.755
 6438SOL     OW20212   0.986   5.626   1.906
 6438SOL    HW120213   0.935   5.575   1.837
 6438SOL    HW220214   0.923   5.663   1.974
 6439SOL     OW20215   4.060   6.091   2.954
 6439SOL    HW120216   4.067   6.173   2.897
 6439SOL    HW220217   4.144   6.038   2.946
 6440SOL     OW20218   2.194   2.200   5.279
 6440SOL    HW120219   2.264   2.250   5.228
 6440SOL    HW220220   2.237   2.149   5.354
 6441SOL     OW20221   1.478   1.307   2.255
 6441SOL    HW120222   1.429   1.240   2.199
 6441SOL    HW220223   1.575   1.284   2.258
 6442SOL     OW20224   3.167   1.958   3.883
 6442SOL    HW120225   3.117   1.989   3.963
 6442SOL    HW220226   3.197   2.038   3.829
 6443SOL     OW20227   2.543   1.558   6.307
 6443SOL    HW120228   2.483   1.554   6.227
 6443SOL    HW220229   2.567   1.654   6.325
 6444SOL     OW20230   6.510   4.136   5.643
 6444SOL    HW120231   6.497   4.090   5.731
 6444SOL    HW220232   6.597   4.107   5.603
 6445SOL     OW20233   3.138   3.133   3.370
 6445SOL    HW120234   3.046   3.157   3.401
 6445SOL    HW220235   3.173   3.058   3.426
 6446SOL     OW20236   0.205   0.437   1.508
 6446SOL    HW120237   0.253   0.509   1.457
 6446SOL    HW220238   0.206   0.353   1.454
 6447SOL     OW20239   0.479   3.746   2.180
 6447SOL    HW120240   0.457   3.809   2.106
 6447SOL    HW220241   0.517   3.662   2.143
 6448SOL     OW20242   3.786   4.258   1.593
 6448SOL    HW120243   3.811   4.178   1.648
 6448SOL    HW220244   3.841   4.336   1.622
 6449SOL     OW20245   4.372   6.511   6.866
 6449SOL    HW120246   4.445   6.562   6.818
 6449SOL    HW220247   4.411   6.464   6.945
 6450SOL     OW20248   4.619   3.679   0.833
 6450SOL    HW120249   4.698   3.702   0.777
 6450SOL    HW220250   4.634   3.591   0.878
 6451SOL     OW20251   4.467   3.551   1.335
 6451SOL    HW120252   4.446   3.521   1.428
 6451SOL    HW220253   4.521   3.636   1.339
 6452SOL     OW20254   4.823   1.491   4.072
 6452SOL    HW120255   4.866   1.502   4.162
 6452SOL    HW220256   4.728   1.522   4.077
 6453SOL     OW20257   2.925   0.487   2.745
 6453SOL    HW120258   2.999   0.528   2.691
 6453SOL    HW220259   2.923   0.530   2.836
 6454SOL     OW20260   4.739   3.386   5.601
 6454SOL    HW120261   4.797   3.306   5.612
 6454SOL    HW220262   4.681   3.397   5.682
 6455SOL     OW20263   0.210   3.166   5.650
 6455SOL    HW120264   0.183   3.126   5.738
 6455SOL    HW220265   0.198   3.266   5.655
 6456SOL     OW20266   5.882   2.174   3.664
 6456SOL    HW120267   5.947   2.100   3.646
 6456SOL    HW220268   5.907   2.254   3.609
 6457SOL     OW20269   1.766   6.000   3.320
 6457SOL    HW120270   1.849   6.033   3.275
 6457SOL    HW220271   1.729   6.072   3.379
 6458SOL     OW20272   1.219   6.817   4.601
 6458SOL    HW120273   1.295   6.869   4.640
 6458SOL    HW220274   1.136   6.834   4.654
 6459SOL     OW20275   0.072   3.224   3.814
 6459SOL    HW120276   0.118   3.305   3.778
 6459SOL    HW220277   0.105   3.204   3.906
 6460SOL     OW20278   1.461   5.444   5.653
 6460SOL    HW120279   1.365   5.471   5.639
 6460SOL    HW220280   1.516   5.477   5.577
 6461SOL     OW20281   6.147   0.542   2.203
 6461SOL    HW120282   6.216   0.535   2.131
 6461SOL    HW220283   6.170   0.480   2.278
 6462SOL     OW20284   2.751   4.181   5.291
 6462SOL    HW120285   2.848   4.192   5.315
 6462SOL    HW220286   2.734   4.085   5.268
 6463SOL     OW20287   4.771   3.654   1.741
 6463SOL    HW120288   4.789   3.583   1.809
 6463SOL    HW220289   4.699   3.622   1.679
 6464SOL     OW20290   0.775   3.740   3.135
 6464SOL    HW120291   0.782   3.708   3.229
 6464SOL    HW220292   0.680   3.733   3.104
 6465SOL     OW20293   2.902   0.980   2.700
 6465SOL    HW120294   2.818   0.931   2.723
 6465SOL    HW220295   2.882   1.049   2.631
 6466SOL     OW20296   5.991   5.193   7.010
 6466SOL    HW120297   6.023   5.240   6.928
 6466SOL    HW220298   6.040   5.106   7.021
 6467SOL     OW20299   2.921   3.440   6.121
 6467SOL    HW120300   2.880   3.483   6.201
 6467SOL    HW220301   3.005   3.394   6.148
 6468SOL     OW20302   0.528   0.853   6.581
 6468SOL    HW120303   0.546   0.951   6.571
 6468SOL    HW220304   0.584   0.802   6.516
 6469SOL     OW20305   3.199   1.232   1.119
 6469SOL    HW120306   3.194   1.221   1.219
 6469SOL    HW220307   3.294   1.230   1.090
 6470SOL     OW20308   6.109   1.165   6.671
 6470SOL    HW120309   6.159   1.090   6.628
 6470SOL    HW220310   6.054   1.129   6.747
 6471SOL     OW20311   0.305   6.695   5.136
 6471SOL    HW120312   0.340   6.718   5.227
 6471SOL    HW220313   0.221   6.746   5.119
 6472SOL     OW20314   1.065   6.039   0.967
 6472SOL    HW120315   1.083   5.994   1.055
 6472SOL    HW220316   1.127   6.116   0.956
 6473SOL     OW20317   3.258   1.623   3.323
 6473SOL    HW120318   3.262   1.557   3.398
 6473SOL    HW220319   3.328   1.600   3.255
 6474SOL     OW20320   4.337   6.995   4.275
 6474SOL    HW120321   4.345   6.908   4.324
 6474SOL    HW220322   4.251   0.014   4.299
 6475SOL     OW20323   5.548   5.714   4.504
 6475SOL    HW120324   5.551   5.776   4.582
 6475SOL    HW220325   5.610   5.637   4.520
 6476SOL     OW20326   5.328   4.420   4.055
 6476SOL    HW120327   5.424   4.410   4.081
 6476SOL    HW220328   5.322   4.436   3.956
 6477SOL     OW20329   0.830   7.014   0.877
 6477SOL    HW120330   0.806   6.919   0.897
 6477SOL    HW220331   0.783   0.019   0.794
 6478SOL     OW20332   2.135   6.474   0.175
 6478SOL    HW120333   2.219   6.477   0.230
 6478SOL    HW220334   2.059   6.511   0.229
 6479SOL     OW20335   4.669   5.529   4.881
 6479SOL    HW120336   4.766   5.507   4.866
 6479SOL    HW220337   4.651   5.623   4.850
 6480SOL     OW20338   2.574   0.485   4.443
 6480SOL    HW120339   2.646   0.538   4.487
 6480SOL    HW220340   2.524   0.432   4.512
 6481SOL     OW20341   4.271   3.709   1.179
 6481SOL    HW120342   4.331   3.652   1.234
 6481SOL    HW220343   4.295   3.698   1.082
 6482SOL     OW20344   5.477   3.307   4.161
 6482SOL    HW120345   5.555   3.369   4.171
 6482SOL    HW220346   5.406   3.351   4.105
 6483SOL     OW20347   1.874   6.472   5.463
 6483SOL    HW120348   1.843   6.565   5.447
 6483SOL    HW220349   1.956   6.473   5.520
 6484SOL     OW20350   3.529   0.736   3.957
 6484SOL    HW120351   3.464   0.802   3.919
 6484SOL    HW220352   3.535   0.748   4.056
 6485SOL     OW20353   2.525   4.994   5.002
 6485SOL    HW120354   2.601   4.931   5.021
 6485SOL    HW220355   2.530   5.072   5.064
 6486SOL     OW20356   6.804   3.299   2.595
 6486SOL    HW120357   6.903   3.293   2.603
 6486SOL    HW220358   6.761   3.255   2.673
 6487SOL     OW20359   6.289   5.758   4.656
 6487SOL    HW120360   6.324   5.683   4.600
 6487SOL    HW220361   6.349   5.837   4.646
 6488SOL     OW20362   3.707   5.173   2.770
 6488SOL    HW120363   3.775   5.187   2.842
 6488SOL    HW220364   3.686   5.075   2.763
 6489SOL     OW20365   6.932   3.987   5.212
 6489SOL    HW120366   6.967   3.900   5.179
 6489SOL    HW220367   7.008   4.050   5.229
 6490SOL     OW20368   2.035   3.297   5.884
 6490SOL    HW120369   2.015   3.268   5.978
 6490SOL    HW220370   2.109   3.365   5.885
 6491SOL     OW20371   0.594   6.983   2.427
 6491SOL    HW120372   0.580   6.890   2.391
 6491SOL    HW220373   0.686   7.014   2.400
 6492SOL     OW20374   4.117   3.488   2.906
 6492SOL    HW120375   4.120   3.422   2.832
 6492SOL    HW220376   4.129   3.441   2.994
 6493SOL     OW20377   2.579   4.947   3.823
 6493SOL    HW120378   2.535   4.961   3.735
 6493SOL    HW220379   2.675   4.974   3.818
 6494SOL     OW20380   6.469   1.020   1.797
 6494SOL    HW120381   6.508   1.041   1.707
 6494SOL    HW220382   6.409   0.940   1.789
 6495SOL     OW20383   6.644   5.985   2.660
 6495SOL    HW120384   6.561   5.953   2.705
 6495SOL    HW220385   6.689   6.054   2.716
 6496SOL     OW20386   2.678   2.524   1.161
 6496SOL    HW120387   2.709   2.443   1.211
 6496SOL    HW220388   2.696   2.606   1.215
 6497SOL     OW20389   0.247   3.327   1.051
 6497SOL    HW120390   0.162   3.296   1.009
 6497SOL    HW220391   0.246   3.427   1.058
 6498SOL     OW20392   2.880   4.847   4.681
 6498SOL    HW120393   2.845   4.756   4.656
 6498SOL    HW220394   2.810   4.897   4.731
 6499SOL     OW20395   5.332   1.700   2.954
 6499SOL    HW120396   5.259   1.655   2.904
 6499SOL    HW220397   5.323   1.799   2.944
 6500SOL     OW20398   1.910   3.740   2.550
 6500SOL    HW120399   1.919   3.760   2.452
 6500SOL    HW220400   1.954   3.811   2.603
 6501SOL     OW20401   6.362   0.894   2.882
 6501SOL    HW120402   6.414   0.865   2.802
 6501SOL    HW220403   6.266   0.909   2.856
 6502SOL     OW20404   0.583   2.993   3.002
 6502SOL    HW120405   0.515   2.969   2.933
 6502SOL    HW220406   0.668   2.943   2.985
 6503SOL     OW20407   1.000   2.956   5.600
 6503SOL    HW120408   0.909   2.995   5.609
 6503SOL    HW220409   1.069   3.026   5.618
 6504SOL     OW20410   4.166   6.625   5.888
 6504SOL    HW120411   4.241   6.656   5.946
 6504SOL    HW220412   4.176   6.663   5.796
 6505SOL     OW20413   0.735   6.880   0.010
 6505SOL    HW120414   0.675   6.951   0.048
 6505SOL    HW220415   0.806   6.923   6.980
 6506SOL     OW20416   1.062   5.444   2.309
 6506SOL    HW120417   1.008   5.362   2.289
 6506SOL    HW220418   1.004   5.525   2.303
 6507SOL     OW20419   5.400   5.170   0.631
 6507SOL    HW120420   5.424   5.085   0.584
 6507SOL    HW220421   5.483   5.221   0.653
 6508SOL     OW20422   6.866   1.434   4.611
 6508SOL    HW120423   6.915   1.433   4.524
 6508SOL    HW220424   6.873   1.344   4.654
 6509SOL     OW20425   2.873   1.776   6.576
 6509SOL    HW120426   2.923   1.793   6.491
 6509SOL    HW220427   2.775   1.785   6.560
 6510SOL     OW20428   4.264   5.000   4.314
 6510SOL    HW120429   4.275   5.073   4.381
 6510SOL    HW220430   4.190   4.939   4.342
 6511SOL     OW20431   3.846   3.021   0.070
 6511SOL    HW120432   3.754   3.054   0.093
 6511SOL    HW220433   3.840   2.926   0.040
 6512SOL     OW20434   5.226   1.570   2.271
 6512SOL    HW120435   5.160   1.519   2.326
 6512SOL    HW220436   5.218   1.543   2.175
 6513SOL     OW20437   3.224   4.382   1.342
 6513SOL    HW120438   3.182   4.292   1.355
 6513SOL    HW220439   3.318   4.380   1.377
 6514SOL     OW20440   5.691   5.538   5.303
 6514SOL    HW120441   5.724   5.632   5.314
 6514SOL    HW220442   5.637   5.512   5.383
 6515SOL     OW20443   0.590   4.712   2.085
 6515SOL    HW120444   0.648   4.785   2.121
 6515SOL    HW220445   0.499   4.747   2.066
 6516SOL     OW20446   5.835   1.209   3.451
 6516SOL    HW120447   5.888   1.284   3.490
 6516SOL    HW220448   5.737   1.225   3.468
 6517SOL     OW20449   0.078   3.825   1.393
 6517SOL    HW120450   0.048   3.903   1.340
 6517SOL    HW220451   0.118   3.756   1.332
 6518SOL     OW20452   1.097   1.677   2.558
 6518SOL    HW120453   1.050   1.766   2.561
 6518SOL    HW220454   1.055   1.615   2.624
 6519SOL     OW20455   2.371   1.927   3.100
 6519SOL    HW120456   2.336   1.837   3.077
 6519SOL    HW220457   2.324   1.997   3.046
 6520SOL     OW20458   5.657   6.947   6.671
 6520SOL    HW120459   5.681   6.965   6.575
 6520SOL    HW220460   5.620   0.005   6.712
 6521SOL     OW20461   1.818   4.792   4.593
 6521SOL    HW120462   1.725   4.769   4.566
 6521SOL    HW220463   1.882   4.724   4.557
 6522SOL     OW20464   2.508   3.297   5.357
 6522SOL    HW120465   2.408   3.305   5.350
 6522SOL    HW220466   2.539   3.216   5.308
 6523SOL     OW20467   4.639   6.843   0.976
 6523SOL    HW120468   4.596   6.764   1.020
 6523SOL    HW220469   4.732   6.854   1.011
 6524SOL     OW20470   3.810   2.256   1.339
 6524SOL    HW120471   3.779   2.335   1.287
 6524SOL    HW220472   3.908   2.266   1.359
 6525SOL     OW20473   3.100   5.280   3.427
 6525SOL    HW120474   3.191   5.243   3.412
 6525SOL    HW220475   3.099   5.332   3.513
 6526SOL     OW20476   6.139   6.447   0.448
 6526SOL    HW120477   6.081   6.437   0.367
 6526SOL    HW220478   6.083   6.443   0.530
 6527SOL     OW20479   5.632   2.348   1.017
 6527SOL    HW120480   5.576   2.426   1.045
 6527SOL    HW220481   5.590   2.263   1.049
 6528SOL     OW20482   4.532   0.289   0.780
 6528SOL    HW120483   4.561   0.352   0.708
 6528SOL    HW220484   4.602   0.220   0.795
 6529SOL     OW20485   3.433   6.202   1.260
 6529SOL    HW120486   3.406   6.121   1.210
 6529SOL    HW220487   3.361   6.271   1.254
 6530SOL     OW20488   1.036   3.120   4.330
 6530SOL    HW120489   1.023   3.039   4.273
 6530SOL    HW220490   1.099   3.099   4.405
 6531SOL     OW20491   3.056   3.250   4.264
 6531SOL    HW120492   3.058   3.271   4.166
 6531SOL    HW220493   3.060   3.151   4.276
 6532SOL     OW20494   0.391   5.829   6.786
 6532SOL    HW120495   0.349   5.887   6.715
 6532SOL    HW220496   0.429   5.747   6.743
 6533SOL     OW20497   5.926   5.236   1.119
 6533SOL    HW120498   5.944   5.334   1.129
 6533SOL    HW220499   5.950   5.207   1.026
 6534SOL     OW20500   6.327   2.987   4.487
 6534SOL    HW120501   6.348   2.988   4.585
 6534SOL    HW220502   6.337   2.894   4.452
 6535SOL     OW20503   5.509   3.245   6.700
 6535SOL    HW120504   5.558   3.178   6.755
 6535SOL    HW220505   5.572   3.315   6.668
 6536SOL     OW20506   6.788   5.747   5.811
 6536SOL    HW120507   6.867   5.719   5.757
 6536SOL    HW220508   6.811   5.744   5.908
 6537SOL     OW20509   6.667   4.958   4.101
 6537SOL    HW120510   6.747   4.904   4.076
 6537SOL    HW220511   6.684   5.004   4.188
 6538SOL     OW20512   1.304   4.129   3.781
 6538SOL    HW120513   1.214   4.171   3.793
 6538SOL    HW220514   1.375   4.197   3.800
 6539SOL     OW20515   5.725   6.470   5.625
 6539SOL    HW120516   5.637   6.492   5.584
 6539SOL    HW220517   5.730   6.511   5.716
 6540SOL     OW20518   0.771   3.165   5.456
 6540SOL    HW120519   0.716   3.238   5.416
 6540SOL    HW220520   0.722   3.078   5.450
 6541SOL     OW20521   3.216   1.795   5.923
 6541SOL    HW120522   3.117   1.797   5.940
 6541SOL    HW220523   3.249   1.701   5.930
 6542SOL     OW20524   1.746   4.972   1.640
 6542SOL    HW120525   1.806   5.051   1.626
 6542SOL    HW220526   1.798   4.887   1.628
 6543SOL     OW20527   4.151   1.909   3.718
 6543SOL    HW120528   4.153   1.832   3.781
 6543SOL    HW220529   4.245   1.941   3.701
 6544SOL     OW20530   0.985   1.270   1.082
 6544SOL    HW120531   1.052   1.230   1.144
 6544SOL    HW220532   1.026   1.347   1.033
 6545SOL     OW20533   6.299   4.431   0.493
 6545SOL    HW120534   6.229   4.496   0.523
 6545SOL    HW220535   6.277   4.397   0.402
 6546SOL     OW20536   4.434   5.765   4.150
 6546SOL    HW120537   4.364   5.765   4.221
 6546SOL    HW220538   4.398   5.808   4.068
 6547SOL     OW20539   6.810   6.228   4.783
 6547SOL    HW120540   6.755   6.189   4.858
 6547SOL    HW220541   6.881   6.287   4.821
 6548SOL     OW20542   1.822   0.854   4.946
 6548SOL    HW120543   1.922   0.853   4.946
 6548SOL    HW220544   1.787   0.762   4.966
 6549SOL     OW20545   2.346   2.034   2.046
 6549SOL    HW120546   2.428   1.981   2.026
 6549SOL    HW220547   2.271   2.003   1.987
 6550SOL     OW20548   5.529   0.673   2.066
 6550SOL    HW120549   5.434   0.705   2.061
 6550SOL    HW220550   5.545   0.630   2.155
 6551SOL     OW20551   2.350   5.647   1.031
 6551SOL    HW120552   2.297   5.564   1.049
 6551SOL    HW220553   2.444   5.622   1.008
 6552SOL     OW20554   2.254   3.608   6.618
 6552SOL    HW120555   2.283   3.670   6.545
 6552SOL    HW220556   2.157   3.621   6.636
 6553SOL     OW20557   0.609   1.852   3.320
 6553SOL    HW120558   0.613   1.761   3.280
 6553SOL    HW220559   0.513   1.879   3.331
 6554SOL     OW20560   2.445   1.411   4.304
 6554SOL    HW120561   2.477   1.413   4.399
 6554SOL    HW220562   2.522   1.391   4.244
 6555SOL     OW20563   2.159   3.517   1.679
 6555SOL    HW120564   2.202   3.503   1.590
 6555SOL    HW220565   2.223   3.493   1.751
 6556SOL     OW20566   4.949   2.988   3.675
 6556SOL    HW120567   5.038   2.950   3.654
 6556SOL    HW220568   4.878   2.936   3.627
 6557SOL     OW20569   1.813   6.978   2.537
 6557SOL    HW120570   1.843   0.038   2.581
 6557SOL    HW220571   1.751   6.929   2.598
 6558SOL     OW20572   4.832   6.008   0.596
 6558SOL    HW120573   4.900   6.063   0.547
 6558SOL    HW220574   4.760   5.979   0.533
 6559SOL     OW20575   0.145   2.001   6.255
 6559SOL    HW120576   0.166   2.008   6.158
 6559SOL    HW220577   0.046   1.998   6.268
 6560SOL     OW20578   6.855   3.980   6.209
 6560SOL    HW120579   6.876   3.981   6.307
 6560SOL    HW220580   6.934   4.014   6.158
 6561SOL     OW20581   2.498   5.381   6.767
 6561SOL    HW120582   2.504   5.302   6.707
 6561SOL    HW220583   2.577   5.383   6.829
 6562SOL     OW20584   5.042   2.765   1.005
 6562SOL    HW120585   5.009   2.849   1.049
 6562SOL    HW220586   5.125   2.784   0.953
 6563SOL     OW20587   5.702   4.049   6.304
 6563SOL    HW120588   5.653   4.104   6.236
 6563SOL    HW220589   5.683   4.084   6.396
 6564SOL     OW20590   6.311   3.813   2.507
 6564SOL    HW120591   6.399   3.783   2.470
 6564SOL    HW220592   6.248   3.833   2.432
 6565SOL     OW20593   5.328   5.209   1.543
 6565SOL    HW120594   5.355   5.139   1.477
 6565SOL    HW220595   5.410   5.247   1.586
 6566SOL     OW20596   5.575   6.058   4.950
 6566SOL    HW120597   5.633   5.982   4.977
 6566SOL    HW220598   5.479   6.031   4.956
 6567SOL     OW20599   2.779   0.333   2.553
 6567SOL    HW120600   2.843   0.394   2.599
 6567SOL    HW220601   2.823   0.245   2.536
 6568SOL     OW20602   5.370   1.710   0.919
 6568SOL    HW120603   5.456   1.740   0.960
 6568SOL    HW220604   5.353   1.764   0.836
 6569SOL     OW20605   1.290   3.961   3.304
 6569SOL    HW120606   1.269   3.864   3.287
 6569SOL    HW220607   1.299   3.976   3.402
 6570SOL     OW20608   4.352   0.118   2.245
 6570SOL    HW120609   4.314   0.168   2.168
 6570SOL    HW220610   4.325   0.022   2.239
 6571SOL     OW20611   2.221   6.964   3.442
 6571SOL    HW120612   2.248   6.870   3.422
 6571SOL    HW220613   2.247   6.987   3.535
 6572SOL     OW20614   0.671   6.953   4.150
 6572SOL    HW120615   0.598   7.010   4.189
 6572SOL    HW220616   0.759   7.000   4.158
 6573SOL     OW20617   1.033   1.988   3.505
 6573SOL    HW120618   1.038   2.032   3.595
 6573SOL    HW220619   1.112   2.015   3.450
 6574SOL     OW20620   1.737   5.321   1.408
 6574SOL    HW120621   1.692   5.411   1.404
 6574SOL    HW220622   1.791   5.314   1.492
 6575SOL     OW20623   6.872   0.691   4.246
 6575SOL    HW120624   6.875   0.591   4.237
 6575SOL    HW220625   6.829   0.716   4.332
 6576SOL     OW20626   4.208   0.672   3.160
 6576SOL    HW120627   4.138   0.730   3.120
 6576SOL    HW220628   4.188   0.576   3.140
 6577SOL     OW20629   3.192   0.664   5.602
 6577SOL    HW120630   3.288   0.684   5.620
 6577SOL    HW220631   3.184   0.584   5.543
 6578SOL     OW20632   0.633   5.998   0.668
 6578SOL    HW120633   0.707   6.056   0.704
 6578SOL    HW220634   0.658   5.966   0.577
 6579SOL     OW20635   2.430   1.826   2.765
 6579SOL    HW120636   2.433   1.854   2.669
 6579SOL    HW220637   2.518   1.789   2.792
 6580SOL     OW20638   3.057   2.610   6.966
 6580SOL    HW120639   3.020   2.518   6.966
 6580SOL    HW220640   3.106   2.626   0.026
 6581SOL     OW20641   1.099   2.036   2.083
 6581SOL    HW120642   1.061   2.021   1.992
 6581SOL    HW220643   1.116   1.948   2.127
 6582SOL     OW20644   3.894   6.516   2.984
 6582SOL    HW120645   3.830   6.487   3.056
 6582SOL    HW220646   3.957   6.584   3.021
 6583SOL     OW20647   2.123   4.767   0.215
 6583SOL    HW120648   2.204   4.737   0.165
 6583SOL    HW220649   2.097   4.697   0.282
 6584SOL     OW20650   4.759   3.714   5.333
 6584SOL    HW120651   4.803   3.668   5.410
 6584SOL    HW220652   4.742   3.648   5.260
 6585SOL     OW20653   4.944   6.164   1.795
 6585SOL    HW120654   4.913   6.070   1.813
 6585SOL    HW220655   4.867   6.227   1.802
 6586SOL     OW20656   6.350   1.731   6.994
 6586SOL    HW120657   6.431   1.750   0.024
 6586SOL    HW220658   6.298   1.656   0.009
 6587SOL     OW20659   2.728   4.855   5.123
 6587SOL    HW120660   2.793   4.789   5.086
 6587SOL    HW220661   2.775   4.920   5.183
 6588SOL     OW20662   1.543   2.556   0.432
 6588SOL    HW120663   1.590   2.641   0.405
 6588SOL    HW220664   1.456   2.579   0.476
 6589SOL     OW20665   6.059   0.949   0.053
 6589SOL    HW120666   6.143   0.936   7.025
 6589SOL    HW220667   6.077   0.926   0.149
 6590SOL     OW20668   0.396   6.056   4.242
 6590SOL    HW120669   0.397   5.967   4.289
 6590SOL    HW220670   0.323   6.113   4.280
 6591SOL     OW20671   6.282   3.539   3.330
 6591SOL    HW120672   6.268   3.441   3.316
 6591SOL    HW220673   6.200   3.589   3.300
 6592SOL     OW20674   0.594   0.562   4.252
 6592SOL    HW120675   0.510   0.611   4.273
 6592SOL    HW220676   0.608   0.488   4.318
 6593SOL     OW20677   0.580   6.671   3.753
 6593SOL    HW120678   0.551   6.716   3.669
 6593SOL    HW220679   0.523   6.702   3.829
 6594SOL     OW20680   5.278   6.876   6.098
 6594SOL    HW120681   5.265   6.781   6.069
 6594SOL    HW220682   5.201   6.932   6.065
 6595SOL     OW20683   0.456   6.727   4.626
 6595SOL    HW120684   0.457   6.648   4.686
 6595SOL    HW220685   0.549   6.745   4.592
 6596SOL     OW20686   4.693   0.752   3.242
 6596SOL    HW120687   4.763   0.784   3.179
 6596SOL    HW220688   4.681   0.654   3.232
 6597SOL     OW20689   0.631   5.350   1.917
 6597SOL    HW120690   0.637   5.313   2.009
 6597SOL    HW220691   0.539   5.338   1.881
 6598SOL     OW20692   1.506   5.300   1.756
 6598SOL    HW120693   1.601   5.331   1.745
 6598SOL    HW220694   1.459   5.303   1.668
 6599SOL     OW20695   0.307   5.566   0.680
 6599SOL    HW120696   0.288   5.555   0.582
 6599SOL    HW220697   0.395   5.523   0.702
 6600SOL     OW20698   5.130   0.205   4.589
 6600SOL    HW120699   5.092   0.215   4.497
 6600SOL    HW220700   5.228   0.223   4.587
 6601SOL     OW20701   1.071   2.051   3.765
 6601SOL    HW120702   0.999   2.012   3.822
 6601SOL    HW220703   1.154   2.062   3.819
 6602SOL     OW20704   6.306   6.379   0.752
 6602SOL    HW120705   6.280   6.392   0.656
 6602SOL    HW220706   6.405   6.373   0.759
 6603SOL     OW20707   6.767   5.067   2.569
 6603SOL    HW120708   6.700   5.022   2.510
 6603SOL    HW220709   6.744   5.050   2.664
 6604SOL     OW20710   2.349   4.687   2.597
 6604SOL    HW120711   2.371   4.738   2.513
 6604SOL    HW220712   2.381   4.593   2.588
 6605SOL     OW20713   6.918   5.598   0.481
 6605SOL    HW120714   6.981   5.521   0.476
 6605SOL    HW220715   6.864   5.593   0.565
 6606SOL     OW20716   1.150   5.348   3.409
 6606SOL    HW120717   1.072   5.368   3.350
 6606SOL    HW220718   1.228   5.319   3.353
 6607SOL     OW20719   0.639   2.720   4.311
 6607SOL    HW120720   0.674   2.792   4.251
 6607SOL    HW220721   0.540   2.709   4.296
 6608SOL     OW20722   1.050   6.962   4.952
 6608SOL    HW120723   1.009   0.017   4.995
 6608SOL    HW220724   1.085   6.901   5.022
 6609SOL     OW20725   2.566   2.101   0.038
 6609SOL    HW120726   2.525   2.068   0.123
 6609SOL    HW220727   2.647   2.048   0.017
 6610SOL     OW20728   3.107   5.169   0.133
 6610SOL    HW120729   3.186   5.136   0.082
 6610SOL    HW220730   3.094   5.113   0.215
 6611SOL     OW20731   2.656   0.822   4.723
 6611SOL    HW120732   2.755   0.830   4.715
 6611SOL    HW220733   2.618   0.795   4.634
 6612SOL     OW20734   5.771   0.321   7.020
 6612SOL    HW120735   5.825   0.342   6.939
 6612SOL    HW220736   5.829   0.330   0.076
 6613SOL     OW20737   5.404   6.302   0.820
 6613SOL    HW120738   5.381   6.308   0.917
 6613SOL    HW220739   5.368   6.382   0.772
 6614SOL     OW20740   4.032   5.862   0.786
 6614SOL    HW120741   4.021   5.860   0.686
 6614SOL    HW220742   3.965   5.926   0.825
 6615SOL     OW20743   3.780   5.745   5.930
 6615SOL    HW120744   3.807   5.727   5.835
 6615SOL    HW220745   3.702   5.688   5.954
 6616SOL     OW20746   4.049   2.147   6.719
 6616SOL    HW120747   4.035   2.154   6.818
 6616SOL    HW220748   4.131   2.092   6.701
 6617SOL     OW20749   4.226   1.920   4.166
 6617SOL    HW120750   4.163   1.917   4.089
 6617SOL    HW220751   4.184   1.973   4.241
 6618SOL     OW20752   6.138   2.794   3.817
 6618SOL    HW120753   6.085   2.779   3.734
 6618SOL    HW220754   6.190   2.711   3.838
 6619SOL     OW20755   4.881   5.061   3.482
 6619SOL    HW120756   4.950   5.116   3.435
 6619SOL    HW220757   4.924   5.007   3.554
 6620SOL     OW20758   1.527   2.772   4.009
 6620SOL    HW120759   1.488   2.760   4.100
 6620SOL    HW220760   1.571   2.687   3.980
 6621SOL     OW20761   3.563   3.781   3.372
 6621SOL    HW120762   3.614   3.805   3.455
 6621SOL    HW220763   3.468   3.808   3.382
 6622SOL     OW20764   0.042   4.825   1.044
 6622SOL    HW120765   0.057   4.872   1.131
 6622SOL    HW220766   6.978   4.851   1.008
 6623SOL     OW20767   3.440   3.743   4.106
 6623SOL    HW120768   3.530   3.785   4.114
 6623SOL    HW220769   3.381   3.776   4.181
 6624SOL     OW20770   2.606   2.019   2.598
 6624SOL    HW120771   2.644   1.989   2.686
 6624SOL    HW220772   2.673   2.005   2.526
 6625SOL     OW20773   1.232   5.322   6.375
 6625SOL    HW120774   1.270   5.274   6.296
 6625SOL    HW220775   1.292   5.398   6.399
 6626SOL     OW20776   3.437   6.130   5.786
 6626SOL    HW120777   3.479   6.220   5.793
 6626SOL    HW220778   3.504   6.063   5.754
 6627SOL     OW20779   2.595   0.048   4.416
 6627SOL    HW120780   2.648   0.008   4.490
 6627SOL    HW220781   2.560   7.001   4.356
 6628SOL     OW20782   4.075   6.510   3.656
 6628SOL    HW120783   4.169   6.486   3.632
 6628SOL    HW220784   4.067   6.519   3.755
 6629SOL     OW20785   5.242   5.446   5.242
 6629SOL    HW120786   5.200   5.386   5.310
 6629SOL    HW220787   5.171   5.498   5.194
 6630SOL     OW20788   1.629   7.018   0.855
 6630SOL    HW120789   1.608   6.935   0.804
 6630SOL    HW220790   1.675   0.058   0.795
 6631SOL     OW20791   1.981   1.592   5.512
 6631SOL    HW120792   2.008   1.681   5.473
 6631SOL    HW220793   2.035   1.520   5.469
 6632SOL     OW20794   1.057   0.687   5.834
 6632SOL    HW120795   1.040   0.785   5.825
 6632SOL    HW220796   1.141   0.663   5.785
 6633SOL     OW20797   5.188   0.486   5.787
 6633SOL    HW120798   5.213   0.441   5.701
 6633SOL    HW220799   5.098   0.528   5.777
 6634SOL     OW20800   2.924   2.273   4.198
 6634SOL    HW120801   2.989   2.230   4.261
 6634SOL    HW220802   2.949   2.249   4.104
 6635SOL     OW20803   4.492   5.409   6.312
 6635SOL    HW120804   4.430   5.371   6.243
 6635SOL    HW220805   4.580   5.430   6.270
 6636SOL     OW20806   4.817   1.895   1.102
 6636SOL    HW120807   4.739   1.951   1.072
 6636SOL    HW220808   4.897   1.953   1.115
 6637SOL     OW20809   0.536   3.736   0.174
 6637SOL    HW120810   0.493   3.823   0.196
 6637SOL    HW220811   0.624   3.730   0.221
 6638SOL     OW20812   3.243   3.475   4.287
 6638SOL    HW120813   3.209   3.532   4.213
 6638SOL    HW220814   3.193   3.388   4.288
 6639SOL     OW20815   6.314   2.133   2.989
 6639SOL    HW120816   6.338   2.228   2.965
 6639SOL    HW220817   6.397   2.080   3.003
 6640SOL     OW20818   0.230   3.351   4.363
 6640SOL    HW120819   0.308   3.373   4.421
 6640SOL    HW220820   0.156   3.314   4.420
 6641SOL     OW20821   5.483   2.324   0.310
 6641SOL    HW120822   5.451   2.250   0.251
 6641SOL    HW220823   5.451   2.310   0.403
 6642SOL     OW20824   0.700   4.924   6.555
 6642SOL    HW120825   0.604   4.945   6.575
 6642SOL    HW220826   0.726   4.839   6.600
 6643SOL     OW20827   6.325   5.586   5.710
 6643SOL    HW120828   6.416   5.553   5.737
 6643SOL    HW220829   6.333   5.647   5.631
 6644SOL     OW20830   2.349   6.797   3.112
 6644SOL    HW120831   2.442   6.832   3.111
 6644SOL    HW220832   2.317   6.790   3.206
 6645SOL     OW20833   4.751   2.750   5.605
 6645SOL    HW120834   4.761   2.817   5.532
 6645SOL    HW220835   4.693   2.675   5.573
 6646SOL     OW20836   4.346   6.749   6.028
 6646SOL    HW120837   4.267   6.805   6.053
 6646SOL    HW220838   4.429   6.803   6.034
 6647SOL     OW20839   3.297   4.934   0.614
 6647SOL    HW120840   3.296   5.013   0.675
 6647SOL    HW220841   3.228   4.868   0.644
 6648SOL     OW20842   3.240   6.217   4.787
 6648SOL    HW120843   3.180   6.285   4.830
 6648SOL    HW220844   3.206   6.125   4.808
 6649SOL     OW20845   5.590   2.139   5.534
 6649SOL    HW120846   5.623   2.045   5.544
 6649SOL    HW220847   5.542   2.166   5.617
 6650SOL     OW20848   2.610   0.835   4.420
 6650SOL    HW120849   2.654   0.765   4.364
 6650SOL    HW220850   2.525   0.799   4.457
 6651SOL     OW20851   6.009   1.406   3.591
 6651SOL    HW120852   6.108   1.403   3.606
 6651SOL    HW220853   5.981   1.500   3.570
 6652SOL     OW20854   6.910   4.981   7.021
 6652SOL    HW120855   6.990   4.935   6.983
 6652SOL    HW220856   6.847   4.914   0.034
 6653SOL     OW20857   5.433   3.456   6.911
 6653SOL    HW120858   5.507   3.462   6.978
 6653SOL    HW220859   5.467   3.415   6.826
 6654SOL     OW20860   0.129   1.990   3.298
 6654SOL    HW120861   0.113   2.057   3.225
 6654SOL    HW220862   0.190   2.030   3.366
 6655SOL     OW20863   6.560   5.362   1.528
 6655SOL    HW120864   6.471   5.369   1.482
 6655SOL    HW220865   6.587   5.453   1.562
 6656SOL     OW20866   5.797   1.655   2.518
 6656SOL    HW120867   5.798   1.596   2.438
 6656SOL    HW220868   5.891   1.672   2.548
 6657SOL     OW20869   5.519   1.992   4.060
 6657SOL    HW120870   5.497   2.002   3.962
 6657SOL    HW220871   5.454   1.929   4.102
 6658SOL     OW20872   6.359   4.779   3.735
 6658SOL    HW120873   6.328   4.714   3.805
 6658SOL    HW220874   6.458   4.788   3.740
 6659SOL     OW20875   0.670   6.472   0.960
 6659SOL    HW120876   0.762   6.490   0.995
 6659SOL    HW220877   0.623   6.558   0.942
 6660SOL     OW20878   1.662   0.756   3.454
 6660SOL    HW120879   1.721   0.818   3.505
 6660SOL    HW220880   1.571   0.755   3.496
 6661SOL     OW20881   3.581   6.539   3.439
 6661SOL    HW120882   3.503   6.602   3.436
 6661SOL    HW220883   3.563   6.462   3.377
 6662SOL     OW20884   3.848   5.693   1.296
 6662SOL    HW120885   3.928   5.646   1.333
 6662SOL    HW220886   3.773   5.688   1.363
 6663SOL     OW20887   1.701   4.682   5.856
 6663SOL    HW120888   1.774   4.654   5.919
 6663SOL    HW220889   1.732   4.669   5.762
 6664SOL     OW20890   2.893   6.994   1.433
 6664SOL    HW120891   2.810   6.964   1.479
 6664SOL    HW220892   2.966   7.006   1.501
 6665SOL     OW20893   2.900   0.056   0.028
 6665SOL    HW120894   2.840   0.124   0.071
 6665SOL    HW220895   2.992   0.094   0.020
 6666SOL     OW20896   2.506   0.122   7.011
 6666SOL    HW120897   2.573   0.196   7.018
 6666SOL    HW220898   2.508   0.067   0.069
 6667SOL     OW20899   1.541   5.520   0.092
 6667SOL    HW120900   1.573   5.445   0.150
 6667SOL    HW220901   1.464   5.566   0.136
 6668SOL     OW20902   6.885   3.264   5.853
 6668SOL    HW120903   6.804   3.207   5.865
 6668SOL    HW220904   6.860   3.349   5.806
 6669SOL     OW20905   0.929   3.774   3.490
 6669SOL    HW120906   0.882   3.796   3.575
 6669SOL    HW220907   0.880   3.702   3.442
 6670SOL     OW20908   2.232   3.780   0.948
 6670SOL    HW120909   2.218   3.692   0.901
 6670SOL    HW220910   2.287   3.765   1.030
 6671SOL     OW20911   5.678   5.226   0.356
 6671SOL    HW120912   5.754   5.291   0.363
 6671SOL    HW220913   5.595   5.276   0.333
 6672SOL     OW20914   1.594   2.289   1.019
 6672SOL    HW120915   1.625   2.376   0.983
 6672SOL    HW220916   1.649   2.215   0.981
 6673SOL     OW20917   5.535   3.850   3.943
 6673SOL    HW120918   5.597   3.806   4.007
 6673SOL    HW220919   5.468   3.784   3.909
 6674SOL     OW20920   6.383   1.284   7.011
 6674SOL    HW120921   6.340   1.296   6.921
 6674SOL    HW220922   6.329   1.332   0.055
 6675SOL     OW20923   5.452   0.927   0.890
 6675SOL    HW120924   5.487   0.875   0.967
 6675SOL    HW220925   5.525   0.938   0.822
 6676SOL     OW20926   0.810   3.799   5.262
 6676SOL    HW120927   0.795   3.703   5.287
 6676SOL    HW220928   0.831   3.852   5.344
 6677SOL     OW20929   0.430   2.238   0.260
 6677SOL    HW120930   0.484   2.323   0.265
 6677SOL    HW220931   0.481   2.164   0.302
 6678SOL     OW20932   2.976   4.194   6.780
 6678SOL    HW120933   2.997   4.228   6.688
 6678SOL    HW220934   3.061   4.161   6.822
 6679SOL     OW20935   1.723   6.595   3.361
 6679SOL    HW120936   1.731   6.695   3.356
 6679SOL    HW220937   1.700   6.558   3.271
 6680SOL     OW20938   5.797   5.246   1.569
 6680SOL    HW120939   5.843   5.161   1.545
 6680SOL    HW220940   5.853   5.296   1.635
 6681SOL     OW20941   3.020   6.331   0.801
 6681SOL    HW120942   3.088   6.364   0.867
 6681SOL    HW220943   3.017   6.231   0.804
 6682SOL     OW20944   2.001   5.036   6.184
 6682SOL    HW120945   1.906   5.014   6.202
 6682SOL    HW220946   2.049   4.954   6.153
 6683SOL     OW20947   6.505   6.678   6.120
 6683SOL    HW120948   6.480   6.681   6.216
 6683SOL    HW220949   6.425   6.696   6.064
 6684SOL     OW20950   2.914   0.225   5.773
 6684SOL    HW120951   2.998   0.190   5.731
 6684SOL    HW220952   2.906   0.189   5.866
 6685SOL     OW20953   4.045   3.171   0.677
 6685SOL    HW120954   4.011   3.231   0.749
 6685SOL    HW220955   4.144   3.161   0.687
 6686SOL     OW20956   4.240   4.787   5.453
 6686SOL    HW120957   4.278   4.700   5.422
 6686SOL    HW220958   4.227   4.848   5.375
 6687SOL     OW20959   0.146   2.532   0.946
 6687SOL    HW120960   0.123   2.510   1.041
 6687SOL    HW220961   0.081   2.487   0.884
 6688SOL     OW20962   5.930   6.078   0.247
 6688SOL    HW120963   5.867   6.005   0.271
 6688SOL    HW220964   5.883   6.144   0.189
 6689SOL     OW20965   3.855   4.545   5.657
 6689SOL    HW120966   3.889   4.638   5.645
 6689SOL    HW220967   3.902   4.483   5.594
 6690SOL     OW20968   0.620   0.478   0.006
 6690SOL    HW120969   0.589   0.436   6.946
 6690SOL    HW220970   0.567   0.560   0.024
 6691SOL     OW20971   2.349   1.999   2.534
 6691SOL    HW120972   2.446   2.025   2.533
 6691SOL    HW220973   2.295   2.076   2.567
 6692SOL     OW20974   4.320   6.507   2.453
 6692SOL    HW120975   4.237   6.556   2.480
 6692SOL    HW220976   4.300   6.448   2.375
 6693SOL     OW20977   3.009   1.095   6.163
 6693SOL    HW120978   3.059   1.123   6.245
 6693SOL    HW220979   3.035   1.002   6.138
 6694SOL     OW20980   4.723   4.164   1.713
 6694SOL    HW120981   4.635   4.156   1.759
 6694SOL    HW220982   4.773   4.078   1.722
 6695SOL     OW20983   2.982   2.291   0.133
 6695SOL    HW120984   2.986   2.290   0.033
 6695SOL    HW220985   2.942   2.206   0.166
 6696SOL     OW20986   3.924   3.413   5.464
 6696SOL    HW120987   3.956   3.354   5.389
 6696SOL    HW220988   3.840   3.376   5.503
 6697SOL     OW20989   4.178   0.849   2.843
 6697SOL    HW120990   4.105   0.850   2.775
 6697SOL    HW220991   4.152   0.909   2.919
 6698SOL     OW20992   2.476   3.237   1.243
 6698SOL    HW120993   2.564   3.213   1.283
 6698SOL    HW220994   2.406   3.238   1.315
 6699SOL     OW20995   1.508   3.704   5.467
 6699SOL    HW120996   1.527   3.782   5.408
 6699SOL    HW220997   1.551   3.719   5.556
 6700SOL     OW20998   4.694   6.435   1.484
 6700SOL    HW120999   4.762   6.479   1.425
 6700SOL    HW221000   4.689   6.484   1.571
 6701SOL     OW21001   6.624   0.789   1.081
 6701SOL    HW121002   6.595   0.850   1.007
 6701SOL    HW221003   6.651   0.700   1.042
 6702SOL     OW21004   5.119   2.838   1.647
 6702SOL    HW121005   5.064   2.756   1.634
 6702SOL    HW221006   5.101   2.902   1.572
 6703SOL     OW21007   6.962   0.891   1.062
 6703SOL    HW121008   6.913   0.874   1.147
 6703SOL    HW221009   0.035   0.892   1.080
 6704SOL     OW21010   1.923   5.753   6.374
 6704SOL    HW121011   1.914   5.703   6.288
 6704SOL    HW221012   1.857   5.718   6.440
 6705SOL     OW21013   1.810   4.337   2.848
 6705SOL    HW121014   1.722   4.300   2.876
 6705SOL    HW221015   1.844   4.285   2.769
 6706SOL     OW21016   0.318   5.700   1.629
 6706SOL    HW121017   0.322   5.629   1.699
 6706SOL    HW221018   0.254   5.772   1.659
 6707SOL     OW21019   5.545   0.846   2.907
 6707SOL    HW121020   5.617   0.832   2.839
 6707SOL    HW221021   5.499   0.933   2.888
 6708SOL     OW21022   0.230   2.902   1.122
 6708SOL    HW121023   0.244   2.826   1.186
 6708SOL    HW221024   0.176   2.973   1.166
 6709SOL     OW21025   2.296   4.256   2.299
 6709SOL    HW121026   2.372   4.197   2.270
 6709SOL    HW221027   2.212   4.224   2.256
 6710SOL     OW21028   5.037   2.150   1.893
 6710SOL    HW121029   5.057   2.247   1.905
 6710SOL    HW221030   4.944   2.130   1.923
 6711SOL     OW21031   4.078   5.314   6.588
 6711SOL    HW121032   3.981   5.309   6.613
 6711SOL    HW221033   4.117   5.222   6.588
 6712SOL     OW21034   5.945   3.487   1.145
 6712SOL    HW121035   6.031   3.440   1.127
 6712SOL    HW221036   5.947   3.578   1.103
 6713SOL     OW21037   2.264   4.788   4.255
 6713SOL    HW121038   2.338   4.832   4.205
 6713SOL    HW221039   2.292   4.774   4.350
 6714SOL     OW21040   6.549   0.981   3.112
 6714SOL    HW121041   6.636   0.932   3.110
 6714SOL    HW221042   6.486   0.938   3.047
 6715SOL     OW21043   0.503   6.845   5.025
 6715SOL    HW121044   0.414   6.813   5.057
 6715SOL    HW221045   0.569   6.770   5.027
 6716SOL     OW21046   1.839   4.337   1.871
 6716SOL    HW121047   1.886   4.357   1.956
 6716SOL    HW221048   1.871   4.250   1.834
 6717SOL     OW21049   6.057   2.882   5.591
 6717SOL    HW121050   6.128   2.950   5.611
 6717SOL    HW221051   5.984   2.925   5.539
 6718SOL     OW21052   5.041   1.913   0.601
 6718SOL    HW121053   4.963   1.862   0.637
 6718SOL    HW221054   5.024   1.935   0.505
 6719SOL     OW21055   1.093   6.925   0.569
 6719SOL    HW121056   1.022   6.988   0.536
 6719SOL    HW221057   1.106   6.938   0.667
 6720SOL     OW21058   1.781   1.742   4.716
 6720SOL    HW121059   1.710   1.725   4.648
 6720SOL    HW221060   1.846   1.809   4.680
 6721SOL     OW21061   6.550   6.517   0.506
 6721SOL    HW121062   6.564   6.452   0.431
 6721SOL    HW221063   6.462   6.562   0.495
 6722SOL     OW21064   6.905   3.666   1.487
 6722SOL    HW121065   6.864   3.600   1.425
 6722SOL    HW221066   6.969   3.724   1.435
 6723SOL     OW21067   2.289   4.103   3.673
 6723SOL    HW121068   2.384   4.097   3.704
 6723SOL    HW221069   2.261   4.015   3.634
 6724SOL     OW21070   2.428   3.656   5.293
 6724SOL    HW121071   2.378   3.571   5.277
 6724SOL    HW221072   2.370   3.720   5.344
 6725SOL     OW21073   4.705   2.759   3.311
 6725SOL    HW121074   4.702   2.767   3.211
 6725SOL    HW221075   4.682   2.665   3.337
 6726SOL     OW21076   0.286   1.350   0.371
 6726SOL    HW121077   0.363   1.367   0.308
 6726SOL    HW221078   0.315   1.370   0.464
 6727SOL     OW21079   1.058   5.879   5.375
 6727SOL    HW121080   0.991   5.880   5.301
 6727SOL    HW221081   1.147   5.851   5.339
 6728SOL     OW21082   3.774   1.770   5.608
 6728SOL    HW121083   3.707   1.774   5.683
 6728SOL    HW221084   3.804   1.863   5.586
 6729SOL     OW21085   4.330   1.412   2.377
 6729SOL    HW121086   4.344   1.455   2.466
 6729SOL    HW221087   4.298   1.318   2.389
 6730SOL     OW21088   6.774   1.964   1.536
 6730SOL    HW121089   6.834   2.020   1.594
 6730SOL    HW221090   6.825   1.933   1.456
 6731SOL     OW21091   3.927   0.521   5.623
 6731SOL    HW121092   4.006   0.569   5.663
 6731SOL    HW221093   3.941   0.423   5.631
 6732SOL     OW21094   6.575   4.412   6.156
 6732SOL    HW121095   6.613   4.490   6.205
 6732SOL    HW221096   6.539   4.443   6.068
 6733SOL     OW21097   5.707   4.801   6.052
 6733SOL    HW121098   5.653   4.883   6.031
 6733SOL    HW221099   5.721   4.748   5.968
 6734SOL     OW21100   5.785   2.307   4.757
 6734SOL    HW121101   5.706   2.329   4.815
 6734SOL    HW221102   5.782   2.363   4.674
 6735SOL     OW21103   5.512   2.308   4.860
 6735SOL    HW121104   5.520   2.404   4.836
 6735SOL    HW221105   5.426   2.293   4.910
 6736SOL     OW21106   4.300   3.139   0.794
 6736SOL    HW121107   4.300   3.225   0.844
 6736SOL    HW221108   4.245   3.072   0.843
 6737SOL     OW21109   6.081   2.243   1.927
 6737SOL    HW121110   6.071   2.279   1.834
 6737SOL    HW221111   6.006   2.180   1.946
 6738SOL     OW21112   1.899   6.793   3.085
 6738SOL    HW121113   1.944   6.710   3.117
 6738SOL    HW221114   1.966   6.868   3.080
 6739SOL     OW21115   0.563   0.652   6.037
 6739SOL    HW121116   0.655   0.654   5.997
 6739SOL    HW221117   0.536   0.745   6.060
 6740SOL     OW21118   0.926   6.946   1.326
 6740SOL    HW121119   0.827   6.958   1.312
 6740SOL    HW221120   0.961   7.024   1.378
 6741SOL     OW21121   3.019   2.187   0.621
 6741SOL    HW121122   3.024   2.240   0.537
 6741SOL    HW221123   2.946   2.119   0.614
 6742SOL     OW21124   6.674   4.813   2.714
 6742SOL    HW121125   6.605   4.829   2.643
 6742SOL    HW221126   6.636   4.839   2.803
 6743SOL     OW21127   4.232   4.483   6.878
 6743SOL    HW121128   4.303   4.552   6.864
 6743SOL    HW221129   4.275   4.397   6.907
 6744SOL     OW21130   6.699   6.655   5.486
 6744SOL    HW121131   6.727   6.678   5.393
 6744SOL    HW221132   6.765   6.694   5.551
 6745SOL     OW21133   5.743   3.414   4.897
 6745SOL    HW121134   5.805   3.484   4.931
 6745SOL    HW221135   5.704   3.363   4.974
 6746SOL     OW21136   1.076   2.775   3.154
 6746SOL    HW121137   1.087   2.874   3.146
 6746SOL    HW221138   1.147   2.729   3.101
 6747SOL     OW21139   0.527   6.341   5.326
 6747SOL    HW121140   0.466   6.347   5.247
 6747SOL    HW221141   0.580   6.425   5.334
 6748SOL     OW21142   1.667   2.536   3.940
 6748SOL    HW121143   1.698   2.504   4.030
 6748SOL    HW221144   1.670   2.460   3.875
 6749SOL     OW21145   3.226   5.219   2.197
 6749SOL    HW121146   3.293   5.291   2.181
 6749SOL    HW221147   3.133   5.257   2.194
 6750SOL     OW21148   3.699   0.474   5.776
 6750SOL    HW121149   3.770   0.514   5.717
 6750SOL    HW221150   3.707   0.375   5.776
 6751SOL     OW21151   4.412   1.789   4.570
 6751SOL    HW121152   4.507   1.820   4.566
 6751SOL    HW221153   4.398   1.716   4.503
 6752SOL     OW21154   2.448   5.289   2.568
 6752SOL    HW121155   2.417   5.201   2.533
 6752SOL    HW221156   2.487   5.343   2.494
 6753SOL     OW21157   3.512   4.170   6.783
 6753SOL    HW121158   3.540   4.108   6.710
 6753SOL    HW221159   3.440   4.128   6.838
 6754SOL     OW21160   5.561   0.290   0.168
 6754SOL    HW121161   5.475   0.341   0.160
 6754SOL    HW221162   5.613   0.297   0.083
 6755SOL     OW21163   3.558   6.056   5.505
 6755SOL    HW121164   3.608   6.100   5.430
 6755SOL    HW221165   3.618   6.049   5.585
 6756SOL     OW21166   4.417   3.167   5.595
 6756SOL    HW121167   4.455   3.116   5.673
 6756SOL    HW221168   4.458   3.258   5.592
 6757SOL     OW21169   3.335   0.296   1.865
 6757SOL    HW121170   3.246   0.255   1.883
 6757SOL    HW221171   3.331   0.394   1.884
 6758SOL     OW21172   4.743   2.855   3.581
 6758SOL    HW121173   4.726   2.835   3.485
 6758SOL    HW221174   4.684   2.798   3.638
 6759SOL     OW21175   1.624   2.352   1.853
 6759SOL    HW121176   1.587   2.367   1.945
 6759SOL    HW221177   1.720   2.378   1.850
 6760SOL     OW21178   5.268   1.864   5.736
 6760SOL    HW121179   5.338   1.919   5.690
 6760SOL    HW221180   5.301   1.837   5.827
 6761SOL     OW21181   2.858   0.162   4.977
 6761SOL    HW121182   2.768   0.207   4.978
 6761SOL    HW221183   2.848   0.066   5.005
 6762SOL     OW21184   5.661   4.958   4.534
 6762SOL    HW121185   5.745   4.918   4.498
 6762SOL    HW221186   5.609   5.000   4.460
 6763SOL     OW21187   5.545   5.949   4.095
 6763SOL    HW121188   5.631   5.999   4.083
 6763SOL    HW221189   5.565   5.859   4.135
 6764SOL     OW21190   1.170   4.748   2.348
 6764SOL    HW121191   1.160   4.648   2.348
 6764SOL    HW221192   1.245   4.774   2.287
 6765SOL     OW21193   0.422   4.624   2.414
 6765SOL    HW121194   0.470   4.540   2.387
 6765SOL    HW221195   0.452   4.651   2.506
 6766SOL     OW21196   5.895   0.254   1.498
 6766SOL    HW121197   5.951   0.285   1.575
 6766SOL    HW221198   5.953   0.240   1.417
 6767SOL     OW21199   2.813   0.291   1.345
 6767SOL    HW121200   2.801   0.192   1.347
 6767SOL    HW221201   2.897   0.315   1.393
 6768SOL     OW21202   2.414   0.880   6.248
 6768SOL    HW121203   2.347   0.809   6.269
 6768SOL    HW221204   2.497   0.837   6.211
 6769SOL     OW21205   5.557   2.712   1.576
 6769SOL    HW121206   5.631   2.764   1.618
 6769SOL    HW221207   5.585   2.680   1.486
 6770SOL     OW21208   0.028   1.506   1.368
 6770SOL    HW121209   6.994   1.470   1.296
 6770SOL    HW221210   7.007   1.583   1.413
 6771SOL     OW21211   4.357   0.515   4.112
 6771SOL    HW121212   4.370   0.579   4.189
 6771SOL    HW221213   4.370   0.564   4.026
 6772SOL     OW21214   2.867   1.022   5.495
 6772SOL    HW121215   2.780   1.071   5.493
 6772SOL    HW221216   2.943   1.087   5.498
 6773SOL     OW21217   0.212   3.066   3.036
 6773SOL    HW121218   0.156   2.986   3.017
 6773SOL    HW221219   0.174   3.115   3.115
 6774SOL     OW21220   1.530   1.464   5.874
 6774SOL    HW121221   1.539   1.375   5.920
 6774SOL    HW221222   1.582   1.533   5.924
 6775SOL     OW21223   0.303   3.314   0.413
 6775SOL    HW121224   0.356   3.399   0.421
 6775SOL    HW221225   0.231   3.314   0.482
 6776SOL     OW21226   6.226   6.733   5.918
 6776SOL    HW121227   6.283   6.653   5.903
 6776SOL    HW221228   6.149   6.733   5.854
 6777SOL     OW21229   4.567   4.736   0.347
 6777SOL    HW121230   4.487   4.680   0.366
 6777SOL    HW221231   4.646   4.677   0.329
 6778SOL     OW21232   6.800   5.217   3.351
 6778SOL    HW121233   6.741   5.157   3.405
 6778SOL    HW221234   6.855   5.274   3.412
 6779SOL     OW21235   5.301   3.349   6.505
 6779SOL    HW121236   5.331   3.369   6.412
 6779SOL    HW221237   5.375   3.305   6.555
 6780SOL     OW21238   1.217   2.170   1.355
 6780SOL    HW121239   1.278   2.156   1.277
 6780SOL    HW221240   1.271   2.171   1.439
 6781SOL     OW21241   5.945   4.328   4.989
 6781SOL    HW121242   5.963   4.255   5.055
 6781SOL    HW221243   5.903   4.406   5.036
 6782SOL     OW21244   6.473   1.642   3.682
 6782SOL    HW121245   6.389   1.596   3.653
 6782SOL    HW221246   6.550   1.578   3.677
 6783SOL     OW21247   1.306   5.285   0.127
 6783SOL    HW121248   1.211   5.311   0.142
 6783SOL    HW221249   1.343   5.337   0.050
 6784SOL     OW21250   3.932   3.505   0.304
 6784SOL    HW121251   3.971   3.443   0.373
 6784SOL    HW221252   3.895   3.585   0.350
 6785SOL     OW21253   5.064   6.349   1.317
 6785SOL    HW121254   5.125   6.319   1.244
 6785SOL    HW221255   4.995   6.278   1.334
 6786SOL     OW21256   2.252   3.455   5.264
 6786SOL    HW121257   2.228   3.445   5.167
 6786SOL    HW221258   2.171   3.484   5.315
 6787SOL     OW21259   0.827   4.398   2.589
 6787SOL    HW121260   0.777   4.314   2.570
 6787SOL    HW221261   0.887   4.384   2.667
 6788SOL     OW21262   2.651   3.766   1.023
 6788SOL    HW121263   2.604   3.690   1.067
 6788SOL    HW221264   2.636   3.850   1.075
 6789SOL     OW21265   2.030   4.810   3.227
 6789SOL    HW121266   1.962   4.879   3.204
 6789SOL    HW221267   2.079   4.837   3.309
 6790SOL     OW21268   1.335   3.198   1.423
 6790SOL    HW121269   1.378   3.264   1.361
 6790SOL    HW221270   1.278   3.135   1.371
 6791SOL     OW21271   3.416   3.948   5.344
 6791SOL    HW121272   3.356   3.910   5.415
 6791SOL    HW221273   3.509   3.954   5.379
 6792SOL     OW21274   1.031   5.147   0.731
 6792SOL    HW121275   1.036   5.051   0.760
 6792SOL    HW221276   1.033   5.206   0.812
 6793SOL     OW21277   5.782   0.658   0.517
 6793SOL    HW121278   5.682   0.654   0.508
 6793SOL    HW221279   5.813   0.583   0.575
 6794SOL     OW21280   3.122   1.714   5.549
 6794SOL    HW121281   3.151   1.749   5.638
 6794SOL    HW221282   3.128   1.614   5.549
 6795SOL     OW21283   4.157   6.048   0.028
 6795SOL    HW121284   4.250   6.031   7.021
 6795SOL    HW221285   4.142   6.147   0.037
 6796SOL     OW21286   3.991   2.173   2.301
 6796SOL    HW121287   3.904   2.201   2.340
 6796SOL    HW221288   3.982   2.161   2.203
 6797SOL     OW21289   7.025   2.582   3.012
 6797SOL    HW121290   0.009   2.645   3.089
 6797SOL    HW221291   7.009   2.635   2.928
 6798SOL     OW21292   6.298   0.221   2.002
 6798SOL    HW121293   6.386   0.190   2.037
 6798SOL    HW221294   6.293   0.320   2.008
 6799SOL     OW21295   4.819   5.755   2.125
 6799SOL    HW121296   4.897   5.719   2.074
 6799SOL    HW221297   4.848   5.782   2.216
 6800SOL     OW21298   3.395   3.793   6.479
 6800SOL    HW121299   3.441   3.790   6.390
 6800SOL    HW221300   3.445   3.734   6.544
 6801SOL     OW21301   0.162   3.009   3.389
 6801SOL    HW121302   0.247   3.061   3.400
 6801SOL    HW221303   0.184   2.912   3.374
 6802SOL     OW21304   3.341   4.931   2.479
 6802SOL    HW121305   3.315   4.933   2.382
 6802SOL    HW221306   3.331   5.023   2.517
 6803SOL     OW21307   4.530   2.331   6.836
 6803SOL    HW121308   4.518   2.409   6.898
 6803SOL    HW221309   4.489   2.250   6.876
 6804SOL     OW21310   1.555   5.822   3.225
 6804SOL    HW121311   1.610   5.890   3.273
 6804SOL    HW221312   1.615   5.765   3.168
 6805SOL     OW21313   6.470   1.622   5.764
 6805SOL    HW121314   6.416   1.601   5.683
 6805SOL    HW221315   6.539   1.552   5.778
 6806SOL     OW21316   4.842   5.755   5.198
 6806SOL    HW121317   4.825   5.850   5.171
 6806SOL    HW221318   4.926   5.750   5.254
 6807SOL     OW21319   4.599   3.332   6.947
 6807SOL    HW121320   4.591   3.379   0.009
 6807SOL    HW221321   4.690   3.349   6.909
 6808SOL     OW21322   2.873   4.801   3.812
 6808SOL    HW121323   2.801   4.753   3.863
 6808SOL    HW221324   2.957   4.803   3.867
 6809SOL     OW21325   1.140   3.518   6.444
 6809SOL    HW121326   1.048   3.542   6.475
 6809SOL    HW221327   1.160   3.565   6.359
 6810SOL     OW21328   6.167   1.791   3.454
 6810SOL    HW121329   6.147   1.794   3.356
 6810SOL    HW221330   6.266   1.803   3.468
 6811SOL     OW21331   4.915   6.114   2.400
 6811SOL    HW121332   4.834   6.080   2.447
 6811SOL    HW221333   4.890   6.146   2.309
 6812SOL     OW21334   3.611   3.223   3.076
 6812SOL    HW121335   3.704   3.185   3.083
 6812SOL    HW221336   3.598   3.292   3.146
 6813SOL     OW21337   5.416   3.709   1.054
 6813SOL    HW121338   5.329   3.711   1.103
 6813SOL    HW221339   5.439   3.802   1.022
 6814SOL     OW21340   2.146   2.804   0.448
 6814SOL    HW121341   2.106   2.875   0.506
 6814SOL    HW221342   2.154   2.837   0.354
 6815SOL     OW21343   1.296   6.598   6.881
 6815SOL    HW121344   1.392   6.573   6.869
 6815SOL    HW221345   1.240   6.543   6.819
 6816SOL     OW21346   5.287   4.437   1.303
 6816SOL    HW121347   5.273   4.534   1.321
 6816SOL    HW221348   5.199   4.391   1.299
 6817SOL     OW21349   1.967   1.925   6.216
 6817SOL    HW121350   1.973   1.886   6.124
 6817SOL    HW221351   2.058   1.956   6.245
 6818SOL     OW21352   4.174   5.196   0.817
 6818SOL    HW121353   4.126   5.276   0.853
 6818SOL    HW221354   4.129   5.165   0.733
 6819SOL     OW21355   2.831   1.094   3.715
 6819SOL    HW121356   2.773   1.150   3.775
 6819SOL    HW221357   2.926   1.125   3.723
 6820SOL     OW21358   1.560   4.979   4.651
 6820SOL    HW121359   1.600   4.901   4.697
 6820SOL    HW221360   1.479   5.010   4.700
 6821SOL     OW21361   1.859   1.666   4.241
 6821SOL    HW121362   1.811   1.732   4.299
 6821SOL    HW221363   1.914   1.605   4.298
 6822SOL     OW21364   5.469   1.416   5.578
 6822SOL    HW121365   5.422   1.453   5.497
 6822SOL    HW221366   5.418   1.336   5.611
 6823SOL     OW21367   4.070   3.751   2.057
 6823SOL    HW121368   4.058   3.840   2.101
 6823SOL    HW221369   4.078   3.680   2.127
 6824SOL     OW21370   0.783   5.624   4.827
 6824SOL    HW121371   0.819   5.550   4.770
 6824SOL    HW221372   0.685   5.611   4.841
 6825SOL     OW21373   5.879   0.192   4.377
 6825SOL    HW121374   5.976   0.177   4.394
 6825SOL    HW221375   5.828   0.107   4.395
 6826SOL     OW21376   1.241   2.584   3.659
 6826SOL    HW121377   1.181   2.663   3.666
 6826SOL    HW221378   1.240   2.549   3.565
 6827SOL     OW21379   4.283   5.750   5.334
 6827SOL    HW121380   4.376   5.755   5.298
 6827SOL    HW221381   4.218   5.740   5.259
 6828SOL     OW21382   2.010   2.375   0.972
 6828SOL    HW121383   1.985   2.325   0.888
 6828SOL    HW221384   2.026   2.471   0.949
 6829SOL     OW21385   5.971   4.491   3.599
 6829SOL    HW121386   6.053   4.436   3.584
 6829SOL    HW221387   5.919   4.453   3.675
 6830SOL     OW21388   4.545   1.363   3.785
 6830SOL    HW121389   4.633   1.316   3.781
 6830SOL    HW221390   4.497   1.352   3.697
 6831SOL     OW21391   0.821   1.628   6.415
 6831SOL    HW121392   0.902   1.573   6.431
 6831SOL    HW221393   0.847   1.715   6.372
 6832SOL     OW21394   2.652   4.942   1.506
 6832SOL    HW121395   2.713   4.878   1.459
 6832SOL    HW221396   2.692   4.968   1.593
 6833SOL     OW21397   4.599   6.259   6.743
 6833SOL    HW121398   4.678   6.310   6.709
 6833SOL    HW221399   4.630   6.178   6.793
 6834SOL     OW21400   2.635   4.569   2.531
 6834SOL    HW121401   2.639   4.619   2.618
 6834SOL    HW221402   2.563   4.500   2.534
 6835SOL     OW21403   3.790   6.498   4.002
 6835SOL    HW121404   3.788   6.598   4.015
 6835SOL    HW221405   3.731   6.473   3.926
 6836SOL     OW21406   3.508   5.228   0.730
 6836SOL    HW121407   3.504   5.186   0.640
 6836SOL    HW221408   3.603   5.245   0.756
 6837SOL     OW21409   0.901   3.544   2.976
 6837SOL    HW121410   0.826   3.487   2.942
 6837SOL    HW221411   0.864   3.620   3.029
 6838SOL     OW21412   2.659   2.671   0.525
 6838SOL    HW121413   2.668   2.726   0.608
 6838SOL    HW221414   2.699   2.720   0.447
 6839SOL     OW21415   3.728   1.458   1.941
 6839SOL    HW121416   3.814   1.447   1.892
 6839SOL    HW221417   3.701   1.370   1.981
 6840SOL     OW21418   0.696   0.871   5.876
 6840SOL    HW121419   0.760   0.929   5.926
 6840SOL    HW221420   0.738   0.782   5.858
 6841SOL     OW21421   6.531   2.971   5.727
 6841SOL    HW121422   6.506   2.874   5.736
 6841SOL    HW221423   6.598   2.982   5.654
 6842SOL     OW21424   2.688   4.697   2.795
 6842SOL    HW121425   2.636   4.782   2.804
 6842SOL    HW221426   2.784   4.719   2.775
 6843SOL     OW21427   3.676   6.258   1.366
 6843SOL    HW121428   3.590   6.221   1.331
 6843SOL    HW221429   3.726   6.186   1.416
 6844SOL     OW21430   5.763   0.104   5.475
 6844SOL    HW121431   5.858   0.087   5.500
 6844SOL    HW221432   5.709   0.020   5.490
 6845SOL     OW21433   5.989   2.452   3.114
 6845SOL    HW121434   6.022   2.443   3.020
 6845SOL    HW221435   6.044   2.394   3.174
 6846SOL     OW21436   1.423   3.202   0.319
 6846SOL    HW121437   1.436   3.106   0.295
 6846SOL    HW221438   1.504   3.254   0.290
 6847SOL     OW21439   6.933   2.156   3.837
 6847SOL    HW121440   6.877   2.074   3.824
 6847SOL    HW221441   6.969   2.186   3.749
 6848SOL     OW21442   6.887   4.165   4.343
 6848SOL    HW121443   6.834   4.092   4.299
 6848SOL    HW221444   6.824   4.234   4.379
 6849SOL     OW21445   3.024   4.107   5.333
 6849SOL    HW121446   3.029   4.007   5.341
 6849SOL    HW221447   3.115   4.144   5.318
 6850SOL     OW21448   5.526   0.461   4.702
 6850SOL    HW121449   5.505   0.557   4.721
 6850SOL    HW221450   5.442   0.407   4.711
 6851SOL     OW21451   2.079   4.303   3.547
 6851SOL    HW121452   2.167   4.275   3.584
 6851SOL    HW221453   2.006   4.269   3.607
 6852SOL     OW21454   4.700   2.835   0.605
 6852SOL    HW121455   4.630   2.774   0.643
 6852SOL    HW221456   4.691   2.837   0.505
 6853SOL     OW21457   5.150   5.323   5.748
 6853SOL    HW121458   5.078   5.375   5.703
 6853SOL    HW221459   5.223   5.303   5.682
 6854SOL     OW21460   5.514   6.137   5.544
 6854SOL    HW121461   5.540   6.040   5.553
 6854SOL    HW221462   5.556   6.189   5.618
 6855SOL     OW21463   4.129   5.756   2.905
 6855SOL    HW121464   4.082   5.704   2.976
 6855SOL    HW221465   4.208   5.804   2.945
 6856SOL     OW21466   6.418   2.377   1.021
 6856SOL    HW121467   6.509   2.353   1.055
 6856SOL    HW221468   6.349   2.342   1.085
 6857SOL     OW21469   1.447   4.558   5.924
 6857SOL    HW121470   1.412   4.645   5.959
 6857SOL    HW221471   1.546   4.566   5.911
 6858SOL     OW21472   1.415   3.384   1.822
 6858SOL    HW121473   1.317   3.398   1.840
 6858SOL    HW221474   1.431   3.291   1.789
 6859SOL     OW21475   2.827   2.411   0.555
 6859SOL    HW121476   2.751   2.451   0.503
 6859SOL    HW221477   2.791   2.369   0.639
 6860SOL     OW21478   0.542   0.100   6.833
 6860SOL    HW121479   0.545   0.191   6.791
 6860SOL    HW221480   0.584   0.033   6.771
 6861SOL     OW21481   6.097   3.371   6.936
 6861SOL    HW121482   6.196   3.384   6.935
 6861SOL    HW221483   6.054   3.433   6.870
 6862SOL     OW21484   0.782   5.452   2.976
 6862SOL    HW121485   0.857   5.400   2.936
 6862SOL    HW221486   0.802   5.469   3.073
 6863SOL     OW21487   5.087   1.277   5.539
 6863SOL    HW121488   5.151   1.354   5.536
 6863SOL    HW221489   5.054   1.264   5.632
 6864SOL     OW21490   2.243   3.478   6.249
 6864SOL    HW121491   2.204   3.395   6.210
 6864SOL    HW221492   2.339   3.462   6.272
 6865SOL     OW21493   1.691   1.049   2.977
 6865SOL    HW121494   1.605   1.094   2.953
 6865SOL    HW221495   1.715   0.983   2.906
 6866SOL     OW21496   1.659   4.710   6.549
 6866SOL    HW121497   1.681   4.640   6.480
 6866SOL    HW221498   1.565   4.696   6.581
 6867SOL     OW21499   1.703   2.056   6.563
 6867SOL    HW121500   1.648   2.133   6.530
 6867SOL    HW221501   1.787   2.091   6.606
 6868SOL     OW21502   3.997   5.078   4.004
 6868SOL    HW121503   3.940   5.008   3.961
 6868SOL    HW221504   4.089   5.074   3.965
 6869SOL     OW21505   1.120   0.386   5.449
 6869SOL    HW121506   1.103   0.305   5.393
 6869SOL    HW221507   1.060   0.460   5.420
 6870SOL     OW21508   6.602   2.846   6.494
 6870SOL    HW121509   6.643   2.935   6.518
 6870SOL    HW221510   6.520   2.832   6.549
 6871SOL     OW21511   5.805   2.775   3.417
 6871SOL    HW121512   5.719   2.789   3.466
 6871SOL    HW221513   5.843   2.863   3.390
 6872SOL     OW21514   2.026   4.796   0.945
 6872SOL    HW121515   2.068   4.721   0.995
 6872SOL    HW221516   1.946   4.762   0.896
 6873SOL     OW21517   0.704   3.684   2.785
 6873SOL    HW121518   0.661   3.625   2.716
 6873SOL    HW221519   0.799   3.656   2.799
 6874SOL     OW21520   4.009   5.982   1.822
 6874SOL    HW121521   4.053   5.958   1.736
 6874SOL    HW221522   3.936   6.048   1.804
 6875SOL     OW21523   2.815   0.480   6.340
 6875SOL    HW121524   2.717   0.494   6.347
 6875SOL    HW221525   2.840   0.394   6.386
 6876SOL     OW21526   5.781   5.688   3.269
 6876SOL    HW121527   5.686   5.703   3.242
 6876SOL    HW221528   5.807   5.593   3.249
 6877SOL     OW21529   1.371   4.036   1.622
 6877SOL    HW121530   1.435   4.058   1.696
 6877SOL    HW221531   1.304   3.969   1.655
 6878SOL     OW21532   1.603   0.060   3.470
 6878SOL    HW121533   1.671   0.080   3.399
 6878SOL    HW221534   1.523   0.117   3.456
 6879SOL     OW21535   1.413   1.197   1.203
 6879SOL    HW121536   1.478   1.244   1.143
 6879SOL    HW221537   1.424   1.098   1.193
 6880SOL     OW21538   1.186   6.774   0.135
 6880SOL    HW121539   1.186   6.677   0.113
 6880SOL    HW221540   1.173   6.827   0.051
 6881SOL     OW21541   6.728   3.525   1.338
 6881SOL    HW121542   6.631   3.518   1.360
 6881SOL    HW221543   6.740   3.514   1.239
 6882SOL     OW21544   2.536   6.548   6.716
 6882SOL    HW121545   2.565   6.643   6.706
 6882SOL    HW221546   2.437   6.542   6.708
 6883SOL     OW21547   4.575   0.064   1.074
 6883SOL    HW121548   4.477   0.081   1.077
 6883SOL    HW221549   4.593   7.005   1.024
 6884SOL     OW21550   1.576   5.493   3.188
 6884SOL    HW121551   1.566   5.460   3.282
 6884SOL    HW221552   1.494   5.471   3.136
 6885SOL     OW21553   5.608   4.445   4.202
 6885SOL    HW121554   5.583   4.416   4.295
 6885SOL    HW221555   5.626   4.543   4.202
 6886SOL     OW21556   5.744   3.624   0.506
 6886SOL    HW121557   5.730   3.722   0.494
 6886SOL    HW221558   5.831   3.597   0.465
 6887SOL     OW21559   5.230   6.046   5.603
 6887SOL    HW121560   5.317   6.085   5.574
 6887SOL    HW221561   5.189   5.996   5.526
 6888SOL     OW21562   0.027   4.012   1.590
 6888SOL    HW121563   0.059   3.929   1.544
 6888SOL    HW221564   6.975   3.990   1.649
 6889SOL     OW21565   0.611   2.924   5.539
 6889SOL    HW121566   0.623   2.902   5.635
 6889SOL    HW221567   0.597   2.839   5.487
 6890SOL     OW21568   5.029   4.736   3.803
 6890SOL    HW121569   5.063   4.813   3.858
 6890SOL    HW221570   4.970   4.679   3.860
 6891SOL     OW21571   1.397   1.418   0.402
 6891SOL    HW121572   1.344   1.354   0.346
 6891SOL    HW221573   1.494   1.411   0.379
 6892SOL     OW21574   1.371   0.674   5.315
 6892SOL    HW121575   1.412   0.719   5.236
 6892SOL    HW221576   1.357   0.741   5.388
 6893SOL     OW21577   6.149   3.137   0.915
 6893SOL    HW121578   6.202   3.098   0.991
 6893SOL    HW221579   6.052   3.139   0.939
 6894SOL     OW21580   5.557   5.250   6.776
 6894SOL    HW121581   5.482   5.278   6.835
 6894SOL    HW221582   5.634   5.312   6.788
 6895SOL     OW21583   1.444   5.447   2.918
 6895SOL    HW121584   1.485   5.364   2.881
 6895SOL    HW221585   1.491   5.527   2.881
 6896SOL     OW21586   4.772   1.154   6.092
 6896SOL    HW121587   4.686   1.158   6.041
 6896SOL    HW221588   4.836   1.221   6.054
 6897SOL     OW21589   4.041   2.211   4.932
 6897SOL    HW121590   4.081   2.298   4.960
 6897SOL    HW221591   4.101   2.136   4.960
 6898SOL     OW21592   1.902   6.179   1.030
 6898SOL    HW121593   1.919   6.202   0.934
 6898SOL    HW221594   1.804   6.160   1.043
 6899SOL     OW21595   6.052   5.337   3.043
 6899SOL    HW121596   6.051   5.431   3.076
 6899SOL    HW221597   6.141   5.296   3.059
 6900SOL     OW21598   0.364   4.760   4.893
 6900SOL    HW121599   0.449   4.709   4.897
 6900SOL    HW221600   0.305   4.722   4.822
 6901SOL     OW21601   5.179   4.262   6.220
 6901SOL    HW121602   5.097   4.316   6.236
 6901SOL    HW221603   5.155   4.176   6.174
 6902SOL     OW21604   0.371   5.914   5.602
 6902SOL    HW121605   0.402   5.826   5.566
 6902SOL    HW221606   0.422   5.988   5.557
 6903SOL     OW21607   0.697   6.605   5.323
 6903SOL    HW121608   0.793   6.621   5.346
 6903SOL    HW221609   0.678   6.643   5.232
 6904SOL     OW21610   0.845   0.076   6.410
 6904SOL    HW121611   0.769   0.092   6.473
 6904SOL    HW221612   0.880   0.164   6.378
 6905SOL     OW21613   4.631   5.979   5.359
 6905SOL    HW121614   4.588   6.054   5.409
 6905SOL    HW221615   4.603   5.982   5.263
 6906SOL     OW21616   2.625   1.998   3.546
 6906SOL    HW121617   2.725   2.006   3.550
 6906SOL    HW221618   2.600   1.921   3.486
 6907SOL     OW21619   5.779   3.340   0.461
 6907SOL    HW121620   5.729   3.268   0.413
 6907SOL    HW221621   5.715   3.405   0.500
 6908SOL     OW21622   3.234   5.033   0.863
 6908SOL    HW121623   3.160   5.019   0.797
 6908SOL    HW221624   3.201   5.017   0.955
 6909SOL     OW21625   5.674   5.303   2.591
 6909SOL    HW121626   5.600   5.241   2.618
 6909SOL    HW221627   5.757   5.279   2.641
 6910SOL     OW21628   1.775   2.433   2.280
 6910SOL    HW121629   1.776   2.521   2.328
 6910SOL    HW221630   1.775   2.359   2.347
 6911SOL     OW21631   2.288   6.900   5.258
 6911SOL    HW121632   2.289   6.942   5.167
 6911SOL    HW221633   2.246   6.963   5.323
 6912SOL     OW21634   2.353   4.208   6.287
 6912SOL    HW121635   2.360   4.283   6.353
 6912SOL    HW221636   2.435   4.205   6.230
 6913SOL     OW21637   4.216   5.426   5.903
 6913SOL    HW121638   4.244   5.416   5.808
 6913SOL    HW221639   4.120   5.401   5.912
 6914SOL     OW21640   1.041   1.859   2.340
 6914SOL    HW121641   1.068   1.938   2.395
 6914SOL    HW221642   1.116   1.793   2.337
 6915SOL     OW21643   6.228   3.377   4.159
 6915SOL    HW121644   6.163   3.328   4.217
 6915SOL    HW221645   6.298   3.419   4.216
 6916SOL     OW21646   4.342   6.159   5.560
 6916SOL    HW121647   4.407   6.153   5.484
 6916SOL    HW221648   4.374   6.102   5.636
 6917SOL     OW21649   3.265   5.569   2.122
 6917SOL    HW121650   3.166   5.578   2.131
 6917SOL    HW221651   3.307   5.564   2.212
 6918SOL     OW21652   1.648   3.868   6.503
 6918SOL    HW121653   1.630   3.911   6.414
 6918SOL    HW221654   1.742   3.834   6.505
 6919SOL     OW21655   6.597   6.109   3.766
 6919SOL    HW121656   6.532   6.107   3.841
 6919SOL    HW221657   6.619   6.204   3.744
 6920SOL     OW21658   0.534   3.361   5.381
 6920SOL    HW121659   0.499   3.285   5.436
 6920SOL    HW221660   0.457   3.411   5.340
 6921SOL     OW21661   3.518   0.367   5.555
 6921SOL    HW121662   3.545   0.364   5.651
 6921SOL    HW221663   3.534   0.459   5.518
 6922SOL     OW21664   2.543   4.213   6.540
 6922SOL    HW121665   2.621   4.274   6.524
 6922SOL    HW221666   2.539   4.145   6.467
 6923SOL     OW21667   4.924   6.835   2.870
 6923SOL    HW121668   4.921   6.784   2.784
 6923SOL    HW221669   4.830   6.847   2.905
 6924SOL     OW21670   3.089   4.899   1.636
 6924SOL    HW121671   3.127   4.822   1.685
 6924SOL    HW221672   3.126   4.901   1.543
 6925SOL     OW21673   6.134   0.026   4.489
 6925SOL    HW121674   6.187   0.080   4.423
 6925SOL    HW221675   6.196   7.013   4.558
 6926SOL     OW21676   2.685   2.896   0.325
 6926SOL    HW121677   2.715   2.984   0.360
 6926SOL    HW221678   2.601   2.908   0.273
 6927SOL     OW21679   3.444   6.769   5.458
 6927SOL    HW121680   3.355   6.782   5.500
 6927SOL    HW221681   3.490   6.857   5.448
 6928SOL     OW21682   3.996   5.557   0.599
 6928SOL    HW121683   3.898   5.542   0.608
 6928SOL    HW221684   4.013   5.650   0.565
 6929SOL     OW21685   4.774   5.864   3.584
 6929SOL    HW121686   4.787   5.822   3.674
 6929SOL    HW221687   4.832   5.945   3.576
 6930SOL     OW21688   0.396   6.296   2.416
 6930SOL    HW121689   0.326   6.334   2.355
 6930SOL    HW221690   0.383   6.332   2.508
 6931SOL     OW21691   4.073   2.820   6.947
 6931SOL    HW121692   4.161   2.805   6.993
 6931SOL    HW221693   4.085   2.888   6.875
 6932SOL     OW21694   3.803   0.586   6.660
 6932SOL    HW121695   3.721   0.539   6.692
 6932SOL    HW221696   3.776   0.660   6.598
 6933SOL     OW21697   3.804   5.988   6.012
 6933SOL    HW121698   3.801   5.888   6.011
 6933SOL    HW221699   3.897   6.019   5.994
 6934SOL     OW21700   4.656   5.875   0.043
 6934SOL    HW121701   4.568   5.840   0.012
 6934SOL    HW221702   4.642   5.958   0.097
 6935SOL     OW21703   4.177   5.535   2.106
 6935SOL    HW121704   4.160   5.623   2.062
 6935SOL    HW221705   4.261   5.494   2.068
 6936SOL     OW21706   1.227   1.258   0.196
 6936SOL    HW121707   1.316   1.292   0.166
 6936SOL    HW221708   1.155   1.314   0.157
 6937SOL     OW21709   6.462   4.123   0.307
 6937SOL    HW121710   6.418   4.210   0.327
 6937SOL    HW221711   6.433   4.055   0.374
 6938SOL     OW21712   2.913   6.895   5.256
 6938SOL    HW121713   2.928   6.888   5.158
 6938SOL    HW221714   2.815   6.889   5.275
 6939SOL     OW21715   6.537   2.978   3.118
 6939SOL    HW121716   6.530   2.924   3.034
 6939SOL    HW221717   6.619   2.952   3.168
 6940SOL     OW21718   0.299   6.621   1.231
 6940SOL    HW121719   0.295   6.669   1.143
 6940SOL    HW221720   0.352   6.537   1.221
 6941SOL     OW21721   4.025   3.548   2.250
 6941SOL    HW121722   4.012   3.533   2.348
 6941SOL    HW221723   4.043   3.460   2.205
 6942SOL     OW21724   0.329   5.623   2.750
 6942SOL    HW121725   0.336   5.528   2.780
 6942SOL    HW221726   0.268   5.673   2.812
 6943SOL     OW21727   3.195   5.364   5.471
 6943SOL    HW121728   3.286   5.393   5.443
 6943SOL    HW221729   3.193   5.350   5.570
 6944SOL     OW21730   1.332   5.007   6.011
 6944SOL    HW121731   1.236   5.010   5.983
 6944SOL    HW221732   1.352   5.088   6.066
 6945SOL     OW21733   3.856   1.666   0.767
 6945SOL    HW121734   3.949   1.633   0.755
 6945SOL    HW221735   3.791   1.600   0.729
 6946SOL     OW21736   5.697   5.170   4.002
 6946SOL    HW121737   5.744   5.135   3.921
 6946SOL    HW221738   5.650   5.096   4.049
 6947SOL     OW21739   6.459   3.338   5.687
 6947SOL    HW121740   6.394   3.304   5.754
 6947SOL    HW221741   6.467   3.437   5.696
 6948SOL     OW21742   0.391   5.349   6.488
 6948SOL    HW121743   0.315   5.400   6.529
 6948SOL    HW221744   0.456   5.323   6.560
 6949SOL     OW21745   2.068   1.428   3.533
 6949SOL    HW121746   2.074   1.453   3.629
 6949SOL    HW221747   2.008   1.349   3.522
 6950SOL     OW21748   1.838   0.898   4.304
 6950SOL    HW121749   1.923   0.944   4.330
 6950SOL    HW221750   1.792   0.865   4.387
 6951SOL     OW21751   0.992   3.237   0.020
 6951SOL    HW121752   1.016   3.260   0.114
 6951SOL    HW221753   1.060   3.173   7.008
 6952SOL     OW21754   4.531   4.880   3.756
 6952SOL    HW121755   4.609   4.860   3.816
 6952SOL    HW221756   4.546   4.968   3.711
 6953SOL     OW21757   0.650   0.734   1.571
 6953SOL    HW121758   0.633   0.639   1.596
 6953SOL    HW221759   0.609   0.794   1.640
 6954SOL     OW21760   6.720   5.282   6.307
 6954SOL    HW121761   6.669   5.203   6.341
 6954SOL    HW221762   6.719   5.281   6.207
 6955SOL     OW21763   3.473   5.502   2.835
 6955SOL    HW121764   3.546   5.469   2.775
 6955SOL    HW221765   3.457   5.436   2.908
 6956SOL     OW21766   6.245   4.604   2.822
 6956SOL    HW121767   6.301   4.544   2.879
 6956SOL    HW221768   6.286   4.613   2.731
 6957SOL     OW21769   5.403   4.078   5.417
 6957SOL    HW121770   5.345   4.072   5.336
 6957SOL    HW221771   5.486   4.129   5.394
 6958SOL     OW21772   3.524   3.794   1.504
 6958SOL    HW121773   3.440   3.821   1.550
 6958SOL    HW221774   3.509   3.708   1.455
 6959SOL     OW21775   0.100   3.483   3.375
 6959SOL    HW121776   0.094   3.450   3.469
 6959SOL    HW221777   0.192   3.517   3.357
 6960SOL     OW21778   5.081   4.801   0.698
 6960SOL    HW121779   5.034   4.857   0.767
 6960SOL    HW221780   5.179   4.818   0.702
 6961SOL     OW21781   4.658   2.574   4.555
 6961SOL    HW121782   4.620   2.512   4.486
 6961SOL    HW221783   4.677   2.663   4.513
 6962SOL     OW21784   2.379   6.903   0.723
 6962SOL    HW121785   2.292   6.853   0.725
 6962SOL    HW221786   2.369   6.982   0.662
 6963SOL     OW21787   0.580   0.086   0.084
 6963SOL    HW121788   0.662   0.140   0.104
 6963SOL    HW221789   0.549   0.107   7.017
 6964SOL     OW21790   2.334   1.411   5.714
 6964SOL    HW121791   2.374   1.332   5.761
 6964SOL    HW221792   2.250   1.439   5.761
 6965SOL     OW21793   1.658   1.458   0.402
 6965SOL    HW121794   1.723   1.417   0.337
 6965SOL    HW221795   1.684   1.432   0.495
 6966SOL     OW21796   1.021   6.346   0.744
 6966SOL    HW121797   0.924   6.360   0.723
 6966SOL    HW221798   1.056   6.269   0.691
 6967SOL     OW21799   4.039   6.927   6.858
 6967SOL    HW121800   4.091   6.889   6.782
 6967SOL    HW221801   4.047   6.868   6.938
 6968SOL     OW21802   4.585   0.397   1.806
 6968SOL    HW121803   4.577   0.496   1.792
 6968SOL    HW221804   4.538   0.372   1.890
 6969SOL     OW21805   1.459   3.395   2.685
 6969SOL    HW121806   1.407   3.314   2.714
 6969SOL    HW221807   1.405   3.477   2.702
 6970SOL     OW21808   3.209   5.966   5.830
 6970SOL    HW121809   3.249   5.881   5.795
 6970SOL    HW221810   3.266   6.043   5.801
 6971SOL     OW21811   0.550   3.738   0.571
 6971SOL    HW121812   0.560   3.835   0.553
 6971SOL    HW221813   0.640   3.695   0.580
 6972SOL     OW21814   5.833   3.456   1.395
 6972SOL    HW121815   5.867   3.454   1.301
 6972SOL    HW221816   5.837   3.364   1.434
 6973SOL     OW21817   1.126   0.961   2.797
 6973SOL    HW121818   1.194   0.913   2.852
 6973SOL    HW221819   1.153   1.056   2.786
 6974SOL     OW21820   3.881   3.860   3.079
 6974SOL    HW121821   3.933   3.841   2.997
 6974SOL    HW221822   3.821   3.939   3.063
 6975SOL     OW21823   3.161   5.363   5.757
 6975SOL    HW121824   3.072   5.344   5.717
 6975SOL    HW221825   3.166   5.326   5.849
 6976SOL     OW21826   5.145   4.937   5.384
 6976SOL    HW121827   5.210   4.990   5.328
 6976SOL    HW221828   5.116   4.993   5.462
 6977SOL     OW21829   4.047   4.780   2.222
 6977SOL    HW121830   4.056   4.877   2.198
 6977SOL    HW221831   3.957   4.747   2.194
 6978SOL     OW21832   0.562   3.345   1.306
 6978SOL    HW121833   0.597   3.331   1.213
 6978SOL    HW221834   0.561   3.258   1.355
 6979SOL     OW21835   0.980   4.335   2.787
 6979SOL    HW121836   1.057   4.272   2.796
 6979SOL    HW221837   0.926   4.334   2.871
 6980SOL     OW21838   2.946   4.773   2.760
 6980SOL    HW121839   3.040   4.807   2.768
 6980SOL    HW221840   2.911   4.793   2.669
 6981SOL     OW21841   4.394   2.680   6.796
 6981SOL    HW121842   4.466   2.655   6.731
 6981SOL    HW221843   4.305   2.671   6.752
 6982SOL     OW21844   6.597   6.247   1.975
 6982SOL    HW121845   6.671   6.258   2.041
 6982SOL    HW221846   6.556   6.157   1.986
 6983SOL     OW21847   6.458   0.500   4.423
 6983SOL    HW121848   6.401   0.558   4.366
 6983SOL    HW221849   6.502   0.555   4.494
 6984SOL     OW21850   1.454   4.384   3.465
 6984SOL    HW121851   1.506   4.300   3.449
 6984SOL    HW221852   1.509   4.448   3.518
 6985SOL     OW21853   5.038   3.201   0.793
 6985SOL    HW121854   4.941   3.224   0.783
 6985SOL    HW221855   5.055   3.112   0.753
 6986SOL     OW21856   4.779   6.231   4.796
 6986SOL    HW121857   4.802   6.329   4.795
 6986SOL    HW221858   4.841   6.182   4.735
 6987SOL     OW21859   0.414   1.424   6.722
 6987SOL    HW121860   0.316   1.444   6.716
 6987SOL    HW221861   0.466   1.504   6.694
 6988SOL     OW21862   1.386   0.354   6.369
 6988SOL    HW121863   1.324   0.415   6.320
 6988SOL    HW221864   1.418   0.398   6.452
 6989SOL     OW21865   0.402   3.008   2.537
 6989SOL    HW121866   0.341   2.951   2.481
 6989SOL    HW221867   0.407   3.100   2.498
 6990SOL     OW21868   3.016   5.350   6.557
 6990SOL    HW121869   3.026   5.254   6.582
 6990SOL    HW221870   3.089   5.403   6.601
 6991SOL     OW21871   5.138   4.210   4.104
 6991SOL    HW121872   5.093   4.229   4.191
 6991SOL    HW221873   5.222   4.265   4.097
 6992SOL     OW21874   1.731   5.129   5.700
 6992SOL    HW121875   1.734   5.080   5.787
 6992SOL    HW221876   1.783   5.214   5.707
 6993SOL     OW21877   4.271   2.272   2.085
 6993SOL    HW121878   4.289   2.196   2.147
 6993SOL    HW221879   4.307   2.357   2.124
 6994SOL     OW21880   2.484   1.228   3.138
 6994SOL    HW121881   2.416   1.222   3.211
 6994SOL    HW221882   2.567   1.272   3.174
 6995SOL     OW21883   6.818   5.125   0.329
 6995SOL    HW121884   6.760   5.121   0.409
 6995SOL    HW221885   6.779   5.187   0.261
 6996SOL     OW21886   1.262   1.024   6.976
 6996SOL    HW121887   1.293   1.050   0.042
 6996SOL    HW221888   1.201   0.944   6.982
 6997SOL     OW21889   6.057   6.067   6.016
 6997SOL    HW121890   6.110   6.152   6.013
 6997SOL    HW221891   5.984   6.071   5.948
 6998SOL     OW21892   0.380   1.295   5.795
 6998SOL    HW121893   0.402   1.292   5.698
 6998SOL    HW221894   0.281   1.301   5.806
 6999SOL     OW21895   0.629   2.609   6.898
 6999SOL    HW121896   0.632   2.623   6.799
 6999SOL    HW221897   0.716   2.637   6.939
 7000SOL     OW21898   0.660   5.097   2.549
 7000SOL    HW121899   0.752   5.135   2.547
 7000SOL    HW221900   0.664   4.999   2.530
 7001SOL     OW21901   0.810   1.399   3.805
 7001SOL    HW121902   0.777   1.405   3.710
 7001SOL    HW221903   0.908   1.384   3.805
 7002SOL     OW21904   1.498   4.700   2.969
 7002SOL    HW121905   1.590   4.666   2.947
 7002SOL    HW221906   1.494   4.799   2.952
 7003SOL     OW21907   0.126   5.223   6.367
 7003SOL    HW121908   0.085   5.306   6.329
 7003SOL    HW221909   0.212   5.248   6.413
 7004SOL     OW21910   0.983   0.496   6.920
 7004SOL    HW121911   1.031   0.525   7.002
 7004SOL    HW221912   1.018   0.406   6.891
 7005SOL     OW21913   1.815   5.186   0.442
 7005SOL    HW121914   1.841   5.115   0.376
 7005SOL    HW221915   1.856   5.165   0.531
 7006SOL     OW21916   1.227   0.380   3.620
 7006SOL    HW121917   1.138   0.413   3.590
 7006SOL    HW221918   1.215   0.293   3.669
 7007SOL     OW21919   1.971   6.746   6.176
 7007SOL    HW121920   1.933   6.835   6.153
 7007SOL    HW221921   1.900   6.676   6.169
 7008SOL     OW21922   6.227   2.991   2.917
 7008SOL    HW121923   6.220   2.917   2.850
 7008SOL    HW221924   6.177   2.965   3.000
 7009SOL     OW21925   5.333   5.325   2.274
 7009SOL    HW121926   5.336   5.238   2.227
 7009SOL    HW221927   5.294   5.313   2.366
 7010SOL     OW21928   5.052   2.648   2.976
 7010SOL    HW121929   5.037   2.725   3.038
 7010SOL    HW221930   5.069   2.683   2.884
 7011SOL     OW21931   1.950   5.802   6.730
 7011SOL    HW121932   1.952   5.892   6.686
 7011SOL    HW221933   1.994   5.807   6.820
 7012SOL     OW21934   0.828   3.656   0.281
 7012SOL    HW121935   0.908   3.645   0.222
 7012SOL    HW221936   0.858   3.682   0.373
 7013SOL     OW21937   2.466   2.536   6.800
 7013SOL    HW121938   2.383   2.589   6.821
 7013SOL    HW221939   2.479   2.466   6.871
 7014SOL     OW21940   0.410   3.894   1.262
 7014SOL    HW121941   0.407   3.981   1.310
 7014SOL    HW221942   0.323   3.878   1.216
 7015SOL     OW21943   5.929   6.666   1.285
 7015SOL    HW121944   5.876   6.712   1.356
 7015SOL    HW221945   6.025   6.660   1.313
 7016SOL     OW21946   2.688   4.819   0.841
 7016SOL    HW121947   2.589   4.824   0.824
 7016SOL    HW221948   2.734   4.891   0.789
 7017SOL     OW21949   6.249   3.877   6.877
 7017SOL    HW121950   6.158   3.920   6.882
 7017SOL    HW221951   6.255   3.823   6.793
 7018SOL     OW21952   6.519   2.558   4.197
 7018SOL    HW121953   6.528   2.537   4.294
 7018SOL    HW221954   6.583   2.501   4.144
 7019SOL     OW21955   3.187   6.464   2.492
 7019SOL    HW121956   3.149   6.372   2.492
 7019SOL    HW221957   3.255   6.473   2.420
 7020SOL     OW21958   6.460   1.833   0.756
 7020SOL    HW121959   6.518   1.756   0.783
 7020SOL    HW221960   6.435   1.885   0.837
 7021SOL     OW21961   0.837   2.436   4.823
 7021SOL    HW121962   0.766   2.402   4.886
 7021SOL    HW221963   0.862   2.529   4.849
 7022SOL     OW21964   2.095   3.566   1.352
 7022SOL    HW121965   2.074   3.661   1.376
 7022SOL    HW221966   2.189   3.546   1.378
 7023SOL     OW21967   6.556   1.708   1.077
 7023SOL    HW121968   6.520   1.684   1.167
 7023SOL    HW221969   6.511   1.791   1.044
 7024SOL     OW21970   3.657   4.558   5.410
 7024SOL    HW121971   3.629   4.560   5.506
 7024SOL    HW221972   3.665   4.463   5.379
 7025SOL     OW21973   3.521   0.476   1.122
 7025SOL    HW121974   3.559   0.452   1.033
 7025SOL    HW221975   3.583   0.539   1.169
 7026SOL     OW21976   3.163   2.256   1.429
 7026SOL    HW121977   3.149   2.203   1.345
 7026SOL    HW221978   3.081   2.252   1.485
 7027SOL     OW21979   2.604   4.255   0.509
 7027SOL    HW121980   2.585   4.225   0.602
 7027SOL    HW221981   2.548   4.204   0.445
 7028SOL     OW21982   3.037   0.622   2.133
 7028SOL    HW121983   3.066   0.711   2.098
 7028SOL    HW221984   3.118   0.570   2.162
 7029SOL     OW21985   3.386   4.165   3.359
 7029SOL    HW121986   3.408   4.260   3.335
 7029SOL    HW221987   3.311   4.133   3.301
 7030SOL     OW21988   5.516   7.023   4.576
 7030SOL    HW121989   5.588   0.061   4.548
 7030SOL    HW221990   5.553   6.958   4.642
 7031SOL     OW21991   5.771   4.463   1.100
 7031SOL    HW121992   5.823   4.440   1.017
 7031SOL    HW221993   5.823   4.529   1.154
 7032SOL     OW21994   3.593   5.025   3.961
 7032SOL    HW121995   3.651   5.010   4.041
 7032SOL    HW221996   3.530   5.101   3.979
 7033SOL     OW21997   2.298   1.795   5.487
 7033SOL    HW121998   2.287   1.792   5.587
 7033SOL    HW221999   2.349   1.714   5.457
 7034SOL     OW22000   6.526   2.570   2.859
 7034SOL    HW122001   6.467   2.570   2.778
 7034SOL    HW222002   6.518   2.483   2.907
 7035SOL     OW22003   3.857   2.320   0.976
 7035SOL    HW122004   3.788   2.367   1.032
 7035SOL    HW222005   3.812   2.248   0.922
 7036SOL     OW22006   6.737   1.714   2.109
 7036SOL    HW122007   6.781   1.712   2.199
 7036SOL    HW222008   6.640   1.735   2.120
 7037SOL     OW22009   0.206   1.641   5.088
 7037SOL    HW122010   0.184   1.622   4.992
 7037SOL    HW222011   0.305   1.638   5.101
 7038SOL     OW22012   1.457   3.803   0.184
 7038SOL    HW122013   1.439   3.901   0.192
 7038SOL    HW222014   1.411   3.755   0.259
 7039SOL     OW22015   6.146   0.267   1.640
 7039SOL    HW122016   6.243   0.253   1.622
 7039SOL    HW222017   6.113   0.199   1.706
 7040SOL     OW22018   4.945   3.024   4.760
 7040SOL    HW122019   5.031   2.989   4.723
 7040SOL    HW222020   4.875   2.953   4.751
 7041SOL     OW22021   0.688   6.444   2.892
 7041SOL    HW122022   0.768   6.504   2.896
 7041SOL    HW222023   0.632   6.457   2.974
 7042SOL     OW22024   4.610   5.115   5.452
 7042SOL    HW122025   4.588   5.211   5.431
 7042SOL    HW222026   4.654   5.074   5.372
 7043SOL     OW22027   2.379   5.928   0.219
 7043SOL    HW122028   2.473   5.899   0.204
 7043SOL    HW222029   2.321   5.848   0.231
 7044SOL     OW22030   5.027   6.337   5.333
 7044SOL    HW122031   5.096   6.329   5.406
 7044SOL    HW222032   4.939   6.360   5.373
 7045SOL     OW22033   5.265   0.649   1.509
 7045SOL    HW122034   5.247   0.743   1.538
 7045SOL    HW222035   5.235   0.586   1.580
 7046SOL     OW22036   3.010   1.001   2.319
 7046SOL    HW122037   2.996   0.903   2.332
 7046SOL    HW222038   2.950   1.052   2.380
 7047SOL     OW22039   0.904   6.535   1.051
 7047SOL    HW122040   0.872   6.566   1.141
 7047SOL    HW222041   0.988   6.585   1.028
 7048SOL     OW22042   0.522   5.597   4.806
 7048SOL    HW122043   0.462   5.519   4.828
 7048SOL    HW222044   0.467   5.680   4.801
 7049SOL     OW22045   2.290   1.436   5.126
 7049SOL    HW122046   2.252   1.439   5.034
 7049SOL    HW222047   2.215   1.444   5.193
 7050SOL     OW22048   4.090   4.493   0.430
 7050SOL    HW122049   4.151   4.414   0.428
 7050SOL    HW222050   4.144   4.577   0.434
 7051SOL     OW22051   2.057   0.826   2.156
 7051SOL    HW122052   2.015   0.845   2.067
 7051SOL    HW222053   2.157   0.827   2.146
 7052SOL     OW22054   5.731   2.258   2.906
 7052SOL    HW122055   5.744   2.344   2.856
 7052SOL    HW222056   5.634   2.237   2.910
 7053SOL     OW22057   0.797   4.572   3.232
 7053SOL    HW122058   0.831   4.555   3.325
 7053SOL    HW222059   0.724   4.506   3.211
 7054SOL     OW22060   5.293   6.754   0.829
 7054SOL    HW122061   5.210   6.799   0.798
 7054SOL    HW222062   5.372   6.813   0.809
 7055SOL     OW22063   2.220   6.900   0.075
 7055SOL    HW122064   2.205   6.986   0.027
 7055SOL    HW222065   2.215   6.824   0.010
 7056SOL     OW22066   0.664   5.419   1.462
 7056SOL    HW122067   0.601   5.471   1.404
 7056SOL    HW222068   0.735   5.378   1.406
 7057SOL     OW22069   3.136   5.977   4.849
 7057SOL    HW122070   3.117   5.953   4.945
 7057SOL    HW222071   3.051   5.991   4.800
 7058SOL     OW22072   5.860   3.030   5.428
 7058SOL    HW122073   5.880   3.065   5.336
 7058SOL    HW222074   5.764   3.002   5.432
 7059SOL     OW22075   1.741   1.169   4.137
 7059SOL    HW122076   1.763   1.080   4.178
 7059SOL    HW222077   1.666   1.158   4.072
 7060SOL     OW22078   3.013   2.344   1.090
 7060SOL    HW122079   2.931   2.337   1.033
 7060SOL    HW222080   3.037   2.254   1.125
 7061SOL     OW22081   1.294   6.350   1.240
 7061SOL    HW122082   1.361   6.365   1.167
 7061SOL    HW222083   1.204   6.332   1.199
 7062SOL     OW22084   3.558   0.617   5.412
 7062SOL    HW122085   3.518   0.645   5.325
 7062SOL    HW222086   3.657   0.604   5.401
 7063SOL     OW22087   0.119   1.123   1.249
 7063SOL    HW122088   0.167   1.210   1.237
 7063SOL    HW222089   0.165   1.052   1.196
 7064SOL     OW22090   2.243   1.721   5.759
 7064SOL    HW122091   2.228   1.750   5.854
 7064SOL    HW222092   2.157   1.686   5.721
 7065SOL     OW22093   3.153   0.118   2.800
 7065SOL    HW122094   3.174   0.188   2.732
 7065SOL    HW222095   3.156   0.027   2.757
 7066SOL     OW22096   4.402   1.245   1.685
 7066SOL    HW122097   4.481   1.183   1.693
 7066SOL    HW222098   4.319   1.196   1.712
 7067SOL     OW22099   2.900   4.487   6.183
 7067SOL    HW122100   2.981   4.526   6.228
 7067SOL    HW222101   2.822   4.548   6.194
 7068SOL     OW22102   4.308   4.794   2.536
 7068SOL    HW122103   4.208   4.793   2.531
 7068SOL    HW222104   4.337   4.773   2.629
 7069SOL     OW22105   3.251   1.530   5.937
 7069SOL    HW122106   3.343   1.490   5.936
 7069SOL    HW222107   3.184   1.458   5.952
 7070SOL     OW22108   0.691   1.784   5.248
 7070SOL    HW122109   0.640   1.869   5.255
 7070SOL    HW222110   0.712   1.749   5.339
 7071SOL     OW22111   4.452   5.326   6.982
 7071SOL    HW122112   4.407   5.236   6.988
 7071SOL    HW222113   4.383   5.397   6.973
 7072SOL     OW22114   1.289   3.642   5.680
 7072SOL    HW122115   1.306   3.677   5.588
 7072SOL    HW222116   1.318   3.546   5.685
 7073SOL     OW22117   4.329   1.085   4.630
 7073SOL    HW122118   4.387   1.004   4.621
 7073SOL    HW222119   4.233   1.059   4.619
 7074SOL     OW22120   5.764   2.950   2.493
 7074SOL    HW122121   5.743   2.923   2.588
 7074SOL    HW222122   5.851   2.997   2.490
 7075SOL     OW22123   2.163   4.509   2.339
 7075SOL    HW122124   2.196   4.416   2.322
 7075SOL    HW222125   2.160   4.526   2.438
 7076SOL     OW22126   6.125   1.784   0.836
 7076SOL    HW122127   6.031   1.785   0.869
 7076SOL    HW222128   6.155   1.878   0.816
 7077SOL     OW22129   3.767   6.177   2.117
 7077SOL    HW122130   3.686   6.183   2.058
 7077SOL    HW222131   3.821   6.098   2.090
 7078SOL     OW22132   6.986   1.637   6.973
 7078SOL    HW122133   6.986   1.714   0.011
 7078SOL    HW222134   6.946   1.665   6.886
 7079SOL     OW22135   2.721   5.966   5.210
 7079SOL    HW122136   2.682   5.876   5.189
 7079SOL    HW222137   2.797   5.955   5.274
 7080SOL     OW22138   3.745   1.476   6.664
 7080SOL    HW122139   3.763   1.570   6.693
 7080SOL    HW222140   3.657   1.446   6.699
 7081SOL     OW22141   3.501   6.106   6.424
 7081SOL    HW122142   3.547   6.147   6.346
 7081SOL    HW222143   3.442   6.174   6.468
 7082SOL     OW22144   1.569   5.037   2.198
 7082SOL    HW122145   1.558   5.130   2.164
 7082SOL    HW222146   1.660   5.026   2.237
 7083SOL     OW22147   5.582   2.914   3.181
 7083SOL    HW122148   5.484   2.906   3.167
 7083SOL    HW222149   5.613   2.841   3.243
 7084SOL     OW22150   1.288   5.115   0.343
 7084SOL    HW122151   1.301   5.173   0.263
 7084SOL    HW222152   1.370   5.061   0.359
 7085SOL     OW22153   0.256   3.018   2.100
 7085SOL    HW122154   0.352   3.006   2.075
 7085SOL    HW222155   0.199   3.005   2.019
 7086SOL     OW22156   3.747   0.891   3.743
 7086SOL    HW122157   3.815   0.852   3.805
 7086SOL    HW222158   3.656   0.858   3.767
 7087SOL     OW22159   6.193   2.520   3.892
 7087SOL    HW122160   6.138   2.575   3.956
 7087SOL    HW222161   6.238   2.446   3.942
 7088SOL     OW22162   6.314   1.829   5.506
 7088SOL    HW122163   6.269   1.846   5.594
 7088SOL    HW222164   6.413   1.823   5.520
 7089SOL     OW22165   3.722   6.473   2.100
 7089SOL    HW122166   3.664   6.482   2.019
 7089SOL    HW222167   3.726   6.377   2.127
 7090SOL     OW22168   5.808   3.131   1.693
 7090SOL    HW122169   5.729   3.174   1.737
 7090SOL    HW222170   5.809   3.154   1.596
 7091SOL     OW22171   5.444   0.008   5.950
 7091SOL    HW122172   5.375   6.971   5.985
 7091SOL    HW222173   5.486   0.059   6.025
 7092SOL     OW22174   4.007   0.288   6.003
 7092SOL    HW122175   3.973   0.381   5.994
 7092SOL    HW222176   4.075   0.284   6.077
 7093SOL     OW22177   4.253   3.387   0.426
 7093SOL    HW122178   4.230   3.390   0.328
 7093SOL    HW222179   4.248   3.293   0.458
 7094SOL     OW22180   4.241   0.916   5.386
 7094SOL    HW122181   4.217   0.915   5.289
 7094SOL    HW222182   4.201   0.997   5.429
 7095SOL     OW22183   2.669   5.212   3.347
 7095SOL    HW122184   2.737   5.161   3.399
 7095SOL    HW222185   2.651   5.165   3.260
 7096SOL     OW22186   0.157   4.833   0.160
 7096SOL    HW122187   0.151   4.933   0.160
 7096SOL    HW222188   0.096   4.796   0.230
 7097SOL     OW22189   5.020   1.879   3.020
 7097SOL    HW122190   5.034   1.794   2.968
 7097SOL    HW222191   4.925   1.908   3.010
 7098SOL     OW22192   1.178   1.254   2.474
 7098SOL    HW122193   1.234   1.194   2.417
 7098SOL    HW222194   1.085   1.217   2.479
 7099SOL     OW22195   3.003   1.382   5.279
 7099SOL    HW122196   3.010   1.393   5.180
 7099SOL    HW222197   2.955   1.461   5.317
 7100SOL     OW22198   0.886   4.223   1.218
 7100SOL    HW122199   0.846   4.164   1.288
 7100SOL    HW222200   0.822   4.296   1.195
 7101SOL     OW22201   2.496   6.886   4.258
 7101SOL    HW122202   2.453   6.913   4.172
 7101SOL    HW222203   2.558   6.809   4.242
 7102SOL     OW22204   5.405   2.056   2.461
 7102SOL    HW122205   5.491   2.032   2.417
 7102SOL    HW222206   5.338   1.983   2.443
 7103SOL     OW22207   6.698   3.802   4.903
 7103SOL    HW122208   6.705   3.781   4.805
 7103SOL    HW222209   6.732   3.895   4.919
 7104SOL     OW22210   4.370   2.388   4.273
 7104SOL    HW122211   4.315   2.403   4.190
 7104SOL    HW222212   4.449   2.449   4.271
 7105SOL     OW22213   3.145   3.649   1.544
 7105SOL    HW122214   3.179   3.741   1.566
 7105SOL    HW222215   3.154   3.591   1.625
 7106SOL     OW22216   2.315   2.080   2.845
 7106SOL    HW122217   2.348   1.991   2.811
 7106SOL    HW222218   2.352   2.153   2.788
 7107SOL     OW22219   3.947   0.486   0.770
 7107SOL    HW122220   3.861   0.516   0.730
 7107SOL    HW222221   3.960   0.388   0.753
 7108SOL     OW22222   2.690   6.708   1.821
 7108SOL    HW122223   2.656   6.620   1.789
 7108SOL    HW222224   2.666   6.720   1.917
 7109SOL     OW22225   2.374   5.267   6.151
 7109SOL    HW122226   2.362   5.175   6.188
 7109SOL    HW222227   2.426   5.261   6.066
 7110SOL     OW22228   2.597   5.516   5.754
 7110SOL    HW122229   2.531   5.589   5.735
 7110SOL    HW222230   2.607   5.506   5.853
 7111SOL     OW22231   6.462   1.941   3.885
 7111SOL    HW122232   6.365   1.928   3.863
 7111SOL    HW222233   6.504   1.997   3.814
 7112SOL     OW22234   6.708   4.790   4.523
 7112SOL    HW122235   6.747   4.786   4.432
 7112SOL    HW222236   6.709   4.699   4.565
 7113SOL     OW22237   3.452   6.917   5.100
 7113SOL    HW122238   3.437   6.820   5.081
 7113SOL    HW222239   3.452   6.968   5.014
 7114SOL     OW22240   6.164   3.532   0.532
 7114SOL    HW122241   6.112   3.452   0.562
 7114SOL    HW222242   6.178   3.595   0.608
 7115SOL     OW22243   5.192   3.064   6.150
 7115SOL    HW122244   5.214   3.112   6.065
 7115SOL    HW222245   5.199   3.127   6.227
 7116SOL     OW22246   6.960   5.008   4.675
 7116SOL    HW122247   7.019   5.069   4.727
 7116SOL    HW222248   6.865   5.036   4.686
 7117SOL     OW22249   3.106   0.829   2.858
 7117SOL    HW122250   3.057   0.744   2.879
 7117SOL    HW222251   3.042   0.895   2.818
 7118SOL     OW22252   5.657   5.032   5.644
 7118SOL    HW122253   5.714   4.988   5.575
 7118SOL    HW222254   5.696   5.122   5.665
 7119SOL     OW22255   2.603   6.310   3.755
 7119SOL    HW122256   2.676   6.327   3.689
 7119SOL    HW222257   2.543   6.390   3.759
 7120SOL     OW22258   4.609   2.051   2.492
 7120SOL    HW122259   4.616   2.119   2.564
 7120SOL    HW222260   4.526   1.997   2.504
 7121SOL     OW22261   1.765   6.024   1.707
 7121SOL    HW122262   1.826   5.993   1.634
 7121SOL    HW222263   1.683   5.966   1.709
 7122SOL     OW22264   2.636   2.346   6.641
 7122SOL    HW122265   2.548   2.355   6.687
 7122SOL    HW222266   2.632   2.392   6.552
 7123SOL     OW22267   5.364   3.483   5.980
 7123SOL    HW122268   5.343   3.578   5.956
 7123SOL    HW222269   5.307   3.422   5.925
 7124SOL     OW22270   3.581   2.846   5.795
 7124SOL    HW122271   3.507   2.884   5.739
 7124SOL    HW222272   3.564   2.749   5.811
 7125SOL     OW22273   1.426   5.810   1.788
 7125SOL    HW122274   1.422   5.862   1.873
 7125SOL    HW222275   1.340   5.820   1.738
 7126SOL     OW22276   3.927   4.585   0.105
 7126SOL    HW122277   3.894   4.573   0.199
 7126SOL    HW222278   3.948   4.495   0.066
 7127SOL     OW22279   2.321   0.059   4.718
 7127SOL    HW122280   2.253   0.133   4.716
 7127SOL    HW222281   2.298   7.017   4.648
 7128SOL     OW22282   4.482   3.834   0.631
 7128SOL    HW122283   4.566   3.882   0.654
 7128SOL    HW222284   4.483   3.743   0.671
 7129SOL     OW22285   6.819   1.918   0.702
 7129SOL    HW122286   6.918   1.931   0.689
 7129SOL    HW222287   6.803   1.865   0.785
 7130SOL     OW22288   3.175   6.908   3.520
 7130SOL    HW122289   3.233   6.846   3.572
 7130SOL    HW222290   3.170   6.878   3.425
 7131SOL     OW22291   2.373   1.491   2.639
 7131SOL    HW122292   2.464   1.489   2.598
 7131SOL    HW222293   2.375   1.542   2.724
 7132SOL     OW22294   5.496   5.078   2.635
 7132SOL    HW122295   5.477   5.060   2.538
 7132SOL    HW222296   5.413   5.065   2.688
 7133SOL     OW22297   4.033   6.505   2.303
 7133SOL    HW122298   3.986   6.569   2.243
 7133SOL    HW222299   4.047   6.547   2.393
 7134SOL     OW22300   6.256   4.622   6.114
 7134SOL    HW122301   6.217   4.684   6.045
 7134SOL    HW222302   6.356   4.634   6.116
 7135SOL     OW22303   2.527   5.693   0.026
 7135SOL    HW122304   2.581   5.731   0.102
 7135SOL    HW222305   2.453   5.637   0.063
 7136SOL     OW22306   1.216   3.032   2.915
 7136SOL    HW122307   1.123   2.994   2.918
 7136SOL    HW222308   1.235   3.067   2.824
 7137SOL     OW22309   1.298   6.769   1.897
 7137SOL    HW122310   1.214   6.763   1.951
 7137SOL    HW222311   1.293   6.703   1.822
 7138SOL     OW22312   6.589   4.044   0.867
 7138SOL    HW122313   6.549   4.116   0.810
 7138SOL    HW222314   6.689   4.046   0.859
 7139SOL     OW22315   5.758   5.888   0.957
 7139SOL    HW122316   5.714   5.823   0.895
 7139SOL    HW222317   5.709   5.888   1.044
 7140SOL     OW22318   5.988   3.775   0.436
 7140SOL    HW122319   6.019   3.870   0.428
 7140SOL    HW222320   6.015   3.725   0.353
 7141SOL     OW22321   2.452   2.532   0.439
 7141SOL    HW122322   2.523   2.598   0.467
 7141SOL    HW222323   2.370   2.546   0.495
 7142SOL     OW22324   4.050   6.125   5.947
 7142SOL    HW122325   4.054   6.094   5.852
 7142SOL    HW222326   4.138   6.108   5.991
 7143SOL     OW22327   2.895   3.247   5.714
 7143SOL    HW122328   2.947   3.217   5.634
 7143SOL    HW222329   2.797   3.236   5.696
 7144SOL     OW22330   6.143   1.622   6.443
 7144SOL    HW122331   6.103   1.681   6.373
 7144SOL    HW222332   6.224   1.665   6.481
 7145SOL     OW22333   0.439   3.568   7.005
 7145SOL    HW122334   0.356   3.526   0.015
 7145SOL    HW222335   0.480   3.626   0.050
 7146SOL     OW22336   0.217   1.516   4.569
 7146SOL    HW122337   0.200   1.510   4.667
 7146SOL    HW222338   0.265   1.602   4.549
 7147SOL     OW22339   6.691   0.603   6.873
 7147SOL    HW122340   6.711   0.634   6.966
 7147SOL    HW222341   6.774   0.567   6.831
 7148SOL     OW22342   5.572   6.555   0.550
 7148SOL    HW122343   5.542   6.523   0.461
 7148SOL    HW222344   5.644   6.624   0.538
 7149SOL     OW22345   6.939   3.560   0.365
 7149SOL    HW122346   7.017   3.532   0.310
 7149SOL    HW222347   6.912   3.485   0.426
 7150SOL     OW22348   2.266   2.434   7.002
 7150SOL    HW122349   2.358   2.394   6.996
 7150SOL    HW222350   2.261   2.495   0.055
 7151SOL     OW22351   5.781   2.357   7.018
 7151SOL    HW122352   5.879   2.365   7.003
 7151SOL    HW222353   5.736   2.336   6.931
 7152SOL     OW22354   5.976   0.454   4.813
 7152SOL    HW122355   6.015   0.441   4.722
 7152SOL    HW222356   5.909   0.528   4.810
 7153SOL     OW22357   5.125   5.825   0.122
 7153SOL    HW122358   5.105   5.789   0.213
 7153SOL    HW222359   5.042   5.821   0.066
 7154SOL     OW22360   5.176   6.124   2.003
 7154SOL    HW122361   5.255   6.174   1.969
 7154SOL    HW222362   5.127   6.082   1.927
 7155SOL     OW22363   1.158   6.825   1.291
 7155SOL    HW122364   1.125   6.735   1.322
 7155SOL    HW222365   1.081   6.888   1.285
 7156SOL     OW22366   0.038   3.308   5.358
 7156SOL    HW122367   0.071   3.384   5.414
 7156SOL    HW222368   0.070   3.320   5.264
 7157SOL     OW22369   0.055   4.235   6.421
 7157SOL    HW122370   0.005   4.285   6.350
 7157SOL    HW222371   0.152   4.229   6.396
 7158SOL     OW22372   4.993   6.457   3.549
 7158SOL    HW122373   4.999   6.376   3.490
 7158SOL    HW222374   5.077   6.511   3.539
 7159SOL     OW22375   0.739   6.451   3.659
 7159SOL    HW122376   0.713   6.364   3.701
 7159SOL    HW222377   0.690   6.526   3.705
 7160SOL     OW22378   5.885   5.937   2.171
 7160SOL    HW122379   5.971   5.901   2.135
 7160SOL    HW222380   5.815   5.867   2.165
 7161SOL     OW22381   3.849   3.108   1.539
 7161SOL    HW122382   3.914   3.073   1.606
 7161SOL    HW222383   3.897   3.164   1.472
 7162SOL     OW22384   0.653   6.445   0.416
 7162SOL    HW122385   0.586   6.390   0.465
 7162SOL    HW222386   0.737   6.453   0.470
 7163SOL     OW22387   6.840   5.793   0.029
 7163SOL    HW122388   6.857   5.736   6.975
 7163SOL    HW222389   6.799   5.738   0.101
 7164SOL     OW22390   1.278   6.317   6.976
 7164SOL    HW122391   1.311   6.411   6.969
 7164SOL    HW222392   1.308   6.265   6.896
 7165SOL     OW22393   4.338   2.990   6.200
 7165SOL    HW122394   4.329   2.908   6.145
 7165SOL    HW222395   4.435   3.012   6.213
 7166SOL     OW22396   0.221   6.148   6.025
 7166SOL    HW122397   0.127   6.133   5.992
 7166SOL    HW222398   0.280   6.075   5.990
 7167SOL     OW22399   0.848   3.887   5.841
 7167SOL    HW122400   0.931   3.837   5.815
 7167SOL    HW222401   0.872   3.982   5.860
 7168SOL     OW22402   6.936   0.419   2.158
 7168SOL    HW122403   7.024   0.464   2.175
 7168SOL    HW222404   6.869   0.487   2.129
 7169SOL     OW22405   1.993   4.934   5.466
 7169SOL    HW122406   2.010   4.951   5.563
 7169SOL    HW222407   2.053   4.861   5.435
 7170SOL     OW22408   4.361   2.498   1.718
 7170SOL    HW122409   4.434   2.539   1.663
 7170SOL    HW222410   4.400   2.451   1.797
 7171SOL     OW22411   6.850   5.787   1.694
 7171SOL    HW122412   6.817   5.878   1.721
 7171SOL    HW222413   6.864   5.785   1.595
 7172SOL     OW22414   1.045   2.325   3.639
 7172SOL    HW122415   1.047   2.244   3.697
 7172SOL    HW222416   1.109   2.393   3.674
 7173SOL     OW22417   3.954   5.222   4.463
 7173SOL    HW122418   3.977   5.289   4.393
 7173SOL    HW222419   3.929   5.269   4.548
 7174SOL     OW22420   6.673   3.691   3.020
 7174SOL    HW122421   6.667   3.650   2.929
 7174SOL    HW222422   6.583   3.688   3.064
 7175SOL     OW22423   5.725   2.835   5.945
 7175SOL    HW122424   5.637   2.872   5.976
 7175SOL    HW222425   5.716   2.798   5.853
 7176SOL     OW22426   6.336   1.839   6.291
 7176SOL    HW122427   6.431   1.818   6.267
 7176SOL    HW222428   6.327   1.840   6.391
 7177SOL     OW22429   1.534   5.403   3.449
 7177SOL    HW122430   1.620   5.375   3.491
 7177SOL    HW222431   1.494   5.478   3.502
 7178SOL     OW22432   0.510   6.062   5.389
 7178SOL    HW122433   0.500   6.020   5.299
 7178SOL    HW222434   0.546   6.155   5.378
 7179SOL     OW22435   5.370   4.624   5.341
 7179SOL    HW122436   5.286   4.656   5.298
 7179SOL    HW222437   5.448   4.673   5.302
 7180SOL     OW22438   6.646   1.956   2.498
 7180SOL    HW122439   6.635   1.880   2.561
 7180SOL    HW222440   6.673   2.038   2.549
 7181SOL     OW22441   3.861   0.391   0.163
 7181SOL    HW122442   3.783   0.329   0.162
 7181SOL    HW222443   3.834   0.479   0.202
 7182SOL     OW22444   2.498   0.842   2.510
 7182SOL    HW122445   2.436   0.873   2.582
 7182SOL    HW222446   2.499   0.910   2.436
 7183SOL     OW22447   1.759   6.942   1.088
 7183SOL    HW122448   1.790   7.025   1.135
 7183SOL    HW222449   1.718   6.968   1.000
 7184SOL     OW22450   6.936   1.373   3.274
 7184SOL    HW122451   6.888   1.301   3.224
 7184SOL    HW222452   6.927   1.459   3.225
 7185SOL     OW22453   3.522   0.016   3.640
 7185SOL    HW122454   3.569   0.014   3.729
 7185SOL    HW222455   3.446   6.978   3.641
 7186SOL     OW22456   6.529   2.750   0.719
 7186SOL    HW122457   6.584   2.675   0.683
 7186SOL    HW222458   6.534   2.749   0.819
 7187SOL     OW22459   3.003   3.727   3.659
 7187SOL    HW122460   2.951   3.675   3.727
 7187SOL    HW222461   3.023   3.818   3.695
 7188SOL     OW22462   4.583   5.022   6.671
 7188SOL    HW122463   4.574   4.949   6.604
 7188SOL    HW222464   4.656   5.085   6.643
 7189SOL     OW22465   0.219   1.782   5.857
 7189SOL    HW122466   0.186   1.760   5.765
 7189SOL    HW222467   0.225   1.881   5.868
 7190SOL     OW22468   5.664   5.546   0.788
 7190SOL    HW122469   5.625   5.629   0.827
 7190SOL    HW222470   5.643   5.469   0.848
 7191SOL     OW22471   0.099   5.030   2.324
 7191SOL    HW122472   0.062   4.939   2.340
 7191SOL    HW222473   0.136   5.067   2.409
 7192SOL     OW22474   3.159   4.193   5.768
 7192SOL    HW122475   3.150   4.289   5.793
 7192SOL    HW222476   3.071   4.159   5.733
 7193SOL     OW22477   4.108   1.382   4.411
 7193SOL    HW122478   4.032   1.440   4.441
 7193SOL    HW222479   4.188   1.399   4.470
 7194SOL     OW22480   3.737   2.750   5.260
 7194SOL    HW122481   3.640   2.772   5.270
 7194SOL    HW222482   3.747   2.655   5.230
 7195SOL     OW22483   6.552   3.874   5.307
 7195SOL    HW122484   6.457   3.887   5.278
 7195SOL    HW222485   6.603   3.959   5.292
 7196SOL     OW22486   3.056   3.871   1.211
 7196SOL    HW122487   3.016   3.819   1.136
 7196SOL    HW222488   3.014   3.843   1.297
 7197SOL     OW22489   3.299   4.614   6.573
 7197SOL    HW122490   3.338   4.623   6.665
 7197SOL    HW222491   3.371   4.628   6.505
 7198SOL     OW22492   1.673   6.426   1.823
 7198SOL    HW122493   1.738   6.410   1.749
 7198SOL    HW222494   1.665   6.524   1.841
 7199SOL     OW22495   6.037   1.098   3.687
 7199SOL    HW122496   6.013   1.003   3.668
 7199SOL    HW222497   5.985   1.158   3.627
 7200SOL     OW22498   0.295   4.177   6.324
 7200SOL    HW122499   0.308   4.150   6.228
 7200SOL    HW222500   0.289   4.096   6.381
 7201SOL     OW22501   5.761   5.431   4.834
 7201SOL    HW122502   5.662   5.430   4.847
 7201SOL    HW222503   5.782   5.437   4.737
 7202SOL     OW22504   4.047   6.388   5.996
 7202SOL    HW122505   4.047   6.300   5.948
 7202SOL    HW222506   4.085   6.459   5.936
 7203SOL     OW22507   1.014   1.951   1.125
 7203SOL    HW122508   0.983   1.995   1.209
 7203SOL    HW222509   1.031   2.020   1.055
 7204SOL     OW22510   5.334   0.659   2.825
 7204SOL    HW122511   5.292   0.640   2.914
 7204SOL    HW222512   5.405   0.730   2.836
 7205SOL     OW22513   3.241   1.250   4.011
 7205SOL    HW122514   3.230   1.273   4.108
 7205SOL    HW222515   3.317   1.303   3.973
 7206SOL     OW22516   1.428   2.632   6.498
 7206SOL    HW122517   1.520   2.671   6.493
 7206SOL    HW222518   1.380   2.672   6.576
 7207SOL     OW22519   1.617   2.344   3.640
 7207SOL    HW122520   1.703   2.330   3.689
 7207SOL    HW222521   1.546   2.287   3.680
 7208SOL     OW22522   3.091   0.448   3.613
 7208SOL    HW122523   3.116   0.535   3.655
 7208SOL    HW222524   3.100   0.455   3.514
 7209SOL     OW22525   4.622   1.552   3.434
 7209SOL    HW122526   4.528   1.519   3.446
 7209SOL    HW222527   4.685   1.492   3.485
 7210SOL     OW22528   3.184   1.104   4.915
 7210SOL    HW122529   3.259   1.162   4.947
 7210SOL    HW222530   3.134   1.068   4.994
 7211SOL     OW22531   4.803   5.896   6.364
 7211SOL    HW122532   4.885   5.877   6.310
 7211SOL    HW222533   4.789   5.822   6.430
 7212SOL     OW22534   7.003   5.969   4.233
 7212SOL    HW122535   6.963   5.979   4.142
 7212SOL    HW222536   0.053   5.903   4.230
 7213SOL     OW22537   5.670   2.811   0.455
 7213SOL    HW122538   5.675   2.850   0.547
 7213SOL    HW222539   5.714   2.721   0.454
 7214SOL     OW22540   6.039   1.634   5.948
 7214SOL    HW122541   6.019   1.717   5.896
 7214SOL    HW222542   6.131   1.640   5.986
 7215SOL     OW22543   6.645   1.656   3.089
 7215SOL    HW122544   6.613   1.727   3.026
 7215SOL    HW222545   6.626   1.566   3.050
 7216SOL     OW22546   5.429   6.350   3.813
 7216SOL    HW122547   5.467   6.438   3.782
 7216SOL    HW222548   5.391   6.302   3.734
 7217SOL     OW22549   1.293   3.296   2.976
 7217SOL    HW122550   1.233   3.357   2.923
 7217SOL    HW222551   1.262   3.202   2.966
 7218SOL     OW22552   7.016   3.033   5.413
 7218SOL    HW122553   0.070   2.975   5.431
 7218SOL    HW222554   0.014   3.128   5.429
 7219SOL     OW22555   3.342   5.965   1.165
 7219SOL    HW122556   3.277   6.029   1.123
 7219SOL    HW222557   3.324   5.873   1.132
 7220SOL     OW22558   0.541   3.875   4.280
 7220SOL    HW122559   0.606   3.950   4.284
 7220SOL    HW222560   0.460   3.898   4.334
 7221SOL     OW22561   4.825   5.065   3.999
 7221SOL    HW122562   4.858   5.111   3.917
 7221SOL    HW222563   4.790   5.133   4.063
 7222SOL     OW22564   6.025   5.107   3.816
 7222SOL    HW122565   6.052   5.204   3.816
 7222SOL    HW222566   5.957   5.092   3.745
 7223SOL     OW22567   6.232   5.243   1.423
 7223SOL    HW122568   6.273   5.325   1.383
 7223SOL    HW222569   6.250   5.241   1.521
 7224SOL     OW22570   6.006   2.690   3.253
 7224SOL    HW122571   6.002   2.611   3.191
 7224SOL    HW222572   5.917   2.704   3.295
 7225SOL     OW22573   1.151   5.268   0.493
 7225SOL    HW122574   1.114   5.232   0.579
 7225SOL    HW222575   1.210   5.199   0.451
 7226SOL     OW22576   6.454   6.797   0.228
 7226SOL    HW122577   6.507   6.819   0.310
 7226SOL    HW222578   6.471   6.866   0.158
 7227SOL     OW22579   1.822   0.462   1.802
 7227SOL    HW122580   1.771   0.398   1.860
 7227SOL    HW222581   1.911   0.422   1.778
 7228SOL     OW22582   6.729   3.720   3.449
 7228SOL    HW122583   6.800   3.700   3.382
 7228SOL    HW222584   6.673   3.638   3.463
 7229SOL     OW22585   5.468   6.389   5.224
 7229SOL    HW122586   5.544   6.325   5.213
 7229SOL    HW222587   5.432   6.414   5.135
 7230SOL     OW22588   2.645   4.739   6.264
 7230SOL    HW122589   2.652   4.721   6.165
 7230SOL    HW222590   2.556   4.710   6.297
 7231SOL     OW22591   3.768   2.499   6.885
 7231SOL    HW122592   3.727   2.409   6.902
 7231SOL    HW222593   3.845   2.488   6.822
 7232SOL     OW22594   4.215   5.289   3.362
 7232SOL    HW122595   4.299   5.239   3.383
 7232SOL    HW222596   4.160   5.299   3.446
 7233SOL     OW22597   0.640   1.717   0.020
 7233SOL    HW122598   0.554   1.667   0.024
 7233SOL    HW222599   0.624   1.807   7.006
 7234SOL     OW22600   5.194   5.715   3.774
 7234SOL    HW122601   5.283   5.755   3.797
 7234SOL    HW222602   5.208   5.631   3.721
 7235SOL     OW22603   6.847   0.350   0.916
 7235SOL    HW122604   6.913   0.389   0.851
 7235SOL    HW222605   6.828   0.255   0.890
 7236SOL     OW22606   0.858   4.294   3.034
 7236SOL    HW122607   0.779   4.304   3.093
 7236SOL    HW222608   0.901   4.205   3.049
 7237SOL     OW22609   4.642   1.452   6.463
 7237SOL    HW122610   4.586   1.370   6.472
 7237SOL    HW222611   4.734   1.427   6.433
 7238SOL     OW22612   4.917   3.311   6.898
 7238SOL    HW122613   4.935   3.353   6.987
 7238SOL    HW222614   4.888   3.381   6.833
 7239SOL     OW22615   6.311   2.527   2.472
 7239SOL    HW122616   6.301   2.427   2.474
 7239SOL    HW222617   6.354   2.554   2.386
 7240SOL     OW22618   0.416   1.861   1.064
 7240SOL    HW122619   0.423   1.960   1.069
 7240SOL    HW222620   0.351   1.835   0.993
 7241SOL     OW22621   2.265   0.250   3.017
 7241SOL    HW122622   2.257   0.347   3.039
 7241SOL    HW222623   2.280   0.198   3.100
 7242SOL     OW22624   6.756   3.679   5.814
 7242SOL    HW122625   6.811   3.605   5.776
 7242SOL    HW222626   6.790   3.703   5.905
 7243SOL     OW22627   6.447   4.735   6.706
 7243SOL    HW122628   6.514   4.723   6.633
 7243SOL    HW222629   6.355   4.740   6.667
 7244SOL     OW22630   0.049   5.817   0.434
 7244SOL    HW122631   7.010   5.742   0.447
 7244SOL    HW222632   0.135   5.781   0.397
 7245SOL     OW22633   1.782   2.274   6.946
 7245SOL    HW122634   1.848   2.346   6.925
 7245SOL    HW222635   1.713   2.271   6.875
 7246SOL     OW22636   4.537   6.986   4.604
 7246SOL    HW122637   4.519   6.890   4.625
 7246SOL    HW222638   4.472   0.018   4.654
 7247SOL     OW22639   3.762   4.179   4.716
 7247SOL    HW122640   3.679   4.167   4.771
 7247SOL    HW222641   3.811   4.261   4.746
 7248SOL     OW22642   2.664   2.241   5.165
 7248SOL    HW122643   2.695   2.281   5.079
 7248SOL    HW222644   2.728   2.170   5.193
 7249SOL     OW22645   3.819   5.970   3.061
 7249SOL    HW122646   3.909   6.002   3.030
 7249SOL    HW222647   3.775   6.042   3.115
 7250SOL     OW22648   4.758   5.100   5.138
 7250SOL    HW122649   4.832   5.037   5.112
 7250SOL    HW222650   4.794   5.193   5.144
 7251SOL     OW22651   6.955   5.654   3.972
 7251SOL    HW122652   0.010   5.694   3.927
 7251SOL    HW222653   6.973   5.557   3.992
 7252SOL     OW22654   3.822   4.066   1.824
 7252SOL    HW122655   3.811   3.970   1.851
 7252SOL    HW222656   3.762   4.123   1.881
 7253SOL     OW22657   1.243   5.285   5.856
 7253SOL    HW122658   1.290   5.273   5.943
 7253SOL    HW222659   1.287   5.228   5.786
 7254SOL     OW22660   0.533   3.766   4.033
 7254SOL    HW122661   0.631   3.755   4.015
 7254SOL    HW222662   0.520   3.813   4.120
 7255SOL     OW22663   4.876   4.087   0.935
 7255SOL    HW122664   4.851   4.149   0.860
 7255SOL    HW222665   4.956   4.034   0.908
 7256SOL     OW22666   3.241   0.229   3.630
 7256SOL    HW122667   3.148   0.264   3.622
 7256SOL    HW222668   3.242   0.132   3.607
 7257SOL     OW22669   1.121   1.125   4.921
 7257SOL    HW122670   1.101   1.174   4.836
 7257SOL    HW222671   1.216   1.143   4.948
 7258SOL     OW22672   0.542   1.694   3.061
 7258SOL    HW122673   0.457   1.650   3.035
 7258SOL    HW222674   0.533   1.793   3.053
 7259SOL     OW22675   1.148   3.568   2.310
 7259SOL    HW122676   1.121   3.662   2.290
 7259SOL    HW222677   1.246   3.564   2.326
 7260SOL     OW22678   5.863   2.363   0.880
 7260SOL    HW122679   5.877   2.290   0.813
 7260SOL    HW222680   5.778   2.346   0.930
 7261SOL     OW22681   0.181   4.173   6.860
 7261SOL    HW122682   0.228   4.087   6.879
 7261SOL    HW222683   0.224   4.219   6.783
 7262SOL     OW22684   3.090   0.344   4.989
 7262SOL    HW122685   3.020   0.275   4.970
 7262SOL    HW222686   3.062   0.432   4.951
 7263SOL     OW22687   6.586   4.980   5.983
 7263SOL    HW122688   6.564   4.925   5.902
 7263SOL    HW222689   6.537   4.944   6.062
 7264SOL     OW22690   4.758   2.158   1.606
 7264SOL    HW122691   4.724   2.065   1.593
 7264SOL    HW222692   4.825   2.178   1.534
 7265SOL     OW22693   3.373   7.015   5.345
 7265SOL    HW122694   3.399   7.011   5.249
 7265SOL    HW222695   3.273   7.020   5.353
 7266SOL     OW22696   0.020   1.018   2.555
 7266SOL    HW122697   0.029   0.979   2.646
 7266SOL    HW222698   0.002   0.945   2.489
 7267SOL     OW22699   6.697   3.600   5.345
 7267SOL    HW122700   6.696   3.536   5.422
 7267SOL    HW222701   6.613   3.654   5.345
 7268SOL     OW22702   5.486   6.243   4.578
 7268SOL    HW122703   5.393   6.234   4.613
 7268SOL    HW222704   5.487   6.229   4.479
 7269SOL     OW22705   2.808   5.668   4.653
 7269SOL    HW122706   2.816   5.569   4.665
 7269SOL    HW222707   2.715   5.691   4.625
 7270SOL     OW22708   0.481   1.928   4.570
 7270SOL    HW122709   0.460   1.871   4.649
 7270SOL    HW222710   0.485   1.870   4.488
 7271SOL     OW22711   0.987   5.847   3.042
 7271SOL    HW122712   0.932   5.844   2.958
 7271SOL    HW222713   1.029   5.758   3.057
 7272SOL     OW22714   6.544   4.197   1.819
 7272SOL    HW122715   6.523   4.241   1.907
 7272SOL    HW222716   6.497   4.246   1.745
 7273SOL     OW22717   0.663   1.615   4.573
 7273SOL    HW122718   0.585   1.678   4.579
 7273SOL    HW222719   0.737   1.648   4.632
 7274SOL     OW22720   6.991   5.488   0.008
 7274SOL    HW122721   0.005   5.400   0.037
 7274SOL    HW222722   6.946   5.531   0.086
 7275SOL     OW22723   0.351   5.395   3.233
 7275SOL    HW122724   0.408   5.408   3.152
 7275SOL    HW222725   0.408   5.398   3.315
 7276SOL     OW22726   4.889   6.106   3.586
 7276SOL    HW122727   4.815   6.169   3.610
 7276SOL    HW222728   4.930   6.133   3.499
 7277SOL     OW22729   5.062   0.837   6.768
 7277SOL    HW122730   5.114   0.780   6.704
 7277SOL    HW222731   5.026   0.917   6.721
 7278SOL     OW22732   4.099   3.314   2.111
 7278SOL    HW122733   4.144   3.231   2.077
 7278SOL    HW222734   4.099   3.383   2.039
 7279SOL     OW22735   3.759   6.387   6.404
 7279SOL    HW122736   3.781   6.303   6.353
 7279SOL    HW222737   3.720   6.454   6.341
 7280SOL     OW22738   4.468   6.812   5.642
 7280SOL    HW122739   4.398   6.859   5.588
 7280SOL    HW222740   4.467   6.714   5.623
 7281SOL     OW22741   5.805   0.935   6.509
 7281SOL    HW122742   5.739   0.989   6.458
 7281SOL    HW222743   5.758   0.865   6.562
 7282SOL     OW22744   6.228   5.764   3.376
 7282SOL    HW122745   6.290   5.836   3.407
 7282SOL    HW222746   6.134   5.789   3.398
 7283SOL     OW22747   2.338   1.418   2.981
 7283SOL    HW122748   2.246   1.427   3.018
 7283SOL    HW222749   2.391   1.353   3.036
 7284SOL     OW22750   1.159   1.056   4.499
 7284SOL    HW122751   1.134   0.993   4.573
 7284SOL    HW222752   1.145   1.011   4.411
 7285SOL     OW22753   5.849   4.995   1.974
 7285SOL    HW122754   5.878   5.062   2.042
 7285SOL    HW222755   5.924   4.976   1.911
 7286SOL     OW22756   1.809   3.805   0.498
 7286SOL    HW122757   1.728   3.802   0.556
 7286SOL    HW222758   1.817   3.721   0.445
 7287SOL     OW22759   6.380   2.243   6.202
 7287SOL    HW122760   6.453   2.222   6.266
 7287SOL    HW222761   6.324   2.161   6.188
 7288SOL     OW22762   2.415   7.006   6.785
 7288SOL    HW122763   2.460   0.049   6.842
 7288SOL    HW222764   2.483   6.945   6.745
 7289SOL     OW22765   4.196   1.192   3.345
 7289SOL    HW122766   4.207   1.094   3.358
 7289SOL    HW222767   4.141   1.230   3.420
 7290SOL     OW22768   2.375   5.854   4.118
 7290SOL    HW122769   2.372   5.954   4.116
 7290SOL    HW222770   2.410   5.820   4.031
 7291SOL     OW22771   3.823   4.934   1.389
 7291SOL    HW122772   3.795   4.841   1.413
 7291SOL    HW222773   3.900   4.961   1.447
 7292SOL     OW22774   3.999   0.344   4.762
 7292SOL    HW122775   4.099   0.342   4.754
 7292SOL    HW222776   3.965   0.254   4.787
 7293SOL     OW22777   2.431   1.084   5.888
 7293SOL    HW122778   2.378   1.066   5.805
 7293SOL    HW222779   2.527   1.061   5.872
 7294SOL     OW22780   5.746   5.443   6.916
 7294SOL    HW122781   5.821   5.402   6.865
 7294SOL    HW222782   5.770   5.449   7.013
 7295SOL     OW22783   4.023   6.600   1.787
 7295SOL    HW122784   4.109   6.647   1.771
 7295SOL    HW222785   4.036   6.529   1.857
 7296SOL     OW22786   4.238   5.477   0.452
 7296SOL    HW122787   4.275   5.385   0.441
 7296SOL    HW222788   4.168   5.476   0.523
 7297SOL     OW22789   4.852   6.423   2.288
 7297SOL    HW122790   4.860   6.339   2.233
 7297SOL    HW222791   4.938   6.439   2.337
 7298SOL     OW22792   5.539   2.522   4.677
 7298SOL    HW122793   5.479   2.487   4.605
 7298SOL    HW222794   5.588   2.603   4.643
 7299SOL     OW22795   5.461   3.560   0.471
 7299SOL    HW122796   5.557   3.565   0.498
 7299SOL    HW222797   5.420   3.477   0.511
 7300SOL     OW22798   4.435   5.333   0.787
 7300SOL    HW122799   4.341   5.301   0.778
 7300SOL    HW222800   4.485   5.315   0.702
 7301SOL     OW22801   6.369   1.741   6.559
 7301SOL    HW122802   6.366   1.784   6.650
 7301SOL    HW222803   6.461   1.707   6.542
 7302SOL     OW22804   7.003   1.470   6.527
 7302SOL    HW122805   6.924   1.415   6.501
 7302SOL    HW222806   0.061   1.428   6.492
 7303SOL     OW22807   5.190   0.200   1.784
 7303SOL    HW122808   5.146   0.123   1.738
 7303SOL    HW222809   5.191   0.185   1.883
 7304SOL     OW22810   4.095   3.339   3.956
 7304SOL    HW122811   4.000   3.310   3.973
 7304SOL    HW222812   4.150   3.319   4.036
 7305SOL     OW22813   5.684   2.664   6.939
 7305SOL    HW122814   5.769   2.665   6.887
 7305SOL    HW222815   5.681   2.582   6.997
 7306SOL     OW22816   4.606   4.856   1.609
 7306SOL    HW122817   4.656   4.880   1.692
 7306SOL    HW222818   4.535   4.789   1.631
 7307SOL     OW22819   3.969   6.715   2.142
 7307SOL    HW122820   3.905   6.728   2.066
 7307SOL    HW222821   3.983   6.802   2.189
 7308SOL     OW22822   5.157   0.448   4.028
 7308SOL    HW122823   5.254   0.429   4.016
 7308SOL    HW222824   5.136   0.539   3.993
 7309SOL     OW22825   4.524   4.208   0.159
 7309SOL    HW122826   4.496   4.273   0.089
 7309SOL    HW222827   4.623   4.209   0.168
 7310SOL     OW22828   1.714   5.861   2.207
 7310SOL    HW122829   1.795   5.911   2.237
 7310SOL    HW222830   1.687   5.795   2.276
 7311SOL     OW22831   3.194   2.082   2.334
 7311SOL    HW122832   3.213   1.996   2.381
 7311SOL    HW222833   3.271   2.106   2.275
 7312SOL     OW22834   0.239   2.638   6.761
 7312SOL    HW122835   0.141   2.647   6.743
 7312SOL    HW222836   0.278   2.729   6.778
 7313SOL     OW22837   4.214   2.771   6.375
 7313SOL    HW122838   4.260   2.834   6.312
 7313SOL    HW222839   4.139   2.725   6.328
 7314SOL     OW22840   0.851   2.105   4.573
 7314SOL    HW122841   0.905   2.061   4.645
 7314SOL    HW222842   0.901   2.184   4.537
 7315SOL     OW22843   6.697   1.440   5.804
 7315SOL    HW122844   6.685   1.343   5.824
 7315SOL    HW222845   6.753   1.482   5.875
 7316SOL     OW22846   4.076   3.417   3.391
 7316SOL    HW122847   4.105   3.380   3.479
 7316SOL    HW222848   4.089   3.516   3.390
 7317SOL     OW22849   3.013   0.423   4.181
 7317SOL    HW122850   3.065   0.474   4.113
 7317SOL    HW222851   2.979   0.487   4.251
 7318SOL     OW22852   2.390   0.612   1.399
 7318SOL    HW122853   2.318   0.614   1.330
 7318SOL    HW222854   2.446   0.530   1.386
 7319SOL     OW22855   7.004   3.988   6.506
 7319SOL    HW122856   7.017   4.085   6.487
 7319SOL    HW222857   0.067   3.945   6.523
 7320SOL     OW22858   0.590   1.379   2.370
 7320SOL    HW122859   0.585   1.398   2.272
 7320SOL    HW222860   0.512   1.419   2.417
 7321SOL     OW22861   4.568   1.552   4.116
 7321SOL    HW122862   4.525   1.573   4.028
 7321SOL    HW222863   4.535   1.615   4.186
 7322SOL     OW22864   0.983   2.654   1.491
 7322SOL    HW122865   0.988   2.558   1.517
 7322SOL    HW222866   0.956   2.661   1.395
 7323SOL     OW22867   2.562   4.688   3.161
 7323SOL    HW122868   2.543   4.779   3.197
 7323SOL    HW222869   2.475   4.644   3.136
 7324SOL     OW22870   4.666   5.616   2.848
 7324SOL    HW122871   4.726   5.692   2.871
 7324SOL    HW222872   4.719   5.532   2.843
 7325SOL     OW22873   2.970   6.692   0.299
 7325SOL    HW122874   2.915   6.619   0.258
 7325SOL    HW222875   2.911   6.771   0.317
 7326SOL     OW22876   2.610   1.181   3.921
 7326SOL    HW122877   2.692   1.222   3.963
 7326SOL    HW222878   2.601   1.086   3.951
 7327SOL     OW22879   1.630   3.262   5.985
 7327SOL    HW122880   1.625   3.250   5.886
 7327SOL    HW222881   1.696   3.197   6.023
 7328SOL     OW22882   2.176   6.687   0.517
 7328SOL    HW122883   2.114   6.629   0.465
 7328SOL    HW222884   2.243   6.630   0.564
 7329SOL     OW22885   4.870   3.920   1.675
 7329SOL    HW122886   4.942   3.887   1.613
 7329SOL    HW222887   4.828   3.843   1.722
 7330SOL     OW22888   4.075   2.155   1.014
 7330SOL    HW122889   4.149   2.194   1.068
 7330SOL    HW222890   3.993   2.212   1.023
 7331SOL     OW22891   6.266   1.449   1.125
 7331SOL    HW122892   6.297   1.538   1.159
 7331SOL    HW222893   6.231   1.460   1.031
 7332SOL     OW22894   4.082   6.772   0.321
 7332SOL    HW122895   4.065   6.787   0.224
 7332SOL    HW222896   3.995   6.767   0.370
 7333SOL     OW22897   7.008   4.788   2.320
 7333SOL    HW122898   0.031   4.731   2.254
 7333SOL    HW222899   6.994   4.736   2.405
 7334SOL     OW22900   3.047   0.228   3.265
 7334SOL    HW122901   3.009   0.315   3.233
 7334SOL    HW222902   3.145   0.239   3.285
 7335SOL     OW22903   1.775   2.969   3.263
 7335SOL    HW122904   1.814   2.921   3.341
 7335SOL    HW222905   1.839   2.967   3.186
 7336SOL     OW22906   1.342   5.972   4.551
 7336SOL    HW122907   1.330   5.923   4.638
 7336SOL    HW222908   1.294   5.923   4.478
 7337SOL     OW22909   5.107   2.095   1.527
 7337SOL    HW122910   5.067   2.186   1.516
 7337SOL    HW222911   5.035   2.026   1.521
 7338SOL     OW22912   0.758   3.927   0.674
 7338SOL    HW122913   0.796   4.020   0.662
 7338SOL    HW222914   0.692   3.928   0.749
 7339SOL     OW22915   1.841   5.272   5.133
 7339SOL    HW122916   1.886   5.273   5.222
 7339SOL    HW222917   1.881   5.343   5.074
 7340SOL     OW22918   3.318   6.639   6.194
 7340SOL    HW122919   3.403   6.604   6.154
 7340SOL    HW222920   3.336   6.674   6.286
 7341SOL     OW22921   5.866   2.341   0.269
 7341SOL    HW122922   5.831   2.345   0.175
 7341SOL    HW222923   5.810   2.277   0.322
 7342SOL     OW22924   0.044   6.128   1.415
 7342SOL    HW122925   6.973   6.148   1.433
 7342SOL    HW222926   0.053   6.084   1.325
 7343SOL     OW22927   6.568   3.057   0.778
 7343SOL    HW122928   6.499   2.992   0.745
 7343SOL    HW222929   6.655   3.038   0.734
 7344SOL     OW22930   2.681   0.767   5.666
 7344SOL    HW122931   2.664   0.860   5.634
 7344SOL    HW222932   2.755   0.726   5.612
 7345SOL     OW22933   4.088   5.746   6.703
 7345SOL    HW122934   4.128   5.835   6.726
 7345SOL    HW222935   4.111   5.723   6.609
 7346SOL     OW22936   4.303   5.004   1.845
 7346SOL    HW122937   4.242   5.081   1.825
 7346SOL    HW222938   4.395   5.039   1.865
 7347SOL     OW22939   4.898   0.603   6.192
 7347SOL    HW122940   4.926   0.538   6.263
 7347SOL    HW222941   4.963   0.678   6.188
 7348SOL     OW22942   0.483   6.059   0.202
 7348SOL    HW122943   0.423   6.100   0.270
 7348SOL    HW222944   0.499   6.124   0.128
 7349SOL     OW22945   4.343   1.422   1.331
 7349SOL    HW122946   4.316   1.438   1.236
 7349SOL    HW222947   4.426   1.366   1.333
 7350SOL     OW22948   3.269   1.114   5.252
 7350SOL    HW122949   3.351   1.123   5.308
 7350SOL    HW222950   3.226   1.203   5.241
 7351SOL     OW22951   2.637   4.950   4.771
 7351SOL    HW122952   2.574   4.970   4.846
 7351SOL    HW222953   2.608   5.001   4.689
 7352SOL     OW22954   6.305   2.743   4.139
 7352SOL    HW122955   6.362   2.661   4.133
 7352SOL    HW222956   6.281   2.760   4.235
 7353SOL     OW22957   6.928   2.386   5.939
 7353SOL    HW122958   6.831   2.366   5.947
 7353SOL    HW222959   6.961   2.356   5.849
 7354SOL     OW22960   0.722   2.090   2.940
 7354SOL    HW122961   0.744   2.098   3.037
 7354SOL    HW222962   0.797   2.045   2.893
 7355SOL     OW22963   3.641   1.695   0.403
 7355SOL    HW122964   3.616   1.756   0.328
 7355SOL    HW222965   3.736   1.713   0.430
 7356SOL     OW22966   3.608   4.850   6.017
 7356SOL    HW122967   3.530   4.789   6.006
 7356SOL    HW222968   3.692   4.802   5.988
 7357SOL     OW22969   4.754   6.643   2.173
 7357SOL    HW122970   4.806   6.572   2.221
 7357SOL    HW222971   4.696   6.692   2.239
 7358SOL     OW22972   4.438   0.405   2.668
 7358SOL    HW122973   4.514   0.415   2.603
 7358SOL    HW222974   4.466   0.438   2.758
 7359SOL     OW22975   3.500   6.987   2.316
 7359SOL    HW122976   3.582   6.968   2.263
 7359SOL    HW222977   3.523   0.022   2.392
 7360SOL     OW22978   2.616   4.300   6.154
 7360SOL    HW122979   2.639   4.244   6.074
 7360SOL    HW222980   2.668   4.269   6.233
 7361SOL     OW22981   6.259   0.695   3.834
 7361SOL    HW122982   6.177   0.709   3.888
 7361SOL    HW222983   6.314   0.621   3.875
 7362SOL     OW22984   3.389   5.683   0.741
 7362SOL    HW122985   3.377   5.782   0.729
 7362SOL    HW222986   3.446   5.666   0.821
 7363SOL     OW22987   4.738   0.854   1.154
 7363SOL    HW122988   4.784   0.860   1.066
 7363SOL    HW222989   4.665   0.785   1.150
 7364SOL     OW22990   5.406   5.706   1.403
 7364SOL    HW122991   5.446   5.614   1.397
 7364SOL    HW222992   5.473   5.770   1.441
 7365SOL     OW22993   4.881   3.612   2.109
 7365SOL    HW122994   4.944   3.637   2.036
 7365SOL    HW222995   4.813   3.548   2.074
 7366SOL     OW22996   2.243   6.383   3.430
 7366SOL    HW122997   2.278   6.327   3.505
 7366SOL    HW222998   2.148   6.409   3.449
 7367SOL     OW22999   4.541   1.115   0.503
 7367SOL    HW123000   4.572   1.144   0.412
 7367SOL    HW223001   4.462   1.055   0.493
 7368SOL     OW23002   3.047   3.852   3.265
 7368SOL    HW123003   2.973   3.828   3.328
 7368SOL    HW223004   3.055   3.782   3.194
 7369SOL     OW23005   5.307   3.755   6.944
 7369SOL    HW123006   5.335   3.668   6.985
 7369SOL    HW223007   5.334   3.757   6.848
 7370SOL     OW23008   2.653   0.866   4.023
 7370SOL    HW123009   2.572   0.862   4.082
 7370SOL    HW223010   2.625   0.881   3.929
 7371SOL     OW23011   3.978   0.398   3.454
 7371SOL    HW123012   4.052   0.332   3.467
 7371SOL    HW223013   4.007   0.488   3.486
 7372SOL     OW23014   3.631   1.582   5.461
 7372SOL    HW123015   3.690   1.643   5.515
 7372SOL    HW223016   3.555   1.551   5.517
 7373SOL     OW23017   6.704   3.135   4.542
 7373SOL    HW123018   6.648   3.148   4.460
 7373SOL    HW223019   6.729   3.039   4.550
 7374SOL     OW23020   6.846   3.217   6.312
 7374SOL    HW123021   6.876   3.235   6.406
 7374SOL    HW223022   6.829   3.119   6.301
 7375SOL     OW23023   2.253   2.053   1.473
 7375SOL    HW123024   2.177   1.993   1.499
 7375SOL    HW223025   2.276   2.112   1.550
 7376SOL     OW23026   6.162   5.399   0.555
 7376SOL    HW123027   6.258   5.422   0.573
 7376SOL    HW223028   6.149   5.300   0.567
 7377SOL     OW23029   2.738   6.004   0.816
 7377SOL    HW123030   2.775   5.915   0.789
 7377SOL    HW223031   2.679   5.993   0.896
 7378SOL     OW23032   2.288   5.080   5.589
 7378SOL    HW123033   2.283   5.144   5.513
 7378SOL    HW223034   2.230   5.001   5.570
 7379SOL     OW23035   5.302   2.528   2.946
 7379SOL    HW123036   5.212   2.569   2.958
 7379SOL    HW223037   5.338   2.500   3.035
 7380SOL     OW23038   5.236   3.345   1.301
 7380SOL    HW123039   5.196   3.413   1.363
 7380SOL    HW223040   5.236   3.256   1.345
 7381SOL     OW23041   3.588   0.224   1.408
 7381SOL    HW123042   3.501   0.249   1.365
 7381SOL    HW223043   3.601   0.279   1.490
 7382SOL     OW23044   0.481   2.721   0.122
 7382SOL    HW123045   0.538   2.749   0.199
 7382SOL    HW223046   0.539   2.707   0.041
 7383SOL     OW23047   2.387   6.704   1.240
 7383SOL    HW123048   2.325   6.780   1.254
 7383SOL    HW223049   2.363   6.656   1.155
 7384SOL     OW23050   6.948   0.517   6.807
 7384SOL    HW123051   6.967   0.461   6.727
 7384SOL    HW223052   7.012   0.494   6.881
 7385SOL     OW23053   6.782   4.515   2.775
 7385SOL    HW123054   6.821   4.527   2.684
 7385SOL    HW223055   6.727   4.431   2.777
 7386SOL     OW23056   6.040   3.777   0.693
 7386SOL    HW123057   6.006   3.762   0.600
 7386SOL    HW223058   6.139   3.769   0.693
 7387SOL     OW23059   0.296   5.503   3.756
 7387SOL    HW123060   0.221   5.487   3.820
 7387SOL    HW223061   0.352   5.579   3.789
 7388SOL     OW23062   2.326   4.541   3.080
 7388SOL    HW123063   2.240   4.572   3.119
 7388SOL    HW223064   2.355   4.457   3.125
 7389SOL     OW23065   0.545   2.625   1.094
 7389SOL    HW123066   0.496   2.612   1.008
 7389SOL    HW223067   0.640   2.595   1.084
 7390SOL     OW23068   4.128   2.133   4.318
 7390SOL    HW123069   4.029   2.120   4.329
 7390SOL    HW223070   4.146   2.179   4.231
 7391SOL     OW23071   3.044   3.739   2.199
 7391SOL    HW123072   3.113   3.701   2.137
 7391SOL    HW223073   2.958   3.691   2.187
 7392SOL     OW23074   3.844   6.695   0.425
 7392SOL    HW123075   3.812   6.660   0.513
 7392SOL    HW223076   3.855   6.619   0.361
 7393SOL     OW23077   4.324   5.570   3.310
 7393SOL    HW123078   4.396   5.581   3.240
 7393SOL    HW223079   4.338   5.484   3.359
 7394SOL     OW23080   1.792   1.473   6.785
 7394SOL    HW123081   1.790   1.390   6.730
 7394SOL    HW223082   1.815   1.551   6.727
 7395SOL     OW23083   2.854   5.760   0.771
 7395SOL    HW123084   2.874   5.707   0.688
 7395SOL    HW223085   2.881   5.707   0.851
 7396SOL     OW23086   1.000   5.194   2.228
 7396SOL    HW123087   0.981   5.096   2.229
 7396SOL    HW223088   1.065   5.214   2.155
 7397SOL     OW23089   6.043   5.207   5.212
 7397SOL    HW123090   5.946   5.230   5.218
 7397SOL    HW223091   6.095   5.288   5.181
 7398SOL     OW23092   3.049   5.663   2.281
 7398SOL    HW123093   2.955   5.628   2.277
 7398SOL    HW223094   3.102   5.606   2.344
 7399SOL     OW23095   6.537   2.756   5.271
 7399SOL    HW123096   6.488   2.732   5.187
 7399SOL    HW223097   6.571   2.673   5.315
 7400SOL     OW23098   4.180   3.454   5.605
 7400SOL    HW123099   4.082   3.458   5.583
 7400SOL    HW223100   4.228   3.405   5.533
 7401SOL     OW23101   2.987   2.155   4.575
 7401SOL    HW123102   3.079   2.142   4.537
 7401SOL    HW223103   2.994   2.163   4.674
 7402SOL     OW23104   3.848   4.938   4.685
 7402SOL    HW123105   3.877   4.845   4.709
 7402SOL    HW223106   3.839   4.945   4.586
 7403SOL     OW23107   1.970   5.133   3.962
 7403SOL    HW123108   2.033   5.124   3.884
 7403SOL    HW223109   2.011   5.091   4.042
 7404SOL     OW23110   2.044   2.694   1.305
 7404SOL    HW123111   1.994   2.667   1.223
 7404SOL    HW223112   1.980   2.703   1.381
 7405SOL     OW23113   2.878   6.508   5.548
 7405SOL    HW123114   2.940   6.584   5.533
 7405SOL    HW223115   2.869   6.491   5.646
 7406SOL     OW23116   0.698   2.912   4.795
 7406SOL    HW123117   0.731   2.950   4.708
 7406SOL    HW223118   0.627   2.845   4.777
 7407SOL     OW23119   1.051   6.160   4.626
 7407SOL    HW123120   1.048   6.096   4.703
 7407SOL    HW223121   1.140   6.207   4.625
 7408SOL     OW23122   4.063   5.311   5.483
 7408SOL    HW123123   4.118   5.317   5.400
 7408SOL    HW223124   4.035   5.403   5.511
 7409SOL     OW23125   5.956   4.967   0.889
 7409SOL    HW123126   6.019   5.045   0.891
 7409SOL    HW223127   6.006   4.884   0.868
 7410SOL     OW23128   6.108   0.939   0.329
 7410SOL    HW123129   6.142   0.982   0.413
 7410SOL    HW223130   6.009   0.927   0.336
 7411SOL     OW23131   3.350   2.051   5.893
 7411SOL    HW123132   3.350   2.129   5.955
 7411SOL    HW223133   3.293   1.978   5.931
 7412SOL     OW23134   4.251   6.607   6.527
 7412SOL    HW123135   4.331   6.572   6.576
 7412SOL    HW223136   4.261   6.590   6.429
 7413SOL     OW23137   4.747   0.941   3.722
 7413SOL    HW123138   4.811   0.997   3.667
 7413SOL    HW223139   4.692   0.884   3.661
 7414SOL     OW23140   3.160   0.948   4.694
 7414SOL    HW123141   3.243   0.959   4.638
 7414SOL    HW223142   3.174   0.991   4.783
 7415SOL     OW23143   3.931   0.858   5.599
 7415SOL    HW123144   4.005   0.818   5.543
 7415SOL    HW223145   3.970   0.928   5.659
 7416SOL     OW23146   0.121   0.300   1.814
 7416SOL    HW123147   0.185   0.376   1.802
 7416SOL    HW223148   0.156   0.220   1.765
 7417SOL     OW23149   6.927   0.468   1.768
 7417SOL    HW123150   6.997   0.404   1.801
 7417SOL    HW223151   6.916   0.542   1.834
 7418SOL     OW23152   2.052   3.710   6.251
 7418SOL    HW123153   2.088   3.620   6.274
 7418SOL    HW223154   2.087   3.777   6.317
 7419SOL     OW23155   6.895   2.667   4.660
 7419SOL    HW123156   6.801   2.635   4.672
 7419SOL    HW223157   6.894   2.759   4.621
 7420SOL     OW23158   6.533   7.015   0.054
 7420SOL    HW123159   6.584   6.970   7.006
 7420SOL    HW223160   6.484   0.069   0.017
 7421SOL     OW23161   0.192   3.881   1.097
 7421SOL    HW123162   0.118   3.941   1.124
 7421SOL    HW223163   0.209   3.890   0.999
 7422SOL     OW23164   6.757   3.173   2.024
 7422SOL    HW123165   6.826   3.194   2.093
 7422SOL    HW223166   6.673   3.142   2.069
 7423SOL     OW23167   4.136   2.214   5.883
 7423SOL    HW123168   4.138   2.121   5.919
 7423SOL    HW223169   4.044   2.237   5.853
 7424SOL     OW23170   0.918   2.021   4.109
 7424SOL    HW123171   0.899   1.979   4.198
 7424SOL    HW223172   0.909   2.120   4.116
 7425SOL     OW23173   5.263   0.754   0.788
 7425SOL    HW123174   5.297   0.711   0.704
 7425SOL    HW223175   5.325   0.828   0.815
 7426SOL     OW23176   3.657   3.909   5.417
 7426SOL    HW123177   3.737   3.968   5.423
 7426SOL    HW223178   3.622   3.891   5.508
 7427SOL     OW23179   2.973   0.462   1.802
 7427SOL    HW123180   2.904   0.522   1.843
 7427SOL    HW223181   2.928   0.391   1.749
 7428SOL     OW23182   1.276   6.687   5.416
 7428SOL    HW123183   1.374   6.677   5.435
 7428SOL    HW223184   1.228   6.604   5.446
 7429SOL     OW23185   0.653   0.319   2.260
 7429SOL    HW123186   0.591   0.380   2.310
 7429SOL    HW223187   0.631   0.321   2.163
 7430SOL     OW23188   6.660   3.334   2.369
 7430SOL    HW123189   6.574   3.380   2.390
 7430SOL    HW223190   6.722   3.343   2.447
 7431SOL     OW23191   1.215   2.571   4.810
 7431SOL    HW123192   1.312   2.557   4.825
 7431SOL    HW223193   1.200   2.664   4.776
 7432SOL     OW23194   1.446   1.108   2.882
 7432SOL    HW123195   1.458   1.053   2.800
 7432SOL    HW223196   1.374   1.176   2.867
 7433SOL     OW23197   3.915   0.040   6.078
 7433SOL    HW123198   3.819   0.048   6.103
 7433SOL    HW223199   3.952   0.132   6.061
 7434SOL     OW23200   3.638   0.119   3.423
 7434SOL    HW123201   3.591   0.090   3.339
 7434SOL    HW223202   3.585   0.089   3.502
 7435SOL     OW23203   5.061   4.702   2.980
 7435SOL    HW123204   5.061   4.683   2.881
 7435SOL    HW223205   5.083   4.799   2.995
 7436SOL     OW23206   4.817   2.965   6.322
 7436SOL    HW123207   4.853   3.044   6.370
 7436SOL    HW223208   4.768   2.906   6.387
 7437SOL     OW23209   3.652   0.682   1.685
 7437SOL    HW123210   3.693   0.631   1.760
 7437SOL    HW223211   3.624   0.772   1.718
 7438SOL     OW23212   1.833   0.813   6.457
 7438SOL    HW123213   1.898   0.889   6.453
 7438SOL    HW223214   1.832   0.765   6.369
 7439SOL     OW23215   1.358   4.371   6.106
 7439SOL    HW123216   1.414   4.434   6.052
 7439SOL    HW223217   1.401   4.280   6.105
 7440SOL     OW23218   6.257   2.695   4.398
 7440SOL    HW123219   6.248   2.635   4.477
 7440SOL    HW223220   6.187   2.766   4.401
 7441SOL     OW23221   4.534   6.832   0.729
 7441SOL    HW123222   4.493   6.741   0.727
 7441SOL    HW223223   4.563   6.853   0.822
 7442SOL     OW23224   0.137   1.118   6.243
 7442SOL    HW123225   0.107   1.057   6.170
 7442SOL    HW223226   0.110   1.080   6.331
 7443SOL     OW23227   0.130   6.845   0.189
 7443SOL    HW123228   0.060   6.916   0.195
 7443SOL    HW223229   0.115   6.791   0.105
 7444SOL     OW23230   0.882   6.234   6.583
 7444SOL    HW123231   0.946   6.206   6.654
 7444SOL    HW223232   0.923   6.306   6.527
 7445SOL     OW23233   4.059   5.996   2.227
 7445SOL    HW123234   4.063   6.094   2.249
 7445SOL    HW223235   4.152   5.961   2.214
 7446SOL     OW23236   6.445   4.994   0.417
 7446SOL    HW123237   6.427   5.040   0.331
 7446SOL    HW223238   6.394   4.908   0.420
 7447SOL     OW23239   0.158   5.660   0.891
 7447SOL    HW123240   0.216   5.721   0.945
 7447SOL    HW223241   0.206   5.633   0.808
 7448SOL     OW23242   5.035   4.885   0.074
 7448SOL    HW123243   4.987   4.800   0.094
 7448SOL    HW223244   5.073   4.881   7.007
 7449SOL     OW23245   6.348   3.689   6.329
 7449SOL    HW123246   6.407   3.625   6.378
 7449SOL    HW223247   6.395   3.777   6.319
 7450SOL     OW23248   5.246   3.701   0.362
 7450SOL    HW123249   5.223   3.644   0.283
 7450SOL    HW223250   5.317   3.656   0.416
 7451SOL     OW23251   4.271   5.252   2.701
 7451SOL    HW123252   4.267   5.347   2.732
 7451SOL    HW223253   4.347   5.205   2.746
 7452SOL     OW23254   6.513   6.298   6.782
 7452SOL    HW123255   6.520   6.227   6.713
 7452SOL    HW223256   6.603   6.340   6.796
 7453SOL     OW23257   4.648   4.833   6.410
 7453SOL    HW123258   4.693   4.767   6.471
 7453SOL    HW223259   4.623   4.786   6.325
 7454SOL     OW23260   4.034   1.979   1.284
 7454SOL    HW123261   4.056   2.069   1.322
 7454SOL    HW223262   3.935   1.966   1.283
 7455SOL     OW23263   0.042   0.509   2.685
 7455SOL    HW123264   6.971   0.516   2.660
 7455SOL    HW223265   0.094   0.470   2.609
 7456SOL     OW23266   2.925   0.751   5.475
 7456SOL    HW123267   2.892   0.846   5.470
 7456SOL    HW223268   3.025   0.750   5.474
 7457SOL     OW23269   1.155   2.064   2.503
 7457SOL    HW123270   1.208   2.128   2.446
 7457SOL    HW223271   1.218   2.006   2.555
 7458SOL     OW23272   0.075   6.124   5.141
 7458SOL    HW123273   7.024   6.062   5.156
 7458SOL    HW223274   0.080   6.189   5.217
 7459SOL     OW23275   5.493   6.822   2.928
 7459SOL    HW123276   5.438   6.792   2.850
 7459SOL    HW223277   5.438   6.820   3.011
 7460SOL     OW23278   0.329   0.463   1.184
 7460SOL    HW123279   0.380   0.515   1.253
 7460SOL    HW223280   0.391   0.435   1.111
 7461SOL     OW23281   1.776   4.669   5.599
 7461SOL    HW123282   1.732   4.596   5.547
 7461SOL    HW223283   1.799   4.745   5.539
 7462SOL     OW23284   1.766   4.460   0.234
 7462SOL    HW123285   1.694   4.527   0.217
 7462SOL    HW223286   1.726   4.379   0.278
 7463SOL     OW23287   4.783   4.746   0.589
 7463SOL    HW123288   4.756   4.724   0.495
 7463SOL    HW223289   4.805   4.662   0.638
 7464SOL     OW23290   5.470   5.397   4.927
 7464SOL    HW123291   5.424   5.473   4.973
 7464SOL    HW223292   5.402   5.335   4.889
 7465SOL     OW23293   1.214   3.742   6.623
 7465SOL    HW123294   1.143   3.671   6.616
 7465SOL    HW223295   1.295   3.712   6.572
 7466SOL     OW23296   0.676   0.299   5.788
 7466SOL    HW123297   0.668   0.204   5.818
 7466SOL    HW223298   0.586   0.343   5.793
 7467SOL     OW23299   1.457   3.725   3.654
 7467SOL    HW123300   1.386   3.775   3.705
 7467SOL    HW223301   1.489   3.782   3.579
 7468SOL     OW23302   6.098   2.866   4.626
 7468SOL    HW123303   6.145   2.949   4.595
 7468SOL    HW223304   6.075   2.875   4.723
 7469SOL     OW23305   6.706   1.793   6.979
 7469SOL    HW123306   6.650   1.850   0.014
 7469SOL    HW223307   6.789   1.843   6.954
 7470SOL     OW23308   4.921   3.423   3.894
 7470SOL    HW123309   4.897   3.404   3.799
 7470SOL    HW223310   4.912   3.340   3.949
 7471SOL     OW23311   3.209   0.005   6.303
 7471SOL    HW123312   3.137   6.989   6.247
 7471SOL    HW223313   3.298   7.016   6.258
 7472SOL     OW23314   0.028   0.405   5.431
 7472SOL    HW123315   0.089   0.384   5.508
 7472SOL    HW223316   0.051   0.347   5.353
 7473SOL     OW23317   4.314   6.906   3.345
 7473SOL    HW123318   4.245   6.852   3.393
 7473SOL    HW223319   4.305   7.002   3.371
 7474SOL     OW23320   6.244   2.021   2.126
 7474SOL    HW123321   6.248   2.115   2.160
 7474SOL    HW223322   6.312   1.966   2.175
 7475SOL     OW23323   5.041   3.134   1.181
 7475SOL    HW123324   5.129   3.158   1.139
 7475SOL    HW223325   4.984   3.087   1.113
 7476SOL     OW23326   2.631   1.509   2.555
 7476SOL    HW123327   2.668   1.522   2.647
 7476SOL    HW223328   2.702   1.529   2.487
 7477SOL     OW23329   2.170   3.645   5.513
 7477SOL    HW123330   2.082   3.635   5.468
 7477SOL    HW223331   2.168   3.725   5.573
 7478SOL     OW23332   0.935   2.634   6.730
 7478SOL    HW123333   0.881   2.613   6.648
 7478SOL    HW223334   0.950   2.550   6.782
 7479SOL     OW23335   5.318   2.571   2.051
 7479SOL    HW123336   5.301   2.605   1.958
 7479SOL    HW223337   5.400   2.514   2.052
 7480SOL     OW23338   4.120   6.276   2.201
 7480SOL    HW123339   4.073   6.360   2.230
 7480SOL    HW223340   4.105   6.262   2.103
 7481SOL     OW23341   0.754   4.475   0.065
 7481SOL    HW123342   0.796   4.432   7.010
 7481SOL    HW223343   0.826   4.513   0.123
 7482SOL     OW23344   3.699   1.652   4.862
 7482SOL    HW123345   3.714   1.743   4.900
 7482SOL    HW223346   3.751   1.585   4.915
 7483SOL     OW23347   5.795   1.701   5.457
 7483SOL    HW123348   5.785   1.609   5.495
 7483SOL    HW223349   5.886   1.712   5.417
 7484SOL     OW23350   2.292   7.015   4.999
 7484SOL    HW123351   2.204   6.968   5.002
 7484SOL    HW223352   2.315   0.011   4.904
 7485SOL     OW23353   3.506   0.038   6.905
 7485SOL    HW123354   3.489   0.063   7.000
 7485SOL    HW223355   3.452   6.982   6.882
 7486SOL     OW23356   4.289   6.151   0.811
 7486SOL    HW123357   4.370   6.101   0.844
 7486SOL    HW223358   4.294   6.161   0.712
 7487SOL     OW23359   3.459   6.207   4.627
 7487SOL    HW123360   3.533   6.270   4.653
 7487SOL    HW223361   3.375   6.233   4.675
 7488SOL     OW23362   2.103   6.067   3.566
 7488SOL    HW123363   2.101   6.104   3.473
 7488SOL    HW223364   2.056   5.979   3.568
 7489SOL     OW23365   4.972   3.553   5.833
 7489SOL    HW123366   5.014   3.578   5.920
 7489SOL    HW223367   5.019   3.473   5.795
 7490SOL     OW23368   2.220   2.388   1.396
 7490SOL    HW123369   2.134   2.377   1.345
 7490SOL    HW223370   2.244   2.301   1.439
 7491SOL     OW23371   4.232   4.034   6.088
 7491SOL    HW123372   4.241   4.133   6.101
 7491SOL    HW223373   4.138   4.006   6.108
 7492SOL     OW23374   1.449   1.328   3.051
 7492SOL    HW123375   1.450   1.243   2.999
 7492SOL    HW223376   1.463   1.405   2.988
 7493SOL     OW23377   5.729   4.574   4.650
 7493SOL    HW123378   5.638   4.615   4.642
 7493SOL    HW223379   5.723   4.488   4.700
 7494SOL     OW23380   5.568   1.377   2.203
 7494SOL    HW123381   5.532   1.338   2.287
 7494SOL    HW223382   5.521   1.463   2.183
 7495SOL     OW23383   1.712   3.627   3.990
 7495SOL    HW123384   1.622   3.586   3.977
 7495SOL    HW223385   1.768   3.568   4.048
 7496SOL     OW23386   5.914   3.033   3.400
 7496SOL    HW123387   5.973   3.017   3.479
 7496SOL    HW223388   5.941   3.118   3.356
 7497SOL     OW23389   6.019   0.738   0.977
 7497SOL    HW123390   5.957   0.758   1.052
 7497SOL    HW223391   6.020   0.639   0.961
 7498SOL     OW23392   2.122   6.150   2.798
 7498SOL    HW123393   2.217   6.180   2.808
 7498SOL    HW223394   2.111   6.106   2.709
 7499SOL     OW23395   3.298   1.292   2.926
 7499SOL    HW123396   3.281   1.224   2.855
 7499SOL    HW223397   3.310   1.382   2.884
 7500SOL     OW23398   3.329   1.485   5.144
 7500SOL    HW123399   3.402   1.551   5.162
 7500SOL    HW223400   3.268   1.520   5.073
 7501SOL     OW23401   5.714   2.003   4.668
 7501SOL    HW123402   5.743   1.949   4.589
 7501SOL    HW223403   5.794   2.042   4.713
 7502SOL     OW23404   4.076   1.101   4.320
 7502SOL    HW123405   4.082   1.200   4.337
 7502SOL    HW223406   4.072   1.085   4.222
 7503SOL     OW23407   0.948   5.661   1.129
 7503SOL    HW123408   0.854   5.677   1.099
 7503SOL    HW223409   0.987   5.746   1.164
 7504SOL     OW23410   5.996   6.192   5.018
 7504SOL    HW123411   6.068   6.257   4.994
 7504SOL    HW223412   5.907   6.237   5.014
 7505SOL     OW23413   0.548   6.714   6.619
 7505SOL    HW123414   0.474   6.720   6.685
 7505SOL    HW223415   0.600   6.630   6.634
 7506SOL     OW23416   3.579   2.144   4.404
 7506SOL    HW123417   3.505   2.167   4.467
 7506SOL    HW223418   3.666   2.144   4.453
 7507SOL     OW23419   6.669   3.565   6.168
 7507SOL    HW123420   6.670   3.469   6.143
 7507SOL    HW223421   6.650   3.574   6.266
 7508SOL     OW23422   3.897   6.497   0.254
 7508SOL    HW123423   3.914   6.401   0.275
 7508SOL    HW223424   3.906   6.512   0.155
 7509SOL     OW23425   5.749   4.283   3.226
 7509SOL    HW123426   5.701   4.329   3.152
 7509SOL    HW223427   5.701   4.300   3.312
 7510SOL     OW23428   3.667   4.684   1.483
 7510SOL    HW123429   3.661   4.709   1.579
 7510SOL    HW223430   3.582   4.708   1.436
 7511SOL     OW23431   4.707   6.212   3.977
 7511SOL    HW123432   4.750   6.225   3.887
 7511SOL    HW223433   4.672   6.119   3.984
 7512SOL     OW23434   3.596   5.838   0.963
 7512SOL    HW123435   3.668   5.774   0.990
 7512SOL    HW223436   3.522   5.835   1.030
 7513SOL     OW23437   0.254   0.699   2.822
 7513SOL    HW123438   0.312   0.695   2.741
 7513SOL    HW223439   0.174   0.640   2.809
 7514SOL     OW23440   0.028   0.662   0.087
 7514SOL    HW123441   6.963   0.645   0.127
 7514SOL    HW223442   0.031   0.753   0.047
 7515SOL     OW23443   0.063   5.183   4.845
 7515SOL    HW123444   0.063   5.111   4.914
 7515SOL    HW223445   0.032   5.269   4.885
 7516SOL     OW23446   2.220   5.599   4.226
 7516SOL    HW123447   2.154   5.636   4.160
 7516SOL    HW223448   2.240   5.668   4.296
 7517SOL     OW23449   0.295   2.530   0.443
 7517SOL    HW123450   0.278   2.546   0.346
 7517SOL    HW223451   0.338   2.612   0.482
 7518SOL     OW23452   3.856   2.081   5.085
 7518SOL    HW123453   3.844   2.145   5.162
 7518SOL    HW223454   3.914   2.124   5.015
 7519SOL     OW23455   2.759   6.483   4.785
 7519SOL    HW123456   2.817   6.563   4.770
 7519SOL    HW223457   2.813   6.410   4.826
 7520SOL     OW23458   1.802   0.606   0.846
 7520SOL    HW123459   1.900   0.607   0.828
 7520SOL    HW223460   1.778   0.524   0.899
 7521SOL     OW23461   4.612   1.750   5.485
 7521SOL    HW123462   4.670   1.811   5.431
 7521SOL    HW223463   4.660   1.662   5.497
 7522SOL     OW23464   1.431   6.659   3.996
 7522SOL    HW123465   1.437   6.559   3.992
 7522SOL    HW223466   1.523   6.698   3.996
 7523SOL     OW23467   5.218   1.669   0.049
 7523SOL    HW123468   5.285   1.641   7.006
 7523SOL    HW223469   5.166   1.589   0.079
 7524SOL     OW23470   0.273   4.170   4.972
 7524SOL    HW123471   0.314   4.256   5.004
 7524SOL    HW223472   0.236   4.183   4.880
 7525SOL     OW23473   2.503   4.910   5.615
 7525SOL    HW123474   2.418   4.961   5.609
 7525SOL    HW223475   2.488   4.824   5.665
 7526SOL     OW23476   1.151   3.419   1.214
 7526SOL    HW123477   1.087   3.355   1.256
 7526SOL    HW223478   1.104   3.506   1.197
 7527SOL     OW23479   2.877   5.268   2.699
 7527SOL    HW123480   2.836   5.178   2.714
 7527SOL    HW223481   2.833   5.335   2.758
 7528SOL     OW23482   6.489   2.498   0.282
 7528SOL    HW123483   6.531   2.436   0.215
 7528SOL    HW223484   6.409   2.454   0.323
 7529SOL     OW23485   5.964   2.617   4.733
 7529SOL    HW123486   6.012   2.703   4.715
 7529SOL    HW223487   5.889   2.606   4.668
 7530SOL     OW23488   1.865   2.194   3.406
 7530SOL    HW123489   1.788   2.144   3.445
 7530SOL    HW223490   1.946   2.135   3.405
 7531SOL     OW23491   4.515   1.832   4.192
 7531SOL    HW123492   4.531   1.791   4.102
 7531SOL    HW223493   4.423   1.872   4.194
 7532SOL     OW23494   4.560   4.386   6.601
 7532SOL    HW123495   4.461   4.404   6.599
 7532SOL    HW223496   4.609   4.472   6.618
 7533SOL     OW23497   4.558   4.478   0.621
 7533SOL    HW123498   4.510   4.482   0.709
 7533SOL    HW223499   4.563   4.383   0.590
 7534SOL     OW23500   4.053   6.302   5.085
 7534SOL    HW123501   3.954   6.294   5.072
 7534SOL    HW223502   4.100   6.251   5.014
 7535SOL     OW23503   0.023   6.840   4.768
 7535SOL    HW123504   7.008   6.797   4.687
 7535SOL    HW223505   6.981   6.900   4.811
 7536SOL     OW23506   5.878   0.140   2.896
 7536SOL    HW123507   5.817   0.213   2.867
 7536SOL    HW223508   5.913   0.160   2.988
 7537SOL     OW23509   2.552   0.446   2.085
 7537SOL    HW123510   2.499   0.393   2.150
 7537SOL    HW223511   2.603   0.384   2.025
 7538SOL     OW23512   0.557   4.714   6.824
 7538SOL    HW123513   0.512   4.800   6.846
 7538SOL    HW223514   0.557   4.654   6.904
 7539SOL     OW23515   6.521   6.939   4.988
 7539SOL    HW123516   6.532   7.014   4.924
 7539SOL    HW223517   6.455   6.873   4.952
 7540SOL     OW23518   5.103   3.608   3.985
 7540SOL    HW123519   5.030   3.546   3.958
 7540SOL    HW223520   5.095   3.694   3.934
 7541SOL     OW23521   1.888   3.939   6.884
 7541SOL    HW123522   1.794   3.925   6.915
 7541SOL    HW223523   1.946   3.867   6.923
 7542SOL     OW23524   6.215   6.336   4.674
 7542SOL    HW123525   6.221   6.260   4.739
 7542SOL    HW223526   6.300   6.342   4.622
 7543SOL     OW23527   1.943   0.438   0.589
 7543SOL    HW123528   1.930   0.348   0.549
 7543SOL    HW223529   1.957   0.506   0.516
 7544SOL     OW23530   6.253   1.752   5.175
 7544SOL    HW123531   6.346   1.749   5.212
 7544SOL    HW223532   6.250   1.698   5.090
 7545SOL     OW23533   0.985   5.684   4.981
 7545SOL    HW123534   0.902   5.662   4.929
 7545SOL    HW223535   1.043   5.603   4.988
 7546SOL     OW23536   2.280   3.201   1.740
 7546SOL    HW123537   2.282   3.296   1.772
 7546SOL    HW223538   2.373   3.165   1.736
 7547SOL     OW23539   3.837   0.529   1.884
 7547SOL    HW123540   3.869   0.600   1.947
 7547SOL    HW223541   3.912   0.503   1.823
 7548SOL     OW23542   2.674   2.323   6.301
 7548SOL    HW123543   2.753   2.270   6.270
 7548SOL    HW223544   2.651   2.392   6.232
 7549SOL     OW23545   5.138   0.515   5.309
 7549SOL    HW123546   5.130   0.603   5.261
 7549SOL    HW223547   5.086   0.445   5.260
 7550SOL     OW23548   2.897   5.969   4.730
 7550SOL    HW123549   2.830   5.919   4.785
 7550SOL    HW223550   2.861   5.982   4.638
 7551SOL     OW23551   5.948   2.824   6.792
 7551SOL    HW123552   6.044   2.852   6.799
 7551SOL    HW223553   5.924   2.812   6.696
 7552SOL     OW23554   2.674   6.692   4.247
 7552SOL    HW123555   2.736   6.711   4.170
 7552SOL    HW223556   2.720   6.633   4.313
 7553SOL     OW23557   6.508   0.208   5.624
 7553SOL    HW123558   6.518   0.290   5.568
 7553SOL    HW223559   6.446   0.144   5.579
 7554SOL     OW23560   4.926   1.740   1.991
 7554SOL    HW123561   4.895   1.767   1.900
 7554SOL    HW223562   5.016   1.698   1.985
 7555SOL     OW23563   4.843   5.889   4.261
 7555SOL    HW123564   4.931   5.854   4.293
 7555SOL    HW223565   4.792   5.816   4.217
 7556SOL     OW23566   0.532   5.981   0.929
 7556SOL    HW123567   0.554   5.984   0.831
 7556SOL    HW223568   0.559   6.068   0.972
 7557SOL     OW23569   4.184   5.953   0.336
 7557SOL    HW123570   4.170   6.004   0.251
 7557SOL    HW223571   4.250   5.880   0.321
 7558SOL     OW23572   1.491   1.436   4.001
 7558SOL    HW123573   1.512   1.534   4.004
 7558SOL    HW223574   1.458   1.412   3.909
 7559SOL     OW23575   1.423   6.758   5.080
 7559SOL    HW123576   1.517   6.733   5.105
 7559SOL    HW223577   1.377   6.677   5.043
 7560SOL     OW23578   0.737   0.887   5.392
 7560SOL    HW123579   0.744   0.811   5.458
 7560SOL    HW223580   0.826   0.931   5.383
 7561SOL     OW23581   5.298   1.489   5.906
 7561SOL    HW123582   5.257   1.573   5.943
 7561SOL    HW223583   5.283   1.487   5.807
 7562SOL     OW23584   1.810   5.590   3.714
 7562SOL    HW123585   1.819   5.612   3.812
 7562SOL    HW223586   1.779   5.671   3.665
 7563SOL     OW23587   3.086   6.288   3.402
 7563SOL    HW123588   3.126   6.372   3.437
 7563SOL    HW223589   2.999   6.309   3.356
 7564SOL     OW23590   5.544   3.720   6.129
 7564SOL    HW123591   5.625   3.742   6.183
 7564SOL    HW223592   5.549   3.626   6.096
 7565SOL     OW23593   6.483   3.670   5.777
 7565SOL    HW123594   6.577   3.704   5.780
 7565SOL    HW223595   6.465   3.614   5.858
 7566SOL     OW23596   5.070   4.248   1.665
 7566SOL    HW123597   4.998   4.268   1.598
 7566SOL    HW223598   5.028   4.234   1.755
 7567SOL     OW23599   1.470   0.389   2.753
 7567SOL    HW123600   1.385   0.416   2.709
 7567SOL    HW223601   1.451   0.322   2.825
 7568SOL     OW23602   0.213   4.248   1.277
 7568SOL    HW123603   0.290   4.233   1.340
 7568SOL    HW223604   0.128   4.245   1.328
 7569SOL     OW23605   4.637   3.798   1.324
 7569SOL    HW123606   4.614   3.886   1.364
 7569SOL    HW223607   4.655   3.809   1.226
 7570SOL     OW23608   0.800   2.187   1.820
 7570SOL    HW123609   0.899   2.192   1.809
 7570SOL    HW223610   0.761   2.279   1.820
 7571SOL     OW23611   5.218   1.790   3.725
 7571SOL    HW123612   5.289   1.772   3.657
 7571SOL    HW223613   5.223   1.722   3.798
 7572SOL     OW23614   4.701   6.891   2.324
 7572SOL    HW123615   4.665   6.985   2.321
 7572SOL    HW223616   4.799   6.892   2.303
 7573SOL     OW23617   3.388   0.206   6.039
 7573SOL    HW123618   3.334   0.256   6.107
 7573SOL    HW223619   3.378   0.250   5.950
 7574SOL     OW23620   1.139   3.479   2.873
 7574SOL    HW123621   1.188   3.559   2.839
 7574SOL    HW223622   1.048   3.507   2.903
 7575SOL     OW23623   6.889   0.167   6.945
 7575SOL    HW123624   6.818   0.230   6.914
 7575SOL    HW223625   6.883   0.156   0.019
 7576SOL     OW23626   5.004   3.070   6.885
 7576SOL    HW123627   5.103   3.077   6.875
 7576SOL    HW223628   4.964   3.162   6.887
 7577SOL     OW23629   0.186   0.338   5.640
 7577SOL    HW123630   0.282   0.314   5.653
 7577SOL    HW223631   0.145   0.356   5.729
 7578SOL     OW23632   5.972   5.531   2.395
 7578SOL    HW123633   5.875   5.513   2.411
 7578SOL    HW223634   5.983   5.622   2.355
 7579SOL     OW23635   1.249   1.658   6.444
 7579SOL    HW123636   1.306   1.616   6.373
 7579SOL    HW223637   1.307   1.689   6.519
 7580SOL     OW23638   2.421   5.020   2.445
 7580SOL    HW123639   2.463   5.051   2.360
 7580SOL    HW223640   2.372   4.934   2.429
 7581SOL     OW23641   0.512   0.005   1.030
 7581SOL    HW123642   0.439   6.984   0.980
 7581SOL    HW223643   0.542   0.085   0.979
 7582SOL     OW23644   1.552   0.550   5.670
 7582SOL    HW123645   1.553   0.485   5.747
 7582SOL    HW223646   1.499   0.511   5.595
 7583SOL     OW23647   5.870   3.783   2.601
 7583SOL    HW123648   5.772   3.798   2.590
 7583SOL    HW223649   5.889   3.755   2.695
 7584SOL     OW23650   0.208   1.032   3.532
 7584SOL    HW123651   0.126   1.086   3.515
 7584SOL    HW223652   0.240   1.047   3.625
 7585SOL     OW23653   0.858   1.094   6.001
 7585SOL    HW123654   0.762   1.118   5.983
 7585SOL    HW223655   0.877   1.107   6.099
 7586SOL     OW23656   2.139   6.604   3.700
 7586SOL    HW123657   2.083   6.608   3.617
 7586SOL    HW223658   2.080   6.590   3.779
 7587SOL     OW23659   5.901   0.544   2.131
 7587SOL    HW123660   5.846   0.480   2.185
 7587SOL    HW223661   5.995   0.544   2.164
 7588SOL     OW23662   1.948   3.497   4.743
 7588SOL    HW123663   1.851   3.507   4.718
 7588SOL    HW223664   2.001   3.568   4.697
 7589SOL     OW23665   6.398   6.732   2.140
 7589SOL    HW123666   6.403   6.642   2.097
 7589SOL    HW223667   6.315   6.779   2.109
 7590SOL     OW23668   5.667   0.733   6.661
 7590SOL    HW123669   5.715   0.678   6.729
 7590SOL    HW223670   5.577   0.694   6.643
 7591SOL     OW23671   3.743   4.115   5.135
 7591SOL    HW123672   3.759   4.019   5.157
 7591SOL    HW223673   3.708   4.122   5.041
 7592SOL     OW23674   7.009   0.093   3.066
 7592SOL    HW123675   6.930   0.090   3.004
 7592SOL    HW223676   0.010   0.189   3.081
 7593SOL     OW23677   6.784   2.160   6.114
 7593SOL    HW123678   6.862   2.215   6.144
 7593SOL    HW223679   6.705   2.182   6.170
 7594SOL     OW23680   6.386   4.135   6.124
 7594SOL    HW123681   6.472   4.174   6.159
 7594SOL    HW223682   6.403   4.091   6.036
 7595SOL     OW23683   0.420   3.558   0.399
 7595SOL    HW123684   0.450   3.600   0.485
 7595SOL    HW223685   0.460   3.607   0.322
 7596SOL     OW23686   3.306   1.870   6.669
 7596SOL    HW123687   3.254   1.956   6.668
 7596SOL    HW223688   3.354   1.861   6.757
 7597SOL     OW23689   2.381   4.794   0.133
 7597SOL    HW123690   2.330   4.878   0.149
 7597SOL    HW223691   2.476   4.806   0.163
 7598SOL     OW23692   4.723   0.764   2.445
 7598SOL    HW123693   4.782   0.736   2.370
 7598SOL    HW223694   4.763   0.843   2.491
 7599SOL     OW23695   2.788   3.193   0.219
 7599SOL    HW123696   2.849   3.136   0.164
 7599SOL    HW223697   2.841   3.268   0.260
 7600SOL     OW23698   0.511   6.775   3.997
 7600SOL    HW123699   0.541   6.681   3.985
 7600SOL    HW223700   0.585   6.829   4.039
 7601SOL     OW23701   2.989   6.071   0.874
 7601SOL    HW123702   3.013   5.975   0.861
 7601SOL    HW223703   2.889   6.081   0.876
 7602SOL     OW23704   6.978   1.015   1.410
 7602SOL    HW123705   6.981   0.921   1.376
 7602SOL    HW223706   0.019   1.071   1.360
 7603SOL     OW23707   4.171   0.922   6.707
 7603SOL    HW123708   4.167   0.978   6.624
 7603SOL    HW223709   4.254   0.867   6.706
 7604SOL     OW23710   2.705   1.957   5.861
 7604SOL    HW123711   2.704   1.941   5.762
 7604SOL    HW223712   2.682   2.052   5.879
 7605SOL     OW23713   2.721   6.179   6.464
 7605SOL    HW123714   2.807   6.206   6.419
 7605SOL    HW223715   2.734   6.091   6.510
 7606SOL     OW23716   6.460   1.164   3.651
 7606SOL    HW123717   6.514   1.150   3.568
 7606SOL    HW223718   6.414   1.078   3.675
 7607SOL     OW23719   1.898   5.426   5.362
 7607SOL    HW123720   1.953   5.487   5.306
 7607SOL    HW223721   1.957   5.359   5.408
 7608SOL     OW23722   0.537   2.716   6.390
 7608SOL    HW123723   0.590   2.795   6.358
 7608SOL    HW223724   0.455   2.707   6.334
 7609SOL     OW23725   3.345   0.250   4.883
 7609SOL    HW123726   3.263   0.249   4.939
 7609SOL    HW223727   3.328   0.303   4.799
 7610SOL     OW23728   4.465   6.209   4.850
 7610SOL    HW123729   4.555   6.252   4.838
 7610SOL    HW223730   4.445   6.200   4.947
 7611SOL     OW23731   4.458   2.194   0.263
 7611SOL    HW123732   4.392   2.134   0.309
 7611SOL    HW223733   4.416   2.284   0.248
 7612SOL     OW23734   4.861   3.173   2.183
 7612SOL    HW123735   4.826   3.127   2.102
 7612SOL    HW223736   4.795   3.242   2.214
 7613SOL     OW23737   6.917   0.762   6.681
 7613SOL    HW123738   6.859   0.828   6.729
 7613SOL    HW223739   6.927   0.680   6.738
 7614SOL     OW23740   5.876   5.371   6.552
 7614SOL    HW123741   5.781   5.402   6.545
 7614SOL    HW223742   5.897   5.311   6.474
 7615SOL     OW23743   5.137   3.125   6.472
 7615SOL    HW123744   5.198   3.204   6.475
 7615SOL    HW223745   5.045   3.152   6.502
 7616SOL     OW23746   6.425   6.935   1.742
 7616SOL    HW123747   6.486   6.907   1.816
 7616SOL    HW223748   6.480   6.975   1.668
 7617SOL     OW23749   5.410   4.747   2.931
 7617SOL    HW123750   5.424   4.692   3.014
 7617SOL    HW223751   5.498   4.762   2.886
 7618SOL     OW23752   2.753   2.462   0.112
 7618SOL    HW123753   2.826   2.394   0.104
 7618SOL    HW223754   2.792   2.551   0.134
 7619SOL     OW23755   0.303   0.560   4.861
 7619SOL    HW123756   0.308   0.657   4.884
 7619SOL    HW223757   0.236   0.546   4.788
 7620SOL     OW23758   3.122   4.027   0.439
 7620SOL    HW123759   3.157   3.964   0.509
 7620SOL    HW223760   3.062   3.977   0.377
 7621SOL     OW23761   5.765   4.765   0.813
 7621SOL    HW123762   5.793   4.857   0.787
 7621SOL    HW223763   5.843   4.716   0.853
 7622SOL     OW23764   2.478   3.689   0.714
 7622SOL    HW123765   2.530   3.771   0.737
 7622SOL    HW223766   2.509   3.653   0.626
 7623SOL     OW23767   5.113   5.134   3.271
 7623SOL    HW123768   5.050   5.083   3.213
 7623SOL    HW223769   5.123   5.227   3.236
 7624SOL     OW23770   6.840   2.831   2.973
 7624SOL    HW123771   6.800   2.843   3.064
 7624SOL    HW223772   6.909   2.902   2.957
 7625SOL     OW23773   4.880   0.716   2.228
 7625SOL    HW123774   4.954   0.650   2.211
 7625SOL    HW223775   4.891   0.795   2.168
 7626SOL     OW23776   4.603   6.331   0.558
 7626SOL    HW123777   4.630   6.427   0.547
 7626SOL    HW223778   4.639   6.296   0.645
 7627SOL     OW23779   4.588   2.502   5.557
 7627SOL    HW123780   4.551   2.524   5.467
 7627SOL    HW223781   4.513   2.495   5.623
 7628SOL     OW23782   3.697   2.852   0.942
 7628SOL    HW123783   3.763   2.899   0.883
 7628SOL    HW223784   3.637   2.796   0.885
 7629SOL     OW23785   5.969   2.863   4.052
 7629SOL    HW123786   5.909   2.784   4.040
 7629SOL    HW223787   6.033   2.869   3.976
 7630SOL     OW23788   1.599   5.905   3.916
 7630SOL    HW123789   1.664   5.980   3.929
 7630SOL    HW223790   1.639   5.820   3.949
 7631SOL     OW23791   1.288   1.044   6.539
 7631SOL    HW123792   1.294   1.111   6.465
 7631SOL    HW223793   1.196   1.047   6.579
 7632SOL     OW23794   4.081   5.465   1.124
 7632SOL    HW123795   4.065   5.538   1.191
 7632SOL    HW223796   4.076   5.376   1.170
 7633SOL     OW23797   5.105   0.566   2.127
 7633SOL    HW123798   5.069   0.545   2.036
 7633SOL    HW223799   5.164   0.646   2.122
 7634SOL     OW23800   0.340   2.171   6.932
 7634SOL    HW123801   0.382   2.262   6.928
 7634SOL    HW223802   0.278   2.166   7.010
 7635SOL     OW23803   1.887   2.919   5.790
 7635SOL    HW123804   1.790   2.895   5.799
 7635SOL    HW223805   1.899   3.016   5.810
 7636SOL     OW23806   7.011   3.036   3.593
 7636SOL    HW123807   0.003   3.098   3.670
 7636SOL    HW223808   0.064   3.038   3.531
 7637SOL     OW23809   1.826   4.290   4.870
 7637SOL    HW123810   1.754   4.321   4.932
 7637SOL    HW223811   1.890   4.232   4.920
 7638SOL     OW23812   6.975   6.722   0.650
 7638SOL    HW123813   6.886   6.695   0.686
 7638SOL    HW223814   6.978   6.703   0.552
 7639SOL     OW23815   2.304   6.054   0.458
 7639SOL    HW123816   2.344   6.009   0.378
 7639SOL    HW223817   2.355   6.027   0.540
 7640SOL     OW23818   3.574   0.403   0.873
 7640SOL    HW123819   3.536   0.312   0.891
 7640SOL    HW223820   3.623   0.402   0.786
 7641SOL     OW23821   6.272   4.033   5.492
 7641SOL    HW123822   6.183   4.077   5.503
 7641SOL    HW223823   6.338   4.074   5.555
 7642SOL     OW23824   5.456   0.986   3.816
 7642SOL    HW123825   5.552   0.963   3.801
 7642SOL    HW223826   5.448   1.041   3.899
 7643SOL     OW23827   5.116   2.109   4.087
 7643SOL    HW123828   5.032   2.054   4.085
 7643SOL    HW223829   5.159   2.108   3.997
 7644SOL     OW23830   5.585   4.032   0.259
 7644SOL    HW123831   5.506   3.990   0.216
 7644SOL    HW223832   5.614   3.977   0.337
 7645SOL     OW23833   5.738   4.454   6.246
 7645SOL    HW123834   5.643   4.430   6.230
 7645SOL    HW223835   5.765   4.427   6.339
 7646SOL     OW23836   6.422   1.355   2.623
 7646SOL    HW123837   6.358   1.321   2.554
 7646SOL    HW223838   6.452   1.280   2.681
 7647SOL     OW23839   6.873   2.132   4.174
 7647SOL    HW123840   6.792   2.140   4.116
 7647SOL    HW223841   6.940   2.073   4.129
 7648SOL     OW23842   1.658   2.539   0.800
 7648SOL    HW123843   1.600   2.602   0.748
 7648SOL    HW223844   1.670   2.574   0.893
 7649SOL     OW23845   4.476   0.728   0.563
 7649SOL    HW123846   4.411   0.685   0.625
 7649SOL    HW223847   4.430   0.754   0.478
 7650SOL     OW23848   3.685   2.710   0.243
 7650SOL    HW123849   3.593   2.739   0.217
 7650SOL    HW223850   3.742   2.703   0.161
 7651SOL     OW23851   3.797   5.682   6.272
 7651SOL    HW123852   3.731   5.755   6.287
 7651SOL    HW223853   3.854   5.705   6.193
 7652SOL     OW23854   0.484   0.872   4.631
 7652SOL    HW123855   0.551   0.946   4.635
 7652SOL    HW223856   0.530   0.786   4.610
 7653SOL     OW23857   2.062   6.741   5.913
 7653SOL    HW123858   2.053   6.745   6.012
 7653SOL    HW223859   2.149   6.699   5.889
 7654SOL     OW23860   6.636   2.602   5.856
 7654SOL    HW123861   6.621   2.551   5.941
 7654SOL    HW223862   6.731   2.632   5.852
 7655SOL     OW23863   2.696   1.751   5.539
 7655SOL    HW123864   2.730   1.843   5.558
 7655SOL    HW223865   2.598   1.747   5.555
 7656SOL     OW23866   6.474   3.573   0.128
 7656SOL    HW123867   6.432   3.536   0.211
 7656SOL    HW223868   6.569   3.598   0.148
 7657SOL     OW23869   1.122   4.031   4.834
 7657SOL    HW123870   1.038   4.085   4.846
 7657SOL    HW223871   1.202   4.091   4.847
 7658SOL     OW23872   2.832   0.431   0.962
 7658SOL    HW123873   2.749   0.397   0.918
 7658SOL    HW223874   2.889   0.353   0.990
 7659SOL     OW23875   5.342   4.285   5.000
 7659SOL    HW123876   5.265   4.335   5.040
 7659SOL    HW223877   5.356   4.199   5.050
 7660SOL     OW23878   0.070   6.299   4.786
 7660SOL    HW123879   0.132   6.243   4.842
 7660SOL    HW223880   0.039   6.245   4.707
 7661SOL     OW23881   1.877   0.371   4.749
 7661SOL    HW123882   1.930   0.434   4.807
 7661SOL    HW223883   1.827   0.307   4.807
 7662SOL     OW23884   6.634   6.660   1.725
 7662SOL    HW123885   6.700   6.596   1.765
 7662SOL    HW223886   6.584   6.705   1.798
 7663SOL     OW23887   1.699   5.826   3.539
 7663SOL    HW123888   1.724   5.884   3.462
 7663SOL    HW223889   1.604   5.844   3.565
 7664SOL     OW23890   5.624   2.354   3.204
 7664SOL    HW123891   5.713   2.332   3.166
 7664SOL    HW223892   5.568   2.271   3.208
 7665SOL     OW23893   1.680   6.675   5.180
 7665SOL    HW123894   1.737   6.678   5.262
 7665SOL    HW223895   1.736   6.651   5.101
 7666SOL     OW23896   6.350   4.893   4.314
 7666SOL    HW123897   6.389   4.802   4.327
 7666SOL    HW223898   6.321   4.930   4.402
 7667SOL     OW23899   4.391   5.430   1.297
 7667SOL    HW123900   4.295   5.401   1.294
 7667SOL    HW223901   4.434   5.410   1.210
 7668SOL     OW23902   1.938   5.386   0.616
 7668SOL    HW123903   1.894   5.448   0.681
 7668SOL    HW223904   1.984   5.312   0.666
 7669SOL     OW23905   4.345   2.509   6.378
 7669SOL    HW123906   4.412   2.561   6.324
 7669SOL    HW223907   4.270   2.568   6.405
 7670SOL     OW23908   1.168   0.638   0.866
 7670SOL    HW123909   1.153   0.599   0.956
 7670SOL    HW223910   1.081   0.642   0.816
 7671SOL     OW23911   3.664   1.202   2.026
 7671SOL    HW123912   3.574   1.175   1.992
 7671SOL    HW223913   3.735   1.159   1.969
 7672SOL     OW23914   5.825   2.935   3.065
 7672SOL    HW123915   5.733   2.940   3.104
 7672SOL    HW223916   5.835   2.850   3.013
 7673SOL     OW23917   1.836   6.059   5.228
 7673SOL    HW123918   1.883   6.015   5.304
 7673SOL    HW223919   1.801   5.990   5.165
 7674SOL     OW23920   3.708   5.362   3.898
 7674SOL    HW123921   3.748   5.452   3.878
 7674SOL    HW223922   3.753   5.292   3.842
 7675SOL     OW23923   3.849   6.888   3.211
 7675SOL    HW123924   3.882   6.980   3.235
 7675SOL    HW223925   3.918   6.842   3.156
 7676SOL     OW23926   3.410   3.074   4.356
 7676SOL    HW123927   3.489   3.013   4.355
 7676SOL    HW223928   3.440   3.168   4.339
 7677SOL     OW23929   0.420   6.653   0.715
 7677SOL    HW123930   0.395   6.557   0.732
 7677SOL    HW223931   0.348   6.698   0.664
 7678SOL     OW23932   3.102   1.179   5.458
 7678SOL    HW123933   3.173   1.132   5.406
 7678SOL    HW223934   3.064   1.253   5.402
 7679SOL     OW23935   3.272   5.894   4.023
 7679SOL    HW123936   3.371   5.912   4.027
 7679SOL    HW223937   3.238   5.918   3.932
 7680SOL     OW23938   1.134   6.064   4.154
 7680SOL    HW123939   1.164   6.158   4.135
 7680SOL    HW223940   1.069   6.065   4.230
 7681SOL     OW23941   2.055   1.896   5.947
 7681SOL    HW123942   2.137   1.947   5.974
 7681SOL    HW223943   2.030   1.920   5.854
 7682SOL     OW23944   3.115   0.078   1.549
 7682SOL    HW123945   3.145   0.105   1.457
 7682SOL    HW223946   3.174   0.122   1.617
 7683SOL     OW23947   1.591   4.306   4.255
 7683SOL    HW123948   1.666   4.245   4.229
 7683SOL    HW223949   1.504   4.268   4.223
 7684SOL     OW23950   4.941   3.488   1.499
 7684SOL    HW123951   4.920   3.484   1.401
 7684SOL    HW223952   4.875   3.547   1.545
 7685SOL     OW23953   2.205   0.111   6.978
 7685SOL    HW123954   2.186   0.208   6.966
 7685SOL    HW223955   2.304   0.095   6.967
 7686SOL     OW23956   6.128   0.816   5.026
 7686SOL    HW123957   6.093   0.800   4.934
 7686SOL    HW223958   6.078   0.892   5.068
 7687SOL     OW23959   5.974   3.945   5.597
 7687SOL    HW123960   5.898   3.918   5.655
 7687SOL    HW223961   5.988   4.044   5.603
 7688SOL     OW23962   6.695   3.326   1.053
 7688SOL    HW123963   6.650   3.237   1.046
 7688SOL    HW223964   6.629   3.398   1.030
 7689SOL     OW23965   5.294   6.812   3.106
 7689SOL    HW123966   5.205   6.795   3.147
 7689SOL    HW223967   5.343   6.882   3.158
 7690SOL     OW23968   6.172   4.294   2.319
 7690SOL    HW123969   6.120   4.318   2.401
 7690SOL    HW223970   6.162   4.196   2.301
 7691SOL     OW23971   5.050   2.903   4.225
 7691SOL    HW123972   5.120   2.855   4.173
 7691SOL    HW223973   5.093   2.972   4.284
 7692SOL     OW23974   1.739   6.463   2.155
 7692SOL    HW123975   1.685   6.443   2.073
 7692SOL    HW223976   1.818   6.518   2.130
 7693SOL     OW23977   2.409   2.326   0.751
 7693SOL    HW123978   2.394   2.422   0.729
 7693SOL    HW223979   2.504   2.302   0.732
 7694SOL     OW23980   4.489   2.634   1.377
 7694SOL    HW123981   4.393   2.613   1.398
 7694SOL    HW223982   4.543   2.628   1.460
 7695SOL     OW23983   5.191   6.634   4.014
 7695SOL    HW123984   5.263   6.681   3.963
 7695SOL    HW223985   5.144   6.569   3.953
 7696SOL     OW23986   2.335   1.086   5.623
 7696SOL    HW123987   2.321   1.071   5.525
 7696SOL    HW223988   2.246   1.101   5.667
 7697SOL     OW23989   5.820   6.866   3.064
 7697SOL    HW123990   5.851   6.886   2.971
 7697SOL    HW223991   5.899   6.851   3.123
 7698SOL     OW23992   5.852   1.948   1.485
 7698SOL    HW123993   5.867   1.853   1.457
 7698SOL    HW223994   5.841   2.005   1.404
 7699SOL     OW23995   4.024   5.740   6.055
 7699SOL    HW123996   4.111   5.717   6.011
 7699SOL    HW223997   3.953   5.749   5.986
 7700SOL     OW23998   5.887   4.682   1.583
 7700SOL    HW123999   5.874   4.684   1.683
 7700SOL    HW224000   5.886   4.775   1.547
 7701SOL     OW24001   3.217   1.914   6.339
 7701SOL    HW124002   3.276   1.864   6.275
 7701SOL    HW224003   3.122   1.890   6.323
 7702SOL     OW24004   5.844   6.675   5.854
 7702SOL    HW124005   5.902   6.742   5.808
 7702SOL    HW224006   5.899   6.626   5.923
 7703SOL     OW24007   0.518   6.186   6.985
 7703SOL    HW124008   0.567   6.272   6.997
 7703SOL    HW224009   0.552   6.138   6.904
 7704SOL     OW24010   1.549   2.561   4.691
 7704SOL    HW124011   1.545   2.475   4.640
 7704SOL    HW224012   1.644   2.584   4.711
 7705SOL     OW24013   1.015   4.295   0.565
 7705SOL    HW124014   1.069   4.357   0.622
 7705SOL    HW224015   1.027   4.318   0.469
 7706SOL     OW24016   3.477   3.708   1.943
 7706SOL    HW124017   3.520   3.626   1.907
 7706SOL    HW224018   3.431   3.687   2.030
 7707SOL     OW24019   6.875   5.480   5.623
 7707SOL    HW124020   6.956   5.524   5.661
 7707SOL    HW224021   6.859   5.512   5.530
 7708SOL     OW24022   0.818   0.296   3.640
 7708SOL    HW124023   0.731   0.246   3.634
 7708SOL    HW224024   0.800   0.392   3.659
 7709SOL     OW24025   6.555   4.568   1.293
 7709SOL    HW124026   6.581   4.492   1.234
 7709SOL    HW224027   6.466   4.549   1.335
 7710SOL     OW24028   6.142   3.601   2.726
 7710SOL    HW124029   6.070   3.573   2.663
 7710SOL    HW224030   6.114   3.684   2.774
 7711SOL     OW24031   1.177   4.746   3.232
 7711SOL    HW124032   1.256   4.685   3.233
 7711SOL    HW224033   1.120   4.727   3.152
 7712SOL     OW24034   1.117   4.361   4.608
 7712SOL    HW124035   1.068   4.301   4.672
 7712SOL    HW224036   1.135   4.449   4.653
 7713SOL     OW24037   0.558   5.857   0.018
 7713SOL    HW124038   0.492   5.857   6.968
 7713SOL    HW224039   0.515   5.894   0.100
 7714SOL     OW24040   5.703   1.703   4.739
 7714SOL    HW124041   5.788   1.668   4.777
 7714SOL    HW224042   5.717   1.797   4.706
 7715SOL     OW24043   4.056   3.887   6.521
 7715SOL    HW124044   4.010   3.969   6.555
 7715SOL    HW224045   4.086   3.831   6.597
 7716SOL     OW24046   1.817   0.785   0.098
 7716SOL    HW124047   1.720   0.787   0.075
 7716SOL    HW224048   1.834   0.848   0.174
 7717SOL     OW24049   0.604   1.927   5.960
 7717SOL    HW124050   0.700   1.928   5.987
 7717SOL    HW224051   0.547   1.909   6.041
 7718SOL     OW24052   0.598   3.645   3.712
 7718SOL    HW124053   0.523   3.694   3.669
 7718SOL    HW224054   0.683   3.697   3.702
 7719SOL     OW24055   2.370   6.561   5.012
 7719SOL    HW124056   2.456   6.606   4.990
 7719SOL    HW224057   2.375   6.521   5.103
 7720SOL     OW24058   4.434   0.838   6.121
 7720SOL    HW124059   4.344   0.860   6.085
 7720SOL    HW224060   4.445   0.878   6.212
 7721SOL     OW24061   5.332   5.996   2.489
 7721SOL    HW124062   5.406   6.006   2.423
 7721SOL    HW224063   5.256   6.056   2.464
 7722SOL     OW24064   0.091   6.452   4.543
 7722SOL    HW124065   0.120   6.386   4.612
 7722SOL    HW224066   0.154   6.449   4.466
 7723SOL     OW24067   3.800   4.459   6.279
 7723SOL    HW124068   3.801   4.432   6.375
 7723SOL    HW224069   3.709   4.490   6.253
 7724SOL     OW24070   1.076   4.110   6.715
 7724SOL    HW124071   1.175   4.105   6.728
 7724SOL    HW224072   1.056   4.105   6.617
 7725SOL     OW24073   5.355   3.075   4.791
 7725SOL    HW124074   5.345   3.166   4.750
 7725SOL    HW224075   5.297   3.010   4.742
 7726SOL     OW24076   1.574   3.015   0.659
 7726SOL    HW124077   1.591   2.999   0.756
 7726SOL    HW224078   1.660   3.040   0.614
 7727SOL     OW24079   6.016   0.176   3.130
 7727SOL    HW124080   6.001   0.231   3.212
 7727SOL    HW224081   6.083   0.104   3.151
 7728SOL     OW24082   2.131   3.182   5.551
 7728SOL    HW124083   2.165   3.088   5.542
 7728SOL    HW224084   2.064   3.186   5.626
 7729SOL     OW24085   0.351   0.838   3.052
 7729SOL    HW124086   0.351   0.808   2.956
 7729SOL    HW224087   0.257   0.849   3.083
 7730SOL     OW24088   5.953   3.300   6.653
 7730SOL    HW124089   5.922   3.205   6.662
 7730SOL    HW224090   6.004   3.310   6.567
 7731SOL     OW24091   0.219   0.922   5.778
 7731SOL    HW124092   0.310   0.906   5.739
 7731SOL    HW224093   0.163   0.841   5.765
 7732SOL     OW24094   3.920   1.054   0.313
 7732SOL    HW124095   3.908   1.146   0.349
 7732SOL    HW224096   3.892   1.052   0.217
 7733SOL     OW24097   5.629   6.018   1.498
 7733SOL    HW124098   5.588   6.095   1.448
 7733SOL    HW224099   5.693   6.053   1.566
 7734SOL     OW24100   3.350   3.945   3.963
 7734SOL    HW124101   3.295   3.982   4.038
 7734SOL    HW224102   3.388   3.856   3.990
 7735SOL     OW24103   0.718   5.327   1.034
 7735SOL    HW124104   0.669   5.405   1.072
 7735SOL    HW224105   0.812   5.354   1.010
 7736SOL     OW24106   2.113   1.719   0.830
 7736SOL    HW124107   2.172   1.648   0.791
 7736SOL    HW224108   2.075   1.688   0.916
 7737SOL     OW24109   4.915   4.435   6.249
 7737SOL    HW124110   4.822   4.418   6.282
 7737SOL    HW224111   4.919   4.418   6.151
 7738SOL     OW24112   2.025   0.935   5.438
 7738SOL    HW124113   1.976   0.947   5.524
 7738SOL    HW224114   2.015   0.841   5.406
 7739SOL     OW24115   0.651   2.929   6.285
 7739SOL    HW124116   0.738   2.964   6.250
 7739SOL    HW224117   0.595   3.005   6.317
 7740SOL     OW24118   2.302   0.472   3.903
 7740SOL    HW124119   2.358   0.520   3.971
 7740SOL    HW224120   2.228   0.422   3.949
 7741SOL     OW24121   6.112   4.445   6.219
 7741SOL    HW124122   6.115   4.352   6.182
 7741SOL    HW224123   6.193   4.496   6.189
 7742SOL     OW24124   4.724   2.654   3.779
 7742SOL    HW124125   4.675   2.576   3.816
 7742SOL    HW224126   4.783   2.624   3.704
 7743SOL     OW24127   3.584   1.035   6.195
 7743SOL    HW124128   3.641   1.031   6.113
 7743SOL    HW224129   3.489   1.050   6.169
 7744SOL     OW24130   7.025   5.976   4.677
 7744SOL    HW124131   6.943   5.944   4.724
 7744SOL    HW224132   6.999   6.033   4.599
 7745SOL     OW24133   2.986   0.300   0.419
 7745SOL    HW124134   3.016   0.234   0.489
 7745SOL    HW224135   3.018   0.391   0.444
 7746SOL     OW24136   6.720   6.012   0.978
 7746SOL    HW124137   6.770   6.095   1.005
 7746SOL    HW224138   6.640   6.039   0.925
 7747SOL     OW24139   6.818   5.919   0.716
 7747SOL    HW124140   6.904   5.924   0.666
 7747SOL    HW224141   6.831   5.868   0.801
 7748SOL     OW24142   4.466   1.350   5.889
 7748SOL    HW124143   4.416   1.434   5.866
 7748SOL    HW224144   4.435   1.276   5.830
 7749SOL     OW24145   2.962   3.836   2.764
 7749SOL    HW124146   2.983   3.791   2.677
 7749SOL    HW224147   2.985   3.774   2.840
 7750SOL     OW24148   5.426   3.969   5.803
 7750SOL    HW124149   5.340   3.956   5.753
 7750SOL    HW224150   5.414   3.942   5.898
 7751SOL     OW24151   0.398   1.694   4.394
 7751SOL    HW124152   0.321   1.693   4.330
 7751SOL    HW224153   0.441   1.604   4.396
 7752SOL     OW24154   5.555   4.173   6.119
 7752SOL    HW124155   5.563   4.181   6.020
 7752SOL    HW224156   5.479   4.229   6.151
 7753SOL     OW24157   2.113   1.147   4.973
 7753SOL    HW124158   2.103   1.219   4.905
 7753SOL    HW224159   2.200   1.159   5.022
 7754SOL     OW24160   6.755   1.370   0.338
 7754SOL    HW124161   6.851   1.399   0.334
 7754SOL    HW224162   6.722   1.377   0.432
 7755SOL     OW24163   1.448   6.280   5.432
 7755SOL    HW124164   1.420   6.338   5.355
 7755SOL    HW224165   1.548   6.269   5.430
 7756SOL     OW24166   3.547   6.694   2.975
 7756SOL    HW124167   3.505   6.604   2.988
 7756SOL    HW224168   3.597   6.720   3.058
 7757SOL     OW24169   3.401   1.338   5.378
 7757SOL    HW124170   3.362   1.405   5.315
 7757SOL    HW224171   3.399   1.374   5.471
 7758SOL     OW24172   2.759   1.195   6.236
 7758SOL    HW124173   2.699   1.141   6.295
 7758SOL    HW224174   2.842   1.143   6.217
 7759SOL     OW24175   2.235   6.856   4.583
 7759SOL    HW124176   2.187   6.796   4.647
 7759SOL    HW224177   2.198   6.842   4.491
 7760SOL     OW24178   5.366   1.780   2.666
 7760SOL    HW124179   5.463   1.798   2.648
 7760SOL    HW224180   5.313   1.862   2.648
 7761SOL     OW24181   4.654   0.767   6.844
 7761SOL    HW124182   4.654   0.669   6.863
 7761SOL    HW224183   4.648   0.817   6.931
 7762SOL     OW24184   1.803   2.120   0.886
 7762SOL    HW124185   1.831   2.195   0.826
 7762SOL    HW224186   1.788   2.038   0.832
 7763SOL     OW24187   2.040   2.931   0.714
 7763SOL    HW124188   2.099   2.990   0.770
 7763SOL    HW224189   2.011   2.853   0.769
 7764SOL     OW24190   3.627   3.515   2.130
 7764SOL    HW124191   3.589   3.467   2.209
 7764SOL    HW224192   3.694   3.582   2.160
 7765SOL     OW24193   0.701   1.766   2.026
 7765SOL    HW124194   0.670   1.862   2.022
 7765SOL    HW224195   0.756   1.753   2.108
 7766SOL     OW24196   6.745   3.554   0.171
 7766SOL    HW124197   6.797   3.609   0.236
 7766SOL    HW224198   6.807   3.519   0.101
 7767SOL     OW24199   6.173   3.921   4.902
 7767SOL    HW124200   6.269   3.902   4.925
 7767SOL    HW224201   6.163   3.930   4.803
 7768SOL     OW24202   4.178   5.228   1.345
 7768SOL    HW124203   4.175   5.176   1.259
 7768SOL    HW224204   4.091   5.215   1.394
 7769SOL     OW24205   4.832   1.397   3.814
 7769SOL    HW124206   4.826   1.447   3.900
 7769SOL    HW224207   4.894   1.320   3.823
 7770SOL     OW24208   2.859   6.589   1.023
 7770SOL    HW124209   2.894   6.593   0.929
 7770SOL    HW224210   2.826   6.679   1.050
 7771SOL     OW24211   2.330   0.693   4.403
 7771SOL    HW124212   2.260   0.658   4.465
 7771SOL    HW224213   2.362   0.618   4.345
 7772SOL     OW24214   5.537   0.881   5.930
 7772SOL    HW124215   5.550   0.972   5.889
 7772SOL    HW224216   5.440   0.859   5.932
 7773SOL     OW24217   4.363   4.726   6.115
 7773SOL    HW124218   4.356   4.627   6.103
 7773SOL    HW224219   4.352   4.771   6.026
 7774SOL     OW24220   4.111   1.452   0.250
 7774SOL    HW124221   4.045   1.389   0.290
 7774SOL    HW224222   4.100   1.453   0.150
 7775SOL     OW24223   0.864   6.438   1.532
 7775SOL    HW124224   0.902   6.345   1.531
 7775SOL    HW224225   0.801   6.449   1.455
 7776SOL     OW24226   2.974   4.384   1.044
 7776SOL    HW124227   3.048   4.444   1.076
 7776SOL    HW224228   2.954   4.405   0.948
 7777SOL     OW24229   0.373   0.572   6.810
 7777SOL    HW124230   0.322   0.486   6.810
 7777SOL    HW224231   0.351   0.623   6.726
 7778SOL     OW24232   5.134   2.352   2.690
 7778SOL    HW124233   5.079   2.419   2.641
 7778SOL    HW224234   5.094   2.335   2.780
 7779SOL     OW24235   4.661   3.028   0.155
 7779SOL    HW124236   4.668   3.049   0.057
 7779SOL    HW224237   4.567   3.003   0.177
 7780SOL     OW24238   1.827   0.504   4.356
 7780SOL    HW124239   1.847   0.563   4.434
 7780SOL    HW224240   1.806   0.560   4.276
 7781SOL     OW24241   2.563   3.972   5.540
 7781SOL    HW124242   2.474   3.962   5.585
 7781SOL    HW224243   2.551   4.023   5.454
 7782SOL     OW24244   4.957   4.616   0.038
 7782SOL    HW124245   5.019   4.544   0.069
 7782SOL    HW224246   4.981   4.643   6.970
 7783SOL     OW24247   3.446   6.142   6.788
 7783SOL    HW124248   3.356   6.143   6.831
 7783SOL    HW224249   3.462   6.230   6.742
 7784SOL     OW24250   6.614   3.283   0.182
 7784SOL    HW124251   6.667   3.359   0.218
 7784SOL    HW224252   6.537   3.320   0.129
 7785SOL     OW24253   1.586   6.529   6.084
 7785SOL    HW124254   1.498   6.570   6.107
 7785SOL    HW224255   1.634   6.588   6.019
 7786SOL     OW24256   4.108   4.013   5.293
 7786SOL    HW124257   4.078   3.956   5.216
 7786SOL    HW224258   4.203   3.991   5.315
 7787SOL     OW24259   3.255   2.040   5.630
 7787SOL    HW124260   3.280   2.027   5.726
 7787SOL    HW224261   3.284   1.960   5.577
 7788SOL     OW24262   6.883   2.379   1.295
 7788SOL    HW124263   6.938   2.344   1.370
 7788SOL    HW224264   6.870   2.307   1.227
 7789SOL     OW24265   0.586   0.463   1.643
 7789SOL    HW124266   0.587   0.395   1.570
 7789SOL    HW224267   0.651   0.437   1.715
 7790SOL     OW24268   0.114   3.656   2.999
 7790SOL    HW124269   0.173   3.679   2.921
 7790SOL    HW224270   0.087   3.740   3.046
 7791SOL     OW24271   6.834   5.753   6.098
 7791SOL    HW124272   6.905   5.816   6.129
 7791SOL    HW224273   6.746   5.778   6.139
 7792SOL     OW24274   1.355   5.951   6.701
 7792SOL    HW124275   1.392   5.868   6.742
 7792SOL    HW224276   1.283   5.989   6.760
 7793SOL     OW24277   2.394   0.108   6.404
 7793SOL    HW124278   2.388   0.181   6.335
 7793SOL    HW224279   2.381   0.148   6.495
 7794SOL     OW24280   5.070   4.602   2.705
 7794SOL    HW124281   5.053   4.679   2.643
 7794SOL    HW224282   5.144   4.545   2.668
 7795SOL     OW24283   2.372   3.957   6.306
 7795SOL    HW124284   2.356   4.056   6.304
 7795SOL    HW224285   2.414   3.928   6.220
 7796SOL     OW24286   4.043   3.659   3.653
 7796SOL    HW124287   4.031   3.692   3.559
 7796SOL    HW224288   4.031   3.735   3.717
 7797SOL     OW24289   1.468   5.976   3.680
 7797SOL    HW124290   1.407   6.048   3.715
 7797SOL    HW224291   1.531   5.948   3.752
 7798SOL     OW24292   5.209   5.333   6.005
 7798SOL    HW124293   5.177   5.329   5.910
 7798SOL    HW224294   5.154   5.400   6.055
 7799SOL     OW24295   5.629   5.932   1.187
 7799SOL    HW124296   5.537   5.966   1.166
 7799SOL    HW224297   5.649   5.949   1.284
 7800SOL     OW24298   0.737   6.429   2.520
 7800SOL    HW124299   0.831   6.404   2.544
 7800SOL    HW224300   0.728   6.435   2.421
 7801SOL     OW24301   4.286   2.370   5.490
 7801SOL    HW124302   4.267   2.466   5.511
 7801SOL    HW224303   4.306   2.320   5.574
 7802SOL     OW24304   5.853   2.300   6.467
 7802SOL    HW124305   5.952   2.305   6.459
 7802SOL    HW224306   5.811   2.324   6.379
 7803SOL     OW24307   3.435   3.053   6.308
 7803SOL    HW124308   3.512   3.007   6.352
 7803SOL    HW224309   3.433   3.149   6.336
 7804SOL     OW24310   4.796   0.875   5.639
 7804SOL    HW124311   4.845   0.816   5.575
 7804SOL    HW224312   4.853   0.892   5.719
 7805SOL     OW24313   5.275   2.976   1.802
 7805SOL    HW124314   5.296   3.073   1.789
 7805SOL    HW224315   5.218   2.944   1.726
 7806SOL     OW24316   5.242   2.508   0.592
 7806SOL    HW124317   5.259   2.552   0.681
 7806SOL    HW224318   5.309   2.541   0.526
 7807SOL     OW24319   0.827   4.411   6.571
 7807SOL    HW124320   0.844   4.313   6.581
 7807SOL    HW224321   0.882   4.447   6.495
 7808SOL     OW24322   0.072   1.961   4.477
 7808SOL    HW124323   0.116   1.944   4.565
 7808SOL    HW224324   0.039   1.875   4.439
 7809SOL     OW24325   1.268   5.838   5.721
 7809SOL    HW124326   1.358   5.875   5.698
 7809SOL    HW224327   1.275   5.739   5.734
 7810SOL     OW24328   3.111   1.460   0.124
 7810SOL    HW124329   3.186   1.407   0.084
 7810SOL    HW224330   3.139   1.497   0.213
 7811SOL     OW24331   6.412   4.517   5.179
 7811SOL    HW124332   6.463   4.526   5.094
 7811SOL    HW224333   6.404   4.420   5.204
 7812SOL     OW24334   1.101   1.718   3.762
 7812SOL    HW124335   1.056   1.697   3.676
 7812SOL    HW224336   1.049   1.789   3.811
 7813SOL     OW24337   5.576   1.248   1.495
 7813SOL    HW124338   5.532   1.161   1.518
 7813SOL    HW224339   5.532   1.322   1.546
 7814SOL     OW24340   1.917   2.964   3.740
 7814SOL    HW124341   1.941   2.868   3.757
 7814SOL    HW224342   1.997   3.012   3.704
 7815SOL     OW24343   6.754   2.192   5.175
 7815SOL    HW124344   6.752   2.254   5.097
 7815SOL    HW224345   6.819   2.226   5.243
 7816SOL     OW24346   0.079   4.488   5.042
 7816SOL    HW124347   0.038   4.445   5.123
 7816SOL    HW224348   0.175   4.508   5.060
 7817SOL     OW24349   5.440   2.931   5.659
 7817SOL    HW124350   5.464   2.958   5.566
 7817SOL    HW224351   5.445   2.831   5.666
 7818SOL     OW24352   6.197   2.825   3.376
 7818SOL    HW124353   6.133   2.768   3.325
 7818SOL    HW224354   6.146   2.890   3.433
 7819SOL     OW24355   1.647   1.458   0.685
 7819SOL    HW124356   1.736   1.498   0.706
 7819SOL    HW224357   1.579   1.530   0.673
 7820SOL     OW24358   2.669   6.559   5.346
 7820SOL    HW124359   2.691   6.538   5.251
 7820SOL    HW224360   2.753   6.575   5.398
 7821SOL     OW24361   2.941   5.953   1.143
 7821SOL    HW124362   2.853   5.942   1.189
 7821SOL    HW224363   2.950   6.047   1.111
 7822SOL     OW24364   0.652   6.603   5.038
 7822SOL    HW124365   0.559   6.579   5.011
 7822SOL    HW224366   0.716   6.537   4.999
 7823SOL     OW24367   2.244   3.457   5.868
 7823SOL    HW124368   2.230   3.541   5.921
 7823SOL    HW224369   2.291   3.480   5.782
 7824SOL     OW24370   0.935   3.602   5.488
 7824SOL    HW124371   1.026   3.583   5.449
 7824SOL    HW224372   0.866   3.588   5.418
 7825SOL     OW24373   2.108   0.847   0.100
 7825SOL    HW124374   2.010   0.828   0.106
 7825SOL    HW224375   2.127   0.896   0.015
 7826SOL     OW24376   0.403   4.392   5.900
 7826SOL    HW124377   0.491   4.412   5.943
 7826SOL    HW224378   0.329   4.421   5.960
 7827SOL     OW24379   6.041   4.855   3.278
 7827SOL    HW124380   6.111   4.925   3.267
 7827SOL    HW224381   6.051   4.810   3.366
 7828SOL     OW24382   1.121   6.044   5.625
 7828SOL    HW124383   1.043   6.022   5.567
 7828SOL    HW224384   1.175   5.962   5.641
 7829SOL     OW24385   4.403   4.925   1.141
 7829SOL    HW124386   4.466   5.003   1.142
 7829SOL    HW224387   4.438   4.855   1.079
 7830SOL     OW24388   1.659   5.473   4.181
 7830SOL    HW124389   1.705   5.494   4.267
 7830SOL    HW224390   1.702   5.393   4.139
 7831SOL     OW24391   1.609   0.047   6.878
 7831SOL    HW124392   1.702   0.012   6.888
 7831SOL    HW224393   1.554   0.019   6.957
 7832SOL     OW24394   0.261   0.808   5.011
 7832SOL    HW124395   0.243   0.796   5.109
 7832SOL    HW224396   0.174   0.811   4.962
 7833SOL     OW24397   0.951   0.526   2.886
 7833SOL    HW124398   0.880   0.487   2.827
 7833SOL    HW224399   1.032   0.466   2.885
 7834SOL     OW24400   0.888   3.267   4.739
 7834SOL    HW124401   0.885   3.367   4.748
 7834SOL    HW224402   0.918   3.226   4.825
 7835SOL     OW24403   3.407   3.095   5.730
 7835SOL    HW124404   3.357   3.104   5.816
 7835SOL    HW224405   3.364   3.154   5.661
 7836SOL     OW24406   2.994   3.632   4.891
 7836SOL    HW124407   3.044   3.582   4.820
 7836SOL    HW224408   2.935   3.569   4.942
 7837SOL     OW24409   0.341   5.782   0.343
 7837SOL    HW124410   0.329   5.880   0.360
 7837SOL    HW224411   0.306   5.759   0.253
 7838SOL     OW24412   3.965   4.709   0.900
 7838SOL    HW124413   3.956   4.715   0.800
 7838SOL    HW224414   3.930   4.793   0.941
 7839SOL     OW24415   5.697   3.732   4.143
 7839SOL    HW124416   5.694   3.778   4.232
 7839SOL    HW224417   5.691   3.633   4.157
 7840SOL     OW24418   2.364   2.085   3.518
 7840SOL    HW124419   2.370   2.128   3.428
 7840SOL    HW224420   2.451   2.042   3.541
 7841SOL     OW24421   4.189   2.439   6.048
 7841SOL    HW124422   4.170   2.370   5.979
 7841SOL    HW224423   4.189   2.530   6.006
 7842SOL     OW24424   0.771   0.189   1.099
 7842SOL    HW124425   0.800   0.169   1.193
 7842SOL    HW224426   0.791   0.111   1.040
 7843SOL     OW24427   6.425   6.146   2.196
 7843SOL    HW124428   6.446   6.058   2.239
 7843SOL    HW224429   6.486   6.216   2.232
 7844SOL     OW24430   2.942   6.671   2.133
 7844SOL    HW124431   2.897   6.681   2.044
 7844SOL    HW224432   3.017   6.736   2.139
 7845SOL     OW24433   0.014   3.439   1.914
 7845SOL    HW124434   0.095   3.388   1.884
 7845SOL    HW224435   0.041   3.507   1.981
 7846SOL     OW24436   0.352   1.950   0.473
 7846SOL    HW124437   0.370   1.923   0.567
 7846SOL    HW224438   0.436   1.982   0.430
 7847SOL     OW24439   5.695   3.874   5.719
 7847SOL    HW124440   5.645   3.896   5.803
 7847SOL    HW224441   5.743   3.787   5.731
 7848SOL     OW24442   5.075   5.153   0.141
 7848SOL    HW124443   5.048   5.069   0.093
 7848SOL    HW224444   5.127   5.129   0.223
 7849SOL     OW24445   4.796   5.241   6.682
 7849SOL    HW124446   4.865   5.201   6.622
 7849SOL    HW224447   4.777   5.335   6.653
 7850SOL     OW24448   6.756   0.835   3.484
 7850SOL    HW124449   6.830   0.881   3.533
 7850SOL    HW224450   6.794   0.791   3.402
 7851SOL     OW24451   1.200   3.797   0.595
 7851SOL    HW124452   1.164   3.888   0.578
 7851SOL    HW224453   1.207   3.747   0.509
 7852SOL     OW24454   1.581   3.288   5.707
 7852SOL    HW124455   1.633   3.367   5.739
 7852SOL    HW224456   1.602   3.270   5.611
 7853SOL     OW24457   4.465   3.146   1.664
 7853SOL    HW124458   4.435   3.072   1.605
 7853SOL    HW224459   4.504   3.108   1.748
 7854SOL     OW24460   4.048   1.100   1.433
 7854SOL    HW124461   4.002   1.141   1.354
 7854SOL    HW224462   3.997   1.019   1.462
 7855SOL     OW24463   5.164   6.037   3.426
 7855SOL    HW124464   5.135   6.035   3.330
 7855SOL    HW224465   5.133   5.953   3.471
 7856SOL     OW24466   2.120   6.242   6.460
 7856SOL    HW124467   2.051   6.262   6.390
 7856SOL    HW224468   2.129   6.143   6.471
 7857SOL     OW24469   6.909   4.629   0.199
 7857SOL    HW124470   6.846   4.560   0.163
 7857SOL    HW224471   6.860   4.686   0.265
 7858SOL     OW24472   0.282   4.279   6.647
 7858SOL    HW124473   0.288   4.198   6.588
 7858SOL    HW224474   0.371   4.323   6.653
 7859SOL     OW24475   4.815   2.498   1.785
 7859SOL    HW124476   4.770   2.550   1.858
 7859SOL    HW224477   4.827   2.404   1.814
 7860SOL     OW24478   2.797   1.970   3.037
 7860SOL    HW124479   2.721   2.023   3.075
 7860SOL    HW224480   2.806   1.990   2.939
 7861SOL     OW24481   1.695   5.632   0.400
 7861SOL    HW124482   1.722   5.715   0.449
 7861SOL    HW224483   1.604   5.644   0.362
 7862SOL     OW24484   0.816   0.519   6.709
 7862SOL    HW124485   0.734   0.564   6.745
 7862SOL    HW224486   0.891   0.531   6.774
 7863SOL     OW24487   0.652   4.984   3.939
 7863SOL    HW124488   0.559   4.949   3.934
 7863SOL    HW224489   0.673   5.036   3.855
 7864SOL     OW24490   3.103   5.539   4.997
 7864SOL    HW124491   3.008   5.534   4.965
 7864SOL    HW224492   3.103   5.539   5.097
 7865SOL     OW24493   6.542   5.397   3.942
 7865SOL    HW124494   6.517   5.300   3.942
 7865SOL    HW224495   6.499   5.442   3.864
 7866SOL     OW24496   1.195   0.962   5.307
 7866SOL    HW124497   1.212   0.913   5.222
 7866SOL    HW224498   1.099   0.989   5.312
 7867SOL     OW24499   4.629   6.076   2.248
 7867SOL    HW124500   4.655   5.997   2.304
 7867SOL    HW224501   4.638   6.160   2.302
 7868SOL     OW24502   4.138   6.219   1.401
 7868SOL    HW124503   4.200   6.214   1.479
 7868SOL    HW224504   4.099   6.129   1.383
 7869SOL     OW24505   5.724   5.011   0.136
 7869SOL    HW124506   5.650   4.949   0.162
 7869SOL    HW224507   5.717   5.095   0.189
 7870SOL     OW24508   6.863   0.679   3.295
 7870SOL    HW124509   6.805   0.601   3.268
 7870SOL    HW224510   6.959   0.658   3.273
 7871SOL     OW24511   4.921   0.465   0.653
 7871SOL    HW124512   4.912   0.552   0.700
 7871SOL    HW224513   4.871   0.394   0.703
 7872SOL     OW24514   6.735   5.256   3.770
 7872SOL    HW124515   6.650   5.214   3.803
 7872SOL    HW224516   6.794   5.277   3.847
 7873SOL     OW24517   4.993   2.262   6.647
 7873SOL    HW124518   4.935   2.260   6.728
 7873SOL    HW224519   5.055   2.341   6.652
 7874SOL     OW24520   6.206   2.030   0.752
 7874SOL    HW124521   6.192   2.015   0.654
 7874SOL    HW224522   6.248   2.120   0.766
 7875SOL     OW24523   6.488   5.093   0.106
 7875SOL    HW124524   6.553   5.017   0.097
 7875SOL    HW224525   6.432   5.099   0.023
 7876SOL     OW24526   1.094   6.711   2.618
 7876SOL    HW124527   1.051   6.782   2.563
 7876SOL    HW224528   1.186   6.740   2.644
 7877SOL     OW24529   0.990   2.996   1.948
 7877SOL    HW124530   0.897   2.968   1.972
 7877SOL    HW224531   1.025   2.937   1.876
 7878SOL     OW24532   3.974   0.562   2.296
 7878SOL    HW124533   4.053   0.602   2.343
 7878SOL    HW224534   3.912   0.523   2.364
 7879SOL     OW24535   2.607   5.931   1.830
 7879SOL    HW124536   2.619   6.030   1.834
 7879SOL    HW224537   2.679   5.887   1.884
 7880SOL     OW24538   1.505   5.011   2.665
 7880SOL    HW124539   1.470   4.918   2.660
 7880SOL    HW224540   1.601   5.012   2.634
 7881SOL     OW24541   4.710   2.832   3.033
 7881SOL    HW124542   4.728   2.737   3.010
 7881SOL    HW224543   4.659   2.875   2.958
 7882SOL     OW24544   0.009   2.661   0.296
 7882SOL    HW124545   6.983   2.608   0.228
 7882SOL    HW224546   0.102   2.625   0.303
 7883SOL     OW24547   0.397   0.235   4.741
 7883SOL    HW124548   0.406   0.154   4.799
 7883SOL    HW224549   0.435   0.314   4.788
 7884SOL     OW24550   1.317   3.037   3.917
 7884SOL    HW124551   1.219   3.019   3.914
 7884SOL    HW224552   1.365   2.957   3.951
 7885SOL     OW24553   6.575   6.019   0.238
 7885SOL    HW124554   6.477   6.014   0.259
 7885SOL    HW224555   6.625   5.961   0.302
 7886SOL     OW24556   4.906   3.440   0.113
 7886SOL    HW124557   4.880   3.394   0.197
 7886SOL    HW224558   4.950   3.527   0.134
 7887SOL     OW24559   4.335   1.818   6.314
 7887SOL    HW124560   4.274   1.863   6.380
 7887SOL    HW224561   4.285   1.799   6.230
 7888SOL     OW24562   4.316   6.015   4.248
 7888SOL    HW124563   4.316   6.047   4.154
 7888SOL    HW224564   4.254   5.937   4.257
 7889SOL     OW24565   6.489   4.427   3.548
 7889SOL    HW124566   6.579   4.411   3.589
 7889SOL    HW224567   6.480   4.524   3.525
 7890SOL     OW24568   2.177   4.176   3.288
 7890SOL    HW124569   2.257   4.230   3.312
 7890SOL    HW224570   2.099   4.237   3.272
 7891SOL     OW24571   0.098   4.269   2.796
 7891SOL    HW124572   0.095   4.311   2.887
 7891SOL    HW224573   0.069   4.336   2.728
 7892SOL     OW24574   2.401   2.684   4.571
 7892SOL    HW124575   2.326   2.620   4.587
 7892SOL    HW224576   2.369   2.777   4.587
 7893SOL     OW24577   5.017   6.123   1.531
 7893SOL    HW124578   5.101   6.075   1.508
 7893SOL    HW224579   5.002   6.119   1.629
 7894SOL     OW24580   2.894   0.090   0.889
 7894SOL    HW124581   2.869   0.003   0.931
 7894SOL    HW224582   2.959   0.138   0.947
 7895SOL     OW24583   1.219   1.944   4.643
 7895SOL    HW124584   1.121   1.948   4.659
 7895SOL    HW224585   1.237   1.942   4.544
 7896SOL     OW24586   3.702   1.733   7.010
 7896SOL    HW124587   3.745   1.664   0.042
 7896SOL    HW224588   3.767   1.762   6.939
 7897SOL     OW24589   3.264   3.866   0.618
 7897SOL    HW124590   3.212   3.790   0.656
 7897SOL    HW224591   3.330   3.898   0.686
 7898SOL     OW24592   5.424   0.841   4.509
 7898SOL    HW124593   5.508   0.807   4.466
 7898SOL    HW224594   5.349   0.779   4.490
 7899SOL     OW24595   4.481   0.737   1.706
 7899SOL    HW124596   4.418   0.775   1.773
 7899SOL    HW224597   4.472   0.785   1.619
 7900SOL     OW24598   0.159   5.876   1.261
 7900SOL    HW124599   0.225   5.804   1.283
 7900SOL    HW224600   0.193   5.964   1.295
 7901SOL     OW24601   5.660   4.878   1.223
 7901SOL    HW124602   5.661   4.888   1.123
 7901SOL    HW224603   5.604   4.800   1.248
 7902SOL     OW24604   4.590   5.102   6.328
 7902SOL    HW124605   4.619   5.007   6.339
 7902SOL    HW224606   4.509   5.120   6.384
 7903SOL     OW24607   1.264   2.279   2.128
 7903SOL    HW124608   1.230   2.308   2.038
 7903SOL    HW224609   1.240   2.183   2.143
 7904SOL     OW24610   5.449   1.788   3.497
 7904SOL    HW124611   5.396   1.755   3.419
 7904SOL    HW224612   5.523   1.723   3.516
 7905SOL     OW24613   2.558   2.220   1.630
 7905SOL    HW124614   2.657   2.226   1.646
 7905SOL    HW224615   2.511   2.204   1.717
 7906SOL     OW24616   1.548   4.118   6.651
 7906SOL    HW124617   1.507   4.031   6.680
 7906SOL    HW224618   1.647   4.112   6.660
 7907SOL     OW24619   0.481   2.688   3.173
 7907SOL    HW124620   0.518   2.781   3.176
 7907SOL    HW224621   0.555   2.622   3.181
 7908SOL     OW24622   0.905   0.821   3.335
 7908SOL    HW124623   0.805   0.815   3.324
 7908SOL    HW224624   0.927   0.828   3.433
 7909SOL     OW24625   3.823   5.640   5.170
 7909SOL    HW124626   3.835   5.551   5.213
 7909SOL    HW224627   3.753   5.691   5.218
 7910SOL     OW24628   6.264   3.252   5.843
 7910SOL    HW124629   6.306   3.224   5.930
 7910SOL    HW224630   6.165   3.250   5.851
 7911SOL     OW24631   6.758   5.899   6.568
 7911SOL    HW124632   6.687   5.848   6.617
 7911SOL    HW224633   6.823   5.834   6.528
 7912SOL     OW24634   6.425   5.340   5.106
 7912SOL    HW124635   6.407   5.248   5.071
 7912SOL    HW224636   6.472   5.333   5.195
 7913SOL     OW24637   1.739   6.099   6.871
 7913SOL    HW124638   1.800   6.072   6.796
 7913SOL    HW224639   1.645   6.081   6.845
 7914SOL     OW24640   6.095   4.211   0.917
 7914SOL    HW124641   6.155   4.162   0.854
 7914SOL    HW224642   6.047   4.145   0.975
 7915SOL     OW24643   2.888   1.540   2.869
 7915SOL    HW124644   2.788   1.539   2.862
 7915SOL    HW224645   2.922   1.447   2.879
 7916SOL     OW24646   3.482   3.553   4.859
 7916SOL    HW124647   3.397   3.594   4.892
 7916SOL    HW224648   3.554   3.567   4.927
 7917SOL     OW24649   3.714   3.885   3.578
 7917SOL    HW124650   3.796   3.861   3.631
 7917SOL    HW224651   3.644   3.921   3.640
 7918SOL     OW24652   6.433   1.959   1.670
 7918SOL    HW124653   6.385   2.043   1.695
 7918SOL    HW224654   6.430   1.895   1.746
 7919SOL     OW24655   5.466   3.391   2.588
 7919SOL    HW124656   5.473   3.405   2.687
 7919SOL    HW224657   5.371   3.404   2.559
 7920SOL     OW24658   0.063   6.482   0.407
 7920SOL    HW124659   0.029   6.456   0.497
 7920SOL    HW224660   7.023   6.453   0.337
 7921SOL     OW24661   3.395   5.131   1.912
 7921SOL    HW124662   3.335   5.053   1.933
 7921SOL    HW224663   3.488   5.098   1.895
 7922SOL     OW24664   1.347   4.033   4.391
 7922SOL    HW124665   1.261   4.008   4.434
 7922SOL    HW224666   1.400   4.091   4.453
 7923SOL     OW24667   1.684   3.155   2.181
 7923SOL    HW124668   1.762   3.163   2.118
 7923SOL    HW224669   1.717   3.156   2.275
 7924SOL     OW24670   2.633   2.062   3.809
 7924SOL    HW124671   2.637   2.161   3.792
 7924SOL    HW224672   2.624   2.014   3.722
 7925SOL     OW24673   1.086   1.490   0.431
 7925SOL    HW124674   1.075   1.476   0.333
 7925SOL    HW224675   1.144   1.418   0.469
 7926SOL     OW24676   3.275   1.010   1.876
 7926SOL    HW124677   3.314   0.985   1.965
 7926SOL    HW224678   3.209   0.941   1.848
 7927SOL     OW24679   4.355   4.612   4.411
 7927SOL    HW124680   4.378   4.537   4.473
 7927SOL    HW224681   4.423   4.616   4.337
 7928SOL     OW24682   0.936   3.999   1.450
 7928SOL    HW124683   0.898   3.977   1.360
 7928SOL    HW224684   1.030   4.031   1.440
 7929SOL     OW24685   4.039   3.816   5.095
 7929SOL    HW124686   4.019   3.893   5.035
 7929SOL    HW224687   4.061   3.735   5.040
 7930SOL     OW24688   3.550   0.105   1.970
 7930SOL    HW124689   3.610   0.129   2.046
 7930SOL    HW224690   3.521   0.188   1.922
 7931SOL     OW24691   2.259   2.927   5.551
 7931SOL    HW124692   2.299   2.904   5.639
 7931SOL    HW224693   2.163   2.898   5.550
 7932SOL     OW24694   3.094   1.694   1.018
 7932SOL    HW124695   3.125   1.781   0.980
 7932SOL    HW224696   3.006   1.669   0.978
 7933SOL     OW24697   1.854   1.111   6.240
 7933SOL    HW124698   1.835   1.040   6.173
 7933SOL    HW224699   1.771   1.130   6.292
 7934SOL     OW24700   4.423   2.516   5.768
 7934SOL    HW124701   4.400   2.419   5.759
 7934SOL    HW224702   4.344   2.572   5.743
 7935SOL     OW24703   4.618   5.174   2.425
 7935SOL    HW124704   4.520   5.188   2.438
 7935SOL    HW224705   4.668   5.221   2.498
 7936SOL     OW24706   4.251   6.127   1.957
 7936SOL    HW124707   4.190   6.071   1.901
 7936SOL    HW224708   4.282   6.073   2.036
 7937SOL     OW24709   5.711   2.059   6.445
 7937SOL    HW124710   5.760   2.141   6.475
 7937SOL    HW224711   5.716   2.051   6.346
 7938SOL     OW24712   6.414   4.459   4.491
 7938SOL    HW124713   6.379   4.490   4.403
 7938SOL    HW224714   6.372   4.371   4.514
 7939SOL     OW24715   6.243   5.608   4.045
 7939SOL    HW124716   6.199   5.604   4.135
 7939SOL    HW224717   6.274   5.702   4.028
 7940SOL     OW24718   2.005   6.049   0.474
 7940SOL    HW124719   1.994   6.147   0.460
 7940SOL    HW224720   2.101   6.024   0.464
 7941SOL     OW24721   0.950   0.547   1.622
 7941SOL    HW124722   0.972   0.465   1.570
 7941SOL    HW224723   0.977   0.628   1.570
 7942SOL     OW24724   0.681   6.495   1.303
 7942SOL    HW124725   0.592   6.452   1.285
 7942SOL    HW224726   0.681   6.588   1.268
 7943SOL     OW24727   6.117   2.681   6.032
 7943SOL    HW124728   6.060   2.750   5.987
 7943SOL    HW224729   6.141   2.610   5.966
 7944SOL     OW24730   6.157   3.835   1.853
 7944SOL    HW124731   6.137   3.801   1.945
 7944SOL    HW224732   6.242   3.888   1.855
 7945SOL     OW24733   6.197   6.311   0.197
 7945SOL    HW124734   6.150   6.237   0.150
 7945SOL    HW224735   6.289   6.321   0.160
 7946SOL     OW24736   1.747   1.161   5.799
 7946SOL    HW124737   1.668   1.183   5.856
 7946SOL    HW224738   1.785   1.246   5.761
 7947SOL     OW24739   3.429   5.549   6.461
 7947SOL    HW124740   3.506   5.577   6.518
 7947SOL    HW224741   3.463   5.512   6.375
 7948SOL     OW24742   1.383   4.713   4.586
 7948SOL    HW124743   1.464   4.736   4.532
 7948SOL    HW224744   1.307   4.772   4.559
 7949SOL     OW24745   0.126   3.749   4.385
 7949SOL    HW124746   0.056   3.723   4.451
 7949SOL    HW224747   0.216   3.724   4.421
 7950SOL     OW24748   2.644   5.911   3.253
 7950SOL    HW124749   2.666   5.813   3.259
 7950SOL    HW224750   2.551   5.921   3.219
 7951SOL     OW24751   2.369   3.257   0.781
 7951SOL    HW124752   2.387   3.214   0.870
 7951SOL    HW224753   2.429   3.218   0.712
 7952SOL     OW24754   6.299   3.675   0.736
 7952SOL    HW124755   6.305   3.738   0.815
 7952SOL    HW224756   6.391   3.645   0.711
 7953SOL     OW24757   2.158   4.257   1.508
 7953SOL    HW124758   2.074   4.270   1.455
 7953SOL    HW224759   2.209   4.180   1.470
 7954SOL     OW24760   6.065   5.381   3.844
 7954SOL    HW124761   6.119   5.339   3.772
 7954SOL    HW224762   6.125   5.429   3.908
 7955SOL     OW24763   1.603   6.337   6.622
 7955SOL    HW124764   1.563   6.323   6.531
 7955SOL    HW224765   1.701   6.352   6.613
 7956SOL     OW24766   5.314   6.177   3.642
 7956SOL    HW124767   5.252   6.174   3.720
 7956SOL    HW224768   5.284   6.111   3.573
 7957SOL     OW24769   1.106   3.035   1.323
 7957SOL    HW124770   1.116   3.058   1.226
 7957SOL    HW224771   1.011   3.050   1.352
 7958SOL     OW24772   2.063   5.805   3.296
 7958SOL    HW124773   2.036   5.900   3.277
 7958SOL    HW224774   2.039   5.747   3.218
 7959SOL     OW24775   4.402   4.540   0.851
 7959SOL    HW124776   4.317   4.518   0.897
 7959SOL    HW224777   4.480   4.514   0.909
 7960SOL     OW24778   1.705   2.313   1.267
 7960SOL    HW124779   1.689   2.406   1.300
 7960SOL    HW224780   1.648   2.295   1.188
 7961SOL     OW24781   1.575   6.349   0.273
 7961SOL    HW124782   1.510   6.424   0.278
 7961SOL    HW224783   1.640   6.366   0.200
 7962SOL     OW24784   1.448   0.024   2.589
 7962SOL    HW124785   1.502   0.107   2.576
 7962SOL    HW224786   1.385   0.013   2.512
 7963SOL     OW24787   0.222   5.933   6.537
 7963SOL    HW124788   0.242   6.026   6.568
 7963SOL    HW224789   0.307   5.887   6.513
 7964SOL     OW24790   6.230   5.286   3.636
 7964SOL    HW124791   6.210   5.200   3.590
 7964SOL    HW224792   6.329   5.304   3.632
 7965SOL     OW24793   3.773   1.999   1.216
 7965SOL    HW124794   3.797   2.094   1.234
 7965SOL    HW224795   3.690   1.976   1.267
 7966SOL     OW24796   0.161   1.729   4.232
 7966SOL    HW124797   0.200   1.788   4.161
 7966SOL    HW224798   0.071   1.764   4.259
 7967SOL     OW24799   1.905   0.200   4.270
 7967SOL    HW124800   1.892   0.299   4.273
 7967SOL    HW224801   1.896   0.167   4.176
 7968SOL     OW24802   2.246   1.256   6.874
 7968SOL    HW124803   2.234   1.350   6.843
 7968SOL    HW224804   2.189   1.240   6.955
 7969SOL     OW24805   4.199   2.232   3.443
 7969SOL    HW124806   4.110   2.275   3.427
 7969SOL    HW224807   4.186   2.149   3.498
 7970SOL     OW24808   0.735   4.907   3.006
 7970SOL    HW124809   0.689   4.993   2.985
 7970SOL    HW224810   0.671   4.846   3.053
 7971SOL     OW24811   3.863   1.922   3.057
 7971SOL    HW124812   3.806   1.851   3.015
 7971SOL    HW224813   3.805   1.998   3.086
 7972SOL     OW24814   5.192   5.610   0.943
 7972SOL    HW124815   5.175   5.640   1.036
 7972SOL    HW224816   5.237   5.520   0.944
 7973SOL     OW24817   6.151   1.969   2.762
 7973SOL    HW124818   6.054   1.991   2.753
 7973SOL    HW224819   6.174   1.960   2.859
 7974SOL     OW24820   4.400   6.447   4.747
 7974SOL    HW124821   4.316   6.487   4.710
 7974SOL    HW224822   4.385   6.350   4.767
 7975SOL     OW24823   2.133   1.382   2.282
 7975SOL    HW124824   2.062   1.435   2.329
 7975SOL    HW224825   2.089   1.317   2.220
 7976SOL     OW24826   6.856   6.287   6.388
 7976SOL    HW124827   6.894   6.211   6.440
 7976SOL    HW224828   6.924   6.321   6.323
 7977SOL     OW24829   5.387   6.202   1.269
 7977SOL    HW124830   5.451   6.244   1.333
 7977SOL    HW224831   5.377   6.260   1.188
 7978SOL     OW24832   2.955   1.629   6.177
 7978SOL    HW124833   2.974   1.680   6.093
 7978SOL    HW224834   2.875   1.571   6.162
 7979SOL     OW24835   4.707   5.639   4.211
 7979SOL    HW124836   4.623   5.605   4.169
 7979SOL    HW224837   4.688   5.663   4.307
 7980SOL     OW24838   2.643   1.084   1.296
 7980SOL    HW124839   2.632   1.047   1.204
 7980SOL    HW224840   2.649   1.009   1.362
 7981SOL     OW24841   0.065   6.055   2.521
 7981SOL    HW124842   0.080   6.023   2.614
 7981SOL    HW224843   0.140   6.025   2.463
 7982SOL     OW24844   0.293   2.667   1.257
 7982SOL    HW124845   0.386   2.660   1.223
 7982SOL    HW224846   0.245   2.580   1.242
 7983SOL     OW24847   5.502   2.128   1.167
 7983SOL    HW124848   5.443   2.090   1.095
 7983SOL    HW224849   5.446   2.145   1.249
 7984SOL     OW24850   5.916   1.084   6.889
 7984SOL    HW124851   5.829   1.122   6.921
 7984SOL    HW224852   5.973   1.061   6.968
 7985SOL     OW24853   0.789   1.761   0.680
 7985SOL    HW124854   0.774   1.765   0.581
 7985SOL    HW224855   0.830   1.673   0.703
 7986SOL     OW24856   4.981   3.546   0.840
 7986SOL    HW124857   4.963   3.640   0.810
 7986SOL    HW224858   5.062   3.512   0.793
 7987SOL     OW24859   1.130   4.108   5.611
 7987SOL    HW124860   1.214   4.158   5.630
 7987SOL    HW224861   1.124   4.089   5.513
 7988SOL     OW24862   2.343   1.176   5.126
 7988SOL    HW124863   2.320   1.273   5.132
 7988SOL    HW224864   2.320   1.131   5.212
 7989SOL     OW24865   2.853   3.800   0.068
 7989SOL    HW124866   2.790   3.876   0.083
 7989SOL    HW224867   2.827   3.722   0.125
 7990SOL     OW24868   2.278   2.929   4.597
 7990SOL    HW124869   2.349   2.992   4.565
 7990SOL    HW224870   2.211   2.980   4.651
 7991SOL     OW24871   2.558   3.057   5.933
 7991SOL    HW124872   2.531   3.152   5.951
 7991SOL    HW224873   2.503   2.996   5.990
 7992SOL     OW24874   2.918   1.262   0.170
 7992SOL    HW124875   2.915   1.243   0.072
 7992SOL    HW224876   2.963   1.350   0.185
 7993SOL     OW24877   3.364   5.871   6.425
 7993SOL    HW124878   3.414   5.806   6.482
 7993SOL    HW224879   3.406   5.962   6.433
 7994SOL     OW24880   5.398   0.203   4.751
 7994SOL    HW124881   5.422   0.114   4.714
 7994SOL    HW224882   5.444   0.217   4.838
 7995SOL     OW24883   4.060   5.061   2.192
 7995SOL    HW124884   4.033   5.146   2.146
 7995SOL    HW224885   4.160   5.052   2.190
 7996SOL     OW24886   4.343   1.988   5.439
 7996SOL    HW124887   4.435   2.023   5.454
 7996SOL    HW224888   4.319   1.923   5.511
 7997SOL     OW24889   5.285   3.176   0.993
 7997SOL    HW124890   5.222   3.146   0.921
 7997SOL    HW224891   5.272   3.274   1.009
 7998SOL     OW24892   6.942   5.671   6.535
 7998SOL    HW124893   6.914   5.612   6.611
 7998SOL    HW224894   6.933   5.620   6.449
 7999SOL     OW24895   3.087   2.314   6.097
 7999SOL    HW124896   3.132   2.361   6.020
 7999SOL    HW224897   3.155   2.296   6.169
 8000SOL     OW24898   5.187   0.910   5.661
 8000SOL    HW124899   5.127   0.868   5.593
 8000SOL    HW224900   5.282   0.888   5.639
 8001SOL     OW24901   2.882   4.804   1.350
 8001SOL    HW124902   2.865   4.815   1.252
 8001SOL    HW224903   2.966   4.752   1.363
 8002SOL     OW24904   4.365   2.237   5.740
 8002SOL    HW124905   4.405   2.147   5.755
 8002SOL    HW224906   4.282   2.247   5.795
 8003SOL     OW24907   4.881   5.522   3.128
 8003SOL    HW124908   4.824   5.599   3.100
 8003SOL    HW224909   4.831   5.436   3.116
 8004SOL     OW24910   1.653   4.972   3.563
 8004SOL    HW124911   1.592   5.028   3.508
 8004SOL    HW224912   1.671   5.017   3.650
 8005SOL     OW24913   2.621   1.114   2.653
 8005SOL    HW124914   2.538   1.146   2.699
 8005SOL    HW224915   2.635   1.017   2.672
 8006SOL     OW24916   4.788   5.792   3.039
 8006SOL    HW124917   4.857   5.859   3.011
 8006SOL    HW224918   4.713   5.838   3.087
 8007SOL     OW24919   0.561   1.207   3.589
 8007SOL    HW124920   0.538   1.169   3.678
 8007SOL    HW224921   0.480   1.206   3.530
 8008SOL     OW24922   6.748   4.761   1.288
 8008SOL    HW124923   6.797   4.788   1.204
 8008SOL    HW224924   6.683   4.688   1.267
 8009SOL     OW24925   6.593   6.365   3.217
 8009SOL    HW124926   6.573   6.355   3.119
 8009SOL    HW224927   6.611   6.462   3.238
 8010SOL     OW24928   2.070   1.908   6.639
 8010SOL    HW124929   2.103   1.913   6.734
 8010SOL    HW224930   2.147   1.905   6.577
 8011SOL     OW24931   1.710   3.278   0.083
 8011SOL    HW124932   1.808   3.295   0.094
 8011SOL    HW224933   1.667   3.357   0.040
 8012SOL     OW24934   1.970   5.781   3.558
 8012SOL    HW124935   1.873   5.792   3.536
 8012SOL    HW224936   2.020   5.757   3.474
 8013SOL     OW24937   6.486   5.784   4.293
 8013SOL    HW124938   6.525   5.876   4.295
 8013SOL    HW224939   6.451   5.766   4.201
 8014SOL     OW24940   2.328   0.360   6.276
 8014SOL    HW124941   2.233   0.346   6.304
 8014SOL    HW224942   2.332   0.373   6.177
 8015SOL     OW24943   1.891   1.142   0.852
 8015SOL    HW124944   1.895   1.051   0.809
 8015SOL    HW224945   1.923   1.211   0.788
 8016SOL     OW24946   4.669   5.280   1.785
 8016SOL    HW124947   4.711   5.269   1.695
 8016SOL    HW224948   4.701   5.364   1.827
 8017SOL     OW24949   6.315   3.551   4.637
 8017SOL    HW124950   6.273   3.479   4.693
 8017SOL    HW224951   6.386   3.596   4.690
 8018SOL     OW24952   4.911   3.264   3.640
 8018SOL    HW124953   4.888   3.287   3.546
 8018SOL    HW224954   4.914   3.165   3.651
 8019SOL     OW24955   3.673   5.382   1.164
 8019SOL    HW124956   3.703   5.465   1.116
 8019SOL    HW224957   3.581   5.396   1.199
 8020SOL     OW24958   5.496   6.589   6.952
 8020SOL    HW124959   5.514   6.687   6.961
 8020SOL    HW224960   5.428   6.574   6.880
 8021SOL     OW24961   6.586   1.145   2.286
 8021SOL    HW124962   6.514   1.092   2.333
 8021SOL    HW224963   6.663   1.157   2.348
 8022SOL     OW24964   6.163   4.673   3.956
 8022SOL    HW124965   6.124   4.764   3.966
 8022SOL    HW224966   6.093   4.604   3.975
 8023SOL     OW24967   0.201   5.280   3.524
 8023SOL    HW124968   0.114   5.252   3.565
 8023SOL    HW224969   0.201   5.380   3.513
 8024SOL     OW24970   4.728   5.769   3.908
 8024SOL    HW124971   4.653   5.702   3.903
 8024SOL    HW224972   4.728   5.812   3.998
 8025SOL     OW24973   2.482   6.112   6.976
 8025SOL    HW124974   2.428   6.111   0.035
 8025SOL    HW224975   2.435   6.168   6.907
 8026SOL     OW24976   3.159   2.006   6.967
 8026SOL    HW124977   3.098   1.942   6.921
 8026SOL    HW224978   3.193   1.965   0.026
 8027SOL     OW24979   4.377   3.624   5.752
 8027SOL    HW124980   4.339   3.668   5.834
 8027SOL    HW224981   4.306   3.571   5.707
 8028SOL     OW24982   6.096   4.813   1.149
 8028SOL    HW124983   6.078   4.910   1.138
 8028SOL    HW224984   6.078   4.785   1.243
 8029SOL     OW24985   3.341   4.152   6.018
 8029SOL    HW124986   3.296   4.241   6.022
 8029SOL    HW224987   3.315   4.106   5.934
 8030SOL     OW24988   0.272   3.595   2.283
 8030SOL    HW124989   0.350   3.656   2.272
 8030SOL    HW224990   0.217   3.596   2.199
 8031SOL     OW24991   3.930   6.221   0.342
 8031SOL    HW124992   3.834   6.217   0.370
 8031SOL    HW224993   3.989   6.210   0.422
 8032SOL     OW24994   4.557   3.424   5.332
 8032SOL    HW124995   4.622   3.408   5.406
 8032SOL    HW224996   4.607   3.441   5.247
 8033SOL     OW24997   5.867   1.287   2.554
 8033SOL    HW124998   5.802   1.242   2.493
 8033SOL    HW224999   5.829   1.375   2.583
 8034SOL     OW25000   6.437   2.707   5.700
 8034SOL    HW125001   6.357   2.652   5.679
 8034SOL    HW225002   6.501   2.654   5.756
 8035SOL     OW25003   5.937   5.850   6.127
 8035SOL    HW125004   5.993   5.923   6.087
 8035SOL    HW225005   5.981   5.762   6.109
 8036SOL     OW25006   1.606   3.580   1.789
 8036SOL    HW125007   1.550   3.499   1.805
 8036SOL    HW225008   1.702   3.554   1.782
 8037SOL     OW25009   1.836   2.905   1.670
 8037SOL    HW125010   1.924   2.952   1.669
 8037SOL    HW225011   1.823   2.860   1.758
 8038SOL     OW25012   5.696   0.531   3.856
 8038SOL    HW125013   5.787   0.490   3.851
 8038SOL    HW225014   5.653   0.527   3.766
 8039SOL     OW25015   2.257   5.586   3.424
 8039SOL    HW125016   2.195   5.522   3.469
 8039SOL    HW225017   2.248   5.676   3.467
 8040SOL     OW25018   5.924   6.321   6.457
 8040SOL    HW125019   5.993   6.267   6.410
 8040SOL    HW225020   5.835   6.275   6.452
 8041SOL     OW25021   2.926   2.723   0.977
 8041SOL    HW125022   3.008   2.777   0.959
 8041SOL    HW225023   2.867   2.772   1.041
 8042SOL     OW25024   1.897   4.697   0.069
 8042SOL    HW125025   1.934   4.604   0.062
 8042SOL    HW225026   1.958   4.753   0.126
 8043SOL     OW25027   3.041   0.673   1.249
 8043SOL    HW125028   3.114   0.605   1.250
 8043SOL    HW225029   3.041   0.724   1.335
 8044SOL     OW25030   2.848   2.595   1.429
 8044SOL    HW125031   2.946   2.613   1.441
 8044SOL    HW225032   2.836   2.505   1.387
 8045SOL     OW25033   5.610   2.725   4.081
 8045SOL    HW125034   5.576   2.701   4.172
 8045SOL    HW225035   5.550   2.795   4.041
 8046SOL     OW25036   6.175   5.439   5.169
 8046SOL    HW125037   6.104   5.465   5.104
 8046SOL    HW225038   6.261   5.422   5.121
 8047SOL     OW25039   2.932   6.814   4.102
 8047SOL    HW125040   2.958   6.874   4.178
 8047SOL    HW225041   3.010   6.755   4.079
 8048SOL     OW25042   5.256   0.337   5.514
 8048SOL    HW125043   5.328   0.294   5.461
 8048SOL    HW225044   5.221   0.417   5.465
 8049SOL     OW25045   2.370   6.402   6.203
 8049SOL    HW125046   2.366   6.320   6.261
 8049SOL    HW225047   2.332   6.479   6.254
 8050SOL     OW25048   0.625   3.537   2.021
 8050SOL    HW125049   0.691   3.540   1.946
 8050SOL    HW225050   0.581   3.448   2.022
 8051SOL     OW25051   2.247   2.380   4.316
 8051SOL    HW125052   2.319   2.447   4.294
 8051SOL    HW225053   2.193   2.414   4.393
 8052SOL     OW25054   4.185   1.089   3.080
 8052SOL    HW125055   4.094   1.110   3.046
 8052SOL    HW225056   4.193   1.119   3.175
 8053SOL     OW25057   4.905   3.712   1.307
 8053SOL    HW125058   4.910   3.642   1.236
 8053SOL    HW225059   4.809   3.736   1.322
 8054SOL     OW25060   4.970   6.570   4.565
 8054SOL    HW125061   4.941   6.512   4.489
 8054SOL    HW225062   4.998   6.660   4.530
 8055SOL     OW25063   1.411   0.110   4.920
 8055SOL    HW125064   1.341   0.082   4.986
 8055SOL    HW225065   1.435   0.032   4.862
 8056SOL     OW25066   4.691   0.974   2.849
 8056SOL    HW125067   4.641   0.983   2.763
 8056SOL    HW225068   4.627   0.954   2.923
 8057SOL     OW25069   3.301   0.242   3.313
 8057SOL    HW125070   3.335   0.148   3.317
 8057SOL    HW225071   3.357   0.300   3.373
 8058SOL     OW25072   1.985   0.706   3.076
 8058SOL    HW125073   2.017   0.784   3.024
 8058SOL    HW225074   1.890   0.721   3.104
 8059SOL     OW25075   1.832   1.316   3.856
 8059SOL    HW125076   1.794   1.315   3.948
 8059SOL    HW225077   1.929   1.337   3.860
 8060SOL     OW25078   1.240   2.754   5.424
 8060SOL    HW125079   1.238   2.843   5.470
 8060SOL    HW225080   1.152   2.708   5.436
 8061SOL     OW25081   5.145   6.698   2.907
 8061SOL    HW125082   5.209   6.721   2.980
 8061SOL    HW225083   5.081   6.773   2.894
 8062SOL     OW25084   1.750   1.573   1.283
 8062SOL    HW125085   1.701   1.506   1.339
 8062SOL    HW225086   1.725   1.559   1.187
 8063SOL     OW25087   2.945   2.084   5.989
 8063SOL    HW125088   3.010   2.147   6.031
 8063SOL    HW225089   2.966   2.075   5.892
 8064SOL     OW25090   5.681   2.132   5.977
 8064SOL    HW125091   5.641   2.176   6.057
 8064SOL    HW225092   5.619   2.143   5.899
 8065SOL     OW25093   4.356   0.617   6.477
 8065SOL    HW125094   4.434   0.671   6.448
 8065SOL    HW225095   4.349   0.618   6.577
 8066SOL     OW25096   0.313   0.519   1.740
 8066SOL    HW125097   0.259   0.490   1.661
 8066SOL    HW225098   0.410   0.502   1.723
 8067SOL     OW25099   4.563   1.743   3.069
 8067SOL    HW125100   4.530   1.685   2.995
 8067SOL    HW225101   4.536   1.704   3.157
 8068SOL     OW25102   6.420   4.334   3.300
 8068SOL    HW125103   6.460   4.366   3.385
 8068SOL    HW225104   6.380   4.244   3.313
 8069SOL     OW25105   6.890   5.667   2.389
 8069SOL    HW125106   6.871   5.756   2.349
 8069SOL    HW225107   6.831   5.652   2.468
 8070SOL     OW25108   3.813   0.879   2.668
 8070SOL    HW125109   3.834   0.908   2.574
 8070SOL    HW225110   3.848   0.787   2.683
 8071SOL     OW25111   6.108   4.947   6.983
 8071SOL    HW125112   6.085   4.951   6.885
 8071SOL    HW225113   6.207   4.937   6.993
 8072SOL     OW25114   3.626   0.362   3.192
 8072SOL    HW125115   3.582   0.330   3.276
 8072SOL    HW225116   3.559   0.409   3.134
 8073SOL     OW25117   5.517   0.433   6.422
 8073SOL    HW125118   5.590   0.377   6.462
 8073SOL    HW225119   5.453   0.373   6.372
 8074SOL     OW25120   3.133   4.745   0.147
 8074SOL    HW125121   3.143   4.759   0.048
 8074SOL    HW225122   3.192   4.670   0.177
 8075SOL     OW25123   6.747   1.797   4.081
 8075SOL    HW125124   6.663   1.743   4.076
 8075SOL    HW225125   6.789   1.786   4.171
 8076SOL     OW25126   4.819   2.305   6.873
 8076SOL    HW125127   4.720   2.298   6.861
 8076SOL    HW225128   4.841   2.392   6.918
 8077SOL     OW25129   0.616   0.699   6.797
 8077SOL    HW125130   0.600   0.763   6.723
 8077SOL    HW225131   0.532   0.647   6.815
 8078SOL     OW25132   6.599   4.125   1.152
 8078SOL    HW125133   6.657   4.077   1.219
 8078SOL    HW225134   6.573   4.062   1.079
 8079SOL     OW25135   1.513   2.939   0.279
 8079SOL    HW125136   1.508   2.914   0.182
 8079SOL    HW225137   1.575   2.877   0.326
 8080SOL     OW25138   3.889   5.006   0.171
 8080SOL    HW125139   3.912   4.949   0.092
 8080SOL    HW225140   3.932   4.968   0.253
 8081SOL     OW25141   5.153   2.339   4.347
 8081SOL    HW125142   5.198   2.269   4.292
 8081SOL    HW225143   5.204   2.354   4.431
 8082SOL     OW25144   6.967   3.686   5.442
 8082SOL    HW125145   6.874   3.655   5.425
 8082SOL    HW225146   7.010   3.712   5.355
 8083SOL     OW25147   6.715   2.028   4.964
 8083SOL    HW125148   6.756   2.067   5.046
 8083SOL    HW225149   6.616   2.043   4.966
 8084SOL     OW25150   5.997   0.223   6.613
 8084SOL    HW125151   6.084   0.216   6.564
 8084SOL    HW225152   5.924   0.242   6.548
 8085SOL     OW25153   5.073   2.445   1.954
 8085SOL    HW125154   5.019   2.507   1.896
 8085SOL    HW225155   5.161   2.488   1.975
 8086SOL     OW25156   3.292   4.976   6.651
 8086SOL    HW125157   3.351   5.038   6.598
 8086SOL    HW225158   3.226   4.934   6.589
 8087SOL     OW25159   2.035   3.964   1.006
 8087SOL    HW125160   2.106   3.899   0.979
 8087SOL    HW225161   1.949   3.939   0.963
 8088SOL     OW25162   4.439   0.899   2.936
 8088SOL    HW125163   4.499   0.842   2.879
 8088SOL    HW225164   4.344   0.871   2.923
 8089SOL     OW25165   6.920   2.301   0.319
 8089SOL    HW125166   6.833   2.333   0.357
 8089SOL    HW225167   6.994   2.321   0.384
 8090SOL     OW25168   5.374   0.956   4.766
 8090SOL    HW125169   5.396   0.955   4.668
 8090SOL    HW225170   5.286   0.911   4.780
 8091SOL     OW25171   1.679   3.523   4.844
 8091SOL    HW125172   1.619   3.465   4.789
 8091SOL    HW225173   1.690   3.484   4.935
 8092SOL     OW25174   6.129   2.165   4.006
 8092SOL    HW125175   6.179   2.109   3.939
 8092SOL    HW225176   6.192   2.226   4.053
 8093SOL     OW25177   6.032   4.675   0.927
 8093SOL    HW125178   6.058   4.718   1.014
 8093SOL    HW225179   6.030   4.576   0.938
 8094SOL     OW25180   1.033   3.408   4.401
 8094SOL    HW125181   1.083   3.405   4.488
 8094SOL    HW225182   1.016   3.314   4.370
 8095SOL     OW25183   6.432   3.224   5.047
 8095SOL    HW125184   6.511   3.169   5.020
 8095SOL    HW225185   6.349   3.170   5.037
 8096SOL     OW25186   4.068   0.202   0.763
 8096SOL    HW125187   4.150   0.189   0.708
 8096SOL    HW225188   4.042   0.116   0.806
 8097SOL     OW25189   5.216   2.068   3.843
 8097SOL    HW125190   5.277   2.139   3.809
 8097SOL    HW225191   5.227   1.985   3.788
 8098SOL     OW25192   2.191   2.296   4.062
 8098SOL    HW125193   2.186   2.197   4.053
 8098SOL    HW225194   2.203   2.321   4.158
 8099SOL     OW25195   3.951   0.103   4.017
 8099SOL    HW125196   4.001   0.191   4.015
 8099SOL    HW225197   3.952   0.067   4.110
 8100SOL     OW25198   6.078   6.251   1.605
 8100SOL    HW125199   5.995   6.292   1.644
 8100SOL    HW225200   6.149   6.321   1.600
 8101SOL     OW25201   1.363   4.760   2.629
 8101SOL    HW125202   1.295   4.738   2.559
 8101SOL    HW225203   1.453   4.731   2.599
 8102SOL     OW25204   6.163   0.259   5.432
 8102SOL    HW125205   6.134   0.283   5.339
 8102SOL    HW225206   6.206   0.338   5.475
 8103SOL     OW25207   2.884   2.268   2.556
 8103SOL    HW125208   2.894   2.221   2.468
 8103SOL    HW225209   2.825   2.348   2.545
 8104SOL     OW25210   2.467   0.487   5.811
 8104SOL    HW125211   2.467   0.578   5.851
 8104SOL    HW225212   2.560   0.450   5.810
 8105SOL     OW25213   2.437   2.664   2.715
 8105SOL    HW125214   2.459   2.761   2.704
 8105SOL    HW225215   2.460   2.636   2.808
 8106SOL     OW25216   0.072   4.701   6.716
 8106SOL    HW125217   0.137   4.646   6.664
 8106SOL    HW225218   7.018   4.645   6.739
 8107SOL     OW25219   0.850   4.949   6.337
 8107SOL    HW125220   0.947   4.951   6.361
 8107SOL    HW225221   0.795   4.954   6.421
 8108SOL     OW25222   1.916   2.186   6.354
 8108SOL    HW125223   1.911   2.098   6.307
 8108SOL    HW225224   1.917   2.171   6.453
 8109SOL     OW25225   0.134   5.645   5.110
 8109SOL    HW125226   0.133   5.562   5.165
 8109SOL    HW225227   0.129   5.725   5.170
 8110SOL     OW25228   1.010   5.010   0.420
 8110SOL    HW125229   0.981   5.105   0.429
 8110SOL    HW225230   1.082   5.003   0.351
 8111SOL     OW25231   3.008   6.619   4.444
 8111SOL    HW125232   3.005   6.525   4.479
 8111SOL    HW225233   3.076   6.671   4.496
 8112SOL     OW25234   3.709   1.629   4.325
 8112SOL    HW125235   3.721   1.670   4.235
 8112SOL    HW225236   3.693   1.701   4.393
 8113SOL     OW25237   3.119   2.127   6.455
 8113SOL    HW125238   3.165   2.049   6.414
 8113SOL    HW225239   3.135   2.127   6.554
 8114SOL     OW25240   2.766   3.494   1.321
 8114SOL    HW125241   2.717   3.477   1.235
 8114SOL    HW225242   2.705   3.536   1.387
 8115SOL     OW25243   4.144   2.889   1.310
 8115SOL    HW125244   4.055   2.924   1.282
 8115SOL    HW225245   4.164   2.920   1.403
 8116SOL     OW25246   5.911   2.032   5.641
 8116SOL    HW125247   5.828   2.001   5.595
 8116SOL    HW225248   5.987   2.032   5.577
 8117SOL     OW25249   3.121   2.979   5.128
 8117SOL    HW125250   3.123   2.908   5.198
 8117SOL    HW225251   3.115   3.068   5.171
 8118SOL     OW25252   1.055   2.293   4.215
 8118SOL    HW125253   0.990   2.292   4.291
 8118SOL    HW225254   1.148   2.293   4.252
 8119SOL     OW25255   1.491   0.128   2.221
 8119SOL    HW125256   1.457   0.086   2.137
 8119SOL    HW225257   1.416   0.137   2.287
 8120SOL     OW25258   4.785   4.126   2.101
 8120SOL    HW125259   4.768   4.061   2.175
 8120SOL    HW225260   4.698   4.151   2.059
 8121SOL     OW25261   6.668   6.351   3.676
 8121SOL    HW125262   6.764   6.380   3.676
 8121SOL    HW225263   6.609   6.428   3.654
 8122SOL     OW25264   0.257   4.591   1.269
 8122SOL    HW125265   0.207   4.505   1.280
 8122SOL    HW225266   0.283   4.626   1.359
 8123SOL     OW25267   1.655   4.946   5.900
 8123SOL    HW125268   1.556   4.949   5.913
 8123SOL    HW225269   1.682   4.853   5.874
 8124SOL     OW25270   1.318   6.036   2.202
 8124SOL    HW125271   1.248   6.092   2.159
 8124SOL    HW225272   1.390   6.016   2.136
 8125SOL     OW25273   4.645   5.092   3.640
 8125SOL    HW125274   4.728   5.071   3.590
 8125SOL    HW225275   4.648   5.187   3.673
 8126SOL     OW25276   0.199   4.142   2.123
 8126SOL    HW125277   0.130   4.183   2.183
 8126SOL    HW225278   0.280   4.200   2.120
 8127SOL     OW25279   4.446   5.309   0.253
 8127SOL    HW125280   4.445   5.304   0.153
 8127SOL    HW225281   4.507   5.382   0.283
 8128SOL     OW25282   3.919   2.410   5.626
 8128SOL    HW125283   3.913   2.314   5.654
 8128SOL    HW225284   3.909   2.468   5.707
 8129SOL     OW25285   5.132   5.272   6.405
 8129SOL    HW125286   5.120   5.276   6.504
 8129SOL    HW225287   5.046   5.245   6.362
 8130SOL     OW25288   0.782   0.178   6.156
 8130SOL    HW125289   0.684   0.180   6.134
 8130SOL    HW225290   0.798   0.107   6.225
 8131SOL     OW25291   2.425   1.729   1.412
 8131SOL    HW125292   2.339   1.770   1.441
 8131SOL    HW225293   2.472   1.791   1.350
 8132SOL     OW25294   5.641   4.668   3.164
 8132SOL    HW125295   5.678   4.607   3.094
 8132SOL    HW225296   5.592   4.614   3.232
 8133SOL     OW25297   0.235   5.389   2.470
 8133SOL    HW125298   0.175   5.318   2.507
 8133SOL    HW225299   0.257   5.456   2.541
 8134SOL     OW25300   3.546   3.291   1.483
 8134SOL    HW125301   3.533   3.217   1.549
 8134SOL    HW225302   3.644   3.309   1.472
 8135SOL     OW25303   4.323   5.812   2.530
 8135SOL    HW125304   4.272   5.775   2.452
 8135SOL    HW225305   4.348   5.737   2.592
 8136SOL     OW25306   2.261   5.350   1.150
 8136SOL    HW125307   2.260   5.385   1.244
 8136SOL    HW225308   2.315   5.266   1.146
 8137SOL     OW25309   3.456   4.294   5.745
 8137SOL    HW125310   3.380   4.233   5.769
 8137SOL    HW225311   3.437   4.338   5.657
 8138SOL     OW25312   4.434   0.957   4.037
 8138SOL    HW125313   4.434   0.864   4.002
 8138SOL    HW225314   4.374   1.014   3.981
 8139SOL     OW25315   2.126   2.795   5.910
 8139SOL    HW125316   2.210   2.820   5.860
 8139SOL    HW225317   2.047   2.829   5.860
 8140SOL     OW25318   5.085   1.737   1.492
 8140SOL    HW125319   5.153   1.766   1.424
 8140SOL    HW225320   4.993   1.750   1.454
 8141SOL     OW25321   5.895   2.264   4.993
 8141SOL    HW125322   5.862   2.283   4.901
 8141SOL    HW225323   5.836   2.197   5.037
 8142SOL     OW25324   3.855   5.665   0.247
 8142SOL    HW125325   3.895   5.740   0.195
 8142SOL    HW225326   3.799   5.702   0.322
 8143SOL     OW25327   5.475   5.012   0.921
 8143SOL    HW125328   5.571   5.028   0.900
 8143SOL    HW225329   5.442   5.084   0.982
 8144SOL     OW25330   1.788   5.452   6.477
 8144SOL    HW125331   1.842   5.373   6.506
 8144SOL    HW225332   1.762   5.441   6.381
 8145SOL     OW25333   4.914   5.441   5.520
 8145SOL    HW125334   4.839   5.421   5.457
 8145SOL    HW225335   4.924   5.540   5.529
 8146SOL     OW25336   7.004   6.187   5.615
 8146SOL    HW125337   6.916   6.206   5.571
 8146SOL    HW225338   7.009   6.236   5.702
 8147SOL     OW25339   2.242   6.521   4.498
 8147SOL    HW125340   2.163   6.461   4.506
 8147SOL    HW225341   2.266   6.556   4.589
 8148SOL     OW25342   4.946   4.890   0.368
 8148SOL    HW125343   4.906   4.891   0.460
 8148SOL    HW225344   4.873   4.896   0.300
 8149SOL     OW25345   1.301   6.253   4.575
 8149SOL    HW125346   1.338   6.313   4.504
 8149SOL    HW225347   1.329   6.159   4.558
 8150SOL     OW25348   0.749   4.169   0.436
 8150SOL    HW125349   0.774   4.082   0.395
 8150SOL    HW225350   0.825   4.203   0.491
 8151SOL     OW25351   6.288   4.248   2.719
 8151SOL    HW125352   6.334   4.159   2.708
 8151SOL    HW225353   6.357   4.320   2.728
 8152SOL     OW25354   5.055   2.070   4.469
 8152SOL    HW125355   5.059   2.160   4.426
 8152SOL    HW225356   4.989   2.013   4.420
 8153SOL     OW25357   0.008   1.362   0.954
 8153SOL    HW125358   6.962   1.320   0.899
 8153SOL    HW225359   0.025   1.455   0.921
 8154SOL     OW25360   6.773   0.265   4.974
 8154SOL    HW125361   6.795   0.344   5.032
 8154SOL    HW225362   6.749   0.298   4.883
 8155SOL     OW25363   1.417   4.391   4.810
 8155SOL    HW125364   1.339   4.454   4.802
 8155SOL    HW225365   1.430   4.343   4.723
 8156SOL     OW25366   1.105   3.762   0.158
 8156SOL    HW125367   1.082   3.797   0.068
 8156SOL    HW225368   1.104   3.837   0.225
 8157SOL     OW25369   6.195   4.907   5.555
 8157SOL    HW125370   6.144   4.877   5.635
 8157SOL    HW225371   6.140   4.894   5.473
 8158SOL     OW25372   0.070   5.432   6.198
 8158SOL    HW125373   0.083   5.457   6.102
 8158SOL    HW225374   7.017   5.481   6.235
 8159SOL     OW25375   2.374   6.052   4.823
 8159SOL    HW125376   2.439   6.003   4.881
 8159SOL    HW225377   2.313   6.107   4.881
 8160SOL     OW25378   4.995   3.154   2.961
 8160SOL    HW125379   4.928   3.084   2.985
 8160SOL    HW225380   5.056   3.118   2.890
 8161SOL     OW25381   0.084   1.888   1.117
 8161SOL    HW125382   0.018   1.848   1.181
 8161SOL    HW225383   0.145   1.950   1.167
 8162SOL     OW25384   6.601   6.223   6.298
 8162SOL    HW125385   6.694   6.245   6.328
 8162SOL    HW225386   6.605   6.161   6.220
 8163SOL     OW25387   3.632   5.524   5.989
 8163SOL    HW125388   3.658   5.458   6.059
 8163SOL    HW225389   3.533   5.519   5.974
 8164SOL     OW25390   5.377   2.118   0.187
 8164SOL    HW125391   5.401   2.027   0.153
 8164SOL    HW225392   5.278   2.122   0.201
 8165SOL     OW25393   1.688   2.508   5.809
 8165SOL    HW125394   1.594   2.479   5.791
 8165SOL    HW225395   1.744   2.492   5.728
 8166SOL     OW25396   3.399   2.086   3.478
 8166SOL    HW125397   3.499   2.091   3.473
 8166SOL    HW225398   3.364   2.050   3.392
 8167SOL     OW25399   1.570   2.055   2.024
 8167SOL    HW125400   1.594   2.151   2.029
 8167SOL    HW225401   1.581   2.012   2.114
 8168SOL     OW25402   1.084   6.180   2.880
 8168SOL    HW125403   1.136   6.238   2.818
 8168SOL    HW225404   0.986   6.193   2.864
 8169SOL     OW25405   5.266   4.873   6.800
 8169SOL    HW125406   5.255   4.972   6.804
 8169SOL    HW225407   5.321   4.849   6.720
 8170SOL     OW25408   0.178   4.878   3.099
 8170SOL    HW125409   0.259   4.931   3.071
 8170SOL    HW225410   0.133   4.842   3.017
 8171SOL     OW25411   1.072   1.447   1.958
 8171SOL    HW125412   1.165   1.439   1.922
 8171SOL    HW225413   1.075   1.446   2.058
 8172SOL     OW25414   1.753   4.388   0.498
 8172SOL    HW125415   1.788   4.467   0.448
 8172SOL    HW225416   1.798   4.305   0.465
 8173SOL     OW25417   5.215   0.391   1.250
 8173SOL    HW125418   5.130   0.376   1.300
 8173SOL    HW225419   5.291   0.395   1.315
 8174SOL     OW25420   2.857   6.238   3.917
 8174SOL    HW125421   2.916   6.275   3.989
 8174SOL    HW225422   2.907   6.238   3.830
 8175SOL     OW25423   1.374   2.364   6.099
 8175SOL    HW125424   1.420   2.347   6.186
 8175SOL    HW225425   1.384   2.461   6.075
 8176SOL     OW25426   2.405   4.548   0.329
 8176SOL    HW125427   2.388   4.637   0.286
 8176SOL    HW225428   2.477   4.557   0.397
 8177SOL     OW25429   3.493   1.381   2.144
 8177SOL    HW125430   3.488   1.327   2.061
 8177SOL    HW225431   3.500   1.320   2.223
 8178SOL     OW25432   2.265   6.543   0.989
 8178SOL    HW125433   2.303   6.503   0.906
 8178SOL    HW225434   2.181   6.495   1.014
 8179SOL     OW25435   6.442   6.311   4.407
 8179SOL    HW125436   6.430   6.364   4.323
 8179SOL    HW225437   6.380   6.233   4.406
 8180SOL     OW25438   3.445   5.133   0.445
 8180SOL    HW125439   3.445   5.159   0.349
 8180SOL    HW225440   3.354   5.101   0.472
 8181SOL     OW25441   6.044   0.872   6.740
 8181SOL    HW125442   6.003   0.919   6.818
 8181SOL    HW225443   5.977   0.867   6.666
 8182SOL     OW25444   3.248   3.569   2.795
 8182SOL    HW125445   3.252   3.669   2.796
 8182SOL    HW225446   3.330   3.531   2.838
 8183SOL     OW25447   0.332   0.428   5.172
 8183SOL    HW125448   0.326   0.424   5.072
 8183SOL    HW225449   0.353   0.337   5.207
 8184SOL     OW25450   6.775   5.383   4.872
 8184SOL    HW125451   6.829   5.467   4.877
 8184SOL    HW225452   6.753   5.363   4.776
 8185SOL     OW25453   6.526   6.406   4.126
 8185SOL    HW125454   6.620   6.376   4.108
 8185SOL    HW225455   6.525   6.504   4.147
 8186SOL     OW25456   0.310   6.157   6.661
 8186SOL    HW125457   0.272   6.244   6.692
 8186SOL    HW225458   0.409   6.158   6.674
 8187SOL     OW25459   0.845   6.358   4.506
 8187SOL    HW125460   0.853   6.443   4.559
 8187SOL    HW225461   0.906   6.289   4.545
 8188SOL     OW25462   1.682   2.527   2.678
 8188SOL    HW125463   1.655   2.600   2.740
 8188SOL    HW225464   1.739   2.564   2.605
 8189SOL     OW25465   6.994   5.197   3.644
 8189SOL    HW125466   6.898   5.223   3.650
 8189SOL    HW225467   7.004   5.099   3.664
 8190SOL     OW25468   5.555   3.555   2.302
 8190SOL    HW125469   5.591   3.638   2.261
 8190SOL    HW225470   5.619   3.521   2.371
 8191SOL     OW25471   4.430   4.902   0.560
 8191SOL    HW125472   4.372   4.981   0.538
 8191SOL    HW225473   4.520   4.914   0.519
 8192SOL     OW25474   6.688   5.717   2.569
 8192SOL    HW125475   6.609   5.659   2.553
 8192SOL    HW225476   6.658   5.812   2.578
 8193SOL     OW25477   0.655   5.311   4.708
 8193SOL    HW125478   0.635   5.287   4.613
 8193SOL    HW225479   0.571   5.342   4.753
 8194SOL     OW25480   5.679   6.852   1.922
 8194SOL    HW125481   5.629   6.782   1.974
 8194SOL    HW225482   5.617   6.927   1.900
 8195SOL     OW25483   6.198   6.985   3.133
 8195SOL    HW125484   6.167   6.890   3.124
 8195SOL    HW225485   6.270   6.991   3.203
 8196SOL     OW25486   5.517   0.142   2.330
 8196SOL    HW125487   5.569   0.090   2.398
 8196SOL    HW225488   5.556   0.125   2.239
 8197SOL     OW25489   3.625   0.649   3.460
 8197SOL    HW125490   3.714   0.687   3.437
 8197SOL    HW225491   3.578   0.711   3.523
 8198SOL     OW25492   1.963   5.537   0.019
 8198SOL    HW125493   1.955   5.484   6.960
 8198SOL    HW225494   1.997   5.629   7.023
 8199SOL     OW25495   6.127   2.566   6.991
 8199SOL    HW125496   6.042   2.610   7.019
 8199SOL    HW225497   6.129   2.555   6.892
 8200SOL     OW25498   5.735   4.668   0.102
 8200SOL    HW125499   5.663   4.709   0.159
 8200SOL    HW225500   5.757   4.729   0.026
 8201SOL     OW25501   5.093   1.690   6.014
 8201SOL    HW125502   5.030   1.716   5.941
 8201SOL    HW225503   5.052   1.618   6.070
 8202SOL     OW25504   6.866   5.912   2.293
 8202SOL    HW125505   6.951   5.955   2.323
 8202SOL    HW225506   6.798   5.982   2.274
 8203SOL     OW25507   0.828   2.993   0.458
 8203SOL    HW125508   0.899   2.988   0.387
 8203SOL    HW225509   0.845   3.072   0.517
 8204SOL     OW25510   1.522   3.745   0.617
 8204SOL    HW125511   1.549   3.649   0.626
 8204SOL    HW225512   1.424   3.754   0.636
 8205SOL     OW25513   6.759   4.359   6.486
 8205SOL    HW125514   6.661   4.378   6.497
 8205SOL    HW225515   6.796   4.419   6.415
 8206SOL     OW25516   3.493   1.526   0.848
 8206SOL    HW125517   3.433   1.499   0.923
 8206SOL    HW225518   3.577   1.471   0.851
 8207SOL     OW25519   3.653   3.265   3.555
 8207SOL    HW125520   3.657   3.364   3.566
 8207SOL    HW225521   3.734   3.233   3.507
 8208SOL     OW25522   3.996   0.068   5.457
 8208SOL    HW125523   3.917   0.009   5.440
 8208SOL    HW225524   3.986   0.112   5.546
 8209SOL     OW25525   5.150   3.244   3.831
 8209SOL    HW125526   5.186   3.154   3.807
 8209SOL    HW225527   5.083   3.272   3.762
 8210SOL     OW25528   1.373   1.508   6.253
 8210SOL    HW125529   1.403   1.427   6.202
 8210SOL    HW225530   1.439   1.582   6.241
 8211SOL     OW25531   3.835   4.571   1.229
 8211SOL    HW125532   3.836   4.620   1.142
 8211SOL    HW225533   3.818   4.635   1.304
 8212SOL     OW25534   2.057   3.418   2.420
 8212SOL    HW125535   1.959   3.436   2.418
 8212SOL    HW225536   2.104   3.484   2.362
 8213SOL     OW25537   6.768   4.329   0.658
 8213SOL    HW125538   6.676   4.342   0.622
 8213SOL    HW225539   6.832   4.312   0.583
 8214SOL     OW25540   4.778   2.890   3.901
 8214SOL    HW125541   4.766   2.791   3.893
 8214SOL    HW225542   4.789   2.930   3.810
 8215SOL     OW25543   3.235   4.173   1.745
 8215SOL    HW125544   3.212   4.095   1.803
 8215SOL    HW225545   3.153   4.228   1.729
 8216SOL     OW25546   5.562   2.891   4.909
 8216SOL    HW125547   5.552   2.804   4.957
 8216SOL    HW225548   5.479   2.910   4.857
 8217SOL     OW25549   2.355   5.868   6.885
 8217SOL    HW125550   2.374   5.952   6.936
 8217SOL    HW225551   2.428   5.802   6.901
 8218SOL     OW25552   4.462   1.633   6.937
 8218SOL    HW125553   4.410   1.634   6.852
 8218SOL    HW225554   4.485   1.539   6.961
 8219SOL     OW25555   5.694   3.190   0.253
 8219SOL    HW125556   5.618   3.255   0.246
 8219SOL    HW225557   5.770   3.221   0.196
 8220SOL     OW25558   4.146   3.459   1.522
 8220SOL    HW125559   4.156   3.366   1.488
 8220SOL    HW225560   4.101   3.458   1.611
 8221SOL     OW25561   5.182   3.371   4.095
 8221SOL    HW125562   5.174   3.467   4.067
 8221SOL    HW225563   5.154   3.312   4.020
 8222SOL     OW25564   5.580   1.607   2.896
 8222SOL    HW125565   5.634   1.686   2.925
 8222SOL    HW225566   5.483   1.631   2.898
 8223SOL     OW25567   1.162   3.470   6.828
 8223SOL    HW125568   1.224   3.526   6.883
 8223SOL    HW225569   1.068   3.502   6.841
 8224SOL     OW25570   1.346   3.630   2.711
 8224SOL    HW125571   1.380   3.698   2.776
 8224SOL    HW225572   1.386   3.647   2.621
 8225SOL     OW25573   4.740   0.445   1.187
 8225SOL    HW125574   4.726   0.346   1.190
 8225SOL    HW225575   4.692   0.488   1.264
 8226SOL     OW25576   4.269   0.226   6.822
 8226SOL    HW125577   4.200   0.247   6.892
 8226SOL    HW225578   4.230   0.244   6.731
 8227SOL     OW25579   6.053   4.554   3.138
 8227SOL    HW125580   5.987   4.567   3.212
 8227SOL    HW225581   6.143   4.589   3.166
 8228SOL     OW25582   0.047   1.247   3.461
 8228SOL    HW125583   0.034   1.280   3.554
 8228SOL    HW225584   7.020   1.304   3.397
 8229SOL     OW25585   6.036   5.095   6.476
 8229SOL    HW125586   6.096   5.128   6.403
 8229SOL    HW225587   5.954   5.054   6.437
 8230SOL     OW25588   4.571   6.872   3.236
 8230SOL    HW125589   4.629   6.847   3.314
 8230SOL    HW225590   4.478   6.892   3.269
 8231SOL     OW25591   3.605   5.685   1.468
 8231SOL    HW125592   3.518   5.700   1.421
 8231SOL    HW225593   3.611   5.747   1.546
 8232SOL     OW25594   2.964   1.374   0.522
 8232SOL    HW125595   2.915   1.429   0.589
 8232SOL    HW225596   2.902   1.351   0.447
 8233SOL     OW25597   1.086   5.716   6.389
 8233SOL    HW125598   1.095   5.805   6.434
 8233SOL    HW225599   1.139   5.647   6.439
 8234SOL     OW25600   1.644   3.123   6.894
 8234SOL    HW125601   1.666   3.180   6.973
 8234SOL    HW225602   1.627   3.181   6.814
 8235SOL     OW25603   4.875   2.589   6.919
 8235SOL    HW125604   4.924   2.626   6.840
 8235SOL    HW225605   4.804   2.653   6.947
 8236SOL     OW25606   6.431   1.781   1.893
 8236SOL    HW125607   6.420   1.696   1.945
 8236SOL    HW225608   6.495   1.840   1.941
 8237SOL     OW25609   3.666   6.226   5.336
 8237SOL    HW125610   3.573   6.255   5.314
 8237SOL    HW225611   3.711   6.295   5.392
 8238SOL     OW25612   0.284   1.124   5.099
 8238SOL    HW125613   0.329   1.115   5.010
 8238SOL    HW225614   0.322   1.057   5.163
 8239SOL     OW25615   4.887   1.522   6.188
 8239SOL    HW125616   4.811   1.485   6.134
 8239SOL    HW225617   4.860   1.610   6.227
 8240SOL     OW25618   3.416   2.949   2.816
 8240SOL    HW125619   3.398   3.046   2.830
 8240SOL    HW225620   3.359   2.915   2.741
 8241SOL     OW25621   3.877   6.291   1.184
 8241SOL    HW125622   3.975   6.278   1.196
 8241SOL    HW225623   3.829   6.268   1.268
 8242SOL     OW25624   2.020   4.478   4.762
 8242SOL    HW125625   2.097   4.416   4.754
 8242SOL    HW225626   1.939   4.427   4.790
 8243SOL     OW25627   0.106   4.266   4.438
 8243SOL    HW125628   0.027   4.218   4.400
 8243SOL    HW225629   0.190   4.218   4.412
 8244SOL     OW25630   3.190   5.726   5.425
 8244SOL    HW125631   3.224   5.820   5.423
 8244SOL    HW225632   3.260   5.664   5.388
 8245SOL     OW25633   4.504   4.204   0.955
 8245SOL    HW125634   4.564   4.283   0.963
 8245SOL    HW225635   4.454   4.191   1.042
 8246SOL     OW25636   5.988   3.217   5.226
 8246SOL    HW125637   6.054   3.198   5.299
 8246SOL    HW225638   5.947   3.308   5.242
 8247SOL     OW25639   1.210   5.579   0.032
 8247SOL    HW125640   1.203   5.668   0.077
 8247SOL    HW225641   1.160   5.581   6.971
 8248SOL     OW25642   6.506   4.082   3.177
 8248SOL    HW125643   6.457   4.005   3.136
 8248SOL    HW225644   6.540   4.142   3.104
 8249SOL     OW25645   0.852   5.889   3.434
 8249SOL    HW125646   0.948   5.908   3.452
 8249SOL    HW225647   0.842   5.794   3.405
 8250SOL     OW25648   3.134   2.992   2.354
 8250SOL    HW125649   3.086   2.906   2.335
 8250SOL    HW225650   3.076   3.069   2.327
 8251SOL     OW25651   5.625   0.735   4.013
 8251SOL    HW125652   5.648   0.661   3.950
 8251SOL    HW225653   5.660   0.822   3.976
 8252SOL     OW25654   1.136   3.936   4.562
 8252SOL    HW125655   1.154   3.851   4.612
 8252SOL    HW225656   1.102   4.006   4.625
 8253SOL     OW25657   3.124   2.908   5.951
 8253SOL    HW125658   3.170   2.965   6.019
 8253SOL    HW225659   3.108   2.962   5.868
 8254SOL     OW25660   4.683   4.680   2.828
 8254SOL    HW125661   4.660   4.696   2.732
 8254SOL    HW225662   4.657   4.587   2.854
 8255SOL     OW25663   4.112   5.223   3.629
 8255SOL    HW125664   4.121   5.142   3.570
 8255SOL    HW225665   4.203   5.258   3.650
 8256SOL     OW25666   5.482   1.924   3.121
 8256SOL    HW125667   5.388   1.939   3.089
 8256SOL    HW225668   5.545   1.976   3.063
 8257SOL     OW25669   6.501   4.341   4.180
 8257SOL    HW125670   6.573   4.354   4.247
 8257SOL    HW225671   6.534   4.368   4.089
 8258SOL     OW25672   5.680   1.886   0.481
 8258SOL    HW125673   5.777   1.865   0.477
 8258SOL    HW225674   5.655   1.911   0.574
 8259SOL     OW25675   4.488   0.667   1.255
 8259SOL    HW125676   4.463   0.582   1.300
 8259SOL    HW225677   4.467   0.661   1.157
 8260SOL     OW25678   3.391   5.327   6.230
 8260SOL    HW125679   3.489   5.325   6.211
 8260SOL    HW225680   3.340   5.309   6.145
 8261SOL     OW25681   4.650   1.888   1.544
 8261SOL    HW125682   4.703   1.842   1.473
 8261SOL    HW225683   4.558   1.850   1.549
 8262SOL     OW25684   6.457   2.395   1.762
 8262SOL    HW125685   6.546   2.350   1.761
 8262SOL    HW225686   6.387   2.331   1.796
 8263SOL     OW25687   6.024   2.205   0.016
 8263SOL    HW125688   5.972   2.137   0.068
 8263SOL    HW225689   6.103   2.235   0.069
 8264SOL     OW25690   1.551   4.116   1.810
 8264SOL    HW125691   1.615   4.122   1.886
 8264SOL    HW225692   1.475   4.179   1.825
 8265SOL     OW25693   2.289   0.426   2.674
 8265SOL    HW125694   2.319   0.435   2.769
 8265SOL    HW225695   2.364   0.391   2.618
 8266SOL     OW25696   2.734   1.215   2.899
 8266SOL    HW125697   2.712   1.172   2.811
 8266SOL    HW225698   2.754   1.144   2.967
 8267SOL     OW25699   6.983   3.045   1.562
 8267SOL    HW125700   7.001   3.138   1.531
 8267SOL    HW225701   7.004   2.980   1.489
 8268SOL     OW25702   2.081   4.282   6.777
 8268SOL    HW125703   2.061   4.379   6.791
 8268SOL    HW225704   2.178   4.270   6.761
 8269SOL     OW25705   5.458   2.477   7.023
 8269SOL    HW125706   5.420   2.565   6.994
 8269SOL    HW225707   5.500   2.487   0.088
 8270SOL     OW25708   2.110   6.212   4.020
 8270SOL    HW125709   2.081   6.298   4.061
 8270SOL    HW225710   2.061   6.136   4.063
 8271SOL     OW25711   0.339   2.256   2.998
 8271SOL    HW125712   0.421   2.304   3.029
 8271SOL    HW225713   0.366   2.179   2.941
 8272SOL     OW25714   3.629   1.423   4.149
 8272SOL    HW125715   3.700   1.365   4.110
 8272SOL    HW225716   3.670   1.492   4.209
 8273SOL     OW25717   2.011   6.520   1.312
 8273SOL    HW125718   2.023   6.463   1.393
 8273SOL    HW225719   2.006   6.616   1.339
 8274SOL     OW25720   5.365   3.673   3.778
 8274SOL    HW125721   5.291   3.731   3.813
 8274SOL    HW225722   5.331   3.620   3.700
 8275SOL     OW25723   6.373   2.156   6.962
 8275SOL    HW125724   6.414   2.226   6.904
 8275SOL    HW225725   6.320   2.093   6.905
 8276SOL     OW25726   1.291   1.386   3.534
 8276SOL    HW125727   1.315   1.327   3.457
 8276SOL    HW225728   1.307   1.481   3.511
 8277SOL     OW25729   0.177   1.217   0.715
 8277SOL    HW125730   0.255   1.271   0.683
 8277SOL    HW225731   0.124   1.271   0.780
 8278SOL     OW25732   0.758   2.584   0.439
 8278SOL    HW125733   0.836   2.618   0.385
 8278SOL    HW225734   0.783   2.498   0.482
 8279SOL     OW25735   0.233   6.364   3.984
 8279SOL    HW125736   0.273   6.420   3.911
 8279SOL    HW225737   0.307   6.325   4.040
 8280SOL     OW25738   3.286   2.733   6.094
 8280SOL    HW125739   3.207   2.758   6.038
 8280SOL    HW225740   3.258   2.727   6.190
 8281SOL     OW25741   3.879   5.078   1.874
 8281SOL    HW125742   3.906   5.132   1.954
 8281SOL    HW225743   3.849   5.139   1.801
 8282SOL     OW25744   6.898   2.940   6.180
 8282SOL    HW125745   6.810   2.902   6.208
 8282SOL    HW225746   6.968   2.913   6.246
 8283SOL     OW25747   2.260   2.402   6.128
 8283SOL    HW125748   2.173   2.403   6.080
 8283SOL    HW225749   2.248   2.363   6.219
 8284SOL     OW25750   6.488   4.829   2.016
 8284SOL    HW125751   6.540   4.867   2.091
 8284SOL    HW225752   6.421   4.763   2.051
 8285SOL     OW25753   3.777   2.958   3.527
 8285SOL    HW125754   3.872   2.984   3.513
 8285SOL    HW225755   3.744   2.997   3.613
 8286SOL     OW25756   0.250   2.581   0.180
 8286SOL    HW125757   0.222   2.540   0.094
 8286SOL    HW225758   0.320   2.651   0.163
 8287SOL     OW25759   1.449   6.880   4.810
 8287SOL    HW125760   1.413   6.803   4.864
 8287SOL    HW225761   1.542   6.858   4.779
 8288SOL     OW25762   2.614   1.484   3.163
 8288SOL    HW125763   2.683   1.554   3.146
 8288SOL    HW225764   2.530   1.527   3.197
 8289SOL     OW25765   0.955   6.481   0.277
 8289SOL    HW125766   0.896   6.481   0.197
 8289SOL    HW225767   0.948   6.568   0.325
 8290SOL     OW25768   6.159   1.652   1.603
 8290SOL    HW125769   6.129   1.612   1.689
 8290SOL    HW225770   6.161   1.752   1.612
 8291SOL     OW25771   4.013   0.768   1.662
 8291SOL    HW125772   4.026   0.746   1.566
 8291SOL    HW225773   3.922   0.807   1.675
 8292SOL     OW25774   2.616   0.718   6.160
 8292SOL    HW125775   2.692   0.665   6.123
 8292SOL    HW225776   2.579   0.672   6.241
 8293SOL     OW25777   5.904   5.523   5.562
 8293SOL    HW125778   5.902   5.484   5.654
 8293SOL    HW225779   5.864   5.459   5.497
 8294SOL     OW25780   6.267   2.373   0.082
 8294SOL    HW125781   6.307   2.321   0.007
 8294SOL    HW225782   6.220   2.453   0.044
 8295SOL     OW25783   5.333   2.316   6.360
 8295SOL    HW125784   5.310   2.379   6.286
 8295SOL    HW225785   5.416   2.348   6.406
 8296SOL     OW25786   0.919   5.284   5.386
 8296SOL    HW125787   0.884   5.219   5.454
 8296SOL    HW225788   0.848   5.303   5.318
 8297SOL     OW25789   1.277   3.542   3.759
 8297SOL    HW125790   1.343   3.606   3.720
 8297SOL    HW225791   1.209   3.518   3.689
 8298SOL     OW25792   4.414   2.415   2.801
 8298SOL    HW125793   4.408   2.506   2.760
 8298SOL    HW225794   4.468   2.355   2.742
 8299SOL     OW25795   6.041   1.376   1.305
 8299SOL    HW125796   5.946   1.407   1.293
 8299SOL    HW225797   6.100   1.427   1.242
 8300SOL     OW25798   1.099   5.830   2.534
 8300SOL    HW125799   1.143   5.880   2.460
 8300SOL    HW225800   1.120   5.875   2.622
 8301SOL     OW25801   3.631   1.298   5.650
 8301SOL    HW125802   3.549   1.349   5.625
 8301SOL    HW225803   3.634   1.287   5.750
 8302SOL     OW25804   6.471   4.961   6.411
 8302SOL    HW125805   6.455   4.984   6.507
 8302SOL    HW225806   6.569   4.955   6.394
 8303SOL     OW25807   7.022   0.405   0.420
 8303SOL    HW125808   0.062   0.334   0.446
 8303SOL    HW225809   6.974   0.377   0.337
 8304SOL     OW25810   0.127   3.178   0.223
 8304SOL    HW125811   0.204   3.201   0.283
 8304SOL    HW225812   0.084   3.094   0.256
 8305SOL     OW25813   3.186   5.532   2.459
 8305SOL    HW125814   3.271   5.494   2.422
 8305SOL    HW225815   3.160   5.481   2.541
 8306SOL     OW25816   1.982   1.864   3.501
 8306SOL    HW125817   2.003   1.803   3.577
 8306SOL    HW225818   2.018   1.955   3.521
 8307SOL     OW25819   3.618   6.437   1.147
 8307SOL    HW125820   3.565   6.501   1.204
 8307SOL    HW225821   3.654   6.364   1.205
 8308SOL     OW25822   2.687   0.651   2.536
 8308SOL    HW125823   2.624   0.726   2.514
 8308SOL    HW225824   2.688   0.586   2.461
 8309SOL     OW25825   5.838   6.435   2.648
 8309SOL    HW125826   5.871   6.496   2.720
 8309SOL    HW225827   5.907   6.364   2.631
 8310SOL     OW25828   6.208   4.832   6.627
 8310SOL    HW125829   6.141   4.897   6.662
 8310SOL    HW225830   6.175   4.792   6.542
 8311SOL     OW25831   6.770   0.938   6.043
 8311SOL    HW125832   6.842   0.878   6.010
 8311SOL    HW225833   6.693   0.937   5.979
 8312SOL     OW25834   4.705   5.854   1.259
 8312SOL    HW125835   4.615   5.897   1.271
 8312SOL    HW225836   4.716   5.825   1.164
 8313SOL     OW25837   4.323   1.904   3.199
 8313SOL    HW125838   4.227   1.914   3.224
 8313SOL    HW225839   4.349   1.808   3.202
 8314SOL     OW25840   6.620   0.113   4.238
 8314SOL    HW125841   6.651   0.042   4.175
 8314SOL    HW225842   6.695   0.177   4.256
 8315SOL     OW25843   5.437   4.435   0.124
 8315SOL    HW125844   5.441   4.336   0.116
 8315SOL    HW225845   5.472   4.462   0.214
 8316SOL     OW25846   2.792   5.576   6.417
 8316SOL    HW125847   2.876   5.629   6.428
 8316SOL    HW225848   2.723   5.610   6.481
 8317SOL     OW25849   1.985   5.112   1.623
 8317SOL    HW125850   2.041   5.116   1.541
 8317SOL    HW225851   2.041   5.082   1.700
 8318SOL     OW25852   3.351   1.131   5.908
 8318SOL    HW125853   3.270   1.173   5.948
 8318SOL    HW225854   3.325   1.048   5.859
 8319SOL     OW25855   2.526   0.582   4.889
 8319SOL    HW125856   2.582   0.664   4.894
 8319SOL    HW225857   2.556   0.525   4.813
 8320SOL     OW25858   3.633   4.962   0.803
 8320SOL    HW125859   3.715   4.971   0.859
 8320SOL    HW225860   3.560   5.020   0.840
 8321SOL     OW25861   6.623   1.207   1.853
 8321SOL    HW125862   6.549   1.142   1.835
 8321SOL    HW225863   6.601   1.294   1.810
 8322SOL     OW25864   5.336   6.533   0.677
 8322SOL    HW125865   5.316   6.615   0.730
 8322SOL    HW225866   5.421   6.546   0.625
 8323SOL     OW25867   1.340   0.736   1.458
 8323SOL    HW125868   1.393   0.821   1.464
 8323SOL    HW225869   1.243   0.758   1.461
 8324SOL     OW25870   6.783   0.775   2.829
 8324SOL    HW125871   6.792   0.682   2.865
 8324SOL    HW225872   6.785   0.840   2.905
 8325SOL     OW25873   3.264   3.639   4.987
 8325SOL    HW125874   3.284   3.737   4.998
 8325SOL    HW225875   3.166   3.626   4.972
 8326SOL     OW25876   4.328   2.860   5.716
 8326SOL    HW125877   4.243   2.901   5.750
 8326SOL    HW225878   4.406   2.899   5.765
 8327SOL     OW25879   4.692   2.336   5.942
 8327SOL    HW125880   4.726   2.429   5.930
 8327SOL    HW225881   4.617   2.336   6.007
 8328SOL     OW25882   1.963   2.443   4.002
 8328SOL    HW125883   1.967   2.536   3.966
 8328SOL    HW225884   2.055   2.412   4.026
 8329SOL     OW25885   1.339   3.952   5.247
 8329SOL    HW125886   1.342   4.013   5.168
 8329SOL    HW225887   1.250   3.959   5.291
 8330SOL     OW25888   2.614   6.838   6.699
 8330SOL    HW125889   2.634   6.836   6.601
 8330SOL    HW225890   2.692   6.878   6.748
 8331SOL     OW25891   2.111   0.054   0.852
 8331SOL    HW125892   2.164   7.015   0.907
 8331SOL    HW225893   2.075   0.008   0.771
 8332SOL     OW25894   5.107   5.993   3.156
 8332SOL    HW125895   5.172   6.067   3.136
 8332SOL    HW225896   5.158   5.908   3.170
 8333SOL     OW25897   2.225   4.837   5.381
 8333SOL    HW125898   2.261   4.748   5.356
 8333SOL    HW225899   2.231   4.899   5.303
 8334SOL     OW25900   6.627   0.015   3.066
 8334SOL    HW125901   6.684   0.008   2.984
 8334SOL    HW225902   6.648   0.100   3.114
 8335SOL     OW25903   6.377   6.064   5.146
 8335SOL    HW125904   6.281   6.046   5.125
 8335SOL    HW225905   6.394   6.048   5.243
 8336SOL     OW25906   1.706   1.607   2.531
 8336SOL    HW125907   1.610   1.586   2.512
 8336SOL    HW225908   1.715   1.701   2.564
 8337SOL     OW25909   6.347   6.419   2.521
 8337SOL    HW125910   6.333   6.518   2.520
 8337SOL    HW225911   6.260   6.374   2.540
 8338SOL     OW25912   2.510   5.655   0.457
 8338SOL    HW125913   2.547   5.721   0.391
 8338SOL    HW225914   2.435   5.697   0.508
 8339SOL     OW25915   5.290   0.999   3.124
 8339SOL    HW125916   5.356   1.067   3.091
 8339SOL    HW225917   5.198   1.030   3.104
 8340SOL     OW25918   5.152   3.831   1.797
 8340SOL    HW125919   5.118   3.857   1.706
 8340SOL    HW225920   5.232   3.886   1.820
 8341SOL     OW25921   1.560   0.378   0.587
 8341SOL    HW125922   1.463   0.395   0.609
 8341SOL    HW225923   1.610   0.465   0.592
 8342SOL     OW25924   5.290   0.073   1.247
 8342SOL    HW125925   5.255   0.166   1.256
 8342SOL    HW225926   5.335   0.063   1.159
 8343SOL     OW25927   6.812   4.298   4.742
 8343SOL    HW125928   6.739   4.353   4.701
 8343SOL    HW225929   6.888   4.358   4.767
 8344SOL     OW25930   3.633   6.731   4.617
 8344SOL    HW125931   3.610   6.634   4.620
 8344SOL    HW225932   3.635   6.762   4.522
 8345SOL     OW25933   5.817   1.813   3.000
 8345SOL    HW125934   5.876   1.741   2.962
 8345SOL    HW225935   5.789   1.875   2.926
 8346SOL     OW25936   3.741   5.239   1.677
 8346SOL    HW125937   3.744   5.241   1.577
 8346SOL    HW225938   3.669   5.299   1.710
 8347SOL     OW25939   3.050   5.166   4.270
 8347SOL    HW125940   2.972   5.116   4.308
 8347SOL    HW225941   3.135   5.119   4.296
 8348SOL     OW25942   2.305   0.090   0.550
 8348SOL    HW125943   2.213   0.063   0.578
 8348SOL    HW225944   2.303   0.123   0.455
 8349SOL     OW25945   5.888   4.935   2.853
 8349SOL    HW125946   5.792   4.906   2.854
 8349SOL    HW225947   5.942   4.871   2.907
 8350SOL     OW25948   6.383   0.878   5.102
 8350SOL    HW125949   6.426   0.828   5.177
 8350SOL    HW225950   6.305   0.827   5.067
 8351SOL     OW25951   2.444   6.747   2.355
 8351SOL    HW125952   2.383   6.691   2.411
 8351SOL    HW225953   2.531   6.759   2.402
 8352SOL     OW25954   5.793   6.179   2.027
 8352SOL    HW125955   5.742   6.234   2.092
 8352SOL    HW225956   5.819   6.092   2.070
 8353SOL     OW25957   2.276   3.768   1.801
 8353SOL    HW125958   2.256   3.676   1.836
 8353SOL    HW225959   2.238   3.776   1.709
 8354SOL     OW25960   3.150   0.072   0.598
 8354SOL    HW125961   3.214   0.039   0.667
 8354SOL    HW225962   3.192   0.067   0.507
 8355SOL     OW25963   2.708   2.024   0.919
 8355SOL    HW125964   2.746   2.024   1.012
 8355SOL    HW225965   2.617   1.982   0.921
 8356SOL     OW25966   2.803   4.570   0.317
 8356SOL    HW125967   2.857   4.653   0.335
 8356SOL    HW225968   2.754   4.580   0.230
 8357SOL     OW25969   3.759   6.737   2.450
 8357SOL    HW125970   3.665   6.754   2.480
 8357SOL    HW225971   3.759   6.710   2.354
 8358SOL     OW25972   2.915   1.637   5.363
 8358SOL    HW125973   2.823   1.650   5.399
 8358SOL    HW225974   2.982   1.669   5.431
 8359SOL     OW25975   3.780   4.989   4.145
 8359SOL    HW125976   3.864   5.028   4.107
 8359SOL    HW225977   3.788   4.985   4.245
 8360SOL     OW25978   4.429   0.819   3.264
 8360SOL    HW125979   4.365   0.765   3.211
 8360SOL    HW225980   4.513   0.766   3.280
 8361SOL     OW25981   1.484   0.663   3.134
 8361SOL    HW125982   1.538   0.633   3.055
 8361SOL    HW225983   1.395   0.617   3.133
 8362SOL     OW25984   3.124   2.919   0.934
 8362SOL    HW125985   3.123   2.933   1.033
 8362SOL    HW225986   3.206   2.960   0.895
 8363SOL     OW25987   0.517   3.032   2.020
 8363SOL    HW125988   0.576   2.958   1.988
 8363SOL    HW225989   0.515   3.105   1.952
 8364SOL     OW25990   7.002   5.081   5.086
 8364SOL    HW125991   6.910   5.057   5.055
 8364SOL    HW225992   7.000   5.169   5.132
 8365SOL     OW25993   1.863   3.945   5.891
 8365SOL    HW125994   1.949   3.917   5.848
 8365SOL    HW225995   1.798   3.973   5.820
 8366SOL     OW25996   2.302   6.917   1.946
 8366SOL    HW125997   2.324   6.919   1.849
 8366SOL    HW225998   2.331   7.003   1.988
 8367SOL     OW25999   4.911   5.629   3.744
 8367SOL    HW126000   5.000   5.624   3.790
 8367SOL    HW226001   4.843   5.665   3.807
 8368SOL     OW26002   2.861   5.350   6.269
 8368SOL    HW126003   2.815   5.409   6.335
 8368SOL    HW226004   2.955   5.383   6.255
 8369SOL     OW26005   1.788   1.391   1.669
 8369SOL    HW126006   1.803   1.483   1.706
 8369SOL    HW226007   1.771   1.397   1.571
 8370SOL     OW26008   2.565   1.130   0.357
 8370SOL    HW126009   2.560   1.164   0.451
 8370SOL    HW226010   2.472   1.111   0.323
 8371SOL     OW26011   1.379   2.322   0.181
 8371SOL    HW126012   1.328   2.289   0.101
 8371SOL    HW226013   1.462   2.268   0.192
 8372SOL     OW26014   5.839   0.722   0.045
 8372SOL    HW126015   5.779   0.791   0.005
 8372SOL    HW226016   5.934   0.741   0.019
 8373SOL     OW26017   1.823   6.814   3.720
 8373SOL    HW126018   1.803   6.810   3.622
 8373SOL    HW226019   1.817   6.909   3.751
 8374SOL     OW26020   6.571   1.799   5.554
 8374SOL    HW126021   6.586   1.894   5.579
 8374SOL    HW226022   6.580   1.740   5.634
 8375SOL     OW26023   3.957   0.471   6.428
 8375SOL    HW126024   3.959   0.514   6.518
 8375SOL    HW226025   3.892   0.519   6.369
 8376SOL     OW26026   4.551   6.958   3.736
 8376SOL    HW126027   4.610   6.911   3.802
 8376SOL    HW226028   4.599   0.011   3.698
 8377SOL     OW26029   4.352   4.873   0.169
 8377SOL    HW126030   4.275   4.819   0.136
 8377SOL    HW226031   4.419   4.812   0.211
 8378SOL     OW26032   5.279   3.585   3.518
 8378SOL    HW126033   5.261   3.654   3.448
 8378SOL    HW226034   5.328   3.508   3.479
 8379SOL     OW26035   5.167   3.072   2.767
 8379SOL    HW126036   5.256   3.028   2.779
 8379SOL    HW226037   5.162   3.113   2.676
 8380SOL     OW26038   5.601   1.148   4.041
 8380SOL    HW126039   5.639   1.151   3.948
 8380SOL    HW226040   5.566   1.238   4.066
 8381SOL     OW26041   2.001   4.964   4.684
 8381SOL    HW126042   1.951   5.049   4.704
 8381SOL    HW226043   1.936   4.891   4.662
 8382SOL     OW26044   0.557   4.561   1.648
 8382SOL    HW126045   0.642   4.520   1.616
 8382SOL    HW226046   0.578   4.640   1.706
 8383SOL     OW26047   3.115   1.370   5.700
 8383SOL    HW126048   3.094   1.303   5.629
 8383SOL    HW226049   3.036   1.381   5.760
 8384SOL     OW26050   0.558   0.320   1.431
 8384SOL    HW126051   0.582   0.406   1.385
 8384SOL    HW226052   0.507   0.262   1.368
 8385SOL     OW26053   4.244   1.931   1.126
 8385SOL    HW126054   4.217   1.887   1.041
 8385SOL    HW226055   4.165   1.977   1.167
 8386SOL     OW26056   0.091   2.515   2.004
 8386SOL    HW126057   0.099   2.577   1.926
 8386SOL    HW226058   0.141   2.430   1.984
 8387SOL     OW26059   0.762   1.924   2.479
 8387SOL    HW126060   0.810   1.882   2.403
 8387SOL    HW226061   0.717   2.008   2.449
 8388SOL     OW26062   1.464   6.699   2.494
 8388SOL    HW126063   1.517   6.743   2.566
 8388SOL    HW226064   1.487   6.602   2.490
 8389SOL     OW26065   6.873   2.923   4.000
 8389SOL    HW126066   6.874   3.023   3.994
 8389SOL    HW226067   6.779   2.890   3.992
 8390SOL     OW26068   6.315   2.276   6.704
 8390SOL    HW126069   6.313   2.354   6.642
 8390SOL    HW226070   6.365   2.201   6.661
 8391SOL     OW26071   6.265   0.767   0.751
 8391SOL    HW126072   6.321   0.721   0.820
 8391SOL    HW226073   6.195   0.821   0.797
 8392SOL     OW26074   3.734   3.168   4.528
 8392SOL    HW126075   3.680   3.124   4.599
 8392SOL    HW226076   3.832   3.160   4.550
 8393SOL     OW26077   5.654   0.411   0.683
 8393SOL    HW126078   5.662   0.315   0.657
 8393SOL    HW226079   5.594   0.459   0.619
 8394SOL     OW26080   5.001   3.501   3.202
 8394SOL    HW126081   4.981   3.541   3.113
 8394SOL    HW226082   5.088   3.452   3.197
 8395SOL     OW26083   1.791   1.367   6.109
 8395SOL    HW126084   1.863   1.301   6.087
 8395SOL    HW226085   1.813   1.455   6.067
 8396SOL     OW26086   4.721   5.265   4.205
 8396SOL    HW126087   4.621   5.265   4.208
 8396SOL    HW226088   4.758   5.225   4.289
 8397SOL     OW26089   5.179   6.208   2.772
 8397SOL    HW126090   5.111   6.208   2.846
 8397SOL    HW226091   5.243   6.283   2.786
 8398SOL     OW26092   6.012   1.775   6.250
 8398SOL    HW126093   5.994   1.871   6.229
 8398SOL    HW226094   5.928   1.723   6.240
 8399SOL     OW26095   0.661   4.075   2.933
 8399SOL    HW126096   0.745   4.079   2.987
 8399SOL    HW226097   0.582   4.094   2.992
 8400SOL     OW26098   1.241   0.525   4.228
 8400SOL    HW126099   1.269   0.463   4.155
 8400SOL    HW226100   1.166   0.485   4.280
 8401SOL     OW26101   1.527   0.421   5.916
 8401SOL    HW126102   1.601   0.488   5.926
 8401SOL    HW226103   1.513   0.373   6.002
 8402SOL     OW26104   2.514   0.762   5.887
 8402SOL    HW126105   2.597   0.738   5.837
 8402SOL    HW226106   2.537   0.788   5.981
 8403SOL     OW26107   5.915   4.519   6.053
 8403SOL    HW126108   6.005   4.505   6.093
 8403SOL    HW226109   5.844   4.494   6.119
 8404SOL     OW26110   1.081   1.284   6.904
 8404SOL    HW126111   1.012   1.284   6.977
 8404SOL    HW226112   1.155   1.220   6.928
 8405SOL     OW26113   3.600   6.356   5.763
 8405SOL    HW126114   3.575   6.394   5.674
 8405SOL    HW226115   3.691   6.389   5.790
 8406SOL     OW26116   6.358   1.251   5.915
 8406SOL    HW126117   6.297   1.205   5.979
 8406SOL    HW226118   6.446   1.203   5.913
 8407SOL     OW26119   5.075   0.725   5.130
 8407SOL    HW126120   5.002   0.781   5.171
 8407SOL    HW226121   5.035   0.656   5.070
 8408SOL     OW26122   3.738   2.170   1.650
 8408SOL    HW126123   3.742   2.206   1.743
 8408SOL    HW226124   3.777   2.237   1.587
 8409SOL     OW26125   4.616   2.647   1.987
 8409SOL    HW126126   4.693   2.697   2.027
 8409SOL    HW226127   4.569   2.706   1.922
 8410SOL     OW26128   0.030   1.793   1.525
 8410SOL    HW126129   0.108   1.839   1.567
 8410SOL    HW226130   6.997   1.754   1.596
 8411SOL     OW26131   0.483   5.200   1.572
 8411SOL    HW126132   0.559   5.262   1.554
 8411SOL    HW226133   0.438   5.225   1.658
 8412SOL     OW26134   2.545   2.362   6.994
 8412SOL    HW126135   2.609   2.415   0.024
 8412SOL    HW226136   2.565   2.265   7.003
 8413SOL     OW26137   3.850   5.708   4.901
 8413SOL    HW126138   3.833   5.665   4.990
 8413SOL    HW226139   3.875   5.637   4.834
 8414SOL     OW26140   1.496   0.183   0.990
 8414SOL    HW126141   1.471   0.139   1.076
 8414SOL    HW226142   1.536   0.115   0.928
 8415SOL     OW26143   3.757   1.475   6.070
 8415SOL    HW126144   3.854   1.472   6.048
 8415SOL    HW226145   3.745   1.505   6.164
 8416SOL     OW26146   0.351   2.288   5.176
 8416SOL    HW126147   0.312   2.196   5.174
 8416SOL    HW226148   0.320   2.340   5.096
 8417SOL     OW26149   1.789   3.097   6.132
 8417SOL    HW126150   1.857   3.024   6.143
 8417SOL    HW226151   1.775   3.143   6.219
 8418SOL     OW26152   6.789   6.267   2.400
 8418SOL    HW126153   6.864   6.298   2.459
 8418SOL    HW226154   6.720   6.339   2.393
 8419SOL     OW26155   3.967   1.457   3.837
 8419SOL    HW126156   3.892   1.521   3.820
 8419SOL    HW226157   3.944   1.400   3.916
 8420SOL     OW26158   4.012   1.285   2.556
 8420SOL    HW126159   4.045   1.303   2.649
 8420SOL    HW226160   3.943   1.353   2.531
 8421SOL     OW26161   4.726   0.153   6.640
 8421SOL    HW126162   4.801   0.188   6.585
 8421SOL    HW226163   4.639   0.192   6.606
 8422SOL     OW26164   5.424   1.455   4.474
 8422SOL    HW126165   5.517   1.467   4.509
 8422SOL    HW226166   5.428   1.429   4.378
 8423SOL     OW26167   6.386   5.745   0.084
 8423SOL    HW126168   6.428   5.822   0.036
 8423SOL    HW226169   6.302   5.718   0.039
 8424SOL     OW26170   2.631   0.162   5.305
 8424SOL    HW126171   2.532   0.158   5.295
 8424SOL    HW226172   2.665   0.075   5.343
 8425SOL     OW26173   3.344   3.100   1.808
 8425SOL    HW126174   3.272   3.032   1.823
 8425SOL    HW226175   3.418   3.060   1.755
 8426SOL     OW26176   3.617   3.491   1.848
 8426SOL    HW126177   3.555   3.427   1.801
 8426SOL    HW226178   3.637   3.456   1.939
 8427SOL     OW26179   3.575   4.161   2.554
 8427SOL    HW126180   3.605   4.257   2.550
 8427SOL    HW226181   3.613   4.119   2.637
 8428SOL     OW26182   4.858   1.455   1.794
 8428SOL    HW126183   4.940   1.511   1.780
 8428SOL    HW226184   4.790   1.508   1.845
 8429SOL     OW26185   3.316   5.950   5.421
 8429SOL    HW126186   3.407   5.966   5.459
 8429SOL    HW226187   3.306   6.001   5.336
 8430SOL     OW26188   5.114   6.429   5.876
 8430SOL    HW126189   5.121   6.331   5.859
 8430SOL    HW226190   5.080   6.475   5.794
 8431SOL     OW26191   2.630   3.222   6.230
 8431SOL    HW126192   2.646   3.317   6.204
 8431SOL    HW226193   2.702   3.164   6.190
 8432SOL     OW26194   6.644   5.163   5.611
 8432SOL    HW126195   6.650   5.089   5.545
 8432SOL    HW226196   6.736   5.195   5.634
 8433SOL     OW26197   4.945   1.934   0.309
 8433SOL    HW126198   4.896   1.960   0.226
 8433SOL    HW226199   4.979   1.840   0.299
 8434SOL     OW26200   2.669   6.134   4.184
 8434SOL    HW126201   2.762   6.100   4.201
 8434SOL    HW226202   2.645   6.199   4.256
 8435SOL     OW26203   6.773   1.497   3.607
 8435SOL    HW126204   6.773   1.475   3.704
 8435SOL    HW226205   6.730   1.423   3.556
 8436SOL     OW26206   2.729   5.015   2.682
 8436SOL    HW126207   2.632   4.998   2.697
 8436SOL    HW226208   2.766   4.946   2.620
 8437SOL     OW26209   1.869   5.897   0.286
 8437SOL    HW126210   1.891   5.952   0.367
 8437SOL    HW226211   1.894   5.802   0.303
 8438SOL     OW26212   0.880   4.461   2.328
 8438SOL    HW126213   0.851   4.451   2.423
 8438SOL    HW226214   0.979   4.447   2.322
 8439SOL     OW26215   5.922   4.631   2.645
 8439SOL    HW126216   5.941   4.630   2.743
 8439SOL    HW226217   5.827   4.658   2.630
 8440SOL     OW26218   1.655   1.895   2.616
 8440SOL    HW126219   1.567   1.883   2.572
 8440SOL    HW226220   1.646   1.959   2.692
 8441SOL     OW26221   0.118   2.893   6.366
 8441SOL    HW126222   0.160   2.829   6.301
 8441SOL    HW226223   0.190   2.936   6.421
 8442SOL     OW26224   3.159   2.608   6.337
 8442SOL    HW126225   3.201   2.520   6.315
 8442SOL    HW226226   3.066   2.610   6.301
 8443SOL     OW26227   2.136   3.964   3.130
 8443SOL    HW126228   2.153   3.887   3.192
 8443SOL    HW226229   2.143   4.050   3.182
 8444SOL     OW26230   5.384   5.877   5.215
 8444SOL    HW126231   5.409   5.785   5.186
 8444SOL    HW226232   5.366   5.934   5.135
 8445SOL     OW26233   5.078   6.393   6.338
 8445SOL    HW126234   4.981   6.404   6.317
 8445SOL    HW226235   5.132   6.458   6.285
 8446SOL     OW26236   6.560   5.899   4.615
 8446SOL    HW126237   6.612   5.977   4.581
 8446SOL    HW226238   6.557   5.828   4.545
 8447SOL     OW26239   3.758   2.123   3.644
 8447SOL    HW126240   3.677   2.123   3.704
 8447SOL    HW226241   3.730   2.100   3.551
 8448SOL     OW26242   3.550   0.107   2.538
 8448SOL    HW126243   3.502   0.091   2.625
 8448SOL    HW226244   3.638   0.151   2.557
 8449SOL     OW26245   0.488   2.382   3.842
 8449SOL    HW126246   0.441   2.464   3.810
 8449SOL    HW226247   0.561   2.408   3.905
 8450SOL     OW26248   6.590   1.564   0.809
 8450SOL    HW126249   6.544   1.475   0.809
 8450SOL    HW226250   6.627   1.583   0.900
 8451SOL     OW26251   4.734   2.789   0.316
 8451SOL    HW126252   4.747   2.880   0.277
 8451SOL    HW226253   4.760   2.720   0.248
 8452SOL     OW26254   5.225   0.732   5.910
 8452SOL    HW126255   5.230   0.634   5.890
 8452SOL    HW226256   5.259   0.783   5.831
 8453SOL     OW26257   6.887   1.060   0.190
 8453SOL    HW126258   6.866   0.976   0.140
 8453SOL    HW226259   6.987   1.071   0.197
 8454SOL     OW26260   6.293   6.081   6.901
 8454SOL    HW126261   6.291   6.176   6.869
 8454SOL    HW226262   6.235   6.072   6.981
 8455SOL     OW26263   6.544   0.830   2.713
 8455SOL    HW126264   6.633   0.812   2.755
 8455SOL    HW226265   6.540   0.784   2.624
 8456SOL     OW26266   6.323   0.508   2.007
 8456SOL    HW126267   6.342   0.506   1.909
 8456SOL    HW226268   6.390   0.566   2.053
 8457SOL     OW26269   6.383   6.582   4.787
 8457SOL    HW126270   6.315   6.509   4.775
 8457SOL    HW226271   6.430   6.569   4.874
 8458SOL     OW26272   1.623   6.417   0.775
 8458SOL    HW126273   1.629   6.492   0.841
 8458SOL    HW226274   1.715   6.387   0.749
 8459SOL     OW26275   0.954   6.260   3.922
 8459SOL    HW126276   0.923   6.175   3.880
 8459SOL    HW226277   0.927   6.261   4.018
 8460SOL     OW26278   4.123   3.349   3.662
 8460SOL    HW126279   4.133   3.327   3.759
 8460SOL    HW226280   4.124   3.449   3.650
 8461SOL     OW26281   6.396   3.815   3.984
 8461SOL    HW126282   6.420   3.886   4.049
 8461SOL    HW226283   6.304   3.780   4.004
 8462SOL     OW26284   2.645   2.353   2.208
 8462SOL    HW126285   2.741   2.337   2.186
 8462SOL    HW226286   2.602   2.404   2.133
 8463SOL     OW26287   6.424   0.524   1.750
 8463SOL    HW126288   6.371   0.539   1.666
 8463SOL    HW226289   6.520   0.508   1.726
 8464SOL     OW26290   6.661   1.264   4.819
 8464SOL    HW126291   6.617   1.198   4.881
 8464SOL    HW226292   6.759   1.247   4.816
 8465SOL     OW26293   1.936   0.644   0.410
 8465SOL    HW126294   1.973   0.737   0.423
 8465SOL    HW226295   1.979   0.602   0.330
 8466SOL     OW26296   1.159   0.109   3.764
 8466SOL    HW126297   1.093   0.128   3.691
 8466SOL    HW226298   1.118   0.045   3.829
 8467SOL     OW26299   3.329   5.139   1.314
 8467SOL    HW126300   3.384   5.222   1.305
 8467SOL    HW226301   3.358   5.089   1.395
 8468SOL     OW26302   4.725   2.793   7.019
 8468SOL    HW126303   4.711   2.884   6.981
 8468SOL    HW226304   4.638   2.755   0.024
 8469SOL     OW26305   5.103   1.969   5.155
 8469SOL    HW126306   5.015   2.008   5.127
 8469SOL    HW226307   5.141   2.023   5.230
 8470SOL     OW26308   1.750   2.911   6.718
 8470SOL    HW126309   1.760   2.972   6.797
 8470SOL    HW226310   1.664   2.860   6.726
 8471SOL     OW26311   3.600   1.901   5.869
 8471SOL    HW126312   3.660   1.980   5.876
 8471SOL    HW226313   3.505   1.930   5.884
 8472SOL     OW26314   1.295   6.006   2.470
 8472SOL    HW126315   1.310   6.015   2.372
 8472SOL    HW226316   1.336   6.083   2.518
 8473SOL     OW26317   6.617   5.483   6.799
 8473SOL    HW126318   6.603   5.432   6.714
 8473SOL    HW226319   6.577   5.433   6.876
 8474SOL     OW26320   4.392   6.081   6.950
 8474SOL    HW126321   4.354   6.149   6.886
 8474SOL    HW226322   4.481   6.050   6.916
 8475SOL     OW26323   5.070   1.617   2.866
 8475SOL    HW126324   5.094   1.527   2.829
 8475SOL    HW226325   4.975   1.617   2.898
 8476SOL     OW26326   5.193   1.130   2.731
 8476SOL    HW126327   5.123   1.089   2.788
 8476SOL    HW226328   5.283   1.112   2.770
 8477SOL     OW26329   2.398   1.392   3.544
 8477SOL    HW126330   2.310   1.435   3.526
 8477SOL    HW226331   2.406   1.373   3.642
 8478SOL     OW26332   1.035   1.805   6.342
 8478SOL    HW126333   1.109   1.767   6.397
 8478SOL    HW226334   1.055   1.901   6.322
 8479SOL     OW26335   5.529   6.654   2.047
 8479SOL    HW126336   5.472   6.591   2.100
 8479SOL    HW226337   5.532   6.624   1.952
 8480SOL     OW26338   2.509   1.176   2.408
 8480SOL    HW126339   2.433   1.212   2.462
 8480SOL    HW226340   2.587   1.158   2.468
 8481SOL     OW26341   4.001   0.247   5.713
 8481SOL    HW126342   4.096   0.271   5.693
 8481SOL    HW226343   3.990   0.232   5.811
 8482SOL     OW26344   5.932   0.717   1.245
 8482SOL    HW126345   5.869   0.668   1.305
 8482SOL    HW226346   5.935   0.813   1.271
 8483SOL     OW26347   4.681   6.161   1.476
 8483SOL    HW126348   4.670   6.260   1.468
 8483SOL    HW226349   4.663   6.134   1.571
 8484SOL     OW26350   6.567   4.589   5.928
 8484SOL    HW126351   6.567   4.503   5.876
 8484SOL    HW226352   6.509   4.656   5.882
 8485SOL     OW26353   2.149   3.367   6.651
 8485SOL    HW126354   2.205   3.450   6.659
 8485SOL    HW226355   2.208   3.287   6.644
 8486SOL     OW26356   4.388   0.335   1.608
 8486SOL    HW126357   4.480   0.327   1.647
 8486SOL    HW226358   4.326   0.274   1.658
 8487SOL     OW26359   4.463   0.633   0.979
 8487SOL    HW126360   4.407   0.552   0.967
 8487SOL    HW226361   4.546   0.626   0.923
 8488SOL     OW26362   0.005   4.497   6.551
 8488SOL    HW126363   7.025   4.405   6.512
 8488SOL    HW226364   7.004   4.494   6.647
 8489SOL     OW26365   3.435   7.024   3.259
 8489SOL    HW126366   3.431   6.925   3.273
 8489SOL    HW226367   3.382   0.023   3.178
 8490SOL     OW26368   3.542   5.161   2.351
 8490SOL    HW126369   3.550   5.073   2.397
 8490SOL    HW226370   3.473   5.155   2.279
 8491SOL     OW26371   0.219   0.922   1.086
 8491SOL    HW126372   0.290   0.890   1.148
 8491SOL    HW226373   0.257   0.936   0.995
 8492SOL     OW26374   6.033   4.079   4.290
 8492SOL    HW126375   5.982   4.054   4.208
 8492SOL    HW226376   6.069   3.996   4.334
 8493SOL     OW26377   4.424   3.132   0.500
 8493SOL    HW126378   4.373   3.074   0.436
 8493SOL    HW226379   4.388   3.118   0.592
 8494SOL     OW26380   3.157   6.137   6.663
 8494SOL    HW126381   3.178   6.039   6.662
 8494SOL    HW226382   3.074   6.153   6.716
 8495SOL     OW26383   0.210   3.541   6.328
 8495SOL    HW126384   0.226   3.452   6.285
 8495SOL    HW226385   0.285   3.561   6.391
 8496SOL     OW26386   1.281   1.918   4.369
 8496SOL    HW126387   1.317   1.837   4.415
 8496SOL    HW226388   1.242   1.891   4.280
 8497SOL     OW26389   5.359   3.291   4.605
 8497SOL    HW126390   5.329   3.322   4.515
 8497SOL    HW226391   5.289   3.314   4.674
 8498SOL     OW26392   6.371   1.140   2.033
 8498SOL    HW126393   6.408   1.100   1.949
 8498SOL    HW226394   6.428   1.113   2.111
 8499SOL     OW26395   6.840   4.115   0.861
 8499SOL    HW126396   6.832   4.173   0.780
 8499SOL    HW226397   6.880   4.168   0.936
 8500SOL     OW26398   1.491   0.818   5.122
 8500SOL    HW126399   1.531   0.902   5.158
 8500SOL    HW226400   1.419   0.840   5.055
 8501SOL     OW26401   3.200   3.392   6.169
 8501SOL    HW126402   3.232   3.456   6.098
 8501SOL    HW226403   3.239   3.418   6.257
 8502SOL     OW26404   0.439   6.376   1.223
 8502SOL    HW126405   0.465   6.323   1.142
 8502SOL    HW226406   0.390   6.317   1.287
 8503SOL     OW26407   4.067   5.656   3.350
 8503SOL    HW126408   4.153   5.615   3.319
 8503SOL    HW226409   4.016   5.689   3.270
 8504SOL     OW26410   1.766   4.999   2.899
 8504SOL    HW126411   1.860   5.003   2.935
 8504SOL    HW226412   1.770   4.990   2.799
 8505SOL     OW26413   4.378   1.900   2.489
 8505SOL    HW126414   4.345   1.807   2.505
 8505SOL    HW226415   4.300   1.963   2.485
 8506SOL     OW26416   0.514   5.133   0.368
 8506SOL    HW126417   0.422   5.101   0.345
 8506SOL    HW226418   0.574   5.055   0.385
 8507SOL     OW26419   2.402   0.252   4.255
 8507SOL    HW126420   2.387   0.187   4.180
 8507SOL    HW226421   2.461   0.211   4.324
 8508SOL     OW26422   0.865   3.555   6.133
 8508SOL    HW126423   0.805   3.474   6.132
 8508SOL    HW226424   0.811   3.636   6.108
 8509SOL     OW26425   6.855   2.891   4.539
 8509SOL    HW126426   6.818   2.891   4.446
 8509SOL    HW226427   6.953   2.910   4.536
 8510SOL     OW26428   5.558   6.566   3.034
 8510SOL    HW126429   5.580   6.643   2.974
 8510SOL    HW226430   5.602   6.580   3.123
 8511SOL     OW26431   6.572   5.223   0.882
 8511SOL    HW126432   6.587   5.259   0.974
 8511SOL    HW226433   6.560   5.124   0.886
 8512SOL     OW26434   3.997   2.763   1.018
 8512SOL    HW126435   3.962   2.686   0.965
 8512SOL    HW226436   3.926   2.794   1.082
 8513SOL     OW26437   0.822   3.643   0.913
 8513SOL    HW126438   0.871   3.730   0.910
 8513SOL    HW226439   0.735   3.655   0.962
 8514SOL     OW26440   2.191   2.958   5.279
 8514SOL    HW126441   2.241   2.958   5.366
 8514SOL    HW226442   2.253   2.980   5.204
 8515SOL     OW26443   3.185   1.521   0.428
 8515SOL    HW126444   3.107   1.466   0.457
 8515SOL    HW226445   3.160   1.617   0.430
 8516SOL     OW26446   6.908   3.470   5.674
 8516SOL    HW126447   6.853   3.436   5.597
 8516SOL    HW226448   7.003   3.440   5.662
 8517SOL     OW26449   1.248   2.228   5.709
 8517SOL    HW126450   1.210   2.306   5.660
 8517SOL    HW226451   1.230   2.238   5.807
 8518SOL     OW26452   5.517   4.976   0.482
 8518SOL    HW126453   5.544   5.057   0.430
 8518SOL    HW226454   5.596   4.917   0.495
 8519SOL     OW26455   1.677   4.046   1.265
 8519SOL    HW126456   1.629   3.958   1.268
 8519SOL    HW226457   1.773   4.032   1.289
 8520SOL     OW26458   2.871   3.818   6.308
 8520SOL    HW126459   2.879   3.823   6.407
 8520SOL    HW226460   2.961   3.833   6.267
 8521SOL     OW26461   2.000   6.996   5.008
 8521SOL    HW126462   2.009   0.069   5.022
 8521SOL    HW226463   1.907   6.968   5.030
 8522SOL     OW26464   0.259   0.654   0.268
 8522SOL    HW126465   0.165   0.668   0.236
 8522SOL    HW226466   0.322   0.663   0.191
 8523SOL     OW26467   4.149   2.126   1.895
 8523SOL    HW126468   4.189   2.186   1.964
 8523SOL    HW226469   4.158   2.031   1.925
 8524SOL     OW26470   2.327   6.240   5.033
 8524SOL    HW126471   2.346   6.178   5.109
 8524SOL    HW226472   2.357   6.332   5.055
 8525SOL     OW26473   6.420   2.467   3.406
 8525SOL    HW126474   6.502   2.419   3.376
 8525SOL    HW226475   6.386   2.424   3.490
 8526SOL     OW26476   0.691   4.807   6.126
 8526SOL    HW126477   0.612   4.750   6.147
 8526SOL    HW226478   0.696   4.884   6.190
 8527SOL     OW26479   1.321   0.798   6.450
 8527SOL    HW126480   1.317   0.890   6.489
 8527SOL    HW226481   1.411   0.758   6.469
 8528SOL     OW26482   5.738   6.794   0.330
 8528SOL    HW126483   5.753   6.818   0.235
 8528SOL    HW226484   5.808   6.838   0.387
 8529SOL     OW26485   0.987   6.277   6.915
 8529SOL    HW126486   0.892   6.306   6.909
 8529SOL    HW226487   1.047   6.355   6.892
 8530SOL     OW26488   3.588   4.029   3.050
 8530SOL    HW126489   3.633   4.025   3.139
 8530SOL    HW226490   3.492   4.052   3.062
 8531SOL     OW26491   6.490   5.967   3.254
 8531SOL    HW126492   6.558   5.909   3.299
 8531SOL    HW226493   6.496   5.957   3.155
 8532SOL     OW26494   3.346   5.507   0.279
 8532SOL    HW126495   3.341   5.573   0.354
 8532SOL    HW226496   3.441   5.487   0.258
 8533SOL     OW26497   2.485   5.801   5.210
 8533SOL    HW126498   2.523   5.718   5.252
 8533SOL    HW226499   2.388   5.808   5.234
 8534SOL     OW26500   2.108   3.287   2.175
 8534SOL    HW126501   2.107   3.338   2.261
 8534SOL    HW226502   2.131   3.349   2.100
 8535SOL     OW26503   6.050   6.570   1.905
 8535SOL    HW126504   6.085   6.636   1.838
 8535SOL    HW226505   6.086   6.479   1.885
 8536SOL     OW26506   2.415   0.846   4.171
 8536SOL    HW126507   2.448   0.938   4.193
 8536SOL    HW226508   2.358   0.813   4.247
 8537SOL     OW26509   5.721   1.275   3.157
 8537SOL    HW126510   5.788   1.348   3.167
 8537SOL    HW226511   5.760   1.189   3.189
 8538SOL     OW26512   0.739   2.764   6.573
 8538SOL    HW126513   0.712   2.822   6.650
 8538SOL    HW226514   0.659   2.743   6.517
 8539SOL     OW26515   5.448   3.622   1.955
 8539SOL    HW126516   5.472   3.702   2.010
 8539SOL    HW226517   5.529   3.592   1.904
 8540SOL     OW26518   4.088   0.196   1.213
 8540SOL    HW126519   4.084   0.268   1.144
 8540SOL    HW226520   4.061   0.233   1.302
 8541SOL     OW26521   1.157   3.074   3.191
 8541SOL    HW126522   1.249   3.076   3.152
 8541SOL    HW226523   1.162   3.092   3.289
 8542SOL     OW26524   2.921   5.124   6.366
 8542SOL    HW126525   2.895   5.215   6.335
 8542SOL    HW226526   2.943   5.127   6.464
 8543SOL     OW26527   3.810   1.740   6.718
 8543SOL    HW126528   3.805   1.832   6.679
 8543SOL    HW226529   3.906   1.714   6.729
 8544SOL     OW26530   5.804   2.661   4.332
 8544SOL    HW126531   5.858   2.646   4.249
 8544SOL    HW226532   5.809   2.758   4.357
 8545SOL     OW26533   4.432   0.496   5.298
 8545SOL    HW126534   4.343   0.539   5.316
 8545SOL    HW226535   4.479   0.547   5.226
 8546SOL     OW26536   4.770   2.109   5.740
 8546SOL    HW126537   4.744   2.138   5.832
 8546SOL    HW226538   4.708   2.036   5.710
 8547SOL     OW26539   1.689   4.690   2.226
 8547SOL    HW126540   1.785   4.696   2.253
 8547SOL    HW226541   1.666   4.771   2.171
 8548SOL     OW26542   5.786   2.746   5.397
 8548SOL    HW126543   5.738   2.669   5.355
 8548SOL    HW226544   5.818   2.809   5.326
 8549SOL     OW26545   4.897   2.465   4.359
 8549SOL    HW126546   4.921   2.553   4.400
 8549SOL    HW226547   4.978   2.407   4.355
 8550SOL     OW26548   1.955   4.975   5.737
 8550SOL    HW126549   1.993   5.035   5.808
 8550SOL    HW226550   1.862   5.005   5.715
 8551SOL     OW26551   2.558   5.265   0.690
 8551SOL    HW126552   2.527   5.307   0.605
 8551SOL    HW226553   2.658   5.273   0.696
 8552SOL     OW26554   2.922   6.746   3.428
 8552SOL    HW126555   2.907   6.759   3.526
 8552SOL    HW226556   2.925   6.836   3.383
 8553SOL     OW26557   6.180   5.647   6.952
 8553SOL    HW126558   6.089   5.676   6.982
 8553SOL    HW226559   6.203   5.693   6.866
 8554SOL     OW26560   5.683   3.719   6.988
 8554SOL    HW126561   5.755   3.713   6.920
 8554SOL    HW226562   5.667   3.629   0.003
 8555SOL     OW26563   2.018   6.405   4.172
 8555SOL    HW126564   1.925   6.442   4.165
 8555SOL    HW226565   2.078   6.474   4.212
 8556SOL     OW26566   5.502   0.529   5.539
 8556SOL    HW126567   5.451   0.445   5.562
 8556SOL    HW226568   5.589   0.529   5.588
 8557SOL     OW26569   6.720   1.656   1.310
 8557SOL    HW126570   6.632   1.643   1.357
 8557SOL    HW226571   6.717   1.611   1.221
 8558SOL     OW26572   1.889   4.479   2.121
 8558SOL    HW126573   1.798   4.489   2.080
 8558SOL    HW226574   1.908   4.558   2.180
 8559SOL     OW26575   1.367   1.224   5.027
 8559SOL    HW126576   1.450   1.170   5.025
 8559SOL    HW226577   1.326   1.220   5.118
 8560SOL     OW26578   6.340   2.810   0.024
 8560SOL    HW126579   6.283   2.728   0.035
 8560SOL    HW226580   6.396   2.823   0.106
 8561SOL     OW26581   5.392   6.389   5.785
 8561SOL    HW126582   5.300   6.408   5.818
 8561SOL    HW226583   5.405   6.433   5.696
 8562SOL     OW26584   4.073   1.045   4.574
 8562SOL    HW126585   3.979   1.051   4.606
 8562SOL    HW226586   4.075   1.046   4.474
 8563SOL     OW26587   2.493   2.838   6.187
 8563SOL    HW126588   2.539   2.775   6.250
 8563SOL    HW226589   2.458   2.787   6.108
 8564SOL     OW26590   0.786   5.282   4.217
 8564SOL    HW126591   0.708   5.306   4.159
 8564SOL    HW226592   0.836   5.207   4.174
 8565SOL     OW26593   3.467   0.708   1.482
 8565SOL    HW126594   3.515   0.776   1.427
 8565SOL    HW226595   3.520   0.689   1.565
 8566SOL     OW26596   1.656   4.638   4.167
 8566SOL    HW126597   1.658   4.566   4.098
 8566SOL    HW226598   1.711   4.715   4.136
 8567SOL     OW26599   5.172   6.676   6.373
 8567SOL    HW126600   5.213   6.643   6.288
 8567SOL    HW226601   5.096   6.738   6.352
 8568SOL     OW26602   5.092   6.840   0.677
 8568SOL    HW126603   5.168   6.844   0.613
 8568SOL    HW226604   5.060   6.745   0.686
 8569SOL     OW26605   2.371   0.764   5.227
 8569SOL    HW126606   2.346   0.672   5.257
 8569SOL    HW226607   2.468   0.766   5.203
 8570SOL     OW26608   6.848   3.727   6.075
 8570SOL    HW126609   6.770   3.672   6.103
 8570SOL    HW226610   6.845   3.815   6.123
 8571SOL     OW26611   0.796   4.722   6.722
 8571SOL    HW126612   0.854   4.666   6.781
 8571SOL    HW226613   0.705   4.732   6.763
 8572SOL     OW26614   2.354   4.397   6.482
 8572SOL    HW126615   2.325   4.472   6.541
 8572SOL    HW226616   2.426   4.345   6.528
 8573SOL     OW26617   3.055   5.797   4.147
 8573SOL    HW126618   3.075   5.736   4.224
 8573SOL    HW226619   3.141   5.821   4.101
 8574SOL     OW26620   1.331   4.257   4.158
 8574SOL    HW126621   1.262   4.319   4.196
 8574SOL    HW226622   1.287   4.190   4.099
 8575SOL     OW26623   2.827   3.073   6.070
 8575SOL    HW126624   2.856   3.155   6.020
 8575SOL    HW226625   2.764   3.020   6.013
 8576SOL     OW26626   1.696   0.626   0.579
 8576SOL    HW126627   1.776   0.638   0.520
 8576SOL    HW226628   1.725   0.624   0.674
 8577SOL     OW26629   6.247   5.713   4.965
 8577SOL    HW126630   6.207   5.665   4.888
 8577SOL    HW226631   6.342   5.737   4.945
 8578SOL     OW26632   4.834   0.436   4.199
 8578SOL    HW126633   4.790   0.526   4.195
 8578SOL    HW226634   4.923   0.444   4.244
 8579SOL     OW26635   6.898   4.707   2.584
 8579SOL    HW126636   6.956   4.788   2.590
 8579SOL    HW226637   6.809   4.727   2.623
 8580SOL     OW26638   1.647   5.949   5.915
 8580SOL    HW126639   1.671   6.038   5.956
 8580SOL    HW226640   1.559   5.958   5.868
 8581SOL     OW26641   3.375   3.244   0.178
 8581SOL    HW126642   3.360   3.168   0.241
 8581SOL    HW226643   3.413   3.322   0.228
 8582SOL     OW26644   2.729   6.059   0.159
 8582SOL    HW126645   2.814   6.106   0.183
 8582SOL    HW226646   2.706   6.079   0.063
 8583SOL     OW26647   5.963   6.747   4.090
 8583SOL    HW126648   6.001   6.680   4.026
 8583SOL    HW226649   6.013   6.742   4.176
 8584SOL     OW26650   0.706   5.646   6.276
 8584SOL    HW126651   0.636   5.707   6.241
 8584SOL    HW226652   0.750   5.598   6.200
 8585SOL     OW26653   1.037   0.681   0.466
 8585SOL    HW126654   1.133   0.657   0.480
 8585SOL    HW226655   1.027   0.732   0.380
 8586SOL     OW26656   3.696   5.507   3.199
 8586SOL    HW126657   3.700   5.413   3.164
 8586SOL    HW226658   3.684   5.505   3.298
 8587SOL     OW26659   0.381   1.380   0.630
 8587SOL    HW126660   0.408   1.414   0.721
 8587SOL    HW226661   0.437   1.300   0.608
 8588SOL     OW26662   3.932   3.349   6.660
 8588SOL    HW126663   3.990   3.378   6.737
 8588SOL    HW226664   3.984   3.290   6.599
 8589SOL     OW26665   3.397   1.469   3.853
 8589SOL    HW126666   3.416   1.490   3.757
 8589SOL    HW226667   3.433   1.541   3.911
 8590SOL     OW26668   5.149   3.702   5.983
 8590SOL    HW126669   5.128   3.671   6.076
 8590SOL    HW226670   5.227   3.766   5.986
 8591SOL     OW26671   0.419   3.135   1.029
 8591SOL    HW126672   0.375   3.050   1.060
 8591SOL    HW226673   0.358   3.212   1.044
 8592SOL     OW26674   6.952   5.990   0.257
 8592SOL    HW126675   6.984   5.923   0.324
 8592SOL    HW226676   6.883   5.947   0.198
 8593SOL     OW26677   0.876   5.062   4.075
 8593SOL    HW126678   0.898   4.989   4.140
 8593SOL    HW226679   0.798   5.033   4.019
 8594SOL     OW26680   3.898   3.691   2.592
 8594SOL    HW126681   3.906   3.602   2.547
 8594SOL    HW226682   3.900   3.763   2.523
 8595SOL     OW26683   1.100   2.500   2.565
 8595SOL    HW126684   1.092   2.572   2.495
 8595SOL    HW226685   1.136   2.540   2.649
 8596SOL     OW26686   6.934   3.954   2.766
 8596SOL    HW126687   6.873   3.880   2.738
 8596SOL    HW226688   6.918   3.977   2.862
 8597SOL     OW26689   2.171   1.976   0.901
 8597SOL    HW126690   2.110   1.995   0.978
 8597SOL    HW226691   2.146   1.889   0.860
 8598SOL     OW26692   6.294   2.704   1.971
 8598SOL    HW126693   6.201   2.672   1.987
 8598SOL    HW226694   6.319   2.688   1.875
 8599SOL     OW26695   0.526   2.518   0.650
 8599SOL    HW126696   0.497   2.609   0.621
 8599SOL    HW226697   0.465   2.449   0.611
 8600SOL     OW26698   0.337   2.921   6.005
 8600SOL    HW126699   0.345   3.019   5.988
 8600SOL    HW226700   0.317   2.874   5.918
 8601SOL     OW26701   0.625   0.333   4.399
 8601SOL    HW126702   0.526   0.337   4.413
 8601SOL    HW226703   0.668   0.289   4.478
 8602SOL     OW26704   0.963   6.289   2.233
 8602SOL    HW126705   0.890   6.357   2.239
 8602SOL    HW226706   1.051   6.332   2.251
 8603SOL     OW26707   5.067   3.910   2.056
 8603SOL    HW126708   5.071   4.009   2.045
 8603SOL    HW226709   5.112   3.866   1.978
 8604SOL     OW26710   6.328   2.367   3.647
 8604SOL    HW126711   6.264   2.421   3.701
 8604SOL    HW226712   6.411   2.351   3.700
 8605SOL     OW26713   2.177   5.453   1.628
 8605SOL    HW126714   2.242   5.481   1.698
 8605SOL    HW226715   2.086   5.487   1.651
 8606SOL     OW26716   4.167   5.609   4.844
 8606SOL    HW126717   4.208   5.518   4.847
 8606SOL    HW226718   4.100   5.613   4.771
 8607SOL     OW26719   3.189   6.503   0.276
 8607SOL    HW126720   3.203   6.463   0.367
 8607SOL    HW226721   3.101   6.550   0.275
 8608SOL     OW26722   5.756   6.600   3.270
 8608SOL    HW126723   5.818   6.561   3.203
 8608SOL    HW226724   5.748   6.539   3.349
 8609SOL     OW26725   5.571   6.617   5.347
 8609SOL    HW126726   5.543   6.537   5.294
 8609SOL    HW226727   5.598   6.690   5.284
 8610SOL     OW26728   0.228   6.908   4.595
 8610SOL    HW126729   0.155   6.878   4.657
 8610SOL    HW226730   0.296   6.835   4.585
 8611SOL     OW26731   1.958   1.780   2.727
 8611SOL    HW126732   2.035   1.756   2.669
 8611SOL    HW226733   1.894   1.837   2.675
 8612SOL     OW26734   5.082   3.227   4.480
 8612SOL    HW126735   5.029   3.239   4.564
 8612SOL    HW226736   5.102   3.316   4.440
 8613SOL     OW26737   1.441   0.537   0.989
 8613SOL    HW126738   1.402   0.457   0.942
 8613SOL    HW226739   1.372   0.575   1.050
 8614SOL     OW26740   1.592   2.957   3.615
 8614SOL    HW126741   1.557   2.914   3.698
 8614SOL    HW226742   1.681   2.918   3.591
 8615SOL     OW26743   4.662   1.882   6.082
 8615SOL    HW126744   4.609   1.817   6.028
 8615SOL    HW226745   4.636   1.876   6.178
 8616SOL     OW26746   0.636   3.315   1.037
 8616SOL    HW126747   0.576   3.235   1.035
 8616SOL    HW226748   0.712   3.301   0.973
 8617SOL     OW26749   6.558   3.495   0.674
 8617SOL    HW126750   6.513   3.411   0.644
 8617SOL    HW226751   6.646   3.473   0.715
 8618SOL     OW26752   3.144   1.333   3.164
 8618SOL    HW126753   3.212   1.328   3.090
 8618SOL    HW226754   3.110   1.241   3.184
 8619SOL     OW26755   3.902   6.311   0.787
 8619SOL    HW126756   3.964   6.318   0.709
 8619SOL    HW226757   3.956   6.304   0.872
 8620SOL     OW26758   5.799   5.778   4.222
 8620SOL    HW126759   5.742   5.855   4.251
 8620SOL    HW226760   5.749   5.692   4.236
 8621SOL     OW26761   5.040   1.197   3.828
 8621SOL    HW126762   5.087   1.142   3.897
 8621SOL    HW226763   5.001   1.136   3.758
 8622SOL     OW26764   5.050   5.090   5.619
 8622SOL    HW126765   4.958   5.110   5.653
 8622SOL    HW226766   5.116   5.147   5.667
 8623SOL     OW26767   5.890   1.505   3.883
 8623SOL    HW126768   5.930   1.487   3.793
 8623SOL    HW226769   5.885   1.419   3.935
 8624SOL     OW26770   6.881   2.805   3.665
 8624SOL    HW126771   6.945   2.879   3.647
 8624SOL    HW226772   6.787   2.840   3.655
 8625SOL     OW26773   3.154   1.595   6.879
 8625SOL    HW126774   3.161   1.596   6.780
 8625SOL    HW226775   3.242   1.569   6.919
 8626SOL     OW26776   3.281   3.883   1.607
 8626SOL    HW126777   3.294   3.969   1.557
 8626SOL    HW226778   3.294   3.900   1.705
 8627SOL     OW26779   3.069   0.266   6.385
 8627SOL    HW126780   2.998   0.260   6.456
 8627SOL    HW226781   3.106   0.174   6.367
 8628SOL     OW26782   5.989   0.519   1.635
 8628SOL    HW126783   6.074   0.468   1.640
 8628SOL    HW226784   6.003   0.612   1.670
 8629SOL     OW26785   1.221   6.185   3.350
 8629SOL    HW126786   1.308   6.234   3.357
 8629SOL    HW226787   1.160   6.214   3.424
 8630SOL     OW26788   5.188   4.896   4.209
 8630SOL    HW126789   5.095   4.893   4.245
 8630SOL    HW226790   5.218   4.991   4.201
 8631SOL     OW26791   3.920   0.113   3.294
 8631SOL    HW126792   4.003   0.168   3.304
 8631SOL    HW226793   3.843   0.162   3.335
 8632SOL     OW26794   2.441   1.031   2.989
 8632SOL    HW126795   2.477   0.946   3.027
 8632SOL    HW226796   2.473   1.108   3.045
 8633SOL     OW26797   6.211   6.555   2.751
 8633SOL    HW126798   6.218   6.622   2.678
 8633SOL    HW226799   6.287   6.567   2.815
 8634SOL     OW26800   5.286   6.814   1.438
 8634SOL    HW126801   5.375   6.837   1.399
 8634SOL    HW226802   5.266   6.717   1.423
 8635SOL     OW26803   6.169   3.765   5.782
 8635SOL    HW126804   6.131   3.816   5.705
 8635SOL    HW226805   6.268   3.756   5.769
 8636SOL     OW26806   5.823   4.908   1.440
 8636SOL    HW126807   5.777   4.875   1.358
 8636SOL    HW226808   5.895   4.973   1.413
 8637SOL     OW26809   0.298   0.761   1.825
 8637SOL    HW126810   0.380   0.807   1.789
 8637SOL    HW226811   0.308   0.662   1.811
 8638SOL     OW26812   6.353   4.810   0.951
 8638SOL    HW126813   6.343   4.902   0.990
 8638SOL    HW226814   6.278   4.752   0.984
 8639SOL     OW26815   5.775   2.643   3.868
 8639SOL    HW126816   5.732   2.679   3.951
 8639SOL    HW226817   5.749   2.547   3.856
 8640SOL     OW26818   4.938   5.649   1.270
 8640SOL    HW126819   5.035   5.668   1.259
 8640SOL    HW226820   4.909   5.582   1.201
 8641SOL     OW26821   5.152   5.445   3.942
 8641SOL    HW126822   5.237   5.481   3.904
 8641SOL    HW226823   5.094   5.520   3.973
 8642SOL     OW26824   4.679   1.126   1.157
 8642SOL    HW126825   4.690   1.032   1.190
 8642SOL    HW226826   4.638   1.181   1.230
 8643SOL     OW26827   4.820   6.960   0.214
 8643SOL    HW126828   4.786   0.028   0.227
 8643SOL    HW226829   4.891   6.941   0.282
 8644SOL     OW26830   6.217   3.179   5.376
 8644SOL    HW126831   6.226   3.156   5.473
 8644SOL    HW226832   6.280   3.253   5.353
 8645SOL     OW26833   6.412   3.773   2.148
 8645SOL    HW126834   6.432   3.870   2.140
 8645SOL    HW226835   6.486   3.720   2.105
 8646SOL     OW26836   4.291   6.343   0.299
 8646SOL    HW126837   4.266   6.429   0.344
 8646SOL    HW226838   4.321   6.277   0.369
 8647SOL     OW26839   4.834   4.884   1.757
 8647SOL    HW126840   4.902   4.958   1.753
 8647SOL    HW226841   4.871   4.803   1.711
 8648SOL     OW26842   6.611   0.519   4.833
 8648SOL    HW126843   6.615   0.588   4.905
 8648SOL    HW226844   6.559   0.440   4.865
 8649SOL     OW26845   6.723   2.981   5.502
 8649SOL    HW126846   6.689   2.920   5.430
 8649SOL    HW226847   6.815   3.012   5.479
 8650SOL     OW26848   0.320   5.512   1.832
 8650SOL    HW126849   0.271   5.549   1.912
 8650SOL    HW226850   0.330   5.413   1.843
 8651SOL     OW26851   4.649   3.467   1.002
 8651SOL    HW126852   4.705   3.501   1.077
 8651SOL    HW226853   4.584   3.399   1.036
 8652SOL     OW26854   0.983   2.792   4.733
 8652SOL    HW126855   0.909   2.801   4.666
 8652SOL    HW226856   1.070   2.813   4.688
 8653SOL     OW26857   5.196   3.615   6.497
 8653SOL    HW126858   5.146   3.629   6.582
 8653SOL    HW226859   5.250   3.531   6.504
 8654SOL     OW26860   1.934   4.606   1.793
 8654SOL    HW126861   1.841   4.630   1.767
 8654SOL    HW226862   1.949   4.509   1.776
 8655SOL     OW26863   5.307   6.480   2.948
 8655SOL    HW126864   5.245   6.559   2.939
 8655SOL    HW226865   5.395   6.511   2.984
 8656SOL     OW26866   6.635   1.954   1.963
 8656SOL    HW126867   6.645   2.051   1.983
 8656SOL    HW226868   6.721   1.907   1.983
 8657SOL     OW26869   2.822   4.990   0.600
 8657SOL    HW126870   2.772   4.917   0.552
 8657SOL    HW226871   2.809   5.076   0.551
 8658SOL     OW26872   1.078   6.395   5.490
 8658SOL    HW126873   1.022   6.313   5.479
 8658SOL    HW226874   1.083   6.420   5.587
 8659SOL     OW26875   3.540   6.841   3.975
 8659SOL    HW126876   3.542   6.780   4.053
 8659SOL    HW226877   3.563   6.790   3.892
 8660SOL     OW26878   5.106   4.192   0.361
 8660SOL    HW126879   5.192   4.147   0.387
 8660SOL    HW226880   5.048   4.126   0.313
 8661SOL     OW26881   6.459   2.246   2.243
 8661SOL    HW126882   6.380   2.274   2.188
 8661SOL    HW226883   6.427   2.191   2.320
 8662SOL     OW26884   0.167   1.113   0.246
 8662SOL    HW126885   0.218   1.181   0.299
 8662SOL    HW226886   0.230   1.063   0.187
 8663SOL     OW26887   2.912   5.347   0.240
 8663SOL    HW126888   2.911   5.426   0.180
 8663SOL    HW226889   2.957   5.270   0.194
 8664SOL     OW26890   4.771   4.250   1.438
 8664SOL    HW126891   4.728   4.200   1.514
 8664SOL    HW226892   4.725   4.226   1.353
 8665SOL     OW26893   5.435   5.289   3.943
 8665SOL    HW126894   5.534   5.278   3.939
 8665SOL    HW226895   5.397   5.226   4.012
 8666SOL     OW26896   6.979   4.734   4.697
 8666SOL    HW126897   6.950   4.819   4.652
 8666SOL    HW226898   6.966   4.742   4.795
 8667SOL     OW26899   5.301   3.079   3.170
 8667SOL    HW126900   5.261   3.170   3.157
 8667SOL    HW226901   5.228   3.010   3.165
 8668SOL     OW26902   3.225   0.752   4.888
 8668SOL    HW126903   3.209   0.762   4.790
 8668SOL    HW226904   3.313   0.794   4.912
 8669SOL     OW26905   3.314   6.297   6.524
 8669SOL    HW126906   3.245   6.234   6.560
 8669SOL    HW226907   3.329   6.370   6.590
 8670SOL     OW26908   4.038   5.080   2.855
 8670SOL    HW126909   4.108   5.140   2.816
 8670SOL    HW226910   4.070   4.985   2.851
 8671SOL     OW26911   6.122   5.185   0.906
 8671SOL    HW126912   6.133   5.285   0.901
 8671SOL    HW226913   6.198   5.146   0.958
 8672SOL     OW26914   3.938   5.550   4.697
 8672SOL    HW126915   3.883   5.466   4.695
 8672SOL    HW226916   3.898   5.617   4.634
 8673SOL     OW26917   5.008   2.144   6.981
 8673SOL    HW126918   5.089   2.188   7.021
 8673SOL    HW226919   4.943   2.215   6.954
 8674SOL     OW26920   0.105   0.100   2.503
 8674SOL    HW126921   0.170   0.036   2.544
 8674SOL    HW226922   0.073   0.062   2.416
 8675SOL     OW26923   2.735   2.123   1.988
 8675SOL    HW126924   2.803   2.192   2.013
 8675SOL    HW226925   2.652   2.169   1.955
 8676SOL     OW26926   5.389   1.625   3.939
 8676SOL    HW126927   5.390   1.674   4.026
 8676SOL    HW226928   5.481   1.621   3.902
 8677SOL     OW26929   2.289   3.870   5.405
 8677SOL    HW126930   2.336   3.877   5.493
 8677SOL    HW226931   2.345   3.911   5.334
 8678SOL     OW26932   1.080   1.293   5.975
 8678SOL    HW126933   1.112   1.383   5.944
 8678SOL    HW226934   1.033   1.303   6.062
 8679SOL     OW26935   6.268   2.486   4.592
 8679SOL    HW126936   6.189   2.429   4.571
 8679SOL    HW226937   6.266   2.512   4.688
 8680SOL     OW26938   0.636   3.269   5.883
 8680SOL    HW126939   0.731   3.298   5.874
 8680SOL    HW226940   0.611   3.211   5.806
 8681SOL     OW26941   4.030   4.151   1.374
 8681SOL    HW126942   3.947   4.141   1.428
 8681SOL    HW226943   4.090   4.073   1.390
 8682SOL     OW26944   1.414   5.770   2.624
 8682SOL    HW126945   1.375   5.855   2.588
 8682SOL    HW226946   1.382   5.693   2.569
 8683SOL     OW26947   4.461   3.915   6.355
 8683SOL    HW126948   4.470   3.888   6.259
 8683SOL    HW226949   4.378   3.970   6.366
 8684SOL     OW26950   6.545   2.307   3.790
 8684SOL    HW126951   6.587   2.220   3.764
 8684SOL    HW226952   6.615   2.372   3.818
 8685SOL     OW26953   0.453   2.416   5.445
 8685SOL    HW126954   0.459   2.341   5.512
 8685SOL    HW226955   0.440   2.377   5.354
 8686SOL     OW26956   5.858   1.085   4.650
 8686SOL    HW126957   5.759   1.086   4.658
 8686SOL    HW226958   5.885   1.037   4.566
 8687SOL     OW26959   3.614   1.144   2.617
 8687SOL    HW126960   3.641   1.234   2.650
 8687SOL    HW226961   3.694   1.084   2.614
 8688SOL     OW26962   6.855   6.496   1.779
 8688SOL    HW126963   6.870   6.398   1.792
 8688SOL    HW226964   6.859   6.518   1.681
 8689SOL     OW26965   4.869   4.622   1.611
 8689SOL    HW126966   4.783   4.588   1.573
 8689SOL    HW226967   4.916   4.677   1.541
 8690SOL     OW26968   1.430   0.399   1.848
 8690SOL    HW126969   1.434   0.459   1.769
 8690SOL    HW226970   1.435   0.453   1.932
 8691SOL     OW26971   5.578   1.269   6.756
 8691SOL    HW126972   5.606   1.304   6.666
 8691SOL    HW226973   5.599   1.337   6.826
 8692SOL     OW26974   1.455   1.307   3.769
 8692SOL    HW126975   1.380   1.347   3.716
 8692SOL    HW226976   1.525   1.273   3.706
 8693SOL     OW26977   4.929   2.666   6.655
 8693SOL    HW126978   4.985   2.747   6.634
 8693SOL    HW226979   4.933   2.602   6.578
 8694SOL     OW26980   3.329   0.528   6.360
 8694SOL    HW126981   3.367   0.621   6.361
 8694SOL    HW226982   3.244   0.528   6.306
 8695SOL     OW26983   4.159   3.649   4.903
 8695SOL    HW126984   4.123   3.704   4.828
 8695SOL    HW226985   4.255   3.628   4.885
 8696SOL     OW26986   2.290   5.528   6.874
 8696SOL    HW126987   2.359   5.472   6.828
 8696SOL    HW226988   2.225   5.563   6.807
 8697SOL     OW26989   5.099   5.288   6.671
 8697SOL    HW126990   5.137   5.247   6.754
 8697SOL    HW226991   5.127   5.384   6.664
 8698SOL     OW26992   6.389   5.817   5.575
 8698SOL    HW126993   6.293   5.823   5.549
 8698SOL    HW226994   6.401   5.851   5.668
 8699SOL     OW26995   2.197   1.229   4.224
 8699SOL    HW126996   2.114   1.267   4.263
 8699SOL    HW226997   2.277   1.263   4.275
 8700SOL     OW26998   2.572   0.498   5.509
 8700SOL    HW126999   2.580   0.579   5.568
 8700SOL    HW227000   2.654   0.441   5.521
 8701SOL     OW27001   0.904   0.371   3.302
 8701SOL    HW127002   0.893   0.441   3.232
 8701SOL    HW227003   0.941   0.412   3.385
 8702SOL     OW27004   4.159   0.219   6.196
 8702SOL    HW127005   4.163   0.129   6.241
 8702SOL    HW227006   4.232   0.277   6.232
 8703SOL     OW27007   1.481   4.262   1.457
 8703SOL    HW127008   1.521   4.240   1.368
 8703SOL    HW227009   1.475   4.180   1.513
 8704SOL     OW27010   1.175   4.477   2.299
 8704SOL    HW127011   1.149   4.496   2.204
 8704SOL    HW227012   1.236   4.398   2.302
 8705SOL     OW27013   4.482   6.589   4.530
 8705SOL    HW127014   4.460   6.512   4.590
 8705SOL    HW227015   4.500   6.555   4.438
 8706SOL     OW27016   5.125   0.089   6.604
 8706SOL    HW127017   5.039   0.057   6.644
 8706SOL    HW227018   5.195   0.019   6.614
 8707SOL     OW27019   3.887   1.469   5.645
 8707SOL    HW127020   3.822   1.401   5.677
 8707SOL    HW227021   3.841   1.556   5.631
 8708SOL     OW27022   3.742   1.490   1.159
 8708SOL    HW127023   3.787   1.482   1.248
 8708SOL    HW227024   3.679   1.568   1.161
 8709SOL     OW27025   5.167   3.460   6.880
 8709SOL    HW127026   5.263   3.468   6.906
 8709SOL    HW227027   5.143   3.364   6.867
 8710SOL     OW27028   6.563   3.736   4.277
 8710SOL    HW127029   6.481   3.778   4.316
 8710SOL    HW227030   6.538   3.673   4.204
 8711SOL     OW27031   2.040   1.588   4.456
 8711SOL    HW127032   2.033   1.497   4.495
 8711SOL    HW227033   2.126   1.630   4.483
 8712SOL     OW27034   3.081   0.081   6.725
 8712SOL    HW127035   3.063   0.071   6.823
 8712SOL    HW227036   3.180   0.091   6.710
 8713SOL     OW27037   6.319   4.926   3.252
 8713SOL    HW127038   6.272   4.880   3.176
 8713SOL    HW227039   6.416   4.903   3.249
 8714SOL     OW27040   2.047   1.129   3.667
 8714SOL    HW127041   2.097   1.086   3.592
 8714SOL    HW227042   1.957   1.086   3.675
 8715SOL     OW27043   5.309   0.397   2.715
 8715SOL    HW127044   5.395   0.372   2.672
 8715SOL    HW227045   5.319   0.485   2.761
 8716SOL     OW27046   1.577   0.679   2.679
 8716SOL    HW127047   1.554   0.776   2.675
 8716SOL    HW227048   1.542   0.632   2.599
 8717SOL     OW27049   4.492   4.208   0.674
 8717SOL    HW127050   4.498   4.165   0.764
 8717SOL    HW227051   4.405   4.257   0.666
 8718SOL     OW27052   6.828   2.609   6.312
 8718SOL    HW127053   6.922   2.598   6.281
 8718SOL    HW227054   6.772   2.645   6.238
 8719SOL     OW27055   6.558   0.941   5.797
 8719SOL    HW127056   6.567   0.932   5.698
 8719SOL    HW227057   6.542   0.851   5.838
 8720SOL     OW27058   5.151   3.197   5.312
 8720SOL    HW127059   5.175   3.194   5.215
 8720SOL    HW227060   5.065   3.246   5.324
 8721SOL     OW27061   6.853   0.468   5.117
 8721SOL    HW127062   6.814   0.544   5.065
 8721SOL    HW227063   6.953   0.477   5.119
 8722SOL     OW27064   3.704   2.493   0.412
 8722SOL    HW127065   3.717   2.563   0.341
 8722SOL    HW227066   3.767   2.510   0.487
 8723SOL     OW27067   0.309   5.845   0.682
 8723SOL    HW127068   0.405   5.836   0.654
 8723SOL    HW227069   0.274   5.755   0.707
 8724SOL     OW27070   4.615   5.674   6.436
 8724SOL    HW127071   4.543   5.625   6.387
 8724SOL    HW227072   4.596   5.772   6.435
 8725SOL     OW27073   2.666   6.698   0.280
 8725SOL    HW127074   2.711   6.775   0.235
 8725SOL    HW227075   2.636   6.726   0.371
 8726SOL     OW27076   0.302   6.487   0.302
 8726SOL    HW127077   0.354   6.572   0.305
 8726SOL    HW227078   0.209   6.503   0.336
 8727SOL     OW27079   5.359   6.294   1.853
 8727SOL    HW127080   5.324   6.358   1.784
 8727SOL    HW227081   5.458   6.307   1.862
 8728SOL     OW27082   2.100   5.638   5.572
 8728SOL    HW127083   2.162   5.559   5.565
 8728SOL    HW227084   2.076   5.653   5.668
 8729SOL     OW27085   4.653   5.711   4.464
 8729SOL    HW127086   4.612   5.697   4.554
 8729SOL    HW227087   4.643   5.806   4.437
 8730SOL     OW27088   6.184   6.668   1.448
 8730SOL    HW127089   6.197   6.760   1.483
 8730SOL    HW227090   6.189   6.602   1.523
 8731SOL     OW27091   0.862   1.977   3.306
 8731SOL    HW127092   0.771   1.934   3.308
 8731SOL    HW227093   0.903   1.971   3.397
 8732SOL     OW27094   6.555   6.399   2.338
 8732SOL    HW127095   6.490   6.398   2.414
 8732SOL    HW227096   6.532   6.472   2.274
 8733SOL     OW27097   6.659   0.393   0.187
 8733SOL    HW127098   6.643   0.395   0.286
 8733SOL    HW227099   6.575   0.418   0.139
 8734SOL     OW27100   6.093   0.086   1.259
 8734SOL    HW127101   6.056   0.170   1.218
 8734SOL    HW227102   6.038   0.008   1.231
 8735SOL     OW27103   0.337   3.192   5.965
 8735SOL    HW127104   0.293   3.273   5.926
 8735SOL    HW227105   0.435   3.195   5.946
 8736SOL     OW27106   0.631   5.074   5.872
 8736SOL    HW127107   0.623   4.974   5.878
 8736SOL    HW227108   0.727   5.099   5.867
 8737SOL     OW27109   4.099   5.674   6.988
 8737SOL    HW127110   4.043   5.742   0.010
 8737SOL    HW227111   4.096   5.692   6.890
 8738SOL     OW27112   1.094   4.037   5.329
 8738SOL    HW127113   1.121   4.133   5.329
 8738SOL    HW227114   0.995   4.031   5.315
 8739SOL     OW27115   1.221   3.276   5.162
 8739SOL    HW127116   1.244   3.368   5.130
 8739SOL    HW227117   1.300   3.216   5.147
 8740SOL     OW27118   1.104   6.122   0.577
 8740SOL    HW127119   1.089   6.142   0.480
 8740SOL    HW227120   1.170   6.047   0.586
 8741SOL     OW27121   1.240   3.109   2.064
 8741SOL    HW127122   1.191   3.033   2.020
 8741SOL    HW227123   1.226   3.192   2.011
 8742SOL     OW27124   4.564   5.081   1.463
 8742SOL    HW127125   4.476   5.114   1.497
 8742SOL    HW227126   4.600   5.012   1.526
 8743SOL     OW27127   3.433   5.442   2.347
 8743SOL    HW127128   3.473   5.521   2.394
 8743SOL    HW227129   3.506   5.381   2.315
 8744SOL     OW27130   2.988   3.575   5.329
 8744SOL    HW127131   2.938   3.489   5.340
 8744SOL    HW227132   3.086   3.558   5.340
 8745SOL     OW27133   5.586   1.811   5.868
 8745SOL    HW127134   5.566   1.836   5.963
 8745SOL    HW227135   5.601   1.713   5.861
 8746SOL     OW27136   5.191   3.425   4.777
 8746SOL    HW127137   5.115   3.417   4.841
 8746SOL    HW227138   5.161   3.476   4.696
 8747SOL     OW27139   1.160   1.912   4.052
 8747SOL    HW127140   1.074   1.961   4.055
 8747SOL    HW227141   1.143   1.814   4.057
 8748SOL     OW27142   3.189   0.912   6.380
 8748SOL    HW127143   3.122   0.890   6.451
 8748SOL    HW227144   3.211   1.010   6.384
 8749SOL     OW27145   4.072   1.327   3.622
 8749SOL    HW127146   3.989   1.274   3.603
 8749SOL    HW227147   4.066   1.368   3.713
 8750SOL     OW27148   2.227   6.641   4.800
 8750SOL    HW127149   2.283   6.628   4.882
 8750SOL    HW227150   2.164   6.717   4.815
 8751SOL     OW27151   1.693   6.354   2.657
 8751SOL    HW127152   1.659   6.276   2.710
 8751SOL    HW227153   1.791   6.364   2.670
 8752SOL     OW27154   2.342   0.749   6.610
 8752SOL    HW127155   2.353   0.821   6.679
 8752SOL    HW227156   2.267   0.772   6.549
 8753SOL     OW27157   5.283   2.182   5.059
 8753SOL    HW127158   5.212   2.249   5.040
 8753SOL    HW227159   5.240   2.098   5.095
 8754SOL     OW27160   1.379   0.877   5.535
 8754SOL    HW127161   1.469   0.922   5.540
 8754SOL    HW227162   1.311   0.943   5.502
 8755SOL     OW27163   1.888   2.521   0.643
 8755SOL    HW127164   1.938   2.584   0.703
 8755SOL    HW227165   1.792   2.518   0.672
 8756SOL     OW27166   3.369   4.893   5.082
 8756SOL    HW127167   3.403   4.842   5.161
 8756SOL    HW227168   3.270   4.901   5.086
 8757SOL     OW27169   3.072   5.540   3.289
 8757SOL    HW127170   3.160   5.586   3.300
 8757SOL    HW227171   3.067   5.463   3.353
 8758SOL     OW27172   4.940   6.763   2.532
 8758SOL    HW127173   5.034   6.794   2.517
 8758SOL    HW227174   4.935   6.664   2.517
 8759SOL     OW27175   5.085   0.110   5.544
 8759SOL    HW127176   5.148   0.187   5.536
 8759SOL    HW227177   5.106   0.043   5.472
 8760SOL     OW27178   1.599   2.621   3.554
 8760SOL    HW127179   1.554   2.664   3.631
 8760SOL    HW227180   1.618   2.525   3.576
 8761SOL     OW27181   4.838   5.851   1.559
 8761SOL    HW127182   4.912   5.844   1.625
 8761SOL    HW227183   4.754   5.812   1.598
 8762SOL     OW27184   1.806   5.297   1.703
 8762SOL    HW127185   1.847   5.376   1.750
 8762SOL    HW227186   1.879   5.238   1.669
 8763SOL     OW27187   6.793   6.016   6.885
 8763SOL    HW127188   6.855   6.003   6.808
 8763SOL    HW227189   6.809   5.944   6.953
 8764SOL     OW27190   2.701   2.057   6.613
 8764SOL    HW127191   2.644   2.139   6.606
 8764SOL    HW227192   2.687   2.015   6.703
 8765SOL     OW27193   5.566   0.319   4.955
 8765SOL    HW127194   5.546   0.388   4.886
 8765SOL    HW227195   5.664   0.301   4.958
 8766SOL     OW27196   2.504   4.496   2.869
 8766SOL    HW127197   2.581   4.559   2.858
 8766SOL    HW227198   2.443   4.529   2.941
 8767SOL     OW27199   3.850   0.873   5.320
 8767SOL    HW127200   3.852   0.969   5.293
 8767SOL    HW227201   3.845   0.867   5.420
 8768SOL     OW27202   1.107   4.234   1.094
 8768SOL    HW127203   1.116   4.176   1.013
 8768SOL    HW227204   1.017   4.219   1.136
 8769SOL     OW27205   1.853   0.408   6.668
 8769SOL    HW127206   1.862   0.507   6.659
 8769SOL    HW227207   1.809   0.386   6.756
 8770SOL     OW27208   6.216   1.905   3.185
 8770SOL    HW127209   6.144   1.968   3.155
 8770SOL    HW227210   6.223   1.828   3.121
 8771SOL     OW27211   3.089   3.143   4.684
 8771SOL    HW127212   3.047   3.219   4.634
 8771SOL    HW227213   3.166   3.107   4.632
 8772SOL     OW27214   0.292   0.010   6.900
 8772SOL    HW127215   0.281   0.063   6.984
 8772SOL    HW227216   0.389   0.003   6.877
 8773SOL     OW27217   3.064   1.798   3.361
 8773SOL    HW127218   3.146   1.741   3.349
 8773SOL    HW227219   2.990   1.743   3.399
 8774SOL     OW27220   1.248   1.314   0.589
 8774SOL    HW127221   1.248   1.351   0.682
 8774SOL    HW227222   1.319   1.361   0.535
 8775SOL     OW27223   6.105   6.309   4.202
 8775SOL    HW127224   6.074   6.291   4.295
 8775SOL    HW227225   6.055   6.249   4.139
 8776SOL     OW27226   3.494   3.495   5.786
 8776SOL    HW127227   3.449   3.526   5.702
 8776SOL    HW227228   3.542   3.571   5.828
 8777SOL     OW27229   6.317   5.656   2.937
 8777SOL    HW127230   6.411   5.673   2.967
 8777SOL    HW227231   6.253   5.690   3.006
 8778SOL     OW27232   0.942   2.977   2.869
 8778SOL    HW127233   0.845   2.996   2.887
 8778SOL    HW227234   0.949   2.915   2.791
 8779SOL     OW27235   1.792   4.618   0.838
 8779SOL    HW127236   1.818   4.522   0.828
 8779SOL    HW227237   1.695   4.623   0.861
 8780SOL     OW27238   2.251   6.089   5.305
 8780SOL    HW127239   2.204   6.175   5.321
 8780SOL    HW227240   2.200   6.014   5.348
 8781SOL     OW27241   0.657   3.109   2.684
 8781SOL    HW127242   0.567   3.068   2.696
 8781SOL    HW227243   0.694   3.083   2.595
 8782SOL     OW27244   5.609   0.947   4.238
 8782SOL    HW127245   5.589   1.022   4.175
 8782SOL    HW227246   5.649   0.871   4.187
 8783SOL     OW27247   6.091   2.499   6.296
 8783SOL    HW127248   6.011   2.541   6.338
 8783SOL    HW227249   6.106   2.538   6.205
 8784SOL     OW27250   5.148   3.936   6.303
 8784SOL    HW127251   5.240   3.969   6.322
 8784SOL    HW227252   5.133   3.848   6.349
 8785SOL     OW27253   5.084   4.038   6.073
 8785SOL    HW127254   5.098   3.978   6.152
 8785SOL    HW227255   5.060   3.983   5.993
 8786SOL     OW27256   2.113   5.577   6.638
 8786SOL    HW127257   2.110   5.553   6.541
 8786SOL    HW227258   2.042   5.645   6.658
 8787SOL     OW27259   0.896   2.117   6.519
 8787SOL    HW127260   0.988   2.080   6.508
 8787SOL    HW227261   0.834   2.044   6.549
 8788SOL     OW27262   1.348   1.502   5.266
 8788SOL    HW127263   1.357   1.403   5.273
 8788SOL    HW227264   1.325   1.540   5.356
 8789SOL     OW27265   6.978   1.792   0.171
 8789SOL    HW127266   6.969   1.892   0.166
 8789SOL    HW227267   6.947   1.760   0.261
 8790SOL     OW27268   4.221   1.216   0.032
 8790SOL    HW127269   4.317   1.191   0.038
 8790SOL    HW227270   4.184   1.188   6.968
 8791SOL     OW27271   6.195   6.248   5.778
 8791SOL    HW127272   6.238   6.274   5.691
 8791SOL    HW227273   6.120   6.184   5.760
 8792SOL     OW27274   5.854   6.607   2.399
 8792SOL    HW127275   5.821   6.522   2.440
 8792SOL    HW227276   5.912   6.586   2.320
 8793SOL     OW27277   1.205   5.405   2.775
 8793SOL    HW127278   1.255   5.458   2.844
 8793SOL    HW227279   1.189   5.463   2.694
 8794SOL     OW27280   2.505   6.842   2.118
 8794SOL    HW127281   2.469   6.819   2.208
 8794SOL    HW227282   2.434   6.887   2.063
 8795SOL     OW27283   3.228   6.874   4.461
 8795SOL    HW127284   3.266   6.960   4.493
 8795SOL    HW227285   3.141   6.890   4.414
 8796SOL     OW27286   3.962   1.832   4.373
 8796SOL    HW127287   3.996   1.871   4.459
 8796SOL    HW227288   3.905   1.900   4.326
 8797SOL     OW27289   6.860   5.599   6.827
 8797SOL    HW127290   6.923   5.535   6.871
 8797SOL    HW227291   6.769   5.557   6.821
 8798SOL     OW27292   3.728   3.662   5.571
 8798SOL    HW127293   3.725   3.562   5.557
 8798SOL    HW227294   3.780   3.704   5.496
 8799SOL     OW27295   4.076   0.962   2.026
 8799SOL    HW127296   4.098   1.049   2.069
 8799SOL    HW227297   4.156   0.927   1.978
 8800SOL     OW27298   4.159   3.765   0.677
 8800SOL    HW127299   4.188   3.684   0.625
 8800SOL    HW227300   4.216   3.773   0.759
 8801SOL     OW27301   2.981   6.747   5.478
 8801SOL    HW127302   3.067   6.766   5.526
 8801SOL    HW227303   2.974   6.808   5.399
 8802SOL     OW27304   1.490   6.422   1.057
 8802SOL    HW127305   1.456   6.505   1.013
 8802SOL    HW227306   1.571   6.443   1.112
 8803SOL     OW27307   3.712   5.850   2.162
 8803SOL    HW127308   3.751   5.766   2.125
 8803SOL    HW227309   3.741   5.862   2.257
 8804SOL     OW27310   3.178   0.779   1.533
 8804SOL    HW127311   3.265   0.786   1.485
 8804SOL    HW227312   3.185   0.711   1.606
 8805SOL     OW27313   6.809   0.681   3.823
 8805SOL    HW127314   6.731   0.715   3.771
 8805SOL    HW227315   6.894   0.701   3.773
 8806SOL     OW27316   2.046   4.898   6.643
 8806SOL    HW127317   2.125   4.886   6.583
 8806SOL    HW227318   2.077   4.911   6.737
 8807SOL     OW27319   1.631   5.178   6.120
 8807SOL    HW127320   1.628   5.107   6.050
 8807SOL    HW227321   1.717   5.229   6.112
 8808SOL     OW27322   5.949   2.256   1.140
 8808SOL    HW127323   5.891   2.309   1.078
 8808SOL    HW227324   6.043   2.289   1.134
 8809SOL     OW27325   5.911   4.157   6.888
 8809SOL    HW127326   5.817   4.187   6.904
 8809SOL    HW227327   5.974   4.233   6.904
 8810SOL     OW27328   5.373   1.780   4.193
 8810SOL    HW127329   5.395   1.735   4.280
 8810SOL    HW227330   5.275   1.798   4.188
 8811SOL     OW27331   0.586   0.877   3.432
 8811SOL    HW127332   0.532   0.812   3.378
 8811SOL    HW227333   0.560   0.870   3.528
 8812SOL     OW27334   2.194   0.849   0.582
 8812SOL    HW127335   2.286   0.885   0.596
 8812SOL    HW227336   2.198   0.761   0.536
 8813SOL     OW27337   0.567   5.516   1.110
 8813SOL    HW127338   0.572   5.614   1.130
 8813SOL    HW227339   0.472   5.486   1.111
 8814SOL     OW27340   5.930   6.746   6.190
 8814SOL    HW127341   6.021   6.783   6.206
 8814SOL    HW227342   5.931   6.647   6.203
 8815SOL     OW27343   6.313   4.633   3.175
 8815SOL    HW127344   6.340   4.547   3.132
 8815SOL    HW227345   6.317   4.624   3.274
 8816SOL     OW27346   0.572   5.821   2.423
 8816SOL    HW127347   0.663   5.861   2.432
 8816SOL    HW227348   0.579   5.732   2.379
 8817SOL     OW27349   1.717   4.030   4.996
 8817SOL    HW127350   1.808   4.067   5.018
 8817SOL    HW227351   1.723   3.930   4.992
 8818SOL     OW27352   0.134   4.942   5.263
 8818SOL    HW127353   0.099   4.886   5.338
 8818SOL    HW227354   0.058   4.988   5.217
 8819SOL     OW27355   0.571   1.446   4.374
 8819SOL    HW127356   0.643   1.465   4.307
 8819SOL    HW227357   0.602   1.471   4.466
 8820SOL     OW27358   1.446   2.338   3.405
 8820SOL    HW127359   1.444   2.240   3.385
 8820SOL    HW227360   1.507   2.355   3.482
 8821SOL     OW27361   1.353   6.067   0.132
 8821SOL    HW127362   1.453   6.072   0.131
 8821SOL    HW227363   1.315   6.151   0.092
 8822SOL     OW27364   1.412   2.020   3.573
 8822SOL    HW127365   1.356   2.000   3.493
 8822SOL    HW227366   1.508   2.020   3.547
 8823SOL     OW27367   2.553   5.368   0.444
 8823SOL    HW127368   2.483   5.333   0.382
 8823SOL    HW227369   2.558   5.468   0.435
 8824SOL     OW27370   5.185   4.572   1.631
 8824SOL    HW127371   5.147   4.588   1.540
 8824SOL    HW227372   5.117   4.527   1.689
 8825SOL     OW27373   2.497   1.994   6.809
 8825SOL    HW127374   2.416   1.937   6.816
 8825SOL    HW227375   2.513   2.041   6.895
 8826SOL     OW27376   5.648   0.282   1.087
 8826SOL    HW127377   5.557   0.312   1.057
 8826SOL    HW227378   5.650   0.278   1.187
 8827SOL     OW27379   6.843   1.258   4.196
 8827SOL    HW127380   6.924   1.228   4.246
 8827SOL    HW227381   6.792   1.324   4.252
 8828SOL     OW27382   1.539   5.699   2.858
 8828SOL    HW127383   1.491   5.730   2.776
 8828SOL    HW227384   1.492   5.735   2.939
 8829SOL     OW27385   6.929   0.769   1.316
 8829SOL    HW127386   6.999   0.712   1.273
 8829SOL    HW227387   6.885   0.719   1.390
 8830SOL     OW27388   1.258   1.631   1.238
 8830SOL    HW127389   1.307   1.548   1.212
 8830SOL    HW227390   1.184   1.647   1.173
 8831SOL     OW27391   0.042   0.124   0.938
 8831SOL    HW127392   0.018   0.187   0.865
 8831SOL    HW227393   0.029   0.030   0.908
 8832SOL     OW27394   6.183   0.742   1.366
 8832SOL    HW127395   6.168   0.830   1.412
 8832SOL    HW227396   6.104   0.722   1.308
 8833SOL     OW27397   6.863   5.240   1.056
 8833SOL    HW127398   6.773   5.282   1.064
 8833SOL    HW227399   6.902   5.227   1.148
 8834SOL     OW27400   6.542   4.523   4.945
 8834SOL    HW127401   6.459   4.502   4.893
 8834SOL    HW227402   6.599   4.441   4.950
 8835SOL     OW27403   1.129   1.708   0.599
 8835SOL    HW127404   1.117   1.625   0.543
 8835SOL    HW227405   1.064   1.778   0.569
 8836SOL     OW27406   4.935   2.299   1.460
 8836SOL    HW127407   4.937   2.384   1.512
 8836SOL    HW227408   4.908   2.318   1.366
 8837SOL     OW27409   0.652   2.786   2.245
 8837SOL    HW127410   0.615   2.747   2.329
 8837SOL    HW227411   0.656   2.885   2.253
 8838SOL     OW27412   1.780   6.373   3.148
 8838SOL    HW127413   1.846   6.349   3.077
 8838SOL    HW227414   1.689   6.341   3.122
 8839SOL     OW27415   5.738   5.198   5.186
 8839SOL    HW127416   5.719   5.123   5.123
 8839SOL    HW227417   5.659   5.259   5.190
 8840SOL     OW27418   4.313   0.585   2.003
 8840SOL    HW127419   4.381   0.514   2.022
 8840SOL    HW227420   4.349   0.674   2.030
 8841SOL     OW27421   4.076   0.129   2.964
 8841SOL    HW127422   4.068   0.136   2.864
 8841SOL    HW227423   3.986   0.143   3.005
 8842SOL     OW27424   1.584   1.603   2.114
 8842SOL    HW127425   1.588   1.517   2.062
 8842SOL    HW227426   1.603   1.584   2.210
 8843SOL     OW27427   0.364   2.874   3.949
 8843SOL    HW127428   0.272   2.866   3.989
 8843SOL    HW227429   0.427   2.908   4.019
 8844SOL     OW27430   5.834   1.701   6.815
 8844SOL    HW127431   5.827   1.779   6.754
 8844SOL    HW227432   5.853   1.618   6.762
 8845SOL     OW27433   5.722   2.927   0.229
 8845SOL    HW127434   5.707   3.025   0.222
 8845SOL    HW227435   5.696   2.896   0.321
 8846SOL     OW27436   3.230   4.954   4.357
 8846SOL    HW127437   3.326   4.934   4.374
 8846SOL    HW227438   3.181   4.954   4.445
 8847SOL     OW27439   1.869   2.029   3.738
 8847SOL    HW127440   1.879   1.979   3.824
 8847SOL    HW227441   1.959   2.042   3.696
 8848SOL     OW27442   0.222   1.445   4.166
 8848SOL    HW127443   0.202   1.414   4.073
 8848SOL    HW227444   0.169   1.527   4.185
 8849SOL     OW27445   2.838   6.694   1.582
 8849SOL    HW127446   2.862   6.598   1.570
 8849SOL    HW227447   2.808   6.710   1.676
 8850SOL     OW27448   3.397   1.581   0.289
 8850SOL    HW127449   3.478   1.609   0.341
 8850SOL    HW227450   3.326   1.550   0.351
 8851SOL     OW27451   2.384   3.738   1.177
 8851SOL    HW127452   2.364   3.790   1.260
 8851SOL    HW227453   2.446   3.663   1.198
 8852SOL     OW27454   1.170   2.957   4.967
 8852SOL    HW127455   1.119   3.014   4.902
 8852SOL    HW227456   1.106   2.903   5.021
 8853SOL     OW27457   5.219   0.149   2.064
 8853SOL    HW127458   5.240   0.212   2.139
 8853SOL    HW227459   5.134   0.100   2.085
 8854SOL     OW27460   0.089   2.858   4.937
 8854SOL    HW127461   0.030   2.889   5.012
 8854SOL    HW227462   0.063   2.766   4.909
 8855SOL     OW27463   5.118   4.808   1.072
 8855SOL    HW127464   5.210   4.810   1.032
 8855SOL    HW227465   5.058   4.869   1.019
 8856SOL     OW27466   6.443   0.755   5.348
 8856SOL    HW127467   6.457   0.667   5.303
 8856SOL    HW227468   6.358   0.752   5.400
 8857SOL     OW27469   6.802   2.122   0.010
 8857SOL    HW127470   6.861   2.114   0.090
 8857SOL    HW227471   6.835   2.062   6.963
 8858SOL     OW27472   0.750   5.112   5.499
 8858SOL    HW127473   0.790   5.020   5.501
 8858SOL    HW227474   0.661   5.109   5.453
 8859SOL     OW27475   0.428   6.032   3.403
 8859SOL    HW127476   0.483   6.028   3.320
 8859SOL    HW227477   0.339   5.991   3.386
 8860SOL     OW27478   0.093   2.486   3.404
 8860SOL    HW127479   0.162   2.509   3.335
 8860SOL    HW227480   0.120   2.524   3.492
 8861SOL     OW27481   3.485   2.736   0.845
 8861SOL    HW127482   3.453   2.763   0.935
 8861SOL    HW227483   3.471   2.638   0.833
 8862SOL     OW27484   4.507   4.704   4.698
 8862SOL    HW127485   4.505   4.709   4.598
 8862SOL    HW227486   4.417   4.725   4.734
 8863SOL     OW27487   1.940   3.834   1.735
 8863SOL    HW127488   1.942   3.873   1.827
 8863SOL    HW227489   1.896   3.744   1.738
 8864SOL     OW27490   6.833   2.169   4.725
 8864SOL    HW127491   6.782   2.084   4.737
 8864SOL    HW227492   6.812   2.209   4.636
 8865SOL     OW27493   2.386   1.504   0.637
 8865SOL    HW127494   2.349   1.507   0.730
 8865SOL    HW227495   2.480   1.468   0.640
 8866SOL     OW27496   5.980   1.000   1.892
 8866SOL    HW127497   6.002   1.087   1.936
 8866SOL    HW227498   5.914   0.950   1.948
 8867SOL     OW27499   5.675   2.310   4.054
 8867SOL    HW127500   5.748   2.289   3.989
 8867SOL    HW227501   5.599   2.354   4.006
 8868SOL     OW27502   0.545   2.658   3.838
 8868SOL    HW127503   0.600   2.614   3.767
 8868SOL    HW227504   0.467   2.705   3.797
 8869SOL     OW27505   3.889   0.423   3.207
 8869SOL    HW127506   3.792   0.402   3.201
 8869SOL    HW227507   3.920   0.417   3.302
 8870SOL     OW27508   1.030   0.741   1.424
 8870SOL    HW127509   0.954   0.806   1.429
 8870SOL    HW227510   1.034   0.702   1.333
 8871SOL     OW27511   6.747   6.914   6.914
 8871SOL    HW127512   6.807   6.992   6.935
 8871SOL    HW227513   6.800   6.830   6.914
 8872SOL     OW27514   6.487   5.259   3.531
 8872SOL    HW127515   6.561   5.317   3.565
 8872SOL    HW227516   6.525   5.171   3.501
 8873SOL     OW27517   1.574   1.507   3.261
 8873SOL    HW127518   1.546   1.562   3.339
 8873SOL    HW227519   1.493   1.480   3.208
 8874SOL     OW27520   2.327   6.313   0.770
 8874SOL    HW127521   2.266   6.263   0.831
 8874SOL    HW227522   2.400   6.252   0.738
 8875SOL     OW27523   6.796   2.879   4.281
 8875SOL    HW127524   6.762   2.796   4.237
 8875SOL    HW227525   6.779   2.958   4.221
 8876SOL     OW27526   4.963   0.059   0.822
 8876SOL    HW127527   4.883   0.095   0.773
 8876SOL    HW227528   4.994   7.000   0.779
 8877SOL     OW27529   1.127   4.564   2.051
 8877SOL    HW127530   1.032   4.594   2.047
 8877SOL    HW227531   1.178   4.603   1.974
 8878SOL     OW27532   4.885   3.871   2.245
 8878SOL    HW127533   4.834   3.785   2.252
 8878SOL    HW227534   4.944   3.868   2.164
 8879SOL     OW27535   6.633   4.813   3.778
 8879SOL    HW127536   6.680   4.774   3.699
 8879SOL    HW227537   6.664   4.766   3.861
 8880SOL     OW27538   4.206   1.622   2.828
 8880SOL    HW127539   4.145   1.660   2.898
 8880SOL    HW227540   4.187   1.665   2.740
 8881SOL     OW27541   3.928   6.387   2.730
 8881SOL    HW127542   3.861   6.324   2.691
 8881SOL    HW227543   3.889   6.431   2.812
 8882SOL     OW27544   3.815   1.029   0.052
 8882SOL    HW127545   3.817   1.111   7.019
 8882SOL    HW227546   3.767   0.956   0.004
 8883SOL     OW27547   0.407   6.613   2.840
 8883SOL    HW127548   0.450   6.547   2.778
 8883SOL    HW227549   0.427   6.705   2.808
 8884SOL     OW27550   4.510   1.702   5.962
 8884SOL    HW127551   4.497   1.648   6.045
 8884SOL    HW227552   4.454   1.664   5.889
 8885SOL     OW27553   5.124   5.493   0.494
 8885SOL    HW127554   5.180   5.475   0.414
 8885SOL    HW227555   5.079   5.408   0.522
 8886SOL     OW27556   4.314   0.155   1.056
 8886SOL    HW127557   4.289   0.128   0.963
 8886SOL    HW227558   4.232   0.159   1.113
 8887SOL     OW27559   4.201   0.696   2.368
 8887SOL    HW127560   4.297   0.673   2.354
 8887SOL    HW227561   4.192   0.769   2.435
 8888SOL     OW27562   3.909   1.840   2.228
 8888SOL    HW127563   3.901   1.779   2.149
 8888SOL    HW227564   3.908   1.935   2.198
 8889SOL     OW27565   1.488   4.361   6.832
 8889SOL    HW127566   1.510   4.275   6.787
 8889SOL    HW227567   1.562   4.427   6.816
 8890SOL     OW27568   2.080   5.766   6.969
 8890SOL    HW127569   2.067   5.849   7.023
 8890SOL    HW227570   2.170   5.769   6.925
 8891SOL     OW27571   5.547   3.838   5.458
 8891SOL    HW127572   5.581   3.850   5.551
 8891SOL    HW227573   5.473   3.903   5.440
 8892SOL     OW27574   2.591   5.125   5.871
 8892SOL    HW127575   2.671   5.080   5.831
 8892SOL    HW227576   2.612   5.152   5.965
 8893SOL     OW27577   0.934   4.642   5.266
 8893SOL    HW127578   0.858   4.578   5.279
 8893SOL    HW227579   1.015   4.608   5.313
 8894SOL     OW27580   6.305   2.182   1.836
 8894SOL    HW127581   6.213   2.218   1.847
 8894SOL    HW227582   6.318   2.103   1.896
 8895SOL     OW27583   0.423   3.252   2.406
 8895SOL    HW127584   0.389   3.291   2.321
 8895SOL    HW227585   0.491   3.314   2.446
 8896SOL     OW27586   0.544   0.580   3.850
 8896SOL    HW127587   0.485   0.583   3.931
 8896SOL    HW227588   0.490   0.552   3.771
 8897SOL     OW27589   1.346   4.640   4.284
 8897SOL    HW127590   1.387   4.559   4.326
 8897SOL    HW227591   1.402   4.720   4.306
 8898SOL     OW27592   6.290   5.215   2.385
 8898SOL    HW127593   6.269   5.310   2.408
 8898SOL    HW227594   6.216   5.156   2.415
 8899SOL     OW27595   1.988   4.713   2.280
 8899SOL    HW127596   2.031   4.785   2.334
 8899SOL    HW227597   2.044   4.630   2.287
 8900SOL     OW27598   4.470   1.730   5.001
 8900SOL    HW127599   4.487   1.823   4.971
 8900SOL    HW227600   4.489   1.666   4.927
 8901SOL     OW27601   0.974   5.319   5.920
 8901SOL    HW127602   0.933   5.247   5.863
 8901SOL    HW227603   1.073   5.310   5.917
 8902SOL     OW27604   1.031   3.918   6.452
 8902SOL    HW127605   1.078   3.865   6.523
 8902SOL    HW227606   1.098   3.964   6.394
 8903SOL     OW27607   0.496   1.391   4.058
 8903SOL    HW127608   0.555   1.445   4.119
 8903SOL    HW227609   0.401   1.398   4.089
 8904SOL     OW27610   5.996   0.975   2.233
 8904SOL    HW127611   5.937   1.054   2.252
 8904SOL    HW227612   6.043   0.947   2.316
 8905SOL     OW27613   1.499   5.259   1.037
 8905SOL    HW127614   1.583   5.222   0.997
 8905SOL    HW227615   1.428   5.189   1.035
 8906SOL     OW27616   6.903   1.263   6.115
 8906SOL    HW127617   6.953   1.227   6.194
 8906SOL    HW227618   6.903   1.196   6.041
 8907SOL     OW27619   2.835   3.025   5.337
 8907SOL    HW127620   2.740   3.006   5.362
 8907SOL    HW227621   2.843   3.024   5.237
 8908SOL     OW27622   2.152   6.355   5.360
 8908SOL    HW127623   2.068   6.396   5.326
 8908SOL    HW227624   2.166   6.381   5.456
 8909SOL     OW27625   2.662   6.216   1.802
 8909SOL    HW127626   2.735   6.276   1.834
 8909SOL    HW227627   2.653   6.224   1.703
 8910SOL     OW27628   1.277   0.797   3.883
 8910SOL    HW127629   1.210   0.724   3.874
 8910SOL    HW227630   1.369   0.758   3.882
 8911SOL     OW27631   5.020   2.704   4.439
 8911SOL    HW127632   5.008   2.772   4.367
 8911SOL    HW227633   5.114   2.670   4.438
 8912SOL     OW27634   3.735   3.561   3.318
 8912SOL    HW127635   3.823   3.567   3.270
 8912SOL    HW227636   3.686   3.647   3.309
 8913SOL     OW27637   5.015   5.738   0.349
 8913SOL    HW127638   5.051   5.675   0.417
 8913SOL    HW227639   4.918   5.721   0.335
 8914SOL     OW27640   5.338   4.768   4.786
 8914SOL    HW127641   5.366   4.727   4.872
 8914SOL    HW227642   5.392   4.730   4.711
 8915SOL     OW27643   2.825   1.674   3.108
 8915SOL    HW127644   2.855   1.639   3.019
 8915SOL    HW227645   2.776   1.760   3.094
 8916SOL     OW27646   6.578   6.853   2.318
 8916SOL    HW127647   6.537   6.813   2.237
 8916SOL    HW227648   6.510   6.911   2.364
 8917SOL     OW27649   5.596   2.925   7.008
 8917SOL    HW127650   5.619   2.923   0.080
 8917SOL    HW227651   5.618   2.837   6.966
 8918SOL     OW27652   1.645   3.152   2.828
 8918SOL    HW127653   1.604   3.242   2.838
 8918SOL    HW227654   1.742   3.156   2.852
 8919SOL     OW27655   0.249   2.154   3.486
 8919SOL    HW127656   0.302   2.225   3.438
 8919SOL    HW227657   0.190   2.197   3.554
 8920SOL     OW27658   1.403   1.625   0.185
 8920SOL    HW127659   1.429   1.548   0.126
 8920SOL    HW227660   1.401   1.593   0.280
 8921SOL     OW27661   1.555   1.799   1.891
 8921SOL    HW127662   1.543   1.887   1.936
 8921SOL    HW227663   1.580   1.730   1.959
 8922SOL     OW27664   3.603   5.517   3.513
 8922SOL    HW127665   3.602   5.617   3.517
 8922SOL    HW227666   3.530   5.480   3.571
 8923SOL     OW27667   2.664   2.425   3.918
 8923SOL    HW127668   2.700   2.430   4.011
 8923SOL    HW227669   2.566   2.405   3.921
 8924SOL     OW27670   6.305   4.891   4.941
 8924SOL    HW127671   6.305   4.906   4.843
 8924SOL    HW227672   6.253   4.808   4.962
 8925SOL     OW27673   0.656   6.160   3.804
 8925SOL    HW127674   0.635   6.165   3.902
 8925SOL    HW227675   0.571   6.158   3.752
 8926SOL     OW27676   5.860   2.257   6.764
 8926SOL    HW127677   5.935   2.256   6.830
 8926SOL    HW227678   5.862   2.343   6.713
 8927SOL     OW27679   1.292   1.248   6.367
 8927SOL    HW127680   1.285   1.195   6.282
 8927SOL    HW227681   1.332   1.338   6.347
 8928SOL     OW27682   6.748   6.746   5.000
 8928SOL    HW127683   6.669   6.685   4.992
 8928SOL    HW227684   6.717   6.839   5.021
 8929SOL     OW27685   0.461   1.517   3.796
 8929SOL    HW127686   0.502   1.475   3.877
 8929SOL    HW227687   0.524   1.509   3.718
 8930SOL     OW27688   2.361   5.518   2.111
 8930SOL    HW127689   2.315   5.431   2.092
 8930SOL    HW227690   2.293   5.591   2.117
 8931SOL     OW27691   4.886   3.767   6.948
 8931SOL    HW127692   4.875   3.731   0.015
 8931SOL    HW227693   4.952   3.842   6.949
 8932SOL     OW27694   0.577   3.064   2.280
 8932SOL    HW127695   0.526   3.037   2.198
 8932SOL    HW227696   0.524   3.132   2.331
 8933SOL     OW27697   4.996   2.706   5.726
 8933SOL    HW127698   4.897   2.712   5.711
 8933SOL    HW227699   5.044   2.728   5.641
 8934SOL     OW27700   2.508   5.786   2.559
 8934SOL    HW127701   2.508   5.883   2.533
 8934SOL    HW227702   2.533   5.730   2.480
 8935SOL     OW27703   0.005   5.900   6.704
 8935SOL    HW127704   6.997   5.817   6.660
 8935SOL    HW227705   0.088   5.931   6.658
 8936SOL     OW27706   4.538   3.505   0.134
 8936SOL    HW127707   4.553   3.492   0.232
 8936SOL    HW227708   4.541   3.602   0.112
 8937SOL     OW27709   0.184   1.743   6.484
 8937SOL    HW127710   0.243   1.678   6.437
 8937SOL    HW227711   0.142   1.805   6.417
 8938SOL     OW27712   5.020   5.116   1.826
 8938SOL    HW127713   5.118   5.104   1.842
 8938SOL    HW227714   5.003   5.130   1.728
 8939SOL     OW27715   6.296   1.740   4.429
 8939SOL    HW127716   6.288   1.838   4.415
 8939SOL    HW227717   6.227   1.709   4.494
 8940SOL     OW27718   5.427   6.605   1.775
 8940SOL    HW127719   5.417   6.698   1.739
 8940SOL    HW227720   5.337   6.561   1.776
 8941SOL     OW27721   3.997   1.766   0.180
 8941SOL    HW127722   4.073   1.801   0.125
 8941SOL    HW227723   3.987   1.668   0.163
 8942SOL     OW27724   1.124   1.853   5.899
 8942SOL    HW127725   1.156   1.783   5.963
 8942SOL    HW227726   1.200   1.885   5.844
 8943SOL     OW27727   4.793   3.244   0.289
 8943SOL    HW127728   4.736   3.256   0.370
 8943SOL    HW227729   4.767   3.160   0.241
 8944SOL     OW27730   4.506   5.232   0.538
 8944SOL    HW127731   4.596   5.189   0.526
 8944SOL    HW227732   4.470   5.259   0.448
 8945SOL     OW27733   2.136   0.430   3.696
 8945SOL    HW127734   2.200   0.490   3.744
 8945SOL    HW227735   2.044   0.443   3.732
 8946SOL     OW27736   3.768   6.949   5.429
 8946SOL    HW127737   3.758   6.932   5.331
 8946SOL    HW227738   3.684   6.991   5.464
 8947SOL     OW27739   3.207   3.523   5.604
 8947SOL    HW127740   3.293   3.559   5.568
 8947SOL    HW227741   3.145   3.599   5.623
 8948SOL     OW27742   5.348   5.449   3.702
 8948SOL    HW127743   5.303   5.401   3.627
 8948SOL    HW227744   5.395   5.383   3.761
 8949SOL     OW27745   1.637   5.435   6.240
 8949SOL    HW127746   1.556   5.484   6.208
 8949SOL    HW227747   1.620   5.337   6.234
 8950SOL     OW27748   5.133   2.436   5.253
 8950SOL    HW127749   5.105   2.347   5.217
 8950SOL    HW227750   5.065   2.505   5.228
 8951SOL     OW27751   2.659   1.121   5.279
 8951SOL    HW127752   2.601   1.202   5.277
 8951SOL    HW227753   2.660   1.077   5.189
 8952SOL     OW27754   5.193   6.665   3.446
 8952SOL    HW127755   5.237   6.748   3.478
 8952SOL    HW227756   5.146   6.683   3.360
 8953SOL     OW27757   1.519   5.322   6.525
 8953SOL    HW127758   1.595   5.386   6.510
 8953SOL    HW227759   1.535   5.239   6.472
 8954SOL     OW27760   2.543   6.735   6.145
 8954SOL    HW127761   2.535   6.639   6.119
 8954SOL    HW227762   2.533   6.743   6.245
 8955SOL     OW27763   0.176   3.486   4.103
 8955SOL    HW127764   0.188   3.441   4.191
 8955SOL    HW227765   0.131   3.575   4.116
 8956SOL     OW27766   1.728   0.458   3.983
 8956SOL    HW127767   1.754   0.541   4.033
 8956SOL    HW227768   1.655   0.411   4.032
 8957SOL     OW27769   3.120   5.993   1.724
 8957SOL    HW127770   3.158   6.033   1.640
 8957SOL    HW227771   3.194   5.967   1.785
 8958SOL     OW27772   2.789   0.552   4.609
 8958SOL    HW127773   2.852   0.594   4.675
 8958SOL    HW227774   2.801   0.452   4.611
 8959SOL     OW27775   3.217   5.565   6.619
 8959SOL    HW127776   3.247   5.643   6.674
 8959SOL    HW227777   3.288   5.542   6.552
 8960SOL     OW27778   4.297   5.791   0.828
 8960SOL    HW127779   4.352   5.809   0.747
 8960SOL    HW227780   4.200   5.790   0.804
 8961SOL     OW27781   0.491   3.096   4.549
 8961SOL    HW127782   0.437   3.012   4.555
 8961SOL    HW227783   0.584   3.078   4.581
 8962SOL     OW27784   4.414   0.705   3.900
 8962SOL    HW127785   4.480   0.671   3.833
 8962SOL    HW227786   4.326   0.719   3.856
 8963SOL     OW27787   1.037   0.465   4.374
 8963SOL    HW127788   0.980   0.541   4.404
 8963SOL    HW227789   0.985   0.406   4.312
 8964SOL     OW27790   0.839   2.265   3.444
 8964SOL    HW127791   0.846   2.276   3.345
 8964SOL    HW227792   0.930   2.247   3.483
 8965SOL     OW27793   1.622   4.710   1.356
 8965SOL    HW127794   1.686   4.759   1.297
 8965SOL    HW227795   1.530   4.716   1.319
 8966SOL     OW27796   3.456   2.110   4.675
 8966SOL    HW127797   3.402   2.135   4.755
 8966SOL    HW227798   3.553   2.110   4.699
 8967SOL     OW27799   5.003   6.879   0.384
 8967SOL    HW127800   4.951   6.803   0.425
 8967SOL    HW227801   5.100   6.857   0.386
 8968SOL     OW27802   6.618   4.215   3.886
 8968SOL    HW127803   6.524   4.198   3.858
 8968SOL    HW227804   6.631   4.313   3.902
 8969SOL     OW27805   6.377   0.146   3.856
 8969SOL    HW127806   6.463   0.145   3.805
 8969SOL    HW227807   6.344   0.052   3.867
 8970SOL     OW27808   3.006   2.834   1.250
 8970SOL    HW127809   3.036   2.802   1.340
 8970SOL    HW227810   3.019   2.761   1.183
 8971SOL     OW27811   3.310   6.640   2.653
 8971SOL    HW127812   3.272   6.585   2.578
 8971SOL    HW227813   3.402   6.671   2.628
 8972SOL     OW27814   5.776   0.345   5.635
 8972SOL    HW127815   5.868   0.380   5.655
 8972SOL    HW227816   5.782   0.249   5.609
 8973SOL     OW27817   1.675   4.597   6.843
 8973SOL    HW127818   1.760   4.608   6.893
 8973SOL    HW227819   1.674   4.659   6.764
 8974SOL     OW27820   1.031   2.878   4.203
 8974SOL    HW127821   0.979   2.793   4.209
 8974SOL    HW227822   1.044   2.904   4.107
 8975SOL     OW27823   3.704   0.975   6.431
 8975SOL    HW127824   3.646   1.003   6.354
 8975SOL    HW227825   3.751   0.890   6.408
 8976SOL     OW27826   1.487   6.020   4.137
 8976SOL    HW127827   1.517   5.992   4.046
 8976SOL    HW227828   1.387   6.014   4.143
 8977SOL     OW27829   5.851   2.025   0.139
 8977SOL    HW127830   5.800   2.104   0.172
 8977SOL    HW227831   5.788   1.956   0.105
 8978SOL     OW27832   5.609   4.362   2.462
 8978SOL    HW127833   5.702   4.326   2.451
 8978SOL    HW227834   5.552   4.331   2.386
 8979SOL     OW27835   0.867   4.821   5.074
 8979SOL    HW127836   0.912   4.764   5.142
 8979SOL    HW227837   0.810   4.889   5.119
 8980SOL     OW27838   3.137   3.079   3.711
 8980SOL    HW127839   3.142   3.038   3.620
 8980SOL    HW227840   3.207   3.039   3.769
 8981SOL     OW27841   3.298   2.452   5.459
 8981SOL    HW127842   3.219   2.469   5.517
 8981SOL    HW227843   3.268   2.439   5.364
 8982SOL     OW27844   2.690   4.745   0.116
 8982SOL    HW127845   2.726   4.782   0.031
 8982SOL    HW227846   2.729   4.794   0.194
 8983SOL     OW27847   4.682   4.420   0.937
 8983SOL    HW127848   4.731   4.383   0.858
 8983SOL    HW227849   4.741   4.413   1.018
 8984SOL     OW27850   1.497   6.421   2.479
 8984SOL    HW127851   1.547   6.362   2.543
 8984SOL    HW227852   1.501   6.380   2.388
 8985SOL     OW27853   3.346   3.227   6.633
 8985SOL    HW127854   3.408   3.221   6.554
 8985SOL    HW227855   3.400   3.236   6.717
 8986SOL     OW27856   2.432   6.234   2.103
 8986SOL    HW127857   2.427   6.322   2.150
 8986SOL    HW227858   2.499   6.239   2.029
 8987SOL     OW27859   5.311   6.463   2.643
 8987SOL    HW127860   5.397   6.412   2.635
 8987SOL    HW227861   5.285   6.471   2.739
 8988SOL     OW27862   0.657   4.559   5.410
 8988SOL    HW127863   0.626   4.486   5.349
 8988SOL    HW227864   0.619   4.545   5.501
 8989SOL     OW27865   2.000   2.699   6.968
 8989SOL    HW127866   2.085   2.718   6.919
 8989SOL    HW227867   1.959   2.615   6.931
 8990SOL     OW27868   0.331   4.620   4.393
 8990SOL    HW127869   0.328   4.566   4.309
 8990SOL    HW227870   0.382   4.704   4.376
 8991SOL     OW27871   1.487   1.838   5.001
 8991SOL    HW127872   1.489   1.903   5.077
 8991SOL    HW227873   1.467   1.887   4.916
 8992SOL     OW27874   6.246   1.222   1.389
 8992SOL    HW127875   6.312   1.273   1.443
 8992SOL    HW227876   6.173   1.283   1.357
 8993SOL     OW27877   4.575   2.589   0.711
 8993SOL    HW127878   4.635   2.551   0.782
 8993SOL    HW227879   4.483   2.552   0.721
 8994SOL     OW27880   2.009   5.774   2.490
 8994SOL    HW127881   2.105   5.757   2.511
 8994SOL    HW227882   1.984   5.727   2.406
 8995SOL     OW27883   0.541   0.394   1.017
 8995SOL    HW127884   0.532   0.331   0.940
 8995SOL    HW227885   0.634   0.388   1.053
 8996SOL     OW27886   4.421   6.018   5.783
 8996SOL    HW127887   4.458   5.926   5.781
 8996SOL    HW227888   4.376   6.034   5.871
 8997SOL     OW27889   5.617   6.812   4.756
 8997SOL    HW127890   5.608   6.818   4.855
 8997SOL    HW227891   5.584   6.723   4.725
 8998SOL     OW27892   0.138   4.143   5.247
 8998SOL    HW127893   0.165   4.131   5.151
 8998SOL    HW227894   0.202   4.205   5.292
 8999SOL     OW27895   4.450   5.943   6.514
 8999SOL    HW127896   4.360   5.929   6.554
 8999SOL    HW227897   4.441   5.969   6.418
 9000SOL     OW27898   2.077   3.815   1.460
 9000SOL    HW127899   2.028   3.801   1.546
 9000SOL    HW227900   2.035   3.891   1.411
 9001SOL     OW27901   1.834   5.202   1.165
 9001SOL    HW127902   1.797   5.258   1.239
 9001SOL    HW227903   1.913   5.151   1.198
 9002SOL     OW27904   6.581   6.633   6.567
 9002SOL    HW127905   6.495   6.582   6.566
 9002SOL    HW227906   6.573   6.709   6.631
 9003SOL     OW27907   4.879   6.420   1.089
 9003SOL    HW127908   4.955   6.484   1.100
 9003SOL    HW227909   4.849   6.420   0.993
 9004SOL     OW27910   6.288   5.040   2.010
 9004SOL    HW127911   6.245   5.018   2.097
 9004SOL    HW227912   6.369   4.982   1.997
 9005SOL     OW27913   4.869   1.002   4.973
 9005SOL    HW127914   4.922   1.030   4.893
 9005SOL    HW227915   4.868   1.077   5.040
 9006SOL     OW27916   3.500   5.999   7.004
 9006SOL    HW127917   3.519   6.055   0.060
 9006SOL    HW227918   3.494   6.058   6.924
 9007SOL     OW27919   0.173   0.388   3.422
 9007SOL    HW127920   0.161   0.292   3.450
 9007SOL    HW227921   0.268   0.415   3.436
 9008SOL     OW27922   6.919   5.137   1.924
 9008SOL    HW127923   6.849   5.188   1.875
 9008SOL    HW227924   6.932   5.178   2.015
 9009SOL     OW27925   3.356   6.495   2.275
 9009SOL    HW127926   3.441   6.474   2.324
 9009SOL    HW227927   3.362   6.587   2.238
 9010SOL     OW27928   2.267   4.944   4.581
 9010SOL    HW127929   2.169   4.931   4.597
 9010SOL    HW227930   2.309   4.856   4.557
 9011SOL     OW27931   2.548   1.840   1.981
 9011SOL    HW127932   2.631   1.809   1.934
 9011SOL    HW227933   2.526   1.777   2.055
 9012SOL     OW27934   2.391   6.444   0.333
 9012SOL    HW127935   2.405   6.460   0.431
 9012SOL    HW227936   2.477   6.458   0.285
 9013SOL     OW27937   2.102   0.567   4.537
 9013SOL    HW127938   2.070   0.489   4.483
 9013SOL    HW227939   2.097   0.545   4.634
 9014SOL     OW27940   5.511   3.179   3.010
 9014SOL    HW127941   5.439   3.173   3.080
 9014SOL    HW227942   5.595   3.137   3.045
 9015SOL     OW27943   4.043   6.152   6.464
 9015SOL    HW127944   3.947   6.122   6.466
 9015SOL    HW227945   4.052   6.237   6.516
 9016SOL     OW27946   4.683   4.665   5.906
 9016SOL    HW127947   4.771   4.643   5.864
 9016SOL    HW227948   4.609   4.626   5.850
 9017SOL     OW27949   2.895   0.517   5.613
 9017SOL    HW127950   2.886   0.454   5.536
 9017SOL    HW227951   2.917   0.608   5.580
 9018SOL     OW27952   3.086   5.034   0.379
 9018SOL    HW127953   3.095   4.937   0.402
 9018SOL    HW227954   3.118   5.090   0.456
 9019SOL     OW27955   0.335   4.619   5.198
 9019SOL    HW127956   0.345   4.711   5.161
 9019SOL    HW227957   0.381   4.614   5.287
 9020SOL     OW27958   5.344   5.923   3.884
 9020SOL    HW127959   5.321   6.011   3.841
 9020SOL    HW227960   5.411   5.938   3.956
 9021SOL     OW27961   0.015   1.475   4.392
 9021SOL    HW127962   0.004   1.556   4.334
 9021SOL    HW227963   0.089   1.491   4.457
 9022SOL     OW27964   4.882   3.173   6.538
 9022SOL    HW127965   4.863   3.261   6.582
 9022SOL    HW227966   4.864   3.099   6.602
 9023SOL     OW27967   0.354   4.426   1.032
 9023SOL    HW127968   0.353   4.437   1.132
 9023SOL    HW227969   0.309   4.504   0.989
 9024SOL     OW27970   1.813   4.797   6.212
 9024SOL    HW127971   1.813   4.806   6.312
 9024SOL    HW227972   1.736   4.741   6.184
 9025SOL     OW27973   0.198   6.192   1.793
 9025SOL    HW127974   0.221   6.273   1.741
 9025SOL    HW227975   0.213   6.209   1.891
 9026SOL     OW27976   5.944   1.431   6.856
 9026SOL    HW127977   5.942   1.377   6.773
 9026SOL    HW227978   6.013   1.503   6.848
 9027SOL     OW27979   0.152   4.382   3.055
 9027SOL    HW127980   0.098   4.305   3.091
 9027SOL    HW227981   0.090   4.454   3.023
 9028SOL     OW27982   2.791   4.850   6.925
 9028SOL    HW127983   2.764   4.844   6.829
 9028SOL    HW227984   2.887   4.875   6.932
 9029SOL     OW27985   3.966   6.113   4.898
 9029SOL    HW127986   3.946   6.209   4.875
 9029SOL    HW227987   3.880   6.062   4.903
 9030SOL     OW27988   2.951   2.192   2.301
 9030SOL    HW127989   3.041   2.149   2.307
 9030SOL    HW227990   2.950   2.256   2.224
 9031SOL     OW27991   5.255   6.714   4.827
 9031SOL    HW127992   5.338   6.745   4.873
 9031SOL    HW227993   5.262   6.733   4.729
 9032SOL     OW27994   4.892   3.006   0.996
 9032SOL    HW127995   4.802   2.965   0.984
 9032SOL    HW227996   4.910   3.068   0.919
 9033SOL     OW27997   0.863   6.154   2.552
 9033SOL    HW127998   0.941   6.200   2.509
 9033SOL    HW227999   0.846   6.067   2.505
 9034SOL     OW28000   4.227   6.560   5.011
 9034SOL    HW128001   4.244   6.615   5.093
 9034SOL    HW228002   4.155   6.493   5.031
 9035SOL     OW28003   2.002   5.716   5.815
 9035SOL    HW128004   2.009   5.617   5.810
 9035SOL    HW228005   2.079   5.752   5.867
 9036SOL     OW28006   0.270   5.078   4.620
 9036SOL    HW128007   0.200   5.128   4.671
 9036SOL    HW228008   0.337   5.039   4.684
 9037SOL     OW28009   7.018   0.769   2.427
 9037SOL    HW128010   6.980   0.738   2.339
 9037SOL    HW228011   0.011   0.689   2.484
 9038SOL     OW28012   3.249   3.983   5.580
 9038SOL    HW128013   3.160   3.943   5.603
 9038SOL    HW228014   3.254   4.076   5.617
 9039SOL     OW28015   4.828   6.512   6.238
 9039SOL    HW128016   4.833   6.595   6.294
 9039SOL    HW228017   4.749   6.458   6.265
 9040SOL     OW28018   2.709   2.058   1.227
 9040SOL    HW128019   2.670   1.994   1.293
 9040SOL    HW228020   2.644   2.131   1.208
 9041SOL     OW28021   6.831   2.540   3.592
 9041SOL    HW128022   6.763   2.565   3.523
 9041SOL    HW228023   6.884   2.621   3.617
 9042SOL     OW28024   6.279   5.150   6.324
 9042SOL    HW128025   6.309   5.135   6.230
 9042SOL    HW228026   6.330   5.088   6.385
 9043SOL     OW28027   3.090   2.931   1.844
 9043SOL    HW128028   3.055   3.022   1.867
 9043SOL    HW228029   3.019   2.878   1.800
 9044SOL     OW28030   2.123   1.249   0.316
 9044SOL    HW128031   2.137   1.220   0.410
 9044SOL    HW228032   2.170   1.336   0.300
 9045SOL     OW28033   3.395   0.628   4.383
 9045SOL    HW128034   3.315   0.665   4.430
 9045SOL    HW228035   3.429   0.695   4.318
 9046SOL     OW28036   4.127   3.689   1.766
 9046SOL    HW128037   4.099   3.728   1.854
 9046SOL    HW228038   4.077   3.734   1.692
 9047SOL     OW28039   0.428   4.234   5.672
 9047SOL    HW128040   0.428   4.296   5.751
 9047SOL    HW228041   0.512   4.180   5.673
 9048SOL     OW28042   0.932   2.759   5.405
 9048SOL    HW128043   0.939   2.835   5.469
 9048SOL    HW228044   0.862   2.695   5.438
 9049SOL     OW28045   0.358   6.418   5.138
 9049SOL    HW128046   0.351   6.518   5.127
 9049SOL    HW228047   0.315   6.373   5.060
 9050SOL     OW28048   1.144   4.188   0.129
 9050SOL    HW128049   1.230   4.168   0.081
 9050SOL    HW228050   1.077   4.222   0.064
 9051SOL     OW28051   1.636   1.378   1.421
 9051SOL    HW128052   1.552   1.387   1.475
 9051SOL    HW228053   1.636   1.290   1.374
 9052SOL     OW28054   2.221   2.743   6.801
 9052SOL    HW128055   2.142   2.731   6.741
 9052SOL    HW228056   2.228   2.839   6.828
 9053SOL     OW28057   0.541   1.121   0.573
 9053SOL    HW128058   0.540   1.027   0.606
 9053SOL    HW228059   0.570   1.123   0.477
 9054SOL     OW28060   1.263   5.287   3.146
 9054SOL    HW128061   1.290   5.190   3.145
 9054SOL    HW228062   1.225   5.312   3.057
 9055SOL     OW28063   0.951   2.829   6.382
 9055SOL    HW128064   0.910   2.845   6.471
 9055SOL    HW228065   1.031   2.769   6.392
 9056SOL     OW28066   5.142   0.846   4.236
 9056SOL    HW128067   5.183   0.936   4.248
 9056SOL    HW228068   5.061   0.838   4.295
 9057SOL     OW28069   4.965   1.066   4.148
 9057SOL    HW128070   4.957   1.116   4.235
 9057SOL    HW228071   4.875   1.029   4.123
 9058SOL     OW28072   1.602   6.462   5.697
 9058SOL    HW128073   1.634   6.530   5.630
 9058SOL    HW228074   1.502   6.464   5.701
 9059SOL     OW28075   2.102   2.125   3.635
 9059SOL    HW128076   2.197   2.113   3.606
 9059SOL    HW228077   2.074   2.220   3.622
 9060SOL     OW28078   5.908   2.322   5.571
 9060SOL    HW128079   5.905   2.222   5.570
 9060SOL    HW228080   5.817   2.359   5.592
 9061SOL     OW28081   2.658   4.674   3.941
 9061SOL    HW128082   2.616   4.622   4.015
 9061SOL    HW228083   2.613   4.763   3.934
 9062SOL     OW28084   1.717   6.638   1.519
 9062SOL    HW128085   1.732   6.540   1.509
 9062SOL    HW228086   1.625   6.661   1.487
 9063SOL     OW28087   2.708   1.690   1.797
 9063SOL    HW128088   2.719   1.788   1.782
 9063SOL    HW228089   2.777   1.640   1.746
 9064SOL     OW28090   4.060   3.925   0.488
 9064SOL    HW128091   4.077   3.863   0.565
 9064SOL    HW228092   4.131   3.912   0.418
 9065SOL     OW28093   2.913   1.112   0.653
 9065SOL    HW128094   2.973   1.093   0.731
 9065SOL    HW228095   2.917   1.210   0.633
 9066SOL     OW28096   5.033   6.494   0.206
 9066SOL    HW128097   5.016   6.450   0.118
 9066SOL    HW228098   4.946   6.527   0.244
 9067SOL     OW28099   0.204   0.774   2.079
 9067SOL    HW128100   0.253   0.850   2.123
 9067SOL    HW228101   0.232   0.768   1.983
 9068SOL     OW28102   0.486   6.145   6.348
 9068SOL    HW128103   0.534   6.163   6.262
 9068SOL    HW228104   0.424   6.067   6.336
 9069SOL     OW28105   1.386   2.709   5.710
 9069SOL    HW128106   1.403   2.688   5.614
 9069SOL    HW228107   1.295   2.748   5.720
 9070SOL     OW28108   1.411   4.022   4.798
 9070SOL    HW128109   1.464   4.070   4.729
 9070SOL    HW228110   1.392   3.929   4.767
 9071SOL     OW28111   4.941   5.518   0.035
 9071SOL    HW128112   4.880   5.446   0.001
 9071SOL    HW228113   4.906   5.607   0.010
 9072SOL     OW28114   5.519   4.329   1.222
 9072SOL    HW128115   5.566   4.396   1.165
 9072SOL    HW228116   5.427   4.363   1.245
 9073SOL     OW28117   1.668   7.010   1.432
 9073SOL    HW128118   1.692   0.081   1.436
 9073SOL    HW228119   1.731   6.962   1.371
 9074SOL     OW28120   0.831   0.983   0.762
 9074SOL    HW128121   0.838   1.024   0.671
 9074SOL    HW228122   0.747   1.014   0.806
 9075SOL     OW28123   6.262   0.223   0.900
 9075SOL    HW128124   6.218   0.177   0.822
 9075SOL    HW228125   6.279   0.155   0.972
 9076SOL     OW28126   1.645   2.806   5.825
 9076SOL    HW128127   1.573   2.760   5.773
 9076SOL    HW228128   1.702   2.738   5.870
 9077SOL     OW28129   5.437   5.728   2.119
 9077SOL    HW128130   5.536   5.734   2.131
 9077SOL    HW228131   5.396   5.818   2.134
 9078SOL     OW28132   4.781   2.843   5.114
 9078SOL    HW128133   4.742   2.809   5.028
 9078SOL    HW228134   4.794   2.942   5.108
 9079SOL     OW28135   0.892   0.535   5.359
 9079SOL    HW128136   0.844   0.600   5.418
 9079SOL    HW228137   0.854   0.444   5.371
 9080SOL     OW28138   4.177   1.189   0.636
 9080SOL    HW128139   4.197   1.281   0.603
 9080SOL    HW228140   4.177   1.125   0.559
 9081SOL     OW28141   5.792   6.218   3.763
 9081SOL    HW128142   5.728   6.158   3.716
 9081SOL    HW228143   5.741   6.278   3.825
 9082SOL     OW28144   1.941   6.919   1.980
 9082SOL    HW128145   1.850   6.955   1.960
 9082SOL    HW228146   1.998   6.991   2.019
 9083SOL     OW28147   3.908   5.280   2.975
 9083SOL    HW128148   3.944   5.373   2.979
 9083SOL    HW228149   3.963   5.225   2.911
 9084SOL     OW28150   3.537   3.702   2.394
 9084SOL    HW128151   3.613   3.696   2.329
 9084SOL    HW228152   3.504   3.796   2.399
 9085SOL     OW28153   1.629   1.886   0.913
 9085SOL    HW128154   1.562   1.953   0.880
 9085SOL    HW228155   1.694   1.866   0.840
 9086SOL     OW28156   6.816   3.684   1.107
 9086SOL    HW128157   6.888   3.675   1.038
 9086SOL    HW228158   6.727   3.667   1.063
 9087SOL     OW28159   5.251   4.299   2.098
 9087SOL    HW128160   5.218   4.389   2.070
 9087SOL    HW228161   5.180   4.252   2.152
 9088SOL     OW28162   6.133   4.926   2.284
 9088SOL    HW128163   6.154   4.972   2.370
 9088SOL    HW228164   6.077   4.845   2.301
 9089SOL     OW28165   5.011   0.954   5.877
 9089SOL    HW128166   5.081   0.925   5.812
 9089SOL    HW228167   5.054   0.973   5.966
 9090SOL     OW28168   0.183   2.543   3.831
 9090SOL    HW128169   0.189   2.445   3.853
 9090SOL    HW228170   0.093   2.577   3.857
 9091SOL     OW28171   4.080   3.136   6.227
 9091SOL    HW128172   4.090   3.232   6.254
 9091SOL    HW228173   4.170   3.092   6.223
 9092SOL     OW28174   6.811   3.800   6.457
 9092SOL    HW128175   6.864   3.865   6.513
 9092SOL    HW228176   6.873   3.732   6.418
 9093SOL     OW28177   2.762   6.204   4.585
 9093SOL    HW128178   2.704   6.170   4.511
 9093SOL    HW228179   2.708   6.212   4.669
 9094SOL     OW28180   1.477   4.030   0.529
 9094SOL    HW128181   1.539   4.076   0.592
 9094SOL    HW228182   1.467   3.934   0.556
 9095SOL     OW28183   0.638   0.474   6.313
 9095SOL    HW128184   0.633   0.526   6.228
 9095SOL    HW228185   0.727   0.430   6.320
 9096SOL     OW28186   6.548   5.129   3.919
 9096SOL    HW128187   6.595   5.057   3.969
 9096SOL    HW228188   6.461   5.094   3.882
 9097SOL     OW28189   0.768   3.925   1.213
 9097SOL    HW128190   0.747   3.844   1.267
 9097SOL    HW228191   0.683   3.963   1.176
 9098SOL     OW28192   1.917   5.624   4.464
 9098SOL    HW128193   1.839   5.607   4.524
 9098SOL    HW228194   1.940   5.540   4.414
 9099SOL     OW28195   1.588   0.755   6.568
 9099SOL    HW128196   1.562   0.808   6.649
 9099SOL    HW228197   1.662   0.802   6.520
 9100SOL     OW28198   1.437   4.913   4.381
 9100SOL    HW128199   1.478   4.939   4.469
 9100SOL    HW228200   1.503   4.925   4.308
 9101SOL     OW28201   6.280   2.189   1.473
 9101SOL    HW128202   6.331   2.254   1.530
 9101SOL    HW228203   6.229   2.126   1.532
 9102SOL     OW28204   3.717   1.178   3.121
 9102SOL    HW128205   3.628   1.162   3.077
 9102SOL    HW228206   3.708   1.252   3.188
 9103SOL     OW28207   5.821   1.095   1.495
 9103SOL    HW128208   5.826   1.075   1.397
 9103SOL    HW228209   5.735   1.143   1.514
 9104SOL     OW28210   5.166   2.804   5.909
 9104SOL    HW128211   5.150   2.757   5.996
 9104SOL    HW228212   5.100   2.771   5.841
 9105SOL     OW28213   2.669   0.644   0.373
 9105SOL    HW128214   2.748   0.657   0.313
 9105SOL    HW228215   2.698   0.593   0.454
 9106SOL     OW28216   2.668   2.525   6.030
 9106SOL    HW128217   2.751   2.541   6.083
 9106SOL    HW228218   2.686   2.541   5.934
 9107SOL     OW28219   3.733   0.618   1.201
 9107SOL    HW128220   3.741   0.633   1.299
 9107SOL    HW228221   3.822   0.631   1.158
 9108SOL     OW28222   5.573   6.918   5.481
 9108SOL    HW128223   5.538   6.857   5.552
 9108SOL    HW228224   5.522   6.903   5.397
 9109SOL     OW28225   5.587   3.676   3.125
 9109SOL    HW128226   5.666   3.737   3.123
 9109SOL    HW228227   5.612   3.587   3.088
 9110SOL     OW28228   0.527   6.296   1.815
 9110SOL    HW128229   0.557   6.349   1.895
 9110SOL    HW228230   0.483   6.212   1.846
 9111SOL     OW28231   4.899   3.619   5.541
 9111SOL    HW128232   4.829   3.580   5.602
 9111SOL    HW228233   4.989   3.610   5.583
 9112SOL     OW28234   0.289   4.592   1.585
 9112SOL    HW128235   0.388   4.580   1.590
 9112SOL    HW228236   0.245   4.504   1.565
 9113SOL     OW28237   5.205   0.090   4.915
 9113SOL    HW128238   5.225   0.117   4.821
 9113SOL    HW228239   5.106   0.086   4.928
 9114SOL     OW28240   6.920   1.494   5.995
 9114SOL    HW128241   6.900   1.406   6.038
 9114SOL    HW228242   7.005   1.531   6.032
 9115SOL     OW28243   5.264   3.664   4.612
 9115SOL    HW128244   5.349   3.628   4.573
 9115SOL    HW228245   5.208   3.704   4.539
 9116SOL     OW28246   0.772   5.190   3.206
 9116SOL    HW128247   0.840   5.259   3.230
 9116SOL    HW228248   0.811   5.099   3.220
 9117SOL     OW28249   1.895   6.651   6.665
 9117SOL    HW128250   1.815   6.699   6.702
 9117SOL    HW228251   1.926   6.583   6.731
 9118SOL     OW28252   0.297   5.020   0.675
 9118SOL    HW128253   0.355   5.026   0.756
 9118SOL    HW228254   0.230   5.094   0.676
 9119SOL     OW28255   3.788   2.065   0.913
 9119SOL    HW128256   3.772   2.041   1.009
 9119SOL    HW228257   3.879   2.035   0.885
 9120SOL     OW28258   6.938   4.729   4.975
 9120SOL    HW128259   6.962   4.787   5.053
 9120SOL    HW228260   6.964   4.635   4.995
 9121SOL     OW28261   4.335   1.202   5.172
 9121SOL    HW128262   4.281   1.262   5.113
 9121SOL    HW228263   4.428   1.194   5.135
 9122SOL     OW28264   0.338   1.539   2.304
 9122SOL    HW128265   0.338   1.556   2.402
 9122SOL    HW228266   0.382   1.614   2.256
 9123SOL     OW28267   0.632   6.105   4.842
 9123SOL    HW128268   0.707   6.170   4.856
 9123SOL    HW228269   0.592   6.081   4.930
 9124SOL     OW28270   2.770   5.188   0.433
 9124SOL    HW128271   2.707   5.259   0.465
 9124SOL    HW228272   2.846   5.231   0.384
 9125SOL     OW28273   4.810   6.549   1.935
 9125SOL    HW128274   4.806   6.590   2.026
 9125SOL    HW228275   4.876   6.474   1.935
 9126SOL     OW28276   3.530   5.524   6.783
 9126SOL    HW128277   3.491   5.495   6.871
 9126SOL    HW228278   3.630   5.530   6.792
 9127SOL     OW28279   6.112   4.074   6.504
 9127SOL    HW128280   6.205   4.048   6.479
 9127SOL    HW228281   6.098   4.171   6.485
 9128SOL     OW28282   5.358   3.106   6.990
 9128SOL    HW128283   5.439   3.048   6.987
 9128SOL    HW228284   5.315   3.108   6.900
 9129SOL     OW28285   0.660   2.121   1.449
 9129SOL    HW128286   0.591   2.070   1.397
 9129SOL    HW228287   0.727   2.058   1.487
 9130SOL     OW28288   3.182   4.074   6.578
 9130SOL    HW128289   3.174   4.013   6.656
 9130SOL    HW228290   3.154   4.026   6.495
 9131SOL     OW28291   6.545   3.084   1.071
 9131SOL    HW128292   6.592   3.001   1.102
 9131SOL    HW228293   6.523   3.076   0.974
 9132SOL     OW28294   0.752   4.763   3.816
 9132SOL    HW128295   0.704   4.830   3.872
 9132SOL    HW228296   0.786   4.689   3.875
 9133SOL     OW28297   5.260   6.775   0.453
 9133SOL    HW128298   5.350   6.816   0.462
 9133SOL    HW228299   5.257   6.718   0.371
 9134SOL     OW28300   4.980   4.090   6.469
 9134SOL    HW128301   5.052   4.047   6.414
 9134SOL    HW228302   4.891   4.054   6.441
 9135SOL     OW28303   6.544   4.873   2.444
 9135SOL    HW128304   6.604   4.887   2.365
 9135SOL    HW228305   6.456   4.917   2.427
 9136SOL     OW28306   0.287   5.221   6.966
 9136SOL    HW128307   0.315   5.306   7.010
 9136SOL    HW228308   0.193   5.199   6.992
 9137SOL     OW28309   5.837   5.547   6.213
 9137SOL    HW128310   5.908   5.557   6.143
 9137SOL    HW228311   5.827   5.450   6.236
 9138SOL     OW28312   1.918   3.969   5.411
 9138SOL    HW128313   1.981   4.033   5.455
 9138SOL    HW228314   1.968   3.887   5.383
 9139SOL     OW28315   0.463   6.772   1.435
 9139SOL    HW128316   0.428   6.865   1.451
 9139SOL    HW228317   0.404   6.725   1.369
 9140SOL     OW28318   0.390   4.319   2.621
 9140SOL    HW128319   0.333   4.316   2.703
 9140SOL    HW228320   0.345   4.267   2.548
 9141SOL     OW28321   6.937   5.369   4.114
 9141SOL    HW128322   6.849   5.416   4.109
 9141SOL    HW228323   6.971   5.373   4.208
 9142SOL     OW28324   2.005   5.637   3.069
 9142SOL    HW128325   2.026   5.677   2.980
 9142SOL    HW228326   1.906   5.626   3.077
 9143SOL     OW28327   5.224   3.298   2.294
 9143SOL    HW128328   5.263   3.371   2.238
 9143SOL    HW228329   5.243   3.316   2.391
 9144SOL     OW28330   2.684   4.920   5.401
 9144SOL    HW128331   2.758   4.852   5.404
 9144SOL    HW228332   2.623   4.906   5.480
 9145SOL     OW28333   2.813   5.417   6.718
 9145SOL    HW128334   2.875   5.412   6.639
 9145SOL    HW228335   2.778   5.510   6.728
 9146SOL     OW28336   5.309   1.084   4.298
 9146SOL    HW128337   5.276   1.132   4.379
 9146SOL    HW228338   5.389   1.029   4.322
 9147SOL     OW28339   3.578   6.850   6.306
 9147SOL    HW128340   3.504   6.830   6.370
 9147SOL    HW228341   3.664   6.856   6.355
 9148SOL     OW28342   3.583   6.204   1.934
 9148SOL    HW128343   3.576   6.104   1.929
 9148SOL    HW228344   3.502   6.245   1.893
 9149SOL     OW28345   0.934   3.957   2.043
 9149SOL    HW128346   0.904   4.052   2.046
 9149SOL    HW228347   0.905   3.915   1.957
 9150SOL     OW28348   3.739   3.423   0.134
 9150SOL    HW128349   3.762   3.469   0.048
 9150SOL    HW228350   3.808   3.444   0.203
 9151SOL     OW28351   2.298   4.518   3.458
 9151SOL    HW128352   2.350   4.545   3.539
 9151SOL    HW228353   2.200   4.529   3.476
 9152SOL     OW28354   1.668   5.346   2.356
 9152SOL    HW128355   1.630   5.436   2.375
 9152SOL    HW228356   1.626   5.308   2.274
 9153SOL     OW28357   0.795   3.054   1.353
 9153SOL    HW128358   0.804   2.980   1.286
 9153SOL    HW228359   0.710   3.043   1.404
 9154SOL     OW28360   4.354   5.184   2.371
 9154SOL    HW128361   4.344   5.085   2.357
 9154SOL    HW228362   4.271   5.221   2.412
 9155SOL     OW28363   0.348   0.344   2.167
 9155SOL    HW128364   0.351   0.253   2.209
 9155SOL    HW228365   0.404   0.344   2.084
 9156SOL     OW28366   6.951   4.555   5.772
 9156SOL    HW128367   6.879   4.534   5.705
 9156SOL    HW228368   6.910   4.570   5.861
 9157SOL     OW28369   2.639   4.673   4.820
 9157SOL    HW128370   2.630   4.771   4.801
 9157SOL    HW228371   2.719   4.657   4.878
 9158SOL     OW28372   6.959   2.638   3.850
 9158SOL    HW128373   6.881   2.577   3.861
 9158SOL    HW228374   6.927   2.728   3.821
 9159SOL     OW28375   1.557   0.215   3.064
 9159SOL    HW128376   1.462   0.225   3.036
 9159SOL    HW228377   1.562   0.147   3.137
 9160SOL     OW28378   0.246   3.394   0.095
 9160SOL    HW128379   0.179   3.325   0.122
 9160SOL    HW228380   0.230   3.478   0.147
 9161SOL     OW28381   6.340   3.189   3.081
 9161SOL    HW128382   6.424   3.135   3.086
 9161SOL    HW228383   6.270   3.137   3.033
 9162SOL     OW28384   5.571   2.056   2.009
 9162SOL    HW128385   5.600   2.120   1.938
 9162SOL    HW228386   5.637   2.056   2.084
 9163SOL     OW28387   1.095   3.807   2.712
 9163SOL    HW128388   1.190   3.774   2.713
 9163SOL    HW228389   1.069   3.834   2.805
 9164SOL     OW28390   4.213   0.752   0.959
 9164SOL    HW128391   4.305   0.711   0.958
 9164SOL    HW228392   4.195   0.794   0.870
 9165SOL     OW28393   6.760   0.108   0.164
 9165SOL    HW128394   6.727   0.192   0.207
 9165SOL    HW228395   6.683   0.044   0.152
 9166SOL     OW28396   4.006   5.617   1.700
 9166SOL    HW128397   4.098   5.632   1.737
 9166SOL    HW228398   4.005   5.533   1.646
 9167SOL     OW28399   0.886   3.435   5.073
 9167SOL    HW128400   0.922   3.476   4.990
 9167SOL    HW228401   0.891   3.335   5.066
 9168SOL     OW28402   6.261   6.894   4.877
 9168SOL    HW128403   6.259   6.859   4.783
 9168SOL    HW228404   6.220   6.985   4.879
 9169SOL     OW28405   5.700   5.679   0.356
 9169SOL    HW128406   5.669   5.773   0.374
 9169SOL    HW228407   5.734   5.672   0.263
 9170SOL     OW28408   1.179   6.524   4.665
 9170SOL    HW128409   1.208   6.437   4.625
 9170SOL    HW228410   1.238   6.598   4.633
 9171SOL     OW28411   4.379   5.256   6.522
 9171SOL    HW128412   4.314   5.290   6.590
 9171SOL    HW228413   4.393   5.325   6.452
 9172SOL     OW28414   5.111   0.236   5.857
 9172SOL    HW128415   5.149   0.328   5.853
 9172SOL    HW228416   5.099   0.200   5.764
 9173SOL     OW28417   5.597   3.991   6.792
 9173SOL    HW128418   5.639   4.059   6.852
 9173SOL    HW228419   5.596   3.902   6.837
 9174SOL     OW28420   5.407   5.395   6.963
 9174SOL    HW128421   5.323   5.449   6.972
 9174SOL    HW228422   5.486   5.455   6.975
 9175SOL     OW28423   2.204   0.654   1.579
 9175SOL    HW128424   2.187   0.750   1.558
 9175SOL    HW228425   2.274   0.619   1.517
 9176SOL     OW28426   1.164   6.948   2.199
 9176SOL    HW128427   1.076   6.905   2.218
 9176SOL    HW228428   1.238   6.881   2.209
 9177SOL     OW28429   0.470   5.683   3.451
 9177SOL    HW128430   0.483   5.685   3.352
 9177SOL    HW228431   0.489   5.591   3.485
 9178SOL     OW28432   0.617   2.823   1.272
 9178SOL    HW128433   0.705   2.776   1.275
 9178SOL    HW228434   0.559   2.781   1.203
 9179SOL     OW28435   3.759   6.181   2.665
 9179SOL    HW128436   3.732   6.177   2.568
 9179SOL    HW228437   3.816   6.102   2.686
 9180SOL     OW28438   0.764   1.614   3.957
 9180SOL    HW128439   0.769   1.542   3.887
 9180SOL    HW228440   0.770   1.573   4.048
 9181SOL     OW28441   3.144   1.880   2.529
 9181SOL    HW128442   3.190   1.885   2.617
 9181SOL    HW228443   3.182   1.805   2.475
 9182SOL     OW28444   6.410   0.488   2.629
 9182SOL    HW128445   6.471   0.420   2.670
 9182SOL    HW228446   6.464   0.557   2.581
 9183SOL     OW28447   2.494   1.628   5.694
 9183SOL    HW128448   2.483   1.531   5.714
 9183SOL    HW228449   2.416   1.679   5.732
 9184SOL     OW28450   2.920   6.411   0.108
 9184SOL    HW128451   2.951   6.316   0.121
 9184SOL    HW228452   2.822   6.411   0.090
 9185SOL     OW28453   0.692   1.062   4.711
 9185SOL    HW128454   0.772   1.005   4.692
 9185SOL    HW228455   0.709   1.155   4.678
 9186SOL     OW28456   5.245   6.579   6.085
 9186SOL    HW128457   5.335   6.535   6.086
 9186SOL    HW228458   5.180   6.522   6.035
 9187SOL     OW28459   4.366   3.104   1.239
 9187SOL    HW128460   4.463   3.078   1.239
 9187SOL    HW228461   4.312   3.025   1.268
 9188SOL     OW28462   1.841   0.859   2.319
 9188SOL    HW128463   1.921   0.860   2.259
 9188SOL    HW228464   1.870   0.843   2.413
 9189SOL     OW28465   3.128   0.522   6.953
 9189SOL    HW128466   3.147   0.498   6.857
 9189SOL    HW228467   3.038   0.486   6.979
 9190SOL     OW28468   3.432   0.808   6.350
 9190SOL    HW128469   3.350   0.856   6.381
 9190SOL    HW228470   3.448   0.828   6.254
 9191SOL     OW28471   5.207   0.471   1.742
 9191SOL    HW128472   5.183   0.374   1.750
 9191SOL    HW228473   5.302   0.484   1.772
 9192SOL     OW28474   4.191   4.738   3.288
 9192SOL    HW128475   4.107   4.792   3.288
 9192SOL    HW228476   4.207   4.701   3.380
 9193SOL     OW28477   3.734   3.823   1.934
 9193SOL    HW128478   3.634   3.814   1.930
 9193SOL    HW228479   3.776   3.732   1.926
 9194SOL     OW28480   2.596   5.505   3.289
 9194SOL    HW128481   2.671   5.563   3.257
 9194SOL    HW228482   2.623   5.409   3.280
 9195SOL     OW28483   0.353   3.817   3.536
 9195SOL    HW128484   0.359   3.734   3.480
 9195SOL    HW228485   0.381   3.896   3.481
 9196SOL     OW28486   5.785   5.416   3.226
 9196SOL    HW128487   5.718   5.435   3.154
 9196SOL    HW228488   5.827   5.327   3.209
 9197SOL     OW28489   4.614   2.592   6.654
 9197SOL    HW128490   4.629   2.496   6.631
 9197SOL    HW228491   4.702   2.636   6.672
 9198SOL     OW28492   0.057   3.764   5.135
 9198SOL    HW128493   0.089   3.831   5.068
 9198SOL    HW228494   0.004   3.693   5.087
 9199SOL     OW28495   0.677   3.224   6.688
 9199SOL    HW128496   0.725   3.278   6.757
 9199SOL    HW228497   0.578   3.228   6.705
 9200SOL     OW28498   4.363   5.964   2.189
 9200SOL    HW128499   4.432   6.024   2.229
 9200SOL    HW228500   4.401   5.872   2.181
 9201SOL     OW28501   0.387   3.034   2.804
 9201SOL    HW128502   0.307   3.041   2.864
 9201SOL    HW228503   0.356   3.024   2.709
 9202SOL     OW28504   2.018   6.565   3.203
 9202SOL    HW128505   2.105   6.515   3.200
 9202SOL    HW228506   1.946   6.508   3.163
 9203SOL     OW28507   5.589   2.599   0.213
 9203SOL    HW128508   5.565   2.510   0.252
 9203SOL    HW228509   5.685   2.619   0.232
 9204SOL     OW28510   5.375   4.028   1.785
 9204SOL    HW128511   5.339   4.045   1.693
 9204SOL    HW228512   5.389   4.115   1.832
 9205SOL     OW28513   4.999   2.445   0.525
 9205SOL    HW128514   4.941   2.524   0.545
 9205SOL    HW228515   5.092   2.465   0.556
 9206SOL     OW28516   0.083   0.523   5.033
 9206SOL    HW128517   0.109   0.599   5.093
 9206SOL    HW228518   0.148   0.517   4.957
 9207SOL     OW28519   5.870   6.434   0.558
 9207SOL    HW128520   5.849   6.454   0.462
 9207SOL    HW228521   5.788   6.398   0.603
 9208SOL     OW28522   6.319   3.791   1.490
 9208SOL    HW128523   6.269   3.877   1.480
 9208SOL    HW228524   6.254   3.716   1.504
 9209SOL     OW28525   5.094   0.473   4.307
 9209SOL    HW128526   5.108   0.474   4.208
 9209SOL    HW228527   5.133   0.389   4.345
 9210SOL     OW28528   1.467   6.566   0.595
 9210SOL    HW128529   1.395   6.522   0.540
 9210SOL    HW228530   1.501   6.502   0.663
 9211SOL     OW28531   5.081   1.001   6.154
 9211SOL    HW128532   4.995   1.032   6.194
 9211SOL    HW228533   5.158   1.034   6.209
 9212SOL     OW28534   5.873   3.511   6.187
 9212SOL    HW128535   5.835   3.505   6.280
 9212SOL    HW228536   5.876   3.420   6.147
 9213SOL     OW28537   0.268   6.692   3.333
 9213SOL    HW128538   0.206   6.735   3.267
 9213SOL    HW228539   0.311   6.612   3.290
 9214SOL     OW28540   1.610   1.010   5.422
 9214SOL    HW128541   1.696   1.045   5.460
 9214SOL    HW228542   1.629   0.953   5.342
 9215SOL     OW28543   6.841   4.473   3.817
 9215SOL    HW128544   6.851   4.382   3.775
 9215SOL    HW228545   6.895   4.540   3.766
 9216SOL     OW28546   1.678   6.639   3.085
 9216SOL    HW128547   1.678   6.593   2.996
 9216SOL    HW228548   1.757   6.699   3.092
 9217SOL     OW28549   4.185   1.956   0.085
 9217SOL    HW128550   4.172   1.986   0.179
 9217SOL    HW228551   4.270   1.994   0.049
 9218SOL     OW28552   5.163   5.647   6.037
 9218SOL    HW128553   5.081   5.641   6.094
 9218SOL    HW228554   5.173   5.740   6.002
 9219SOL     OW28555   3.492   2.967   5.508
 9219SOL    HW128556   3.456   2.874   5.499
 9219SOL    HW228557   3.449   3.012   5.586
 9220SOL     OW28558   0.083   6.682   3.516
 9220SOL    HW128559   0.114   6.733   3.595
 9220SOL    HW228560   0.157   6.674   3.449
 9221SOL     OW28561   2.621   1.323   2.195
 9221SOL    HW128562   2.595   1.420   2.187
 9221SOL    HW228563   2.545   1.272   2.236
 9222SOL     OW28564   2.360   6.249   2.740
 9222SOL    HW128565   2.423   6.255   2.663
 9222SOL    HW228566   2.411   6.251   2.825
 9223SOL     OW28567   5.502   3.025   5.152
 9223SOL    HW128568   5.501   2.965   5.072
 9223SOL    HW228569   5.515   3.120   5.122
 9224SOL     OW28570   1.967   5.968   2.277
 9224SOL    HW128571   1.985   5.915   2.360
 9224SOL    HW228572   1.992   6.063   2.292
 9225SOL     OW28573   0.087   5.918   5.558
 9225SOL    HW128574   0.041   6.001   5.589
 9225SOL    HW228575   0.183   5.921   5.587
 9226SOL     OW28576   0.137   6.571   4.835
 9226SOL    HW128577   0.091   6.648   4.791
 9226SOL    HW228578   0.121   6.487   4.782
 9227SOL     OW28579   4.864   2.610   0.830
 9227SOL    HW128580   4.942   2.655   0.874
 9227SOL    HW228581   4.840   2.659   0.746
 9228SOL     OW28582   3.586   3.985   4.174
 9228SOL    HW128583   3.535   4.025   4.099
 9228SOL    HW228584   3.523   3.949   4.243
 9229SOL     OW28585   6.872   5.768   1.423
 9229SOL    HW128586   6.949   5.712   1.392
 9229SOL    HW228587   6.847   5.834   1.352
 9230SOL     OW28588   3.309   6.581   5.319
 9230SOL    HW128589   3.364   6.660   5.343
 9230SOL    HW228590   3.259   6.549   5.400
 9231SOL     OW28591   5.021   5.630   1.959
 9231SOL    HW128592   5.087   5.595   2.026
 9231SOL    HW228593   5.034   5.584   1.872
 9232SOL     OW28594   1.311   4.983   1.492
 9232SOL    HW128595   1.296   4.964   1.589
 9232SOL    HW228596   1.404   5.018   1.478
 9233SOL     OW28597   0.969   1.091   6.262
 9233SOL    HW128598   1.059   1.125   6.234
 9233SOL    HW228599   0.979   1.036   6.345
 9234SOL     OW28600   2.800   4.096   0.747
 9234SOL    HW128601   2.888   4.072   0.786
 9234SOL    HW228602   2.794   4.196   0.739
 9235SOL     OW28603   1.154   2.168   3.087
 9235SOL    HW128604   1.202   2.220   3.016
 9235SOL    HW228605   1.160   2.070   3.066
 9236SOL     OW28606   2.125   4.218   5.877
 9236SOL    HW128607   2.223   4.232   5.863
 9236SOL    HW228608   2.104   4.226   5.974
 9237SOL     OW28609   6.800   5.942   3.738
 9237SOL    HW128610   6.787   5.853   3.781
 9237SOL    HW228611   6.714   5.993   3.742
 9238SOL     OW28612   2.065   2.167   5.762
 9238SOL    HW128613   2.162   2.189   5.747
 9238SOL    HW228614   2.046   2.075   5.727
 9239SOL     OW28615   1.877   6.052   6.619
 9239SOL    HW128616   1.808   6.042   6.548
 9239SOL    HW228617   1.909   6.147   6.621
 9240SOL     OW28618   3.419   1.712   5.671
 9240SOL    HW128619   3.447   1.777   5.600
 9240SOL    HW228620   3.405   1.761   5.757
 9241SOL     OW28621   5.637   5.788   0.040
 9241SOL    HW128622   5.559   5.822   0.093
 9241SOL    HW228623   5.638   5.832   6.976
 9242SOL     OW28624   1.993   2.967   0.057
 9242SOL    HW128625   1.957   2.893   7.025
 9242SOL    HW228626   2.006   3.049   0.002
 9243SOL     OW28627   1.922   0.105   6.926
 9243SOL    HW128628   2.021   0.119   6.929
 9243SOL    HW228629   1.880   0.147   7.006
 9244SOL     OW28630   3.775   6.053   6.499
 9244SOL    HW128631   3.723   5.976   6.536
 9244SOL    HW228632   3.730   6.138   6.523
 9245SOL     OW28633   0.652   4.408   3.460
 9245SOL    HW128634   0.661   4.506   3.476
 9245SOL    HW228635   0.730   4.360   3.501
 9246SOL     OW28636   4.746   1.624   6.986
 9246SOL    HW128637   4.830   1.608   6.933
 9246SOL    HW228638   4.675   1.660   6.925
 9247SOL     OW28639   2.842   6.273   2.189
 9247SOL    HW128640   2.941   6.274   2.182
 9247SOL    HW228641   2.802   6.286   2.098
 9248SOL     OW28642   2.841   6.894   6.839
 9248SOL    HW128643   2.897   6.811   6.845
 9248SOL    HW228644   2.868   6.958   6.911
 9249SOL     OW28645   2.661   1.649   0.214
 9249SOL    HW128646   2.742   1.680   0.164
 9249SOL    HW228647   2.688   1.578   0.279
 9250SOL     OW28648   0.910   3.801   1.824
 9250SOL    HW128649   0.835   3.753   1.869
 9250SOL    HW228650   0.997   3.774   1.866
 9251SOL     OW28651   4.067   1.520   1.038
 9251SOL    HW128652   4.068   1.570   1.124
 9251SOL    HW228653   3.993   1.554   0.980
 9252SOL     OW28654   5.944   1.600   4.817
 9252SOL    HW128655   5.900   1.530   4.872
 9252SOL    HW228656   6.028   1.630   4.862
 9253SOL     OW28657   2.837   5.302   4.136
 9253SOL    HW128658   2.922   5.252   4.152
 9253SOL    HW228659   2.776   5.247   4.079
 9254SOL     OW28660   6.123   5.844   2.072
 9254SOL    HW128661   6.214   5.858   2.032
 9254SOL    HW228662   6.093   5.751   2.054
 9255SOL     OW28663   0.745   2.885   1.881
 9255SOL    HW128664   0.758   2.876   1.783
 9255SOL    HW228665   0.746   2.794   1.923
 9256SOL     OW28666   1.231   6.452   0.449
 9256SOL    HW128667   1.185   6.367   0.422
 9256SOL    HW228668   1.163   6.526   0.456
 9257SOL     OW28669   6.428   6.598   5.592
 9257SOL    HW128670   6.512   6.610   5.539
 9257SOL    HW228671   6.364   6.671   5.570
 9258SOL     OW28672   4.947   3.845   3.320
 9258SOL    HW128673   4.873   3.794   3.275
 9258SOL    HW228674   5.032   3.792   3.314
 9259SOL     OW28675   1.402   2.888   6.272
 9259SOL    HW128676   1.336   2.820   6.242
 9259SOL    HW228677   1.463   2.910   6.195
 9260SOL     OW28678   5.544   4.460   4.935
 9260SOL    HW128679   5.595   4.405   4.869
 9260SOL    HW228680   5.468   4.407   4.972
 9261SOL     OW28681   0.963   3.218   1.037
 9261SOL    HW128682   0.950   3.294   0.973
 9261SOL    HW228683   0.925   3.243   1.126
 9262SOL     OW28684   6.638   6.391   5.882
 9262SOL    HW128685   6.549   6.432   5.905
 9262SOL    HW228686   6.640   6.371   5.784
 9263SOL     OW28687   1.694   4.487   2.620
 9263SOL    HW128688   1.769   4.422   2.636
 9263SOL    HW228689   1.622   4.473   2.688
 9264SOL     OW28690   6.087   4.208   5.582
 9264SOL    HW128691   5.998   4.218   5.537
 9264SOL    HW228692   6.078   4.232   5.678
 9265SOL     OW28693   3.966   0.717   2.083
 9265SOL    HW128694   4.003   0.809   2.085
 9265SOL    HW228695   3.996   0.667   2.164
 9266SOL     OW28696   0.235   4.666   1.008
 9266SOL    HW128697   0.261   4.663   1.104
 9266SOL    HW228698   0.176   4.745   0.992
 9267SOL     OW28699   6.543   1.363   3.834
 9267SOL    HW128700   6.504   1.294   3.772
 9267SOL    HW228701   6.642   1.349   3.842
 9268SOL     OW28702   6.804   0.197   0.561
 9268SOL    HW128703   6.724   0.177   0.503
 9268SOL    HW228704   6.779   0.185   0.657
 9269SOL     OW28705   3.386   6.774   1.494
 9269SOL    HW128706   3.302   6.724   1.516
 9269SOL    HW228707   3.384   6.863   1.538
 9270SOL     OW28708   2.097   0.739   5.120
 9270SOL    HW128709   2.049   0.713   5.204
 9270SOL    HW228710   2.196   0.733   5.136
 9271SOL     OW28711   1.249   5.579   5.816
 9271SOL    HW128712   1.262   5.482   5.836
 9271SOL    HW228713   1.153   5.603   5.830
 9272SOL     OW28714   6.374   0.187   6.198
 9272SOL    HW128715   6.337   0.199   6.106
 9272SOL    HW228716   6.298   0.180   6.264
 9273SOL     OW28717   6.048   3.636   3.465
 9273SOL    HW128718   6.065   3.623   3.563
 9273SOL    HW228719   6.038   3.733   3.446
 9274SOL     OW28720   6.773   2.735   1.740
 9274SOL    HW128721   6.804   2.830   1.746
 9274SOL    HW228722   6.673   2.733   1.738
 9275SOL     OW28723   4.286   1.429   0.515
 9275SOL    HW128724   4.318   1.469   0.429
 9275SOL    HW228725   4.350   1.451   0.588
 9276SOL     OW28726   1.566   3.713   0.952
 9276SOL    HW128727   1.545   3.705   0.855
 9276SOL    HW228728   1.662   3.739   0.963
 9277SOL     OW28729   3.474   5.789   2.885
 9277SOL    HW128730   3.479   5.694   2.853
 9277SOL    HW228731   3.433   5.791   2.976
 9278SOL     OW28732   1.164   6.613   4.345
 9278SOL    HW128733   1.102   6.623   4.423
 9278SOL    HW228734   1.258   6.620   4.376
 9279SOL     OW28735   3.904   5.804   2.374
 9279SOL    HW128736   3.950   5.715   2.369
 9279SOL    HW228737   3.959   5.872   2.326
 9280SOL     OW28738   1.370   4.286   2.295
 9280SOL    HW128739   1.420   4.364   2.259
 9280SOL    HW228740   1.382   4.207   2.234
 9281SOL     OW28741   1.318   5.348   0.675
 9281SOL    HW128742   1.329   5.270   0.736
 9281SOL    HW228743   1.271   5.319   0.592
 9282SOL     OW28744   1.564   0.264   3.759
 9282SOL    HW128745   1.592   0.333   3.826
 9282SOL    HW228746   1.607   0.283   3.671
 9283SOL     OW28747   5.427   4.833   6.551
 9283SOL    HW128748   5.365   4.911   6.539
 9283SOL    HW228749   5.489   4.828   6.473
 9284SOL     OW28750   4.003   6.038   1.088
 9284SOL    HW128751   3.918   6.090   1.077
 9284SOL    HW228752   3.988   5.944   1.059
 9285SOL     OW28753   6.773   5.696   3.035
 9285SOL    HW128754   6.801   5.649   2.951
 9285SOL    HW228755   6.745   5.629   3.104
 9286SOL     OW28756   4.967   5.539   1.608
 9286SOL    HW128757   5.033   5.614   1.615
 9286SOL    HW228758   4.953   5.516   1.512
 9287SOL     OW28759   4.650   4.398   6.956
 9287SOL    HW128760   4.711   4.370   6.882
 9287SOL    HW228761   4.647   4.498   6.960
 9288SOL     OW28762   3.318   0.991   3.998
 9288SOL    HW128763   3.289   1.087   3.997
 9288SOL    HW228764   3.248   0.934   3.956
 9289SOL     OW28765   4.593   5.860   2.439
 9289SOL    HW128766   4.619   5.764   2.428
 9289SOL    HW228767   4.494   5.867   2.454
 9290SOL     OW28768   4.977   0.234   3.341
 9290SOL    HW128769   4.949   0.229   3.437
 9290SOL    HW228770   5.072   0.265   3.334
 9291SOL     OW28771   0.575   5.403   5.384
 9291SOL    HW128772   0.617   5.406   5.475
 9291SOL    HW228773   0.517   5.322   5.376
 9292SOL     OW28774   2.028   1.720   0.541
 9292SOL    HW128775   2.128   1.718   0.535
 9292SOL    HW228776   1.990   1.696   0.452
 9293SOL     OW28777   3.863   1.197   6.404
 9293SOL    HW128778   3.829   1.103   6.402
 9293SOL    HW228779   3.932   1.209   6.333
 9294SOL     OW28780   5.466   6.453   6.065
 9294SOL    HW128781   5.461   6.451   5.965
 9294SOL    HW228782   5.506   6.367   6.098
 9295SOL     OW28783   6.215   0.675   2.614
 9295SOL    HW128784   6.285   0.604   2.613
 9295SOL    HW228785   6.244   0.751   2.671
 9296SOL     OW28786   2.016   2.830   5.575
 9296SOL    HW128787   1.958   2.827   5.493
 9296SOL    HW228788   1.960   2.850   5.655
 9297SOL     OW28789   0.102   5.225   1.764
 9297SOL    HW128790   0.041   5.185   1.833
 9297SOL    HW228791   0.061   5.310   1.729
 9298SOL     OW28792   6.331   3.918   0.407
 9298SOL    HW128793   6.363   3.865   0.329
 9298SOL    HW228794   6.238   3.950   0.390
 9299SOL     OW28795   3.887   2.116   3.942
 9299SOL    HW128796   3.799   2.110   3.895
 9299SOL    HW228797   3.952   2.165   3.883
 9300SOL     OW28798   2.661   6.522   5.837
 9300SOL    HW128799   2.622   6.507   5.928
 9300SOL    HW228800   2.626   6.452   5.774
 9301SOL     OW28801   0.789   3.509   4.030
 9301SOL    HW128802   0.742   3.458   3.958
 9301SOL    HW228803   0.731   3.515   4.111
 9302SOL     OW28804   3.333   6.215   3.645
 9302SOL    HW128805   3.320   6.218   3.744
 9302SOL    HW228806   3.395   6.140   3.621
 9303SOL     OW28807   2.797   4.080   0.217
 9303SOL    HW128808   2.789   4.056   0.313
 9303SOL    HW228809   2.735   4.155   0.195
 9304SOL     OW28810   6.008   5.682   6.428
 9304SOL    HW128811   5.941   5.680   6.503
 9304SOL    HW228812   5.968   5.640   6.347
 9305SOL     OW28813   2.393   1.971   1.252
 9305SOL    HW128814   2.330   1.993   1.326
 9305SOL    HW228815   2.429   2.055   1.213
 9306SOL     OW28816   6.168   6.470   3.110
 9306SOL    HW128817   6.192   6.381   3.150
 9306SOL    HW228818   6.237   6.495   3.042
 9307SOL     OW28819   1.937   3.475   1.068
 9307SOL    HW128820   1.874   3.499   1.142
 9307SOL    HW228821   1.999   3.403   1.098
 9308SOL     OW28822   2.437   2.929   0.795
 9308SOL    HW128823   2.401   2.959   0.707
 9308SOL    HW228824   2.455   3.009   0.853
 9309SOL     OW28825   3.496   5.105   6.020
 9309SOL    HW128826   3.539   5.017   6.041
 9309SOL    HW228827   3.547   5.151   5.948
 9310SOL     OW28828   6.134   0.271   6.077
 9310SOL    HW128829   6.107   0.360   6.112
 9310SOL    HW228830   6.139   0.205   6.153
 9311SOL     OW28831   5.368   4.088   0.439
 9311SOL    HW128832   5.440   4.088   0.369
 9311SOL    HW228833   5.405   4.122   0.525
 9312SOL     OW28834   6.517   3.130   4.338
 9312SOL    HW128835   6.452   3.063   4.372
 9312SOL    HW228836   6.474   3.220   4.333
 9313SOL     OW28837   6.926   0.205   1.963
 9313SOL    HW128838   6.984   0.211   1.881
 9313SOL    HW228839   6.985   0.201   2.044
 9314SOL     OW28840   5.724   4.147   1.664
 9314SOL    HW128841   5.628   4.146   1.635
 9314SOL    HW228842   5.737   4.084   1.741
 9315SOL     OW28843   5.061   5.248   5.404
 9315SOL    HW128844   5.080   5.194   5.487
 9315SOL    HW228845   5.013   5.332   5.429
 9316SOL     OW28846   5.465   6.145   6.791
 9316SOL    HW128847   5.552   6.097   6.783
 9316SOL    HW228848   5.455   6.209   6.716
 9317SOL     OW28849   2.708   6.582   3.290
 9317SOL    HW128850   2.722   6.624   3.201
 9317SOL    HW228851   2.759   6.633   3.359
 9318SOL     OW28852   3.089   0.039   3.828
 9318SOL    HW128853   3.184   0.050   3.798
 9318SOL    HW228854   3.077   0.081   3.918
 9319SOL     OW28855   3.970   2.540   0.853
 9319SOL    HW128856   4.018   2.504   0.774
 9319SOL    HW228857   3.933   2.465   0.908
 9320SOL     OW28858   6.457   0.695   6.775
 9320SOL    HW128859   6.527   0.640   6.821
 9320SOL    HW228860   6.373   0.642   6.768
 9321SOL     OW28861   1.179   2.589   4.036
 9321SOL    HW128862   1.110   2.602   4.107
 9321SOL    HW228863   1.153   2.512   3.977
 9322SOL     OW28864   5.426   3.544   0.815
 9322SOL    HW128865   5.422   3.577   0.910
 9322SOL    HW228866   5.333   3.525   0.783
 9323SOL     OW28867   0.626   3.157   5.099
 9323SOL    HW128868   0.544   3.099   5.104
 9323SOL    HW228869   0.599   3.253   5.104
 9324SOL     OW28870   0.796   4.006   1.667
 9324SOL    HW128871   0.793   3.920   1.717
 9324SOL    HW228872   0.858   3.997   1.589
 9325SOL     OW28873   0.428   3.495   3.144
 9325SOL    HW128874   0.408   3.570   3.080
 9325SOL    HW228875   0.487   3.428   3.100
 9326SOL     OW28876   3.635   4.781   1.152
 9326SOL    HW128877   3.569   4.729   1.206
 9326SOL    HW228878   3.607   4.877   1.149
 9327SOL     OW28879   1.962   1.921   2.997
 9327SOL    HW128880   1.990   2.016   2.981
 9327SOL    HW228881   1.963   1.870   2.911
 9328SOL     OW28882   0.993   0.119   3.529
 9328SOL    HW128883   0.932   0.191   3.561
 9328SOL    HW228884   0.944   0.031   3.531
 9329SOL     OW28885   1.602   5.101   6.374
 9329SOL    HW128886   1.680   5.093   6.435
 9329SOL    HW228887   1.631   5.090   6.279
 9330SOL     OW28888   0.648   6.186   1.368
 9330SOL    HW128889   0.627   6.283   1.358
 9330SOL    HW228890   0.636   6.159   1.464
 9331SOL     OW28891   2.783   5.777   4.929
 9331SOL    HW128892   2.797   5.707   4.999
 9331SOL    HW228893   2.805   5.739   4.839
 9332SOL     OW28894   6.318   6.218   0.435
 9332SOL    HW128895   6.416   6.223   0.415
 9332SOL    HW228896   6.269   6.281   0.374
 9333SOL     OW28897   0.588   5.718   1.327
 9333SOL    HW128898   0.627   5.727   1.419
 9333SOL    HW228899   0.648   5.763   1.261
 9334SOL     OW28900   7.025   6.278   0.174
 9334SOL    HW128901   7.007   6.183   0.147
 9334SOL    HW228902   0.092   6.303   0.148
 9335SOL     OW28903   0.248   3.605   1.090
 9335SOL    HW128904   0.195   3.598   1.175
 9335SOL    HW228905   0.246   3.700   1.058
 9336SOL     OW28906   4.967   5.851   5.828
 9336SOL    HW128907   5.055   5.861   5.875
 9336SOL    HW228908   4.964   5.914   5.750
 9337SOL     OW28909   2.945   1.719   5.047
 9337SOL    HW128910   2.860   1.771   5.046
 9337SOL    HW228911   2.974   1.706   5.142
 9338SOL     OW28912   4.429   0.035   1.930
 9338SOL    HW128913   4.366   0.108   1.957
 9338SOL    HW228914   4.452   0.045   1.834
 9339SOL     OW28915   0.713   3.461   4.495
 9339SOL    HW128916   0.769   3.539   4.467
 9339SOL    HW228917   0.736   3.382   4.438
 9340SOL     OW28918   3.032   4.824   2.084
 9340SOL    HW128919   2.965   4.752   2.064
 9340SOL    HW228920   3.101   4.826   2.012
 9341SOL     OW28921   4.706   5.590   1.723
 9341SOL    HW128922   4.800   5.614   1.698
 9341SOL    HW228923   4.657   5.557   1.643
 9342SOL     OW28924   2.913   0.868   4.631
 9342SOL    HW128925   2.996   0.915   4.661
 9342SOL    HW228926   2.911   0.864   4.532
 9343SOL     OW28927   5.752   3.722   1.082
 9343SOL    HW128928   5.771   3.766   0.994
 9343SOL    HW228929   5.814   3.758   1.151
 9344SOL     OW28930   5.636   6.290   4.825
 9344SOL    HW128931   5.633   6.283   4.725
 9344SOL    HW228932   5.623   6.199   4.864
 9345SOL     OW28933   0.176   4.913   6.538
 9345SOL    HW128934   0.129   4.842   6.591
 9345SOL    HW228935   0.108   4.973   6.496
 9346SOL     OW28936   5.182   0.885   2.347
 9346SOL    HW128937   5.206   0.816   2.415
 9346SOL    HW228938   5.164   0.973   2.391
 9347SOL     OW28939   5.213   6.843   2.137
 9347SOL    HW128940   5.304   6.877   2.161
 9347SOL    HW228941   5.221   6.772   2.067
 9348SOL     OW28942   2.552   5.116   2.191
 9348SOL    HW128943   2.483   5.082   2.127
 9348SOL    HW228944   2.634   5.059   2.184
 9349SOL     OW28945   1.371   4.509   1.582
 9349SOL    HW128946   1.362   4.561   1.498
 9349SOL    HW228947   1.424   4.426   1.564
 9350SOL     OW28948   6.649   0.866   0.090
 9350SOL    HW128949   6.673   0.893   7.022
 9350SOL    HW228950   6.557   0.898   0.111
 9351SOL     OW28951   3.900   4.176   6.479
 9351SOL    HW128952   3.857   4.259   6.512
 9351SOL    HW228953   3.998   4.179   6.498
 9352SOL     OW28954   2.775   1.934   6.993
 9352SOL    HW128955   2.697   1.872   6.991
 9352SOL    HW228956   2.850   1.896   6.937
 9353SOL     OW28957   1.281   3.042   2.465
 9353SOL    HW128958   1.186   3.056   2.435
 9353SOL    HW228959   1.343   3.080   2.397
 9354SOL     OW28960   5.769   2.349   2.522
 9354SOL    HW128961   5.771   2.447   2.542
 9354SOL    HW228962   5.674   2.318   2.518
 9355SOL     OW28963   0.487   2.292   2.181
 9355SOL    HW128964   0.486   2.336   2.091
 9355SOL    HW228965   0.433   2.346   2.245
 9356SOL     OW28966   4.442   2.470   2.138
 9356SOL    HW128967   4.438   2.499   2.233
 9356SOL    HW228968   4.509   2.525   2.089
 9357SOL     OW28969   1.835   4.151   6.708
 9357SOL    HW128970   1.924   4.188   6.735
 9357SOL    HW228971   1.819   4.064   6.755
 9358SOL     OW28972   5.556   5.123   3.577
 9358SOL    HW128973   5.505   5.058   3.634
 9358SOL    HW228974   5.599   5.075   3.501
 9359SOL     OW28975   4.277   5.399   5.647
 9359SOL    HW128976   4.212   5.337   5.604
 9359SOL    HW228977   4.370   5.361   5.640
 9360SOL     OW28978   0.785   0.261   5.356
 9360SOL    HW128979   0.873   0.239   5.314
 9360SOL    HW228980   0.713   0.203   5.316
 9361SOL     OW28981   1.567   1.310   2.657
 9361SOL    HW128982   1.606   1.228   2.614
 9361SOL    HW228983   1.477   1.328   2.618
 9362SOL     OW28984   1.545   1.747   2.837
 9362SOL    HW128985   1.540   1.652   2.867
 9362SOL    HW228986   1.623   1.759   2.776
 9363SOL     OW28987   0.358   6.711   2.267
 9363SOL    HW128988   0.344   6.671   2.357
 9363SOL    HW228989   0.456   6.706   2.244
 9364SOL     OW28990   5.826   3.849   0.839
 9364SOL    HW128991   5.841   3.941   0.875
 9364SOL    HW228992   5.900   3.826   0.776
 9365SOL     OW28993   2.920   1.155   4.308
 9365SOL    HW128994   2.827   1.151   4.343
 9365SOL    HW228995   2.918   1.140   4.209
 9366SOL     OW28996   2.447   1.924   0.981
 9366SOL    HW128997   2.445   1.917   1.080
 9366SOL    HW228998   2.353   1.938   0.947
 9367SOL     OW28999   5.386   6.756   4.595
 9367SOL    HW129000   5.326   6.824   4.553
 9367SOL    HW229001   5.462   6.736   4.533
 9368SOL     OW29002   5.952   2.861   1.036
 9368SOL    HW129003   5.867   2.815   1.010
 9368SOL    HW229004   6.000   2.805   1.104
 9369SOL     OW29005   0.333   2.408   5.832
 9369SOL    HW129006   0.380   2.321   5.819
 9369SOL    HW229007   0.399   2.483   5.826
 9370SOL     OW29008   5.652   5.442   1.893
 9370SOL    HW129009   5.743   5.418   1.928
 9370SOL    HW229010   5.640   5.541   1.897
 9371SOL     OW29011   1.736   0.226   0.730
 9371SOL    HW129012   1.830   0.259   0.720
 9371SOL    HW229013   1.677   0.274   0.664
 9372SOL     OW29014   5.458   5.776   0.586
 9372SOL    HW129015   5.450   5.682   0.552
 9372SOL    HW229016   5.507   5.831   0.518
 9373SOL     OW29017   4.788   2.774   4.828
 9373SOL    HW129018   4.854   2.699   4.827
 9373SOL    HW229019   4.696   2.737   4.820
 9374SOL     OW29020   5.185   4.423   6.701
 9374SOL    HW129021   5.256   4.492   6.688
 9374SOL    HW229022   5.151   4.392   6.612
 9375SOL     OW29023   6.069   6.435   3.686
 9375SOL    HW129024   6.019   6.514   3.649
 9375SOL    HW229025   6.034   6.351   3.644
 9376SOL     OW29026   2.610   3.408   1.763
 9376SOL    HW129027   2.670   3.464   1.820
 9376SOL    HW229028   2.517   3.411   1.800
 9377SOL     OW29029   0.119   4.390   3.536
 9377SOL    HW129030   0.181   4.391   3.615
 9377SOL    HW229031   0.170   4.413   3.453
 9378SOL     OW29032   4.024   5.942   1.461
 9378SOL    HW129033   4.102   5.932   1.400
 9378SOL    HW229034   4.000   5.853   1.500
 9379SOL     OW29035   4.604   4.600   5.062
 9379SOL    HW129036   4.505   4.586   5.064
 9379SOL    HW229037   4.651   4.517   5.092
 9380SOL     OW29038   0.073   5.661   5.685
 9380SOL    HW129039   0.071   5.725   5.609
 9380SOL    HW229040   0.145   5.688   5.750
 9381SOL     OW29041   0.366   0.981   0.142
 9381SOL    HW129042   0.374   1.013   0.047
 9381SOL    HW229043   0.435   1.028   0.198
 9382SOL     OW29044   6.225   2.324   2.152
 9382SOL    HW129045   6.170   2.317   2.069
 9382SOL    HW229046   6.181   2.387   2.216
 9383SOL     OW29047   7.024   5.207   0.171
 9383SOL    HW129048   6.978   5.228   0.258
 9383SOL    HW229049   6.991   5.119   0.137
 9384SOL     OW29050   3.168   6.961   2.186
 9384SOL    HW129051   3.097   0.006   2.182
 9384SOL    HW229052   3.208   6.958   2.278
 9385SOL     OW29053   4.272   6.560   3.374
 9385SOL    HW129054   4.359   6.537   3.416
 9385SOL    HW229055   4.285   6.578   3.276
 9386SOL     OW29056   3.252   6.638   4.593
 9386SOL    HW129057   3.324   6.583   4.551
 9386SOL    HW229058   3.249   6.728   4.549
 9387SOL     OW29059   4.538   6.050   0.923
 9387SOL    HW129060   4.505   6.088   1.010
 9387SOL    HW229061   4.578   5.960   0.939
 9388SOL     OW29062   6.569   6.998   1.228
 9388SOL    HW129063   6.613   0.057   1.200
 9388SOL    HW229064   6.559   6.997   1.328
 9389SOL     OW29065   2.958   1.351   1.050
 9389SOL    HW129066   2.890   1.315   1.114
 9389SOL    HW229067   3.050   1.329   1.083
 9390SOL     OW29068   4.056   6.696   0.906
 9390SOL    HW129069   3.965   6.661   0.929
 9390SOL    HW229070   4.114   6.691   0.987
 9391SOL     OW29071   4.917   0.267   3.650
 9391SOL    HW129072   4.876   0.358   3.658
 9391SOL    HW229073   5.007   0.267   3.692
 9392SOL     OW29074   0.399   7.018   4.849
 9392SOL    HW129075   0.441   6.948   4.908
 9392SOL    HW229076   0.352   6.974   4.773
 9393SOL     OW29077   4.798   1.946   5.040
 9393SOL    HW129078   4.825   1.992   4.955
 9393SOL    HW229079   4.833   1.853   5.040
 9394SOL     OW29080   6.668   1.541   2.631
 9394SOL    HW129081   6.740   1.575   2.692
 9394SOL    HW229082   6.599   1.492   2.684
 9395SOL     OW29083   1.556   2.660   0.034
 9395SOL    HW129084   1.485   2.631   0.099
 9395SOL    HW229085   1.646   2.635   0.069
 9396SOL     OW29086   0.581   1.462   5.012
 9396SOL    HW129087   0.553   1.407   4.933
 9396SOL    HW229088   0.668   1.427   5.047
 9397SOL     OW29089   1.706   1.876   1.187
 9397SOL    HW129090   1.686   1.866   1.090
 9397SOL    HW229091   1.774   1.808   1.215
 9398SOL     OW29092   2.604   1.959   1.493
 9398SOL    HW129093   2.663   1.940   1.571
 9398SOL    HW229094   2.509   1.963   1.522
 9399SOL     OW29095   0.145   0.703   5.241
 9399SOL    HW129096   0.083   0.762   5.292
 9399SOL    HW229097   0.201   0.650   5.305
 9400SOL     OW29098   4.428   1.424   4.413
 9400SOL    HW129099   4.373   1.390   4.490
 9400SOL    HW229100   4.372   1.484   4.357
 9401SOL     OW29101   4.418   6.923   4.024
 9401SOL    HW129102   4.392   6.950   4.117
 9401SOL    HW229103   4.425   7.005   3.967
 9402SOL     OW29104   2.183   4.609   6.184
 9402SOL    HW129105   2.097   4.573   6.219
 9402SOL    HW229106   2.165   4.693   6.133
 9403SOL     OW29107   6.377   0.225   3.560
 9403SOL    HW129108   6.370   0.310   3.509
 9403SOL    HW229109   6.407   0.244   3.653
 9404SOL     OW29110   2.337   4.592   4.815
 9404SOL    HW129111   2.430   4.615   4.844
 9404SOL    HW229112   2.289   4.545   4.889
 9405SOL     OW29113   0.103   0.640   1.165
 9405SOL    HW129114   0.115   0.722   1.110
 9405SOL    HW229115   0.185   0.583   1.159
 9406SOL     OW29116   6.573   2.067   5.327
 9406SOL    HW129117   6.534   1.997   5.267
 9406SOL    HW229118   6.615   2.139   5.271
 9407SOL     OW29119   3.374   5.457   3.685
 9407SOL    HW129120   3.353   5.526   3.754
 9407SOL    HW229121   3.299   5.390   3.681
 9408SOL     OW29122   3.660   1.394   0.177
 9408SOL    HW129123   3.666   1.482   0.223
 9408SOL    HW229124   3.596   1.335   0.225
 9409SOL     OW29125   6.353   4.162   3.852
 9409SOL    HW129126   6.359   4.113   3.939
 9409SOL    HW229127   6.284   4.119   3.794
 9410SOL     OW29128   4.292   6.734   1.764
 9410SOL    HW129129   4.361   6.682   1.813
 9410SOL    HW229130   4.335   6.811   1.717
 9411SOL     OW29131   5.052   4.266   2.467
 9411SOL    HW129132   4.981   4.327   2.501
 9411SOL    HW229133   5.142   4.305   2.485
 9412SOL     OW29134   6.920   1.605   3.125
 9412SOL    HW129135   6.833   1.651   3.106
 9412SOL    HW229136   6.992   1.673   3.137
 9413SOL     OW29137   4.272   5.472   3.759
 9413SOL    HW129138   4.264   5.462   3.858
 9413SOL    HW229139   4.302   5.565   3.737
 9414SOL     OW29140   2.403   0.141   2.000
 9414SOL    HW129141   2.393   0.171   2.095
 9414SOL    HW229142   2.392   0.219   1.939
 9415SOL     OW29143   0.633   6.747   2.216
 9415SOL    HW129144   0.678   6.786   2.136
 9415SOL    HW229145   0.682   6.666   2.248
 9416SOL     OW29146   1.213   1.748   1.961
 9416SOL    HW129147   1.272   1.703   1.894
 9416SOL    HW229148   1.119   1.749   1.929
 9417SOL     OW29149   0.960   0.338   4.149
 9417SOL    HW129150   0.917   0.396   4.080
 9417SOL    HW229151   1.047   0.303   4.115
 9418SOL     OW29152   4.256   4.354   0.606
 9418SOL    HW129153   4.255   4.451   0.627
 9418SOL    HW229154   4.193   4.305   0.667
 9419SOL     OW29155   2.720   6.158   3.464
 9419SOL    HW129156   2.725   6.087   3.393
 9419SOL    HW229157   2.657   6.230   3.434
 9420SOL     OW29158   1.128   0.455   2.603
 9420SOL    HW129159   1.125   0.475   2.701
 9420SOL    HW229160   1.083   0.528   2.552
 9421SOL     OW29161   1.784   4.266   5.223
 9421SOL    HW129162   1.846   4.197   5.186
 9421SOL    HW229163   1.720   4.296   5.152
 9422SOL     OW29164   3.321   1.121   2.693
 9422SOL    HW129165   3.410   1.156   2.664
 9422SOL    HW229166   3.322   1.021   2.692
 9423SOL     OW29167   4.562   0.346   5.101
 9423SOL    HW129168   4.621   0.414   5.058
 9423SOL    HW229169   4.493   0.392   5.158
 9424SOL     OW29170   3.347   5.846   3.522
 9424SOL    HW129171   3.273   5.795   3.566
 9424SOL    HW229172   3.309   5.925   3.474
 9425SOL     OW29173   0.278   5.886   2.351
 9425SOL    HW129174   0.376   5.873   2.367
 9425SOL    HW229175   0.228   5.810   2.391
 9426SOL     OW29176   3.332   5.967   0.779
 9426SOL    HW129177   3.342   6.064   0.797
 9426SOL    HW229178   3.261   5.929   0.838
 9427SOL     OW29179   3.567   4.925   4.670
 9427SOL    HW129180   3.666   4.919   4.669
 9427SOL    HW229181   3.537   4.972   4.753
 9428SOL     OW29182   4.281   6.605   2.090
 9428SOL    HW129183   4.182   6.606   2.103
 9428SOL    HW229184   4.317   6.515   2.115
 9429SOL     OW29185   0.596   3.276   3.043
 9429SOL    HW129186   0.628   3.318   2.958
 9429SOL    HW229187   0.578   3.179   3.027
 9430SOL     OW29188   6.152   6.749   1.724
 9430SOL    HW129189   6.191   6.834   1.760
 9430SOL    HW229190   6.081   6.771   1.657
 9431SOL     OW29191   6.063   4.533   0.573
 9431SOL    HW129192   5.964   4.529   0.563
 9431SOL    HW229193   6.088   4.514   0.668
 9432SOL     OW29194   5.945   6.625   2.831
 9432SOL    HW129195   6.043   6.606   2.831
 9432SOL    HW229196   5.930   6.724   2.821
 9433SOL     OW29197   2.422   5.383   4.444
 9433SOL    HW129198   2.520   5.390   4.460
 9433SOL    HW229199   2.405   5.373   4.345
 9434SOL     OW29200   5.893   4.607   3.360
 9434SOL    HW129201   5.892   4.574   3.455
 9434SOL    HW229202   5.882   4.707   3.360
 9435SOL     OW29203   2.940   2.549   6.142
 9435SOL    HW129204   2.982   2.464   6.109
 9435SOL    HW229205   2.924   2.611   6.065
 9436SOL     OW29206   3.561   2.339   5.488
 9436SOL    HW129207   3.624   2.414   5.469
 9436SOL    HW229208   3.472   2.358   5.445
 9437SOL     OW29209   0.438   6.318   4.719
 9437SOL    HW129210   0.489   6.241   4.759
 9437SOL    HW229211   0.401   6.290   4.631
 9438SOL     OW29212   6.857   6.476   1.495
 9438SOL    HW129213   6.937   6.535   1.483
 9438SOL    HW229214   6.869   6.393   1.441
 9439SOL     OW29215   1.487   2.602   1.849
 9439SOL    HW129216   1.551   2.529   1.825
 9439SOL    HW229217   1.503   2.630   1.944
 9440SOL     OW29218   3.024   6.356   3.017
 9440SOL    HW129219   3.082   6.280   2.988
 9440SOL    HW229220   2.932   6.322   3.036
 9441SOL     OW29221   1.382   5.294   6.102
 9441SOL    HW129222   1.468   5.250   6.127
 9441SOL    HW229223   1.399   5.391   6.080
 9442SOL     OW29224   1.181   1.916   1.646
 9442SOL    HW129225   1.209   1.855   1.572
 9442SOL    HW229226   1.260   1.967   1.680
 9443SOL     OW29227   0.759   1.841   1.002
 9443SOL    HW129228   0.779   1.847   0.905
 9443SOL    HW229229   0.843   1.858   1.055
 9444SOL     OW29230   1.428   4.123   5.053
 9444SOL    HW129231   1.433   4.082   4.962
 9444SOL    HW229232   1.520   4.142   5.087
 9445SOL     OW29233   5.611   1.928   2.335
 9445SOL    HW129234   5.689   1.971   2.289
 9445SOL    HW229235   5.596   1.837   2.297
 9446SOL     OW29236   5.250   5.112   0.385
 9446SOL    HW129237   5.285   5.019   0.370
 9446SOL    HW229238   5.313   5.162   0.445
 9447SOL     OW29239   5.519   0.987   1.595
 9447SOL    HW129240   5.452   0.997   1.668
 9447SOL    HW229241   5.560   0.895   1.600
 9448SOL     OW29242   6.302   6.665   0.467
 9448SOL    HW129243   6.323   6.699   0.375
 9448SOL    HW229244   6.254   6.577   0.460
 9449SOL     OW29245   5.824   5.212   4.581
 9449SOL    HW129246   5.796   5.180   4.490
 9449SOL    HW229247   5.743   5.222   4.639
 9450SOL     OW29248   1.667   6.239   4.100
 9450SOL    HW129249   1.606   6.169   4.136
 9450SOL    HW229250   1.752   6.196   4.068
 9451SOL     OW29251   4.082   3.420   4.778
 9451SOL    HW129252   4.108   3.502   4.829
 9451SOL    HW229253   4.006   3.375   4.824
 9452SOL     OW29254   3.532   4.353   0.388
 9452SOL    HW129255   3.484   4.438   0.409
 9452SOL    HW229256   3.567   4.357   0.294
 9453SOL     OW29257   3.094   6.629   1.173
 9453SOL    HW129258   3.094   6.726   1.198
 9453SOL    HW229259   3.028   6.615   1.098
 9454SOL     OW29260   2.292   2.020   6.012
 9454SOL    HW129261   2.349   2.094   5.977
 9454SOL    HW229262   2.337   1.932   5.994
 9455SOL     OW29263   1.758   2.141   1.634
 9455SOL    HW129264   1.674   2.180   1.672
 9455SOL    HW229265   1.743   2.119   1.538
 9456SOL     OW29266   1.260   2.730   0.285
 9456SOL    HW129267   1.238   2.672   0.207
 9456SOL    HW229268   1.326   2.800   0.258
 9457SOL     OW29269   5.882   3.870   0.058
 9457SOL    HW129270   5.784   3.857   0.040
 9457SOL    HW229271   5.918   3.789   0.104
 9458SOL     OW29272   1.477   5.559   4.001
 9458SOL    HW129273   1.400   5.610   4.039
 9458SOL    HW229274   1.530   5.517   4.075
 9459SOL     OW29275   3.623   6.293   0.672
 9459SOL    HW129276   3.554   6.365   0.682
 9459SOL    HW229277   3.696   6.307   0.739
 9460SOL     OW29278   1.446   3.424   5.424
 9460SOL    HW129279   1.528   3.369   5.440
 9460SOL    HW229280   1.471   3.521   5.425
 9461SOL     OW29281   1.450   0.572   2.408
 9461SOL    HW129282   1.409   0.610   2.325
 9461SOL    HW229283   1.393   0.497   2.442
 9462SOL     OW29284   0.467   3.412   3.645
 9462SOL    HW129285   0.451   3.334   3.705
 9462SOL    HW229286   0.505   3.488   3.698
 9463SOL     OW29287   5.477   2.229   5.764
 9463SOL    HW129288   5.384   2.194   5.760
 9463SOL    HW229289   5.476   2.327   5.743
 9464SOL     OW29290   3.941   6.585   6.162
 9464SOL    HW129291   3.846   6.570   6.187
 9464SOL    HW229292   3.977   6.504   6.116
 9465SOL     OW29293   4.248   6.494   4.020
 9465SOL    HW129294   4.335   6.447   4.036
 9465SOL    HW229295   4.260   6.562   3.948
 9466SOL     OW29296   3.565   2.122   6.788
 9466SOL    HW129297   3.625   2.178   6.845
 9466SOL    HW229298   3.521   2.052   6.846
 9467SOL     OW29299   0.997   3.171   2.428
 9467SOL    HW129300   0.982   3.268   2.408
 9467SOL    HW229301   1.006   3.158   2.527
 9468SOL     OW29302   0.320   2.740   6.217
 9468SOL    HW129303   0.283   2.652   6.187
 9468SOL    HW229304   0.325   2.803   6.139
 9469SOL     OW29305   0.425   3.957   2.564
 9469SOL    HW129306   0.452   3.874   2.515
 9469SOL    HW229307   0.497   3.983   2.628
 9470SOL     OW29308   6.074   3.637   1.689
 9470SOL    HW129309   6.100   3.702   1.761
 9470SOL    HW229310   6.113   3.547   1.710
 9471SOL     OW29311   0.108   2.358   5.660
 9471SOL    HW129312   0.194   2.381   5.705
 9471SOL    HW229313   0.064   2.442   5.628
 9472SOL     OW29314   6.100   2.407   5.152
 9472SOL    HW129315   6.025   2.366   5.101
 9472SOL    HW229316   6.187   2.366   5.123
 9473SOL     OW29317   3.009   4.446   5.524
 9473SOL    HW129318   3.031   4.412   5.433
 9473SOL    HW229319   2.912   4.433   5.542
 9474SOL     OW29320   3.688   5.977   4.528
 9474SOL    HW129321   3.740   6.058   4.500
 9474SOL    HW229322   3.630   5.946   4.452
 9475SOL     OW29323   2.732   3.215   1.417
 9475SOL    HW129324   2.761   3.214   1.513
 9475SOL    HW229325   2.765   3.298   1.373
 9476SOL     OW29326   3.057   3.058   5.534
 9476SOL    HW129327   3.137   3.096   5.487
 9476SOL    HW229328   2.979   3.056   5.471
 9477SOL     OW29329   0.887   2.340   0.531
 9477SOL    HW129330   0.809   2.308   0.586
 9477SOL    HW229331   0.964   2.359   0.591
 9478SOL     OW29332   5.867   3.711   6.778
 9478SOL    HW129333   5.919   3.645   6.724
 9478SOL    HW229334   5.906   3.803   6.766
 9479SOL     OW29335   5.937   4.843   4.998
 9479SOL    HW129336   6.022   4.843   4.946
 9479SOL    HW229337   5.861   4.866   4.937
 9480SOL     OW29338   6.969   3.616   6.335
 9480SOL    HW129339   6.934   3.627   6.242
 9480SOL    HW229340   0.036   3.577   6.331
 9481SOL     OW29341   1.126   2.826   3.627
 9481SOL    HW129342   1.138   2.914   3.581
 9481SOL    HW229343   1.041   2.784   3.595
 9482SOL     OW29344   4.306   1.614   2.101
 9482SOL    HW129345   4.363   1.543   2.058
 9482SOL    HW229346   4.264   1.578   2.184
 9483SOL     OW29347   1.702   0.927   0.550
 9483SOL    HW129348   1.670   0.833   0.548
 9483SOL    HW229349   1.626   0.988   0.569
 9484SOL     OW29350   6.750   0.351   3.533
 9484SOL    HW129351   6.826   0.413   3.551
 9484SOL    HW229352   6.778   0.257   3.552
 9485SOL     OW29353   6.787   0.053   2.836
 9485SOL    HW129354   6.748   7.025   2.762
 9485SOL    HW229355   6.869   0.101   2.803
 9486SOL     OW29356   2.814   6.707   1.301
 9486SOL    HW129357   2.911   6.719   1.276
 9486SOL    HW229358   2.806   6.694   1.400
 9487SOL     OW29359   3.515   2.954   3.409
 9487SOL    HW129360   3.506   2.951   3.309
 9487SOL    HW229361   3.610   2.938   3.434
 9488SOL     OW29362   1.849   0.146   1.707
 9488SOL    HW129363   1.812   0.080   1.772
 9488SOL    HW229364   1.944   0.168   1.731
 9489SOL     OW29365   3.023   4.923   0.744
 9489SOL    HW129366   2.948   4.964   0.692
 9489SOL    HW229367   2.998   4.830   0.770
 9490SOL     OW29368   4.423   1.855   0.307
 9490SOL    HW129369   4.472   1.885   0.225
 9490SOL    HW229370   4.412   1.755   0.304
 9491SOL     OW29371   5.703   5.911   6.334
 9491SOL    HW129372   5.773   5.901   6.263
 9491SOL    HW229373   5.612   5.905   6.292
 9492SOL     OW29374   2.582   5.514   1.034
 9492SOL    HW129375   2.628   5.534   1.121
 9492SOL    HW229376   2.570   5.416   1.025
 9493SOL     OW29377   4.697   5.581   2.458
 9493SOL    HW129378   4.762   5.574   2.533
 9493SOL    HW229379   4.711   5.505   2.394
 9494SOL     OW29380   3.507   3.345   6.427
 9494SOL    HW129381   3.596   3.369   6.465
 9494SOL    HW229382   3.446   3.424   6.432
 9495SOL     OW29383   5.271   2.633   4.521
 9495SOL    HW129384   5.336   2.562   4.491
 9495SOL    HW229385   5.302   2.672   4.608
 9496SOL     OW29386   6.917   4.179   6.703
 9496SOL    HW129387   6.871   4.104   6.655
 9496SOL    HW229388   7.016   4.167   6.696
 9497SOL     OW29389   0.953   6.434   6.412
 9497SOL    HW129390   1.029   6.493   6.384
 9497SOL    HW229391   0.867   6.484   6.405
 9498SOL     OW29392   4.546   6.628   6.701
 9498SOL    HW129393   4.634   6.581   6.697
 9498SOL    HW229394   4.562   6.726   6.715
 9499SOL     OW29395   4.701   4.134   5.347
 9499SOL    HW129396   4.633   4.068   5.379
 9499SOL    HW229397   4.784   4.125   5.401
 9500SOL     OW29398   3.756   5.987   0.809
 9500SOL    HW129399   3.752   6.087   0.807
 9500SOL    HW229400   3.680   5.951   0.863
 9501SOL     OW29401   3.292   1.897   4.781
 9501SOL    HW129402   3.346   1.957   4.722
 9501SOL    HW229403   3.268   1.946   4.865
 9502SOL     OW29404   3.844   3.371   6.231
 9502SOL    HW129405   3.798   3.370   6.320
 9502SOL    HW229406   3.776   3.383   6.159
 9503SOL     OW29407   0.805   6.101   1.158
 9503SOL    HW129408   0.759   6.114   1.246
 9503SOL    HW229409   0.904   6.095   1.172
 9504SOL     OW29410   0.048   3.160   0.935
 9504SOL    HW129411   7.012   3.153   0.857
 9504SOL    HW229412   0.018   3.098   1.007
 9505SOL     OW29413   4.890   3.218   3.369
 9505SOL    HW129414   4.868   3.159   3.291
 9505SOL    HW229415   4.904   3.312   3.337
 9506SOL     OW29416   6.452   1.997   0.944
 9506SOL    HW129417   6.363   1.989   0.988
 9506SOL    HW229418   6.511   2.056   0.999
 9507SOL     OW29419   1.646   3.211   5.448
 9507SOL    HW129420   1.647   3.114   5.473
 9507SOL    HW229421   1.680   3.222   5.355
 9508SOL     OW29422   3.986   1.223   5.360
 9508SOL    HW129423   3.890   1.194   5.368
 9508SOL    HW229424   3.989   1.317   5.327
 9509SOL     OW29425   3.607   6.961   5.748
 9509SOL    HW129426   3.586   6.999   5.657
 9509SOL    HW229427   3.705   6.968   5.765
 9510SOL     OW29428   6.920   4.121   2.533
 9510SOL    HW129429   6.836   4.153   2.577
 9510SOL    HW229430   6.959   4.045   2.584
 9511SOL     OW29431   2.042   1.797   1.236
 9511SOL    HW129432   2.039   1.873   1.172
 9511SOL    HW229433   2.040   1.832   1.330
 9512SOL     OW29434   1.859   3.586   5.513
 9512SOL    HW129435   1.907   3.500   5.495
 9512SOL    HW229436   1.778   3.592   5.455
 9513SOL     OW29437   3.276   4.924   3.761
 9513SOL    HW129438   3.221   4.887   3.686
 9513SOL    HW229439   3.356   4.970   3.724
 9514SOL     OW29440   3.290   3.269   5.534
 9514SOL    HW129441   3.253   3.359   5.557
 9514SOL    HW229442   3.293   3.259   5.434
 9515SOL     OW29443   1.614   5.532   5.444
 9515SOL    HW129444   1.683   5.461   5.428
 9515SOL    HW229445   1.629   5.608   5.381
 9516SOL     OW29446   6.283   4.504   4.776
 9516SOL    HW129447   6.288   4.544   4.685
 9516SOL    HW229448   6.243   4.570   4.839
 9517SOL     OW29449   0.478   5.323   2.352
 9517SOL    HW129450   0.394   5.327   2.406
 9517SOL    HW229451   0.551   5.284   2.409
 9518SOL     OW29452   1.057   3.215   5.395
 9518SOL    HW129453   1.112   3.244   5.317
 9518SOL    HW229454   0.960   3.215   5.369
 9519SOL     OW29455   3.273   3.332   3.633
 9519SOL    HW129456   3.309   3.300   3.545
 9519SOL    HW229457   3.256   3.254   3.693
 9520SOL     OW29458   4.700   1.437   5.988
 9520SOL    HW129459   4.753   1.467   5.909
 9520SOL    HW229460   4.613   1.399   5.957
 9521SOL     OW29461   3.867   1.703   1.454
 9521SOL    HW129462   3.776   1.663   1.449
 9521SOL    HW229463   3.860   1.797   1.490
 9522SOL     OW29464   3.927   6.566   1.158
 9522SOL    HW129465   4.006   6.579   1.217
 9522SOL    HW229466   3.908   6.469   1.146
 9523SOL     OW29467   2.570   4.591   4.572
 9523SOL    HW129468   2.587   4.604   4.670
 9523SOL    HW229469   2.622   4.657   4.520
 9524SOL     OW29470   1.837   3.506   0.382
 9524SOL    HW129471   1.849   3.578   0.314
 9524SOL    HW229472   1.915   3.507   0.445
 9525SOL     OW29473   2.664   2.672   6.387
 9525SOL    HW129474   2.760   2.657   6.411
 9525SOL    HW229475   2.605   2.623   6.451
 9526SOL     OW29476   5.398   4.630   6.021
 9526SOL    HW129477   5.320   4.685   6.050
 9526SOL    HW229478   5.415   4.558   6.089
 9527SOL     OW29479   4.244   5.811   4.695
 9527SOL    HW129480   4.158   5.846   4.659
 9527SOL    HW229481   4.227   5.722   4.739
 9528SOL     OW29482   5.121   2.539   1.110
 9528SOL    HW129483   5.049   2.491   1.160
 9528SOL    HW229484   5.089   2.632   1.088
 9529SOL     OW29485   5.790   0.215   1.894
 9529SOL    HW129486   5.776   0.314   1.900
 9529SOL    HW229487   5.718   0.175   1.836
 9530SOL     OW29488   1.142   6.024   3.738
 9530SOL    HW129489   1.043   6.033   3.749
 9530SOL    HW229490   1.172   5.938   3.781
 9531SOL     OW29491   3.700   5.866   1.679
 9531SOL    HW129492   3.642   5.891   1.757
 9531SOL    HW229493   3.737   5.774   1.694
 9532SOL     OW29494   6.750   5.061   4.318
 9532SOL    HW129495   6.849   5.052   4.320
 9532SOL    HW229496   6.723   5.148   4.359
 9533SOL     OW29497   1.041   4.348   4.158
 9533SOL    HW129498   1.033   4.438   4.201
 9533SOL    HW229499   0.996   4.280   4.216
 9534SOL     OW29500   4.950   6.087   4.645
 9534SOL    HW129501   4.940   5.987   4.645
 9534SOL    HW229502   4.975   6.118   4.553
 9535SOL     OW29503   6.913   1.813   4.305
 9535SOL    HW129504   6.867   1.761   4.377
 9535SOL    HW229505   6.895   1.910   4.317
 9536SOL     OW29506   3.456   3.606   5.497
 9536SOL    HW129507   3.538   3.663   5.491
 9536SOL    HW229508   3.464   3.529   5.434
 9537SOL     OW29509   6.820   0.745   4.520
 9537SOL    HW129510   6.890   0.748   4.592
 9537SOL    HW229511   6.798   0.839   4.493
 9538SOL     OW29512   5.564   0.673   5.303
 9538SOL    HW129513   5.561   0.584   5.258
 9538SOL    HW229514   5.524   0.665   5.395
 9539SOL     OW29515   3.656   4.167   2.042
 9539SOL    HW129516   3.686   4.254   2.081
 9539SOL    HW229517   3.603   4.117   2.110
 9540SOL     OW29518   4.036   5.070   3.196
 9540SOL    HW129519   4.017   5.105   3.105
 9540SOL    HW229520   4.057   5.146   3.258
 9541SOL     OW29521   1.661   5.435   5.852
 9541SOL    HW129522   1.571   5.454   5.811
 9541SOL    HW229523   1.728   5.424   5.779
 9542SOL     OW29524   6.368   3.848   3.113
 9542SOL    HW129525   6.313   3.928   3.138
 9542SOL    HW229526   6.308   3.770   3.095
 9543SOL     OW29527   1.834   0.957   6.017
 9543SOL    HW129528   1.924   0.931   5.982
 9543SOL    HW229529   1.771   0.968   5.940
 9544SOL     OW29530   6.248   3.362   4.848
 9544SOL    HW129531   6.340   3.323   4.853
 9544SOL    HW229532   6.234   3.425   4.925
 9545SOL     OW29533   6.463   4.311   1.562
 9545SOL    HW129534   6.501   4.383   1.620
 9545SOL    HW229535   6.373   4.340   1.528
 9546SOL     OW29536   3.407   2.767   0.207
 9546SOL    HW129537   3.364   2.727   0.126
 9546SOL    HW229538   3.359   2.737   0.289
 9547SOL     OW29539   4.144   0.619   3.482
 9547SOL    HW129540   4.219   0.554   3.493
 9547SOL    HW229541   4.138   0.648   3.386
 9548SOL     OW29542   0.926   5.139   5.713
 9548SOL    HW129543   1.006   5.114   5.658
 9548SOL    HW229544   0.844   5.136   5.657
 9549SOL     OW29545   4.774   1.318   1.554
 9549SOL    HW129546   4.800   1.372   1.635
 9549SOL    HW229547   4.850   1.317   1.489
 9550SOL     OW29548   6.904   1.925   1.892
 9550SOL    HW129549   6.907   1.844   1.834
 9550SOL    HW229550   6.884   2.005   1.837
 9551SOL     OW29551   6.522   3.213   6.854
 9551SOL    HW129552   6.523   3.313   6.858
 9551SOL    HW229553   6.428   3.181   6.845
 9552SOL     OW29554   3.288   1.817   0.133
 9552SOL    HW129555   3.319   1.724   0.153
 9552SOL    HW229556   3.268   1.864   0.218
 9553SOL     OW29557   5.051   1.471   0.120
 9553SOL    HW129558   4.980   1.541   0.121
 9553SOL    HW229559   5.028   1.400   0.052
 9554SOL     OW29560   2.668   1.093   4.407
 9554SOL    HW129561   2.602   1.132   4.470
 9554SOL    HW229562   2.661   0.993   4.408
 9555SOL     OW29563   0.494   6.425   2.669
 9555SOL    HW129564   0.585   6.405   2.633
 9555SOL    HW229565   0.464   6.351   2.729
 9556SOL     OW29566   2.300   4.884   6.490
 9556SOL    HW129567   2.308   4.785   6.497
 9556SOL    HW229568   2.368   4.928   6.549
 9557SOL     OW29569   4.991   0.984   0.195
 9557SOL    HW129570   5.018   1.032   0.112
 9557SOL    HW229571   4.958   1.050   0.263
 9558SOL     OW29572   5.572   5.859   5.546
 9558SOL    HW129573   5.656   5.828   5.502
 9558SOL    HW229574   5.558   5.808   5.631
 9559SOL     OW29575   2.420   4.286   0.292
 9559SOL    HW129576   2.333   4.240   0.279
 9559SOL    HW229577   2.404   4.384   0.307
 9560SOL     OW29578   2.405   0.350   1.818
 9560SOL    HW129579   2.333   0.412   1.849
 9560SOL    HW229580   2.447   0.387   1.735
 9561SOL     OW29581   6.738   0.907   6.852
 9561SOL    HW129582   6.663   0.848   6.823
 9561SOL    HW229583   6.715   1.002   6.831
 9562SOL     OW29584   2.070   5.730   2.826
 9562SOL    HW129585   2.153   5.685   2.795
 9562SOL    HW229586   2.032   5.784   2.751
 9563SOL     OW29587   0.357   5.439   0.044
 9563SOL    HW129588   0.419   5.448   0.122
 9563SOL    HW229589   0.307   5.524   0.032
 9564SOL     OW29590   0.736   1.585   0.247
 9564SOL    HW129591   0.702   1.619   0.159
 9564SOL    HW229592   0.834   1.602   0.254
 9565SOL     OW29593   2.391   2.248   4.666
 9565SOL    HW129594   2.481   2.290   4.674
 9565SOL    HW229595   2.399   2.162   4.615
 9566SOL     OW29596   3.099   0.376   6.684
 9566SOL    HW129597   3.053   0.287   6.680
 9566SOL    HW229598   3.076   0.429   6.602
 9567SOL     OW29599   6.786   4.551   0.934
 9567SOL    HW129600   6.734   4.506   0.861
 9567SOL    HW229601   6.883   4.554   0.909
 9568SOL     OW29602   4.812   2.332   5.606
 9568SOL    HW129603   4.781   2.252   5.659
 9568SOL    HW229604   4.737   2.397   5.598
 9569SOL     OW29605   5.653   0.641   2.324
 9569SOL    HW129606   5.717   0.707   2.285
 9569SOL    HW229607   5.703   0.561   2.356
 9570SOL     OW29608   0.563   3.738   2.432
 9570SOL    HW129609   0.659   3.763   2.443
 9570SOL    HW229610   0.530   3.773   2.344
 9571SOL     OW29611   1.588   0.819   6.926
 9571SOL    HW129612   1.522   0.865   6.866
 9571SOL    HW229613   1.583   0.720   6.911
 9572SOL     OW29614   3.082   4.841   5.029
 9572SOL    HW129615   3.023   4.760   5.026
 9572SOL    HW229616   3.113   4.863   4.937
 9573SOL     OW29617   5.583   6.802   4.303
 9573SOL    HW129618   5.515   6.865   4.341
 9573SOL    HW229619   5.586   6.812   4.203
 9574SOL     OW29620   4.697   2.729   1.042
 9574SOL    HW129621   4.769   2.686   0.988
 9574SOL    HW229622   4.695   2.690   1.133
 9575SOL     OW29623   4.956   0.961   1.766
 9575SOL    HW129624   4.930   1.056   1.785
 9575SOL    HW229625   4.906   0.929   1.685
 9576SOL     OW29626   1.406   1.243   5.575
 9576SOL    HW129627   1.439   1.324   5.624
 9576SOL    HW229628   1.483   1.184   5.552
 9577SOL     OW29629   0.492   5.440   2.999
 9577SOL    HW129630   0.588   5.466   2.991
 9577SOL    HW229631   0.471   5.369   2.931
 9578SOL     OW29632   1.919   3.210   2.858
 9578SOL    HW129633   1.939   3.257   2.944
 9578SOL    HW229634   1.939   3.270   2.781
 9579SOL     OW29635   5.214   5.182   2.540
 9579SOL    HW129636   5.124   5.223   2.523
 9579SOL    HW229637   5.211   5.128   2.624
 9580SOL     OW29638   4.815   4.019   3.902
 9580SOL    HW129639   4.800   3.965   3.984
 9580SOL    HW229640   4.822   3.957   3.823
 9581SOL     OW29641   5.148   1.955   6.240
 9581SOL    HW129642   5.125   2.025   6.308
 9581SOL    HW229643   5.247   1.945   6.234
 9582SOL     OW29644   4.739   6.597   5.260
 9582SOL    HW129645   4.714   6.673   5.200
 9582SOL    HW229646   4.795   6.532   5.210
 9583SOL     OW29647   2.376   5.089   1.143
 9583SOL    HW129648   2.295   5.071   1.087
 9583SOL    HW229649   2.378   5.024   1.219
 9584SOL     OW29650   2.134   5.254   4.462
 9584SOL    HW129651   2.207   5.192   4.491
 9584SOL    HW229652   2.175   5.339   4.426
 9585SOL     OW29653   4.536   6.588   1.047
 9585SOL    HW129654   4.459   6.542   1.002
 9585SOL    HW229655   4.543   6.555   1.141
 9586SOL     OW29656   3.121   5.060   3.224
 9586SOL    HW129657   3.207   5.111   3.234
 9586SOL    HW229658   3.057   5.113   3.168
 9587SOL     OW29659   3.710   6.344   6.970
 9587SOL    HW129660   3.786   6.305   7.023
 9587SOL    HW229661   3.623   6.311   7.006
 9588SOL     OW29662   6.567   6.037   0.723
 9588SOL    HW129663   6.569   6.135   0.703
 9588SOL    HW229664   6.651   5.995   0.689
 9589SOL     OW29665   0.958   1.072   5.346
 9589SOL    HW129666   0.881   1.107   5.293
 9589SOL    HW229667   0.969   1.127   5.429
 9590SOL     OW29668   5.211   0.391   0.492
 9590SOL    HW129669   5.247   0.404   0.584
 9590SOL    HW229670   5.123   0.343   0.497
 9591SOL     OW29671   4.818   0.826   6.443
 9591SOL    HW129672   4.894   0.761   6.449
 9591SOL    HW229673   4.853   0.916   6.416
 9592SOL     OW29674   1.470   5.562   5.059
 9592SOL    HW129675   1.472   5.618   5.141
 9592SOL    HW229676   1.407   5.601   4.992
 9593SOL     OW29677   2.761   2.303   4.597
 9593SOL    HW129678   2.688   2.234   4.601
 9593SOL    HW229679   2.850   2.257   4.588
 9594SOL     OW29680   0.134   6.427   3.567
 9594SOL    HW129681   0.109   6.521   3.542
 9594SOL    HW229682   0.074   6.363   3.519
 9595SOL     OW29683   0.657   4.084   3.638
 9595SOL    HW129684   0.734   4.130   3.594
 9595SOL    HW229685   0.573   4.106   3.588
 9596SOL     OW29686   1.310   6.082   1.332
 9596SOL    HW129687   1.331   6.015   1.260
 9596SOL    HW229688   1.333   6.174   1.300
 9597SOL     OW29689   0.773   3.280   2.205
 9597SOL    HW129690   0.729   3.200   2.245
 9597SOL    HW229691   0.819   3.333   2.276
 9598SOL     OW29692   2.671   4.835   3.475
 9598SOL    HW129693   2.669   4.751   3.531
 9598SOL    HW229694   2.745   4.828   3.408
 9599SOL     OW29695   4.676   0.189   5.315
 9599SOL    HW129696   4.640   0.227   5.230
 9599SOL    HW229697   4.741   0.115   5.293
 9600SOL     OW29698   4.117   1.183   0.931
 9600SOL    HW129699   4.020   1.164   0.946
 9600SOL    HW229700   4.130   1.218   0.838
 9601SOL     OW29701   0.953   3.907   0.951
 9601SOL    HW129702   0.957   3.980   0.883
 9601SOL    HW229703   0.905   3.939   1.032
 9602SOL     OW29704   4.231   4.490   5.616
 9602SOL    HW129705   4.181   4.455   5.696
 9602SOL    HW229706   4.282   4.415   5.574
 9603SOL     OW29707   5.568   6.666   5.911
 9603SOL    HW129708   5.656   6.680   5.866
 9603SOL    HW229709   5.567   6.717   5.997
 9604SOL     OW29710   4.640   6.601   1.709
 9604SOL    HW129711   4.558   6.627   1.659
 9604SOL    HW229712   4.628   6.621   1.806
 9605SOL     OW29713   5.003   4.875   1.495
 9605SOL    HW129714   5.004   4.971   1.521
 9605SOL    HW229715   4.934   4.860   1.424
 9606SOL     OW29716   1.595   1.502   6.955
 9606SOL    HW129717   1.518   1.533   6.899
 9606SOL    HW229718   1.673   1.483   6.896
 9607SOL     OW29719   1.542   2.285   6.599
 9607SOL    HW129720   1.579   2.364   6.649
 9607SOL    HW229721   1.499   2.222   6.664
 9608SOL     OW29722   6.526   2.468   4.503
 9608SOL    HW129723   6.569   2.518   4.578
 9608SOL    HW229724   6.426   2.479   4.509
 9609SOL     OW29725   5.166   3.406   0.677
 9609SOL    HW129726   5.124   3.423   0.588
 9609SOL    HW229727   5.123   3.327   0.720
 9610SOL     OW29728   1.257   5.132   2.731
 9610SOL    HW129729   1.331   5.108   2.668
 9610SOL    HW229730   1.272   5.225   2.766
 9611SOL     OW29731   2.425   0.455   0.383
 9611SOL    HW129732   2.341   0.469   0.329
 9611SOL    HW229733   2.491   0.527   0.361
 9612SOL     OW29734   6.813   1.378   3.842
 9612SOL    HW129735   6.890   1.326   3.806
 9612SOL    HW229736   6.848   1.449   3.905
 9613SOL     OW29737   5.914   4.536   4.411
 9613SOL    HW129738   5.843   4.599   4.440
 9613SOL    HW229739   5.999   4.555   4.461
 9614SOL     OW29740   4.007   1.666   3.470
 9614SOL    HW129741   3.969   1.641   3.381
 9614SOL    HW229742   4.106   1.680   3.460
 9615SOL     OW29743   1.790   3.525   1.293
 9615SOL    HW129744   1.874   3.546   1.343
 9615SOL    HW229745   1.727   3.475   1.353
 9616SOL     OW29746   3.770   4.068   5.992
 9616SOL    HW129747   3.828   4.144   6.021
 9616SOL    HW229748   3.739   4.084   5.898
 9617SOL     OW29749   0.982   3.230   2.691
 9617SOL    HW129750   1.009   3.321   2.722
 9617SOL    HW229751   0.920   3.189   2.759
 9618SOL     OW29752   2.248   2.572   0.611
 9618SOL    HW129753   2.190   2.644   0.573
 9618SOL    HW229754   2.269   2.594   0.707
 9619SOL     OW29755   2.161   0.061   6.671
 9619SOL    HW129756   2.259   0.065   6.688
 9619SOL    HW229757   2.133   0.139   6.616
 9620SOL     OW29758   5.349   1.032   5.034
 9620SOL    HW129759   5.321   0.942   5.066
 9620SOL    HW229760   5.345   1.035   4.934
 9621SOL     OW29761   1.807   3.838   3.380
 9621SOL    HW129762   1.775   3.908   3.316
 9621SOL    HW229763   1.747   3.759   3.377
 9622SOL     OW29764   4.265   6.991   7.009
 9622SOL    HW129765   4.349   0.018   6.992
 9622SOL    HW229766   4.214   6.981   6.924
 9623SOL     OW29767   0.641   3.189   6.410
 9623SOL    HW129768   0.722   3.184   6.351
 9623SOL    HW229769   0.668   3.215   6.503
 9624SOL     OW29770   6.260   3.104   3.770
 9624SOL    HW129771   6.259   3.197   3.805
 9624SOL    HW229772   6.311   3.045   3.833
 9625SOL     OW29773   5.373   6.028   1.761
 9625SOL    HW129774   5.380   6.115   1.810
 9625SOL    HW229775   5.311   6.038   1.683
 9626SOL     OW29776   3.763   0.608   0.325
 9626SOL    HW129777   3.687   0.657   0.283
 9626SOL    HW229778   3.836   0.672   0.347
 9627SOL     OW29779   0.533   0.218   0.793
 9627SOL    HW129780   0.595   0.157   0.744
 9627SOL    HW229781   0.483   0.275   0.727
 9628SOL     OW29782   3.313   6.984   1.940
 9628SOL    HW129783   3.396   0.012   1.952
 9628SOL    HW229784   3.259   6.986   2.024
 9629SOL     OW29785   2.428   0.322   0.619
 9629SOL    HW129786   2.441   0.374   0.535
 9629SOL    HW229787   2.381   0.236   0.598
 9630SOL     OW29788   0.674   2.465   6.443
 9630SOL    HW129789   0.664   2.563   6.425
 9630SOL    HW229790   0.678   2.416   6.357
 9631SOL     OW29791   6.450   5.283   0.639
 9631SOL    HW129792   6.498   5.267   0.726
 9631SOL    HW229793   6.375   5.217   0.630
 9632SOL     OW29794   1.804   5.540   2.732
 9632SOL    HW129795   1.834   5.583   2.817
 9632SOL    HW229796   1.719   5.582   2.701
 9633SOL     OW29797   0.245   5.100   0.278
 9633SOL    HW129798   0.196   5.047   0.347
 9633SOL    HW229799   0.187   5.175   0.246
 9634SOL     OW29800   0.225   5.771   6.202
 9634SOL    HW129801   0.177   5.833   6.264
 9634SOL    HW229802   0.229   5.680   6.243
 9635SOL     OW29803   6.305   5.837   6.132
 9635SOL    HW129804   6.337   5.773   6.202
 9635SOL    HW229805   6.303   5.930   6.169
 9636SOL     OW29806   3.880   1.196   0.736
 9636SOL    HW129807   3.849   1.242   0.653
 9636SOL    HW229808   3.951   1.130   0.713
 9637SOL     OW29809   2.460   1.551   0.071
 9637SOL    HW129810   2.516   1.602   0.137
 9637SOL    HW229811   2.511   1.470   0.040
 9638SOL     OW29812   6.675   2.689   6.725
 9638SOL    HW129813   6.700   2.748   6.648
 9638SOL    HW229814   6.647   2.746   6.802
 9639SOL     OW29815   3.744   0.105   2.207
 9639SOL    HW129816   3.811   0.160   2.257
 9639SOL    HW229817   3.787   0.022   2.172
 9640SOL     OW29818   2.332   1.685   2.967
 9640SOL    HW129819   2.363   1.731   2.883
 9640SOL    HW229820   2.312   1.589   2.947
 9641SOL     OW29821   4.997   5.612   6.487
 9641SOL    HW129822   5.084   5.585   6.527
 9641SOL    HW229823   4.922   5.587   6.548
 9642SOL     OW29824   3.365   6.906   3.031
 9642SOL    HW129825   3.283   6.883   3.084
 9642SOL    HW229826   3.418   6.822   3.015
 9643SOL     OW29827   3.768   4.897   2.176
 9643SOL    HW129828   3.804   4.910   2.084
 9643SOL    HW229829   3.675   4.934   2.180
 9644SOL     OW29830   2.484   0.919   0.606
 9644SOL    HW129831   2.503   0.979   0.684
 9644SOL    HW229832   2.564   0.861   0.589
 9645SOL     OW29833   2.998   5.008   5.587
 9645SOL    HW129834   2.944   5.026   5.504
 9645SOL    HW229835   2.951   5.046   5.666
 9646SOL     OW29836   3.348   4.888   4.034
 9646SOL    HW129837   3.443   4.921   4.031
 9646SOL    HW229838   3.307   4.895   3.943
 9647SOL     OW29839   6.239   3.081   5.632
 9647SOL    HW129840   6.338   3.065   5.622
 9647SOL    HW229841   6.222   3.132   5.717
 9648SOL     OW29842   4.329   3.978   0.916
 9648SOL    HW129843   4.255   3.997   0.980
 9648SOL    HW229844   4.404   4.043   0.932
 9649SOL     OW29845   2.236   4.425   0.808
 9649SOL    HW129846   2.285   4.390   0.729
 9649SOL    HW229847   2.144   4.453   0.780
 9650SOL     OW29848   1.701   0.529   1.296
 9650SOL    HW129849   1.785   0.521   1.349
 9650SOL    HW229850   1.714   0.594   1.221
 9651SOL     OW29851   0.754   2.096   0.166
 9651SOL    HW129852   0.738   2.084   0.068
 9651SOL    HW229853   0.759   2.194   0.187
 9652SOL     OW29854   2.088   4.586   1.147
 9652SOL    HW129855   1.994   4.559   1.129
 9652SOL    HW229856   2.118   4.548   1.235
 9653SOL     OW29857   6.202   6.548   4.303
 9653SOL    HW129858   6.157   6.562   4.391
 9653SOL    HW229859   6.166   6.465   4.260
 9654SOL     OW29860   2.255   2.552   2.541
 9654SOL    HW129861   2.307   2.541   2.456
 9654SOL    HW229862   2.313   2.593   2.611
 9655SOL     OW29863   6.302   2.295   0.351
 9655SOL    HW129864   6.285   2.300   0.253
 9655SOL    HW229865   6.381   2.237   0.368
 9656SOL     OW29866   2.610   2.089   2.248
 9656SOL    HW129867   2.591   2.187   2.246
 9656SOL    HW229868   2.666   2.065   2.169
 9657SOL     OW29869   0.379   0.437   4.504
 9657SOL    HW129870   0.310   0.437   4.432
 9657SOL    HW229871   0.340   0.476   4.588
 9658SOL     OW29872   6.195   1.241   2.963
 9658SOL    HW129873   6.119   1.177   2.981
 9658SOL    HW229874   6.279   1.204   3.000
 9659SOL     OW29875   1.737   5.691   6.619
 9659SOL    HW129876   1.816   5.725   6.670
 9659SOL    HW229877   1.753   5.596   6.592
 9660SOL     OW29878   1.170   4.068   0.531
 9660SOL    HW129879   1.123   4.151   0.562
 9660SOL    HW229880   1.263   4.066   0.568
 9661SOL     OW29881   3.979   0.720   1.086
 9661SOL    HW129882   4.061   0.702   1.032
 9661SOL    HW229883   3.958   0.818   1.082
 9662SOL     OW29884   4.813   2.272   4.036
 9662SOL    HW129885   4.842   2.180   4.008
 9662SOL    HW229886   4.872   2.304   4.110
 9663SOL     OW29887   3.162   5.758   2.597
 9663SOL    HW129888   3.167   5.724   2.691
 9663SOL    HW229889   3.178   5.682   2.534
 9664SOL     OW29890   2.552   5.948   1.013
 9664SOL    HW129891   2.616   5.941   1.090
 9664SOL    HW229892   2.502   5.862   1.004
 9665SOL     OW29893   5.757   4.896   3.452
 9665SOL    HW129894   5.834   4.959   3.440
 9665SOL    HW229895   5.703   4.894   3.368
 9666SOL     OW29896   5.344   5.041   4.820
 9666SOL    HW129897   5.351   4.942   4.808
 9666SOL    HW229898   5.254   5.064   4.858
 9667SOL     OW29899   2.917   3.231   2.828
 9667SOL    HW129900   2.994   3.179   2.863
 9667SOL    HW229901   2.878   3.287   2.901
 9668SOL     OW29902   0.431   1.696   4.734
 9668SOL    HW129903   0.345   1.737   4.764
 9668SOL    HW229904   0.502   1.711   4.803
 9669SOL     OW29905   1.202   6.860   6.893
 9669SOL    HW129906   1.140   6.877   6.815
 9669SOL    HW229907   1.247   6.772   6.881
 9670SOL     OW29908   6.317   3.752   6.653
 9670SOL    HW129909   6.331   3.824   6.585
 9670SOL    HW229910   6.339   3.663   6.613
 9671SOL     OW29911   6.648   1.572   6.834
 9671SOL    HW129912   6.715   1.572   6.760
 9671SOL    HW229913   6.669   1.646   6.898
 9672SOL     OW29914   0.208   6.791   5.867
 9672SOL    HW129915   0.212   6.691   5.871
 9672SOL    HW229916   0.129   6.823   5.919
 9673SOL     OW29917   2.170   2.299   6.352
 9673SOL    HW129918   2.207   2.342   6.434
 9673SOL    HW229919   2.070   2.298   6.357
 9674SOL     OW29920   2.669   6.395   2.355
 9674SOL    HW129921   2.682   6.492   2.334
 9674SOL    HW229922   2.742   6.341   2.313
 9675SOL     OW29923   6.812   2.355   2.315
 9675SOL    HW129924   6.824   2.256   2.329
 9675SOL    HW229925   6.847   2.404   2.394
 9676SOL     OW29926   6.618   3.132   4.074
 9676SOL    HW129927   6.588   3.141   4.169
 9676SOL    HW229928   6.681   3.206   4.052
 9677SOL     OW29929   1.836   3.847   6.145
 9677SOL    HW129930   1.859   3.872   6.051
 9677SOL    HW229931   1.917   3.808   6.190
 9678SOL     OW29932   3.378   3.471   3.022
 9678SOL    HW129933   3.424   3.438   3.104
 9678SOL    HW229934   3.320   3.399   2.985
 9679SOL     OW29935   0.188   3.451   1.650
 9679SOL    HW129936   0.221   3.394   1.726
 9679SOL    HW229937   0.267   3.494   1.606
 9680SOL     OW29938   4.635   5.307   2.675
 9680SOL    HW129939   4.704   5.263   2.731
 9680SOL    HW229940   4.545   5.299   2.718
 9681SOL     OW29941   1.054   0.638   3.896
 9681SOL    HW129942   0.956   0.627   3.878
 9681SOL    HW229943   1.097   0.548   3.899
 9682SOL     OW29944   0.575   4.405   2.344
 9682SOL    HW129945   0.589   4.331   2.409
 9682SOL    HW229946   0.663   4.440   2.313
 9683SOL     OW29947   4.158   6.949   4.644
 9683SOL    HW129948   4.125   6.882   4.711
 9683SOL    HW229949   4.201   0.000   4.693
 9684SOL     OW29950   1.570   4.253   2.976
 9684SOL    HW129951   1.613   4.280   3.062
 9684SOL    HW229952   1.553   4.154   2.977
 9685SOL     OW29953   1.825   0.952   6.813
 9685SOL    HW129954   1.815   1.040   6.765
 9685SOL    HW229955   1.738   0.929   6.857
 9686SOL     OW29956   6.104   2.637   2.765
 9686SOL    HW129957   6.198   2.669   2.749
 9686SOL    HW229958   6.054   2.637   2.679
 9687SOL     OW29959   2.959   1.055   5.109
 9687SOL    HW129960   2.940   1.082   5.204
 9687SOL    HW229961   2.892   1.099   5.049
 9688SOL     OW29962   5.671   2.282   4.344
 9688SOL    HW129963   5.641   2.188   4.358
 9688SOL    HW229964   5.698   2.295   4.248
 9689SOL     OW29965   2.878   5.332   5.702
 9689SOL    HW129966   2.856   5.311   5.797
 9689SOL    HW229967   2.800   5.307   5.644
 9690SOL     OW29968   6.227   3.695   0.053
 9690SOL    HW129969   6.234   3.762   7.005
 9690SOL    HW229970   6.318   3.674   0.088
 9691SOL     OW29971   1.301   4.391   1.212
 9691SOL    HW129972   1.245   4.318   1.173
 9691SOL    HW229973   1.376   4.350   1.264
 9692SOL     OW29974   3.142   5.186   0.620
 9692SOL    HW129975   3.212   5.218   0.683
 9692SOL    HW229976   3.055   5.176   0.669
 9693SOL     OW29977   5.972   5.774   1.347
 9693SOL    HW129978   5.978   5.787   1.248
 9693SOL    HW229979   6.041   5.831   1.392
 9694SOL     OW29980   0.965   0.778   0.225
 9694SOL    HW129981   0.939   0.738   0.136
 9694SOL    HW229982   1.006   0.868   0.211
 9695SOL     OW29983   5.886   4.420   0.181
 9695SOL    HW129984   5.798   4.467   0.180
 9695SOL    HW229985   5.871   4.324   0.205
 9696SOL     OW29986   4.245   4.073   0.030
 9696SOL    HW129987   4.333   4.122   0.032
 9696SOL    HW229988   4.186   4.108   0.101
 9697SOL     OW29989   0.188   5.917   6.961
 9697SOL    HW129990   0.107   5.916   6.902
 9697SOL    HW229991   0.270   5.914   6.904
 9698SOL     OW29992   4.877   1.486   5.747
 9698SOL    HW129993   4.977   1.492   5.749
 9698SOL    HW229994   4.845   1.503   5.654
 9699SOL     OW29995   1.560   1.845   6.417
 9699SOL    HW129996   1.494   1.843   6.492
 9699SOL    HW229997   1.617   1.927   6.426
 9700SOL     OW29998   3.863   3.101   3.164
 9700SOL    HW129999   3.891   3.006   3.178
 9700SOL    HW230000   3.889   3.156   3.243
 9701SOL     OW30001   4.209   4.811   4.089
 9701SOL    HW130002   4.124   4.782   4.134
 9701SOL    HW230003   4.240   4.897   4.130
 9702SOL     OW30004   5.234   0.318   6.661
 9702SOL    HW130005   5.198   0.229   6.635
 9702SOL    HW230006   5.304   0.307   6.732
 9703SOL     OW30007   2.289   5.840   4.376
 9703SOL    HW130008   2.330   5.887   4.454
 9703SOL    HW230009   2.331   5.873   4.291
 9704SOL     OW30010   3.100   1.273   4.500
 9704SOL    HW130011   3.070   1.244   4.591
 9704SOL    HW230012   3.065   1.210   4.431
 9705SOL     OW30013   3.101   4.152   0.736
 9705SOL    HW130014   3.119   4.082   0.805
 9705SOL    HW230015   3.113   4.111   0.645
 9706SOL     OW30016   0.051   1.999   4.014
 9706SOL    HW130017   0.131   1.939   4.004
 9706SOL    HW230018   0.021   2.030   3.924
 9707SOL     OW30019   2.730   5.559   1.251
 9707SOL    HW130020   2.826   5.567   1.276
 9707SOL    HW230021   2.673   5.564   1.333
 9708SOL     OW30022   1.372   1.647   1.773
 9708SOL    HW130023   1.440   1.713   1.805
 9708SOL    HW230024   1.350   1.665   1.677
 9709SOL     OW30025   1.347   6.228   3.787
 9709SOL    HW130026   1.341   6.327   3.771
 9709SOL    HW230027   1.257   6.187   3.775
 9710SOL     OW30028   1.790   6.517   3.712
 9710SOL    HW130029   1.820   6.607   3.743
 9710SOL    HW230030   1.693   6.520   3.690
 9711SOL     OW30031   2.139   2.988   6.351
 9711SOL    HW130032   2.232   3.019   6.334
 9711SOL    HW230033   2.108   2.930   6.275
 9712SOL     OW30034   5.180   3.764   4.865
 9712SOL    HW130035   5.082   3.783   4.864
 9712SOL    HW230036   5.208   3.729   4.775
 9713SOL     OW30037   0.763   5.746   3.691
 9713SOL    HW130038   0.826   5.763   3.767
 9713SOL    HW230039   0.802   5.782   3.606
 9714SOL     OW30040   2.231   2.274   2.165
 9714SOL    HW130041   2.250   2.177   2.147
 9714SOL    HW230042   2.160   2.305   2.102
 9715SOL     OW30043   5.729   5.732   5.997
 9715SOL    HW130044   5.719   5.658   6.064
 9715SOL    HW230045   5.805   5.791   6.025
 9716SOL     OW30046   3.625   0.625   5.990
 9716SOL    HW130047   3.653   0.582   5.904
 9716SOL    HW230048   3.528   0.610   6.006
 9717SOL     OW30049   6.193   5.128   3.397
 9717SOL    HW130050   6.257   5.064   3.355
 9717SOL    HW230051   6.213   5.221   3.364
 9718SOL     OW30052   5.756   2.613   2.546
 9718SOL    HW130053   5.710   2.624   2.457
 9718SOL    HW230054   5.844   2.660   2.544
 9719SOL     OW30055   0.095   1.200   7.008
 9719SOL    HW130056   0.026   1.254   6.960
 9719SOL    HW230057   0.107   1.236   0.075
 9720SOL     OW30058   0.778   1.279   0.645
 9720SOL    HW130059   0.682   1.250   0.653
 9720SOL    HW230060   0.789   1.335   0.563
 9721SOL     OW30061   0.690   2.065   3.576
 9721SOL    HW130062   0.710   2.066   3.674
 9721SOL    HW230063   0.744   2.135   3.530
 9722SOL     OW30064   0.086   0.293   4.227
 9722SOL    HW130065   0.172   0.259   4.190
 9722SOL    HW230066   0.038   0.219   4.274
 9723SOL     OW30067   6.037   0.899   4.761
 9723SOL    HW130068   5.971   0.824   4.761
 9723SOL    HW230069   5.993   0.982   4.728
 9724SOL     OW30070   3.887   2.624   1.494
 9724SOL    HW130071   3.962   2.617   1.561
 9724SOL    HW230072   3.800   2.606   1.540
 9725SOL     OW30073   4.009   3.150   5.962
 9725SOL    HW130074   4.007   3.149   6.062
 9725SOL    HW230075   3.920   3.120   5.927
 9726SOL     OW30076   4.891   6.030   5.292
 9726SOL    HW130077   4.797   6.015   5.320
 9726SOL    HW230078   4.897   6.115   5.239
 9727SOL     OW30079   0.163   0.798   6.574
 9727SOL    HW130080   0.156   0.703   6.544
 9727SOL    HW230081   0.106   0.812   6.655
 9728SOL     OW30082   2.677   5.750   5.972
 9728SOL    HW130083   2.757   5.709   5.930
 9728SOL    HW230084   2.705   5.805   6.050
 9729SOL     OW30085   3.587   5.922   1.931
 9729SOL    HW130086   3.645   5.907   2.011
 9729SOL    HW230087   3.494   5.892   1.952
 9730SOL     OW30088   5.163   3.672   2.690
 9730SOL    HW130089   5.074   3.717   2.685
 9730SOL    HW230090   5.222   3.706   2.616
 9731SOL     OW30091   5.477   4.359   0.836
 9731SOL    HW130092   5.521   4.443   0.867
 9731SOL    HW230093   5.410   4.381   0.765
 9732SOL     OW30094   5.441   6.174   4.309
 9732SOL    HW130095   5.462   6.131   4.221
 9732SOL    HW230096   5.347   6.206   4.309
 9733SOL     OW30097   4.781   4.654   4.451
 9733SOL    HW130098   4.783   4.562   4.491
 9733SOL    HW230099   4.815   4.651   4.357
 9734SOL     OW30100   6.221   2.513   5.869
 9734SOL    HW130101   6.235   2.417   5.895
 9734SOL    HW230102   6.170   2.517   5.783
 9735SOL     OW30103   3.222   4.843   1.368
 9735SOL    HW130104   3.304   4.786   1.355
 9735SOL    HW230105   3.222   4.917   1.301
 9736SOL     OW30106   3.905   2.061   2.027
 9736SOL    HW130107   3.811   2.094   2.036
 9736SOL    HW230108   3.945   2.099   1.944
 9737SOL     OW30109   5.073   1.629   4.701
 9737SOL    HW130110   5.095   1.558   4.769
 9737SOL    HW230111   4.995   1.682   4.733
 9738SOL     OW30112   2.769   0.445   2.306
 9738SOL    HW130113   2.752   0.405   2.396
 9738SOL    HW230114   2.682   0.469   2.263
 9739SOL     OW30115   5.295   4.423   2.534
 9739SOL    HW130116   5.283   4.490   2.461
 9739SOL    HW230117   5.376   4.367   2.516
 9740SOL     OW30118   6.508   3.307   3.630
 9740SOL    HW130119   6.581   3.255   3.674
 9740SOL    HW230120   6.449   3.245   3.578
 9741SOL     OW30121   4.052   1.697   3.034
 9741SOL    HW130122   4.034   1.794   3.050
 9741SOL    HW230123   3.969   1.645   3.053
 9742SOL     OW30124   3.718   1.381   2.648
 9742SOL    HW130125   3.719   1.423   2.557
 9742SOL    HW230126   3.774   1.436   2.711
 9743SOL     OW30127   1.470   1.176   5.893
 9743SOL    HW130128   1.405   1.100   5.895
 9743SOL    HW230129   1.442   1.241   5.823
 9744SOL     OW30130   2.157   0.314   1.350
 9744SOL    HW130131   2.144   0.318   1.251
 9744SOL    HW230132   2.250   0.283   1.370
 9745SOL     OW30133   0.680   1.181   4.092
 9745SOL    HW130134   0.646   1.123   4.167
 9745SOL    HW230135   0.609   1.247   4.066
 9746SOL     OW30136   5.905   6.720   4.721
 9746SOL    HW130137   5.956   6.800   4.689
 9746SOL    HW230138   5.808   6.731   4.697
 9747SOL     OW30139   6.986   0.138   5.668
 9747SOL    HW130140   0.052   0.100   5.685
 9747SOL    HW230141   6.991   0.200   5.590
 9748SOL     OW30142   1.636   4.671   4.431
 9748SOL    HW130143   1.652   4.576   4.459
 9748SOL    HW230144   1.650   4.680   4.332
 9749SOL     OW30145   0.735   5.159   4.900
 9749SOL    HW130146   0.719   5.222   4.824
 9749SOL    HW230147   0.701   5.200   4.985
 9750SOL     OW30148   2.472   5.488   2.384
 9750SOL    HW130149   2.450   5.532   2.297
 9750SOL    HW230150   2.398   5.505   2.449
 9751SOL     OW30151   1.265   1.887   0.819
 9751SOL    HW130152   1.326   1.963   0.797
 9751SOL    HW230153   1.225   1.850   0.735
 9752SOL     OW30154   3.223   6.833   6.028
 9752SOL    HW130155   3.240   6.760   6.093
 9752SOL    HW230156   3.158   6.898   6.067
 9753SOL     OW30157   0.221   0.346   6.759
 9753SOL    HW130158   0.162   0.357   6.839
 9753SOL    HW230159   0.261   0.255   6.760
 9754SOL     OW30160   6.995   3.025   6.663
 9754SOL    HW130161   6.998   2.982   6.753
 9754SOL    HW230162   6.935   2.972   6.603
 9755SOL     OW30163   4.462   5.992   4.669
 9755SOL    HW130164   4.383   5.933   4.656
 9755SOL    HW230165   4.462   6.029   4.762
 9756SOL     OW30166   4.420   3.020   6.535
 9756SOL    HW130167   4.471   3.101   6.507
 9756SOL    HW230168   4.455   2.939   6.486
 9757SOL     OW30169   5.746   0.614   4.234
 9757SOL    HW130170   5.683   0.537   4.247
 9757SOL    HW230171   5.714   0.671   4.158
 9758SOL     OW30172   3.708   0.237   0.456
 9758SOL    HW130173   3.770   0.179   0.509
 9758SOL    HW230174   3.720   0.218   0.359
 9759SOL     OW30175   3.106   6.144   1.976
 9759SOL    HW130176   3.129   6.197   2.058
 9759SOL    HW230177   3.093   6.048   2.000
 9760SOL     OW30178   4.862   3.740   6.302
 9760SOL    HW130179   4.792   3.754   6.233
 9760SOL    HW230180   4.919   3.662   6.276
 9761SOL     OW30181   5.118   5.409   3.203
 9761SOL    HW130182   5.154   5.484   3.258
 9761SOL    HW230183   5.054   5.444   3.135
 9762SOL     OW30184   3.682   1.054   2.264
 9762SOL    HW130185   3.604   1.104   2.302
 9762SOL    HW230186   3.733   1.114   2.202
 9763SOL     OW30187   2.236   2.248   1.656
 9763SOL    HW130188   2.293   2.243   1.738
 9763SOL    HW230189   2.140   2.244   1.682
 9764SOL     OW30190   1.406   3.219   4.188
 9764SOL    HW130191   1.493   3.172   4.204
 9764SOL    HW230192   1.357   3.172   4.115
 9765SOL     OW30193   6.974   1.736   5.221
 9765SOL    HW130194   7.008   1.822   5.258
 9765SOL    HW230195   0.022   1.687   5.174
 9766SOL     OW30196   3.128   0.786   1.827
 9766SOL    HW130197   3.031   0.800   1.806
 9766SOL    HW230198   3.159   0.701   1.786
 9767SOL     OW30199   4.395   0.564   4.905
 9767SOL    HW130200   4.398   0.661   4.885
 9767SOL    HW230201   4.318   0.544   4.965
 9768SOL     OW30202   4.753   1.961   3.027
 9768SOL    HW130203   4.677   1.895   3.024
 9768SOL    HW230204   4.716   2.054   3.032
 9769SOL     OW30205   6.927   2.644   0.524
 9769SOL    HW130206   6.990   2.659   0.448
 9769SOL    HW230207   6.966   2.682   0.608
 9770SOL     OW30208   0.456   3.256   4.795
 9770SOL    HW130209   0.469   3.251   4.696
 9770SOL    HW230210   0.475   3.167   4.836
 9771SOL     OW30211   1.780   6.515   4.214
 9771SOL    HW130212   1.764   6.585   4.144
 9771SOL    HW230213   1.729   6.539   4.297
 9772SOL     OW30214   5.730   6.424   1.257
 9772SOL    HW130215   5.790   6.366   1.202
 9772SOL    HW230216   5.774   6.511   1.275
 9773SOL     OW30217   5.649   5.337   3.721
 9773SOL    HW130218   5.722   5.370   3.661
 9773SOL    HW230219   5.604   5.258   3.679
 9774SOL     OW30220   6.428   6.152   4.011
 9774SOL    HW130221   6.331   6.174   4.002
 9774SOL    HW230222   6.482   6.236   4.002
 9775SOL     OW30223   2.806   1.454   4.482
 9775SOL    HW130224   2.878   1.391   4.511
 9775SOL    HW230225   2.721   1.430   4.528
 9776SOL     OW30226   0.415   4.444   4.568
 9776SOL    HW130227   0.378   4.352   4.553
 9776SOL    HW230228   0.369   4.508   4.506
 9777SOL     OW30229   4.920   5.482   6.250
 9777SOL    HW130230   4.922   5.385   6.274
 9777SOL    HW230231   4.932   5.537   6.333
 9778SOL     OW30232   3.135   0.674   4.584
 9778SOL    HW130233   3.152   0.770   4.603
 9778SOL    HW230234   3.058   0.664   4.521
 9779SOL     OW30235   3.237   2.136   6.706
 9779SOL    HW130236   3.297   2.216   6.711
 9779SOL    HW230237   3.226   2.098   6.798
 9780SOL     OW30238   1.604   2.987   1.284
 9780SOL    HW130239   1.522   2.996   1.227
 9780SOL    HW230240   1.586   3.028   1.374
 9781SOL     OW30241   6.852   0.435   4.189
 9781SOL    HW130242   6.934   0.413   4.136
 9781SOL    HW230243   6.867   0.409   4.285
 9782SOL     OW30244   5.780   0.111   0.270
 9782SOL    HW130245   5.866   0.132   0.317
 9782SOL    HW230246   5.722   0.193   0.267
 9783SOL     OW30247   6.060   0.039   4.062
 9783SOL    HW130248   6.143   0.029   4.118
 9783SOL    HW230249   5.999   6.987   4.078
 9784SOL     OW30250   4.978   1.085   4.723
 9784SOL    HW130251   4.905   1.122   4.665
 9784SOL    HW230252   5.021   1.008   4.678
 9785SOL     OW30253   1.220   2.506   0.869
 9785SOL    HW130254   1.164   2.547   0.797
 9785SOL    HW230255   1.163   2.450   0.928
 9786SOL     OW30256   1.217   7.008   3.107
 9786SOL    HW130257   1.194   7.014   3.204
 9786SOL    HW230258   1.290   6.942   3.094
 9787SOL     OW30259   6.055   3.671   0.984
 9787SOL    HW130260   6.035   3.691   0.888
 9787SOL    HW230261   6.120   3.740   1.019
 9788SOL     OW30262   6.869   0.109   6.227
 9788SOL    HW130263   6.774   0.078   6.230
 9788SOL    HW230264   6.907   0.093   6.136
 9789SOL     OW30265   2.364   4.419   4.113
 9789SOL    HW130266   2.356   4.382   4.021
 9789SOL    HW230267   2.311   4.362   4.176
 9790SOL     OW30268   0.268   1.425   3.626
 9790SOL    HW130269   0.338   1.428   3.697
 9790SOL    HW230270   0.311   1.424   3.536
 9791SOL     OW30271   1.128   2.174   0.690
 9791SOL    HW130272   1.063   2.098   0.681
 9791SOL    HW230273   1.166   2.196   0.600
 9792SOL     OW30274   4.740   5.297   3.097
 9792SOL    HW130275   4.719   5.219   3.155
 9792SOL    HW230276   4.749   5.267   3.002
 9793SOL     OW30277   5.007   5.911   1.830
 9793SOL    HW130278   4.966   5.862   1.907
 9793SOL    HW230279   5.094   5.868   1.805
 9794SOL     OW30280   3.537   4.493   0.126
 9794SOL    HW130281   3.502   4.584   0.146
 9794SOL    HW230282   3.550   4.483   0.027
 9795SOL     OW30283   2.292   5.171   2.817
 9795SOL    HW130284   2.382   5.162   2.774
 9795SOL    HW230285   2.295   5.241   2.887
 9796SOL     OW30286   4.045   5.055   6.397
 9796SOL    HW130287   4.106   5.051   6.476
 9796SOL    HW230288   3.983   4.976   6.399
 9797SOL     OW30289   6.827   3.618   5.083
 9797SOL    HW130290   6.770   3.691   5.045
 9797SOL    HW230291   6.804   3.604   5.179
 9798SOL     OW30292   3.524   1.761   1.682
 9798SOL    HW130293   3.514   1.697   1.759
 9798SOL    HW230294   3.588   1.834   1.708
 9799SOL     OW30295   3.963   3.608   3.154
 9799SOL    HW130296   3.931   3.693   3.112
 9799SOL    HW230297   3.988   3.543   3.083
 9800SOL     OW30298   4.066   6.305   0.573
 9800SOL    HW130299   4.098   6.373   0.508
 9800SOL    HW230300   4.143   6.249   0.604
 9801SOL     OW30301   5.534   5.290   1.698
 9801SOL    HW130302   5.546   5.326   1.790
 9801SOL    HW230303   5.616   5.307   1.644
 9802SOL     OW30304   0.720   6.422   2.212
 9802SOL    HW130305   0.663   6.457   2.138
 9802SOL    HW230306   0.676   6.342   2.254
 9803SOL     OW30307   5.789   0.265   5.991
 9803SOL    HW130308   5.887   0.272   5.975
 9803SOL    HW230309   5.767   0.174   6.026
 9804SOL     OW30310   5.067   5.910   3.981
 9804SOL    HW130311   5.157   5.894   3.940
 9804SOL    HW230312   5.028   5.823   4.010
 9805SOL     OW30313   3.280   4.561   0.412
 9805SOL    HW130314   3.246   4.477   0.370
 9805SOL    HW230315   3.207   4.602   0.467
 9806SOL     OW30316   0.814   1.095   3.195
 9806SOL    HW130317   0.721   1.060   3.180
 9806SOL    HW230318   0.871   1.022   3.234
 9807SOL     OW30319   2.211   3.703   0.636
 9807SOL    HW130320   2.299   3.675   0.675
 9807SOL    HW230321   2.225   3.736   0.543
 9808SOL     OW30322   2.180   2.367   3.268
 9808SOL    HW130323   2.133   2.399   3.186
 9808SOL    HW230324   2.154   2.272   3.287
 9809SOL     OW30325   0.365   0.286   4.066
 9809SOL    HW130326   0.294   0.222   4.038
 9809SOL    HW230327   0.434   0.239   4.121
 9810SOL     OW30328   4.799   1.615   2.964
 9810SOL    HW130329   4.801   1.646   3.059
 9810SOL    HW230330   4.740   1.676   2.911
 9811SOL     OW30331   1.309   0.217   2.956
 9811SOL    HW130332   1.256   0.241   2.875
 9811SOL    HW230333   1.312   0.118   2.966
 9812SOL     OW30334   5.942   2.749   0.027
 9812SOL    HW130335   5.919   2.774   6.958
 9812SOL    HW230336   5.873   2.787   0.089
 9813SOL     OW30337   6.229   4.386   0.240
 9813SOL    HW130338   6.254   4.322   0.168
 9813SOL    HW230339   6.181   4.464   0.200
 9814SOL     OW30340   6.650   1.183   5.837
 9814SOL    HW130341   6.604   1.097   5.815
 9814SOL    HW230342   6.747   1.166   5.854
 9815SOL     OW30343   7.008   5.256   2.205
 9815SOL    HW130344   0.050   5.183   2.217
 9815SOL    HW230345   0.023   5.343   2.232
 9816SOL     OW30346   6.942   2.445   5.079
 9816SOL    HW130347   6.973   2.514   5.144
 9816SOL    HW230348   6.843   2.449   5.069
 9817SOL     OW30349   2.008   1.910   0.327
 9817SOL    HW130350   1.977   1.869   0.242
 9817SOL    HW230351   2.023   1.839   0.395
 9818SOL     OW30352   0.442   0.254   2.509
 9818SOL    HW130353   0.389   0.337   2.490
 9818SOL    HW230354   0.430   0.189   2.434
 9819SOL     OW30355   6.232   1.072   5.238
 9819SOL    HW130356   6.212   1.147   5.175
 9819SOL    HW230357   6.279   0.999   5.189
 9820SOL     OW30358   3.159   0.665   6.623
 9820SOL    HW130359   3.240   0.671   6.682
 9820SOL    HW230360   3.182   0.613   6.541
 9821SOL     OW30361   4.682   4.318   6.372
 9821SOL    HW130362   4.625   4.332   6.453
 9821SOL    HW230363   4.700   4.220   6.361
 9822SOL     OW30364   2.886   6.895   3.642
 9822SOL    HW130365   2.832   6.969   3.602
 9822SOL    HW230366   2.977   6.928   3.664
 9823SOL     OW30367   4.151   6.321   2.821
 9823SOL    HW130368   4.077   6.365   2.770
 9823SOL    HW230369   4.234   6.318   2.765
 9824SOL     OW30370   1.663   5.751   5.308
 9824SOL    HW130371   1.745   5.798   5.338
 9824SOL    HW230372   1.616   5.804   5.238
 9825SOL     OW30373   0.430   6.551   4.833
 9825SOL    HW130374   0.449   6.466   4.785
 9825SOL    HW230375   0.337   6.549   4.869
 9826SOL     OW30376   1.623   6.355   5.094
 9826SOL    HW130377   1.564   6.275   5.085
 9826SOL    HW230378   1.716   6.331   5.068
 9827SOL     OW30379   1.669   4.667   1.656
 9827SOL    HW130380   1.609   4.674   1.736
 9827SOL    HW230381   1.627   4.713   1.578
 9828SOL     OW30382   4.858   1.968   4.320
 9828SOL    HW130383   4.831   1.877   4.353
 9828SOL    HW230384   4.864   1.967   4.220
 9829SOL     OW30385   5.657   4.213   5.701
 9829SOL    HW130386   5.721   4.265   5.758
 9829SOL    HW230387   5.649   4.120   5.737
 9830SOL     OW30388   6.024   0.321   3.359
 9830SOL    HW130389   6.066   0.386   3.295
 9830SOL    HW230390   6.039   0.352   3.453
 9831SOL     OW30391   0.924   4.699   1.431
 9831SOL    HW130392   0.995   4.639   1.395
 9831SOL    HW230393   0.921   4.691   1.530
 9832SOL     OW30394   5.837   5.763   5.414
 9832SOL    HW130395   5.835   5.684   5.475
 9832SOL    HW230396   5.932   5.790   5.398
 9833SOL     OW30397   4.052   3.187   4.293
 9833SOL    HW130398   4.041   3.182   4.393
 9833SOL    HW230399   4.060   3.282   4.266
 9834SOL     OW30400   2.924   6.031   5.882
 9834SOL    HW130401   2.884   6.000   5.796
 9834SOL    HW230402   3.023   6.019   5.879
 9835SOL     OW30403   3.853   3.031   3.849
 9835SOL    HW130404   3.858   3.005   3.945
 9835SOL    HW230405   3.793   3.110   3.838
 9836SOL     OW30406   6.929   3.277   6.573
 9836SOL    HW130407   6.960   3.184   6.596
 9836SOL    HW230408   6.905   3.325   6.657
 9837SOL     OW30409   6.196   0.584   5.154
 9837SOL    HW130410   6.118   0.521   5.154
 9837SOL    HW230411   6.170   0.669   5.109
 9838SOL     OW30412   0.328   5.824   1.046
 9838SOL    HW130413   0.277   5.884   1.108
 9838SOL    HW230414   0.403   5.874   1.004
 9839SOL     OW30415   3.815   6.835   3.558
 9839SOL    HW130416   3.902   6.798   3.525
 9839SOL    HW230417   3.796   6.921   3.511
 9840SOL     OW30418   6.392   2.410   5.329
 9840SOL    HW130419   6.484   2.436   5.358
 9840SOL    HW230420   6.325   2.460   5.383
 9841SOL     OW30421   6.766   5.434   2.156
 9841SOL    HW130422   6.806   5.419   2.066
 9841SOL    HW230423   6.800   5.364   2.219
 9842SOL     OW30424   4.090   0.501   0.537
 9842SOL    HW130425   4.070   0.429   0.470
 9842SOL    HW230426   4.032   0.489   0.618
 9843SOL     OW30427   0.235   0.052   0.714
 9843SOL    HW130428   0.332   0.059   0.737
 9843SOL    HW230429   0.181   0.109   0.777
 9844SOL     OW30430   5.698   0.738   4.489
 9844SOL    HW130431   5.759   0.678   4.437
 9844SOL    HW230432   5.718   0.833   4.467
 9845SOL     OW30433   0.697   3.359   2.773
 9845SOL    HW130434   0.700   3.260   2.755
 9845SOL    HW230435   0.655   3.405   2.696
 9846SOL     OW30436   5.974   2.029   3.107
 9846SOL    HW130437   5.915   1.956   3.074
 9846SOL    HW230438   5.932   2.118   3.088
 9847SOL     OW30439   4.263   3.400   0.128
 9847SOL    HW130440   4.358   3.431   0.127
 9847SOL    HW230441   4.202   3.478   0.115
 9848SOL     OW30442   2.771   3.561   6.365
 9848SOL    HW130443   2.803   3.571   6.459
 9848SOL    HW230444   2.798   3.641   6.312
 9849SOL     OW30445   1.748   2.251   2.480
 9849SOL    HW130446   1.806   2.221   2.556
 9849SOL    HW230447   1.652   2.241   2.506
 9850SOL     OW30448   2.075   0.326   4.016
 9850SOL    HW130449   1.983   0.289   4.000
 9850SOL    HW230450   2.071   0.426   4.019
 9851SOL     OW30451   3.658   6.489   3.700
 9851SOL    HW130452   3.752   6.456   3.705
 9851SOL    HW230453   3.632   6.503   3.604
 9852SOL     OW30454   2.589   0.571   6.619
 9852SOL    HW130455   2.511   0.632   6.630
 9852SOL    HW230456   2.671   0.614   6.656
 9853SOL     OW30457   0.231   3.975   4.039
 9853SOL    HW130458   0.259   3.914   3.964
 9853SOL    HW230459   0.138   4.008   4.022
 9854SOL     OW30460   6.489   4.007   6.936
 9854SOL    HW130461   6.542   3.942   6.991
 9854SOL    HW230462   6.426   3.957   6.876
 9855SOL     OW30463   0.222   6.202   0.922
 9855SOL    HW130464   0.177   6.157   0.845
 9855SOL    HW230465   0.304   6.150   0.948
 9856SOL     OW30466   4.412   4.579   3.507
 9856SOL    HW130467   4.373   4.492   3.475
 9856SOL    HW230468   4.465   4.620   3.433
 9857SOL     OW30469   3.861   6.714   5.574
 9857SOL    HW130470   3.961   6.705   5.572
 9857SOL    HW230471   3.834   6.792   5.518
 9858SOL     OW30472   6.862   5.350   2.666
 9858SOL    HW130473   6.960   5.361   2.682
 9858SOL    HW230474   6.846   5.341   2.568
 9859SOL     OW30475   0.295   0.010   2.870
 9859SOL    HW130476   0.373   0.022   2.932
 9859SOL    HW230477   0.244   0.096   2.864
 9860SOL     OW30478   1.193   3.703   3.448
 9860SOL    HW130479   1.233   3.732   3.535
 9860SOL    HW230480   1.093   3.710   3.454
 9861SOL     OW30481   3.834   2.042   4.227
 9861SOL    HW130482   3.857   2.048   4.130
 9861SOL    HW230483   3.740   2.072   4.242
 9862SOL     OW30484   1.509   3.051   6.539
 9862SOL    HW130485   1.428   3.108   6.553
 9862SOL    HW230486   1.515   3.027   6.442
 9863SOL     OW30487   3.338   5.782   1.989
 9863SOL    HW130488   3.303   5.706   2.044
 9863SOL    HW230489   3.328   5.759   1.892
 9864SOL     OW30490   3.165   6.393   5.010
 9864SOL    HW130491   3.124   6.462   4.949
 9864SOL    HW230492   3.094   6.350   5.065
 9865SOL     OW30493   2.492   4.927   6.047
 9865SOL    HW130494   2.536   4.837   6.038
 9865SOL    HW230495   2.512   4.982   5.966
 9866SOL     OW30496   0.875   5.840   5.168
 9866SOL    HW130497   0.799   5.787   5.205
 9866SOL    HW230498   0.931   5.780   5.110
 9867SOL     OW30499   5.082   1.367   2.750
 9867SOL    HW130500   5.144   1.295   2.722
 9867SOL    HW230501   5.002   1.367   2.690
 9868SOL     OW30502   2.290   5.406   3.013
 9868SOL    HW130503   2.315   5.494   3.054
 9868SOL    HW230504   2.196   5.384   3.037
 9869SOL     OW30505   6.074   1.739   2.604
 9869SOL    HW130506   6.098   1.740   2.507
 9869SOL    HW230507   6.117   1.817   2.650
 9870SOL     OW30508   2.264   2.839   3.115
 9870SOL    HW130509   2.187   2.776   3.120
 9870SOL    HW230510   2.347   2.790   3.088
 9871SOL     OW30511   5.867   5.224   2.793
 9871SOL    HW130512   5.965   5.228   2.772
 9871SOL    HW230513   5.836   5.129   2.791
 9872SOL     OW30514   6.942   6.666   4.578
 9872SOL    HW130515   6.870   6.639   4.515
 9872SOL    HW230516   7.020   6.605   4.568
 9873SOL     OW30517   0.604   0.650   4.602
 9873SOL    HW130518   0.700   0.648   4.574
 9873SOL    HW230519   0.555   0.576   4.556
 9874SOL     OW30520   7.009   2.602   4.420
 9874SOL    HW130521   6.946   2.613   4.497
 9874SOL    HW230522   6.959   2.565   4.342
 9875SOL     OW30523   5.517   5.771   0.836
 9875SOL    HW130524   5.504   5.765   0.737
 9875SOL    HW230525   5.448   5.833   0.875
 9876SOL     OW30526   0.747   0.109   3.063
 9876SOL    HW130527   0.829   0.060   3.033
 9876SOL    HW230528   0.759   0.140   3.157
 9877SOL     OW30529   1.770   5.570   4.979
 9877SOL    HW130530   1.753   5.662   4.943
 9877SOL    HW230531   1.701   5.548   5.048
 9878SOL     OW30532   4.732   4.131   0.490
 9878SOL    HW130533   4.636   4.113   0.513
 9878SOL    HW230534   4.743   4.225   0.458
 9879SOL     OW30535   6.044   5.028   4.287
 9879SOL    HW130536   5.984   5.107   4.295
 9879SOL    HW230537   6.124   5.040   4.347
 9880SOL     OW30538   2.650   1.711   0.925
 9880SOL    HW130539   2.561   1.754   0.944
 9880SOL    HW230540   2.698   1.763   0.854
 9881SOL     OW30541   6.639   0.313   2.804
 9881SOL    HW130542   6.739   0.310   2.805
 9881SOL    HW230543   6.604   0.239   2.747
 9882SOL     OW30544   3.262   4.058   4.891
 9882SOL    HW130545   3.265   3.990   4.964
 9882SOL    HW230546   3.183   4.040   4.832
 9883SOL     OW30547   0.623   5.312   2.716
 9883SOL    HW130548   0.604   5.236   2.654
 9883SOL    HW230549   0.642   5.395   2.662
 9884SOL     OW30550   3.465   2.768   5.288
 9884SOL    HW130551   3.425   2.797   5.201
 9884SOL    HW230552   3.398   2.714   5.339
 9885SOL     OW30553   4.727   2.256   5.109
 9885SOL    HW130554   4.742   2.163   5.075
 9885SOL    HW230555   4.769   2.266   5.199
 9886SOL     OW30556   2.277   6.278   1.415
 9886SOL    HW130557   2.244   6.241   1.328
 9886SOL    HW230558   2.260   6.376   1.417
 9887SOL     OW30559   3.476   1.493   6.970
 9887SOL    HW130560   3.543   1.567   6.978
 9887SOL    HW230561   3.465   1.448   0.033
 9888SOL     OW30562   6.335   6.884   3.853
 9888SOL    HW130563   6.426   6.871   3.814
 9888SOL    HW230564   6.332   6.842   3.944
 9889SOL     OW30565   6.446   5.843   2.361
 9889SOL    HW130566   6.460   5.751   2.324
 9889SOL    HW230567   6.533   5.893   2.359
 9890SOL     OW30568   1.779   3.239   3.290
 9890SOL    HW130569   1.775   3.250   3.389
 9890SOL    HW230570   1.763   3.144   3.266
 9891SOL     OW30571   3.306   0.365   1.537
 9891SOL    HW130572   3.322   0.422   1.457
 9891SOL    HW230573   3.394   0.342   1.580
 9892SOL     OW30574   1.984   6.291   3.009
 9892SOL    HW130575   1.977   6.232   2.928
 9892SOL    HW230576   2.075   6.332   3.013
 9893SOL     OW30577   5.859   4.851   4.394
 9893SOL    HW130578   5.798   4.803   4.331
 9893SOL    HW230579   5.943   4.875   4.346
 9894SOL     OW30580   4.952   3.321   6.169
 9894SOL    HW130581   4.858   3.321   6.202
 9894SOL    HW230582   4.954   3.294   6.073
 9895SOL     OW30583   5.473   2.887   6.034
 9895SOL    HW130584   5.500   2.973   6.078
 9895SOL    HW230585   5.387   2.900   5.986
 9896SOL     OW30586   3.185   4.090   6.242
 9896SOL    HW130587   3.242   4.111   6.162
 9896SOL    HW230588   3.091   4.117   6.224
 9897SOL     OW30589   1.289   0.819   2.971
 9897SOL    HW130590   1.388   0.807   2.977
 9897SOL    HW230591   1.250   0.817   3.063
 9898SOL     OW30592   0.594   5.386   6.848
 9898SOL    HW130593   0.658   5.384   6.925
 9898SOL    HW230594   0.545   5.474   6.849
 9899SOL     OW30595   3.687   5.084   0.565
 9899SOL    HW130596   3.614   5.093   0.498
 9899SOL    HW230597   3.653   5.035   0.645
 9900SOL     OW30598   2.842   5.469   3.553
 9900SOL    HW130599   2.818   5.551   3.501
 9900SOL    HW230600   2.853   5.392   3.490
 9901SOL     OW30601   2.949   1.862   6.325
 9901SOL    HW130602   2.932   1.785   6.264
 9901SOL    HW230603   2.878   1.932   6.310
 9902SOL     OW30604   4.070   4.699   6.680
 9902SOL    HW130605   4.041   4.738   6.593
 9902SOL    HW230606   4.087   4.773   6.745
 9903SOL     OW30607   3.276   1.290   0.770
 9903SOL    HW130608   3.222   1.207   0.784
 9903SOL    HW230609   3.216   1.365   0.744
 9904SOL     OW30610   6.320   6.109   1.809
 9904SOL    HW130611   6.420   6.102   1.816
 9904SOL    HW230612   6.291   6.075   1.720
 9905SOL     OW30613   2.033   6.874   6.558
 9905SOL    HW130614   2.054   6.963   6.597
 9905SOL    HW230615   2.014   6.809   6.633
 9906SOL     OW30616   2.917   3.531   6.609
 9906SOL    HW130617   3.012   3.507   6.587
 9906SOL    HW230618   2.905   3.530   6.708
 9907SOL     OW30619   0.807   6.854   3.218
 9907SOL    HW130620   0.828   6.905   3.301
 9907SOL    HW230621   0.868   6.884   3.145
 9908SOL     OW30622   7.010   3.430   6.078
 9908SOL    HW130623   6.978   3.393   6.165
 9908SOL    HW230624   6.976   3.373   6.003
 9909SOL     OW30625   2.294   5.807   2.333
 9909SOL    HW130626   2.238   5.774   2.256
 9909SOL    HW230627   2.391   5.802   2.308
 9910SOL     OW30628   1.020   5.529   0.475
 9910SOL    HW130629   1.078   5.575   0.542
 9910SOL    HW230630   1.055   5.436   0.459
 9911SOL     OW30631   2.860   4.781   1.770
 9911SOL    HW130632   2.865   4.688   1.807
 9911SOL    HW230633   2.936   4.795   1.707
 9912SOL     OW30634   6.322   6.580   0.007
 9912SOL    HW130635   6.404   6.637   0.004
 9912SOL    HW230636   6.267   6.606   0.087
 9913SOL     OW30637   6.277   2.270   1.217
 9913SOL    HW130638   6.279   2.261   1.317
 9913SOL    HW230639   6.264   2.180   1.175
 9914SOL     OW30640   2.166   5.110   3.773
 9914SOL    HW130641   2.256   5.135   3.737
 9914SOL    HW230642   2.134   5.026   3.728
 9915SOL     OW30643   6.173   4.657   4.534
 9915SOL    HW130644   6.239   4.720   4.574
 9915SOL    HW230645   6.206   4.626   4.445
 9916SOL     OW30646   1.409   2.957   1.082
 9916SOL    HW130647   1.370   2.868   1.058
 9916SOL    HW230648   1.340   3.028   1.069
 9917SOL     OW30649   1.961   4.540   4.502
 9917SOL    HW130650   1.878   4.490   4.476
 9917SOL    HW230651   1.995   4.506   4.590
 9918SOL     OW30652   2.969   2.187   3.936
 9918SOL    HW130653   3.037   2.227   3.874
 9918SOL    HW230654   2.891   2.153   3.882
 9919SOL     OW30655   0.537   5.800   1.795
 9919SOL    HW130656   0.554   5.740   1.873
 9919SOL    HW230657   0.454   5.771   1.748
 9920SOL     OW30658   3.496   0.525   2.751
 9920SOL    HW130659   3.421   0.477   2.797
 9920SOL    HW230660   3.519   0.608   2.803
 9921SOL     OW30661   4.594   0.125   2.350
 9921SOL    HW130662   4.501   0.119   2.315
 9921SOL    HW230663   4.638   0.207   2.314
 9922SOL     OW30664   6.276   2.264   2.495
 9922SOL    HW130665   6.317   2.220   2.576
 9922SOL    HW230666   6.201   2.207   2.461
 9923SOL     OW30667   5.419   6.803   5.718
 9923SOL    HW130668   5.435   6.752   5.803
 9923SOL    HW230669   5.361   6.882   5.738
 9924SOL     OW30670   5.873   6.631   3.588
 9924SOL    HW130671   5.817   6.556   3.552
 9924SOL    HW230672   5.816   6.692   3.643
 9925SOL     OW30673   3.973   2.424   5.358
 9925SOL    HW130674   4.035   2.493   5.322
 9925SOL    HW230675   3.968   2.433   5.458
 9926SOL     OW30676   1.814   1.222   6.617
 9926SOL    HW130677   1.905   1.236   6.579
 9926SOL    HW230678   1.748   1.209   6.543
 9927SOL     OW30679   2.219   4.268   4.310
 9927SOL    HW130680   2.199   4.177   4.345
 9927SOL    HW230681   2.273   4.319   4.376
 9928SOL     OW30682   6.672   3.398   3.199
 9928SOL    HW130683   6.694   3.493   3.175
 9928SOL    HW230684   6.609   3.397   3.277
 9929SOL     OW30685   1.406   5.090   5.098
 9929SOL    HW130686   1.367   5.072   5.008
 9929SOL    HW230687   1.504   5.073   5.097
 9930SOL     OW30688   6.830   6.628   6.878
 9930SOL    HW130689   6.833   6.606   6.780
 9930SOL    HW230690   6.769   6.564   6.924
 9931SOL     OW30691   1.052   3.862   6.915
 9931SOL    HW130692   1.091   3.913   6.838
 9931SOL    HW230693   1.046   3.765   6.890
 9932SOL     OW30694   1.982   1.602   1.044
 9932SOL    HW130695   1.883   1.593   1.029
 9932SOL    HW230696   1.998   1.652   1.129
 9933SOL     OW30697   1.932   1.579   3.224
 9933SOL    HW130698   1.946   1.591   3.125
 9933SOL    HW230699   2.016   1.603   3.272
 9934SOL     OW30700   4.529   0.934   5.676
 9934SOL    HW130701   4.506   0.899   5.585
 9934SOL    HW230702   4.627   0.923   5.693
 9935SOL     OW30703   3.431   2.396   0.164
 9935SOL    HW130704   3.478   2.480   0.135
 9935SOL    HW230705   3.500   2.325   0.183
 9936SOL     OW30706   4.702   6.196   0.789
 9936SOL    HW130707   4.651   6.134   0.848
 9936SOL    HW230708   4.754   6.143   0.722
 9937SOL     OW30709   1.510   7.004   5.577
 9937SOL    HW130710   1.496   0.050   5.645
 9937SOL    HW230711   1.445   7.015   5.502
 9938SOL     OW30712   1.558   1.722   3.567
 9938SOL    HW130713   1.602   1.663   3.635
 9938SOL    HW230714   1.626   1.752   3.500
 9939SOL     OW30715   3.143   3.616   0.671
 9939SOL    HW130716   3.110   3.598   0.764
 9939SOL    HW230717   3.165   3.530   0.626
 9940SOL     OW30718   6.453   1.240   3.085
 9940SOL    HW130719   6.431   1.275   3.175
 9940SOL    HW230720   6.476   1.143   3.091
 9941SOL     OW30721   6.101   3.261   0.681
 9941SOL    HW130722   6.037   3.201   0.632
 9941SOL    HW230723   6.129   3.218   0.766
 9942SOL     OW30724   5.332   4.481   2.854
 9942SOL    HW130725   5.333   4.482   2.754
 9942SOL    HW230726   5.340   4.574   2.888
 9943SOL     OW30727   1.764   4.941   4.875
 9943SOL    HW130728   1.765   5.005   4.799
 9943SOL    HW230729   1.843   4.880   4.868
 9944SOL     OW30730   2.538   5.562   6.283
 9944SOL    HW130731   2.633   5.558   6.314
 9944SOL    HW230732   2.482   5.610   6.350
 9945SOL     OW30733   6.397   3.378   5.348
 9945SOL    HW130734   6.469   3.329   5.397
 9945SOL    HW230735   6.433   3.412   5.261
 9946SOL     OW30736   5.372   2.150   1.435
 9946SOL    HW130737   5.437   2.077   1.460
 9946SOL    HW230738   5.280   2.113   1.431
 9947SOL     OW30739   0.096   0.628   3.240
 9947SOL    HW130740   0.133   0.594   3.327
 9947SOL    HW230741   0.153   0.594   3.165
 9948SOL     OW30742   4.804   1.504   5.488
 9948SOL    HW130743   4.756   1.423   5.453
 9948SOL    HW230744   4.855   1.548   5.413
 9949SOL     OW30745   6.933   3.126   2.959
 9949SOL    HW130746   7.007   3.193   2.970
 9949SOL    HW230747   6.859   3.167   2.906
 9950SOL     OW30748   5.249   4.628   6.405
 9950SOL    HW130749   5.171   4.628   6.342
 9950SOL    HW230750   5.247   4.711   6.461
 9951SOL     OW30751   0.080   2.539   2.281
 9951SOL    HW130752   0.052   2.443   2.282
 9951SOL    HW230753   0.055   2.580   2.193
 9952SOL     OW30754   1.795   4.496   1.490
 9952SOL    HW130755   1.715   4.519   1.434
 9952SOL    HW230756   1.790   4.546   1.576
 9953SOL     OW30757   6.192   3.481   5.479
 9953SOL    HW130758   6.194   3.581   5.478
 9953SOL    HW230759   6.273   3.446   5.432
 9954SOL     OW30760   4.618   2.608   1.605
 9954SOL    HW130761   4.693   2.550   1.638
 9954SOL    HW230762   4.603   2.683   1.669
 9955SOL     OW30763   5.823   4.997   2.475
 9955SOL    HW130764   5.816   5.051   2.391
 9955SOL    HW230765   5.775   4.910   2.463
 9956SOL     OW30766   1.847   4.719   3.440
 9956SOL    HW130767   1.794   4.803   3.450
 9956SOL    HW230768   1.865   4.703   3.343
 9957SOL     OW30769   5.510   6.927   0.465
 9957SOL    HW130770   5.488   7.004   0.405
 9957SOL    HW230771   5.580   6.870   0.422
 9958SOL     OW30772   6.346   6.358   5.523
 9958SOL    HW130773   6.363   6.456   5.533
 9958SOL    HW230774   6.273   6.343   5.456
 9959SOL     OW30775   5.898   5.393   0.420
 9959SOL    HW130776   5.921   5.460   0.491
 9959SOL    HW230777   5.983   5.358   0.379
 9960SOL     OW30778   6.143   0.854   5.983
 9960SOL    HW130779   6.155   0.878   5.887
 9960SOL    HW230780   6.056   0.806   5.994
 9961SOL     OW30781   2.821   6.924   0.251
 9961SOL    HW130782   2.790   7.010   0.292
 9961SOL    HW230783   2.862   6.942   0.162
 9962SOL     OW30784   4.461   1.426   1.949
 9962SOL    HW130785   4.556   1.456   1.961
 9962SOL    HW230786   4.452   1.379   1.861
 9963SOL     OW30787   0.606   0.349   6.737
 9963SOL    HW130788   0.548   0.373   6.660
 9963SOL    HW230789   0.699   0.381   6.720
 9964SOL     OW30790   4.663   5.400   5.382
 9964SOL    HW130791   4.596   5.424   5.312
 9964SOL    HW230792   4.650   5.459   5.462
 9965SOL     OW30793   2.392   5.320   5.398
 9965SOL    HW130794   2.400   5.261   5.318
 9965SOL    HW230795   2.444   5.404   5.383
 9966SOL     OW30796   2.057   4.238   2.144
 9966SOL    HW130797   1.974   4.207   2.191
 9966SOL    HW230798   2.050   4.336   2.126
 9967SOL     OW30799   6.457   0.718   2.152
 9967SOL    HW130800   6.514   0.741   2.072
 9967SOL    HW230801   6.382   0.783   2.158
 9968SOL     OW30802   4.423   6.240   6.527
 9968SOL    HW130803   4.439   6.142   6.516
 9968SOL    HW230804   4.464   6.271   6.612
 9969SOL     OW30805   0.650   6.667   3.322
 9969SOL    HW130806   0.696   6.743   3.276
 9969SOL    HW230807   0.576   6.703   3.379
 9970SOL     OW30808   0.672   3.285   1.632
 9970SOL    HW130809   0.727   3.368   1.637
 9970SOL    HW230810   0.663   3.257   1.536
 9971SOL     OW30811   0.463   5.440   6.035
 9971SOL    HW130812   0.538   5.480   5.982
 9971SOL    HW230813   0.438   5.352   5.994
 9972SOL     OW30814   3.168   4.788   5.630
 9972SOL    HW130815   3.112   4.745   5.702
 9972SOL    HW230816   3.131   4.878   5.608
 9973SOL     OW30817   3.749   2.100   2.742
 9973SOL    HW130818   3.666   2.124   2.793
 9973SOL    HW230819   3.732   2.115   2.644
 9974SOL     OW30820   0.441   4.258   3.550
 9974SOL    HW130821   0.396   4.311   3.621
 9974SOL    HW230822   0.508   4.315   3.503
 9975SOL     OW30823   1.715   4.905   0.018
 9975SOL    HW130824   1.617   4.883   0.021
 9975SOL    HW230825   1.768   4.823   0.041
 9976SOL     OW30826   4.384   5.540   4.572
 9976SOL    HW130827   4.446   5.488   4.513
 9976SOL    HW230828   4.327   5.476   4.624
 9977SOL     OW30829   3.675   6.548   6.200
 9977SOL    HW130830   3.627   6.624   6.242
 9977SOL    HW230831   3.628   6.520   6.116
 9978SOL     OW30832   6.923   3.309   6.844
 9978SOL    HW130833   6.913   3.382   6.912
 9978SOL    HW230834   6.880   3.225   6.879
 9979SOL     OW30835   3.148   4.056   4.162
 9979SOL    HW130836   3.142   4.128   4.231
 9979SOL    HW230837   3.096   3.976   4.193
 9980SOL     OW30838   0.507   6.786   6.920
 9980SOL    HW130839   0.587   6.822   6.968
 9980SOL    HW230840   0.449   6.737   6.985
 9981SOL     OW30841   5.661   1.654   1.586
 9981SOL    HW130842   5.757   1.658   1.614
 9981SOL    HW230843   5.631   1.745   1.557
 9982SOL     OW30844   2.902   0.786   5.195
 9982SOL    HW130845   2.931   0.780   5.290
 9982SOL    HW230846   2.905   0.882   5.165
 9983SOL     OW30847   0.511   2.344   1.920
 9983SOL    HW130848   0.507   2.439   1.887
 9983SOL    HW230849   0.565   2.289   1.856
 9984SOL     OW30850   1.603   4.399   1.090
 9984SOL    HW130851   1.572   4.464   1.020
 9984SOL    HW230852   1.540   4.322   1.095
 9985SOL     OW30853   5.623   5.023   5.918
 9985SOL    HW130854   5.599   5.119   5.930
 9985SOL    HW230855   5.623   5.000   5.821
 9986SOL     OW30856   5.774   4.145   0.545
 9986SOL    HW130857   5.865   4.184   0.557
 9986SOL    HW230858   5.747   4.152   0.449
 9987SOL     OW30859   5.313   1.885   0.699
 9987SOL    HW130860   5.216   1.906   0.709
 9987SOL    HW230861   5.333   1.864   0.604
 9988SOL     OW30862   5.258   7.007   4.137
 9988SOL    HW130863   5.296   0.018   4.052
 9988SOL    HW230864   5.220   6.916   4.120
 9989SOL     OW30865   6.680   5.139   1.392
 9989SOL    HW130866   6.595   5.162   1.439
 9989SOL    HW230867   6.746   5.103   1.458
 9990SOL     OW30868   0.477   6.191   2.852
 9990SOL    HW130869   0.472   6.102   2.808
 9990SOL    HW230870   0.566   6.201   2.898
 9991SOL     OW30871   2.113   3.014   2.205
 9991SOL    HW130872   2.137   2.972   2.293
 9991SOL    HW230873   2.113   3.114   2.215
 9992SOL     OW30874   1.726   4.000   0.335
 9992SOL    HW130875   1.630   4.031   0.340
 9992SOL    HW230876   1.742   3.930   0.404
 9993SOL     OW30877   3.438   0.129   4.285
 9993SOL    HW130878   3.453   0.227   4.270
 9993SOL    HW230879   3.435   0.082   4.197
 9994SOL     OW30880   5.828   4.873   5.232
 9994SOL    HW130881   5.927   4.864   5.243
 9994SOL    HW230882   5.805   4.874   5.135
 9995SOL     OW30883   4.136   1.722   6.130
 9995SOL    HW130884   4.067   1.767   6.187
 9995SOL    HW230885   4.096   1.640   6.089
 9996SOL     OW30886   2.828   4.439   1.495
 9996SOL    HW130887   2.732   4.464   1.504
 9996SOL    HW230888   2.885   4.521   1.504
 9997SOL     OW30889   5.689   0.032   3.217
 9997SOL    HW130890   5.749   0.102   3.258
 9997SOL    HW230891   5.745   6.987   3.174
 9998SOL     OW30892   5.712   3.405   2.479
 9998SOL    HW130893   5.735   3.314   2.445
 9998SOL    HW230894   5.617   3.407   2.509
 9999SOL     OW30895   0.914   0.038   4.513
 9999SOL    HW130896   0.815   0.032   4.529
 9999SOL    HW230897   0.945   0.131   4.535
10000SOL     OW30898   4.520   3.548   1.638
10000SOL    HW130899   4.473   3.477   1.690
10000SOL    HW230900   4.498   3.638   1.676
10001SOL     OW30901   3.778   6.057   1.510
10001SOL    HW130902   3.877   6.048   1.508
10001SOL    HW230903   3.739   5.983   1.565
10002SOL     OW30904   2.624   6.729   2.711
10002SOL    HW130905   2.528   6.709   2.729
10002SOL    HW230906   2.631   6.816   2.663
10003SOL     OW30907   0.872   1.326   3.096
10003SOL    HW130908   0.851   1.229   3.110
10003SOL    HW230909   0.966   1.345   3.126
10004SOL     OW30910   0.288   2.494   3.187
10004SOL    HW130911   0.276   2.444   3.101
10004SOL    HW230912   0.345   2.574   3.172
10005SOL     OW30913   1.903   6.312   2.355
10005SOL    HW130914   1.995   6.324   2.317
10005SOL    HW230915   1.838   6.365   2.300
10006SOL     OW30916   5.283   1.959   6.554
10006SOL    HW130917   5.300   1.958   6.653
10006SOL    HW230918   5.251   2.050   6.527
10007SOL     OW30919   1.764   5.333   3.044
10007SOL    HW130920   1.712   5.394   3.104
10007SOL    HW230921   1.701   5.286   2.982
10008SOL     OW30922   3.149   0.549   6.153
10008SOL    HW130923   3.080   0.603   6.201
10008SOL    HW230924   3.108   0.464   6.120
10009SOL     OW30925   0.853   5.117   1.641
10009SOL    HW130926   0.769   5.077   1.605
10009SOL    HW230927   0.840   5.214   1.659
10010SOL     OW30928   2.387   4.807   0.584
10010SOL    HW130929   2.373   4.797   0.683
10010SOL    HW230930   2.449   4.735   0.553
10011SOL     OW30931   3.193   3.411   0.006
10011SOL    HW130932   3.248   3.341   0.052
10011SOL    HW230933   3.254   3.478   6.989
10012SOL     OW30934   5.519   2.118   3.310
10012SOL    HW130935   5.526   2.034   3.256
10012SOL    HW230936   5.543   2.099   3.405
10013SOL     OW30937   0.350   6.004   5.856
10013SOL    HW130938   0.437   5.972   5.893
10013SOL    HW230939   0.341   5.972   5.761
10014SOL     OW30940   1.351   1.517   2.851
10014SOL    HW130941   1.280   1.482   2.789
10014SOL    HW230942   1.307   1.563   2.928
10015SOL     OW30943   4.001   0.728   0.390
10015SOL    HW130944   4.013   0.743   0.292
10015SOL    HW230945   4.047   0.642   0.415
10016SOL     OW30946   2.444   1.521   5.442
10016SOL    HW130947   2.355   1.483   5.466
10016SOL    HW230948   2.490   1.553   5.525
10017SOL     OW30949   3.132   2.172   3.050
10017SOL    HW130950   3.105   2.107   3.120
10017SOL    HW230951   3.052   2.222   3.017
10018SOL     OW30952   0.028   4.508   5.493
10018SOL    HW130953   0.067   4.598   5.509
10018SOL    HW230954   0.018   4.460   5.580
10019SOL     OW30955   0.474   1.936   2.971
10019SOL    HW130956   0.564   1.977   2.955
10019SOL    HW230957   0.413   1.959   2.896
10020SOL     OW30958   6.827   0.964   3.049
10020SOL    HW130959   6.924   0.947   3.070
10020SOL    HW230960   6.803   1.057   3.076
10021SOL     OW30961   2.355   4.482   1.884
10021SOL    HW130962   2.297   4.401   1.876
10021SOL    HW230963   2.333   4.546   1.810
10022SOL     OW30964   0.822   6.569   6.069
10022SOL    HW130965   0.836   6.666   6.090
10022SOL    HW230966   0.735   6.558   6.021
10023SOL     OW30967   1.303   1.278   4.420
10023SOL    HW130968   1.399   1.250   4.424
10023SOL    HW230969   1.247   1.214   4.473
10024SOL     OW30970   1.958   3.286   3.105
10024SOL    HW130971   2.007   3.369   3.132
10024SOL    HW230972   1.906   3.251   3.184
10025SOL     OW30973   0.224   2.059   1.278
10025SOL    HW130974   0.239   2.097   1.369
10025SOL    HW230975   0.292   2.095   1.215
10026SOL     OW30976   6.220   1.615   4.920
10026SOL    HW130977   6.278   1.539   4.890
10026SOL    HW230978   6.240   1.696   4.865
10027SOL     OW30979   3.406   1.452   5.668
10027SOL    HW130980   3.435   1.547   5.677
10027SOL    HW230981   3.307   1.445   5.686
10028SOL     OW30982   4.264   6.287   1.726
10028SOL    HW130983   4.192   6.353   1.708
10028SOL    HW230984   4.262   6.260   1.822
10029SOL     OW30985   0.276   4.878   3.642
10029SOL    HW130986   0.250   4.918   3.554
10029SOL    HW230987   0.241   4.935   3.716
10030SOL     OW30988   2.664   6.622   3.870
10030SOL    HW130989   2.656   6.550   3.940
10030SOL    HW230990   2.574   6.664   3.856
10031SOL     OW30991   2.019   6.642   3.466
10031SOL    HW130992   1.945   6.709   3.473
10031SOL    HW230993   2.008   6.590   3.381
10032SOL     OW30994   2.366   5.565   4.954
10032SOL    HW130995   2.377   5.543   4.857
10032SOL    HW230996   2.367   5.664   4.966
10033SOL     OW30997   1.997   1.311   4.393
10033SOL    HW130998   1.960   1.245   4.458
10033SOL    HW230999   1.925   1.375   4.365
10034SOL     OW31000   2.564   0.832   1.748
10034SOL    HW131001   2.540   0.793   1.837
10034SOL    HW231002   2.512   0.916   1.734
10035SOL     OW31003   0.387   2.667   2.132
10035SOL    HW131004   0.459   2.679   2.200
10035SOL    HW231005   0.309   2.621   2.174
10036SOL     OW31006   0.568   1.138   0.283
10036SOL    HW131007   0.649   1.094   0.245
10036SOL    HW231008   0.571   1.236   0.263
10037SOL     OW31009   6.303   0.975   6.182
10037SOL    HW131010   6.258   0.936   6.102
10037SOL    HW231011   6.401   0.984   6.163
10038SOL     OW31012   4.520   0.315   6.818
10038SOL    HW131013   4.595   0.250   6.828
10038SOL    HW231014   4.433   0.266   6.814
10039SOL     OW31015   0.014   4.580   0.877
10039SOL    HW131016   0.050   4.563   0.786
10039SOL    HW231017   0.085   4.622   0.934
10040SOL     OW31018   3.078   0.541   0.486
10040SOL    HW131019   3.086   0.603   0.564
10040SOL    HW231020   3.094   0.592   0.402
10041SOL     OW31021   5.729   4.685   5.812
10041SOL    HW131022   5.646   4.695   5.758
10041SOL    HW231023   5.792   4.623   5.765
10042SOL     OW31024   6.066   0.050   4.944
10042SOL    HW131025   6.005   0.033   4.867
10042SOL    HW231026   6.088   0.148   4.948
10043SOL     OW31027   0.444   0.354   3.484
10043SOL    HW131028   0.510   0.331   3.413
10043SOL    HW231029   0.465   0.300   3.566
10044SOL     OW31030   2.980   2.327   6.880
10044SOL    HW131031   2.888   2.309   6.845
10044SOL    HW231032   3.046   2.327   6.804
10045SOL     OW31033   3.918   6.703   4.624
10045SOL    HW131034   3.831   6.740   4.660
10045SOL    HW231035   3.988   6.708   4.695
10046SOL     OW31036   6.354   1.601   0.326
10046SOL    HW131037   6.367   1.690   0.368
10046SOL    HW231038   6.281   1.551   0.373
10047SOL     OW31039   1.234   2.023   3.336
10047SOL    HW131040   1.202   2.103   3.286
10047SOL    HW231041   1.311   1.981   3.287
10048SOL     OW31042   3.118   2.319   1.689
10048SOL    HW131043   3.063   2.366   1.758
10048SOL    HW231044   3.212   2.352   1.693
10049SOL     OW31045   0.987   5.039   4.935
10049SOL    HW131046   0.963   4.973   5.007
10049SOL    HW231047   0.913   5.104   4.922
10050SOL     OW31048   5.800   1.451   4.967
10050SOL    HW131049   5.775   1.355   4.958
10050SOL    HW231050   5.853   1.464   5.051
10051SOL     OW31051   5.809   1.486   0.776
10051SOL    HW131052   5.855   1.403   0.808
10051SOL    HW231053   5.788   1.477   0.679
10052SOL     OW31054   2.295   5.426   0.702
10052SOL    HW131055   2.250   5.413   0.790
10052SOL    HW231056   2.380   5.477   0.715
10053SOL     OW31057   3.152   6.614   3.400
10053SOL    HW131058   3.066   6.663   3.416
10053SOL    HW231059   3.183   6.573   3.486
10054SOL     OW31060   5.325   4.684   3.725
10054SOL    HW131061   5.301   4.588   3.736
10054SOL    HW231062   5.247   4.741   3.752
10055SOL     OW31063   5.068   2.503   0.059
10055SOL    HW131064   5.030   2.463   0.142
10055SOL    HW231065   4.993   2.539   0.002
10056SOL     OW31066   4.782   4.194   2.790
10056SOL    HW131067   4.811   4.133   2.864
10056SOL    HW231068   4.785   4.145   2.703
10057SOL     OW31069   2.082   2.437   3.017
10057SOL    HW131070   2.005   2.424   3.080
10057SOL    HW231071   2.049   2.429   2.923
10058SOL     OW31072   0.948   4.904   3.677
10058SOL    HW131073   0.886   4.845   3.729
10058SOL    HW231074   0.992   4.968   3.740
10059SOL     OW31075   4.416   6.036   1.600
10059SOL    HW131076   4.502   6.045   1.649
10059SOL    HW231077   4.349   6.100   1.637
10060SOL     OW31078   2.437   2.270   2.704
10060SOL    HW131079   2.457   2.289   2.800
10060SOL    HW231080   2.522   2.268   2.651
10061SOL     OW31081   0.157   1.726   5.607
10061SOL    HW131082   0.109   1.638   5.597
10061SOL    HW231083   0.094   1.801   5.586
10062SOL     OW31084   5.755   6.064   2.919
10062SOL    HW131085   5.781   6.040   2.825
10062SOL    HW231086   5.763   5.983   2.977
10063SOL     OW31087   0.949   2.887   2.613
10063SOL    HW131088   0.975   2.819   2.681
10063SOL    HW231089   1.007   2.877   2.532
10064SOL     OW31090   5.041   4.936   5.136
10064SOL    HW131091   5.061   5.025   5.094
10064SOL    HW231092   5.030   4.947   5.235
10065SOL     OW31093   0.566   0.209   2.764
10065SOL    HW131094   0.514   0.225   2.680
10065SOL    HW231095   0.581   0.111   2.775
10066SOL     OW31096   6.559   0.181   4.502
10066SOL    HW131097   6.573   0.129   4.418
10066SOL    HW231098   6.511   0.266   4.481
10067SOL     OW31099   4.932   6.499   2.908
10067SOL    HW131100   5.010   6.562   2.898
10067SOL    HW231101   4.855   6.532   2.852
10068SOL     OW31102   5.283   3.435   5.385
10068SOL    HW131103   5.279   3.490   5.302
10068SOL    HW231104   5.236   3.348   5.370
10069SOL     OW31105   4.820   1.148   4.510
10069SOL    HW131106   4.860   1.174   4.422
10069SOL    HW231107   4.720   1.143   4.501
10070SOL     OW31108   1.013   6.668   4.124
10070SOL    HW131109   1.070   6.645   4.203
10070SOL    HW231110   1.061   6.643   4.040
10071SOL     OW31111   4.709   4.790   4.884
10071SOL    HW131112   4.642   4.763   4.814
10071SOL    HW231113   4.720   4.717   4.950
10072SOL     OW31114   0.172   6.186   4.418
10072SOL    HW131115   0.164   6.256   4.347
10072SOL    HW231116   0.084   6.139   4.428
10073SOL     OW31117   6.997   0.103   6.677
10073SOL    HW131118   0.018   0.189   6.657
10073SOL    HW231119   6.955   0.107   6.767
10074SOL     OW31120   2.209   6.142   4.583
10074SOL    HW131121   2.202   6.170   4.679
10074SOL    HW231122   2.293   6.180   4.543
10075SOL     OW31123   0.990   2.604   4.243
10075SOL    HW131124   1.061   2.575   4.306
10075SOL    HW231125   0.908   2.548   4.257
10076SOL     OW31126   5.400   0.010   3.212
10076SOL    HW131127   5.373   7.013   3.306
10076SOL    HW231128   5.496   0.037   3.211
10077SOL     OW31129   2.598   1.043   5.536
10077SOL    HW131130   2.577   1.057   5.439
10077SOL    HW231131   2.514   1.035   5.588
10078SOL     OW31132   5.562   6.052   5.293
10078SOL    HW131133   5.529   6.106   5.370
10078SOL    HW231134   5.503   5.972   5.280
10079SOL     OW31135   0.886   3.364   5.855
10079SOL    HW131136   0.945   3.419   5.914
10079SOL    HW231137   0.937   3.335   5.774
10080SOL     OW31138   1.363   2.512   5.367
10080SOL    HW131139   1.317   2.600   5.373
10080SOL    HW231140   1.353   2.476   5.274
10081SOL     OW31141   0.356   0.984   0.843
10081SOL    HW131142   0.407   0.915   0.791
10081SOL    HW231143   0.277   1.013   0.789
10082SOL     OW31144   6.751   1.057   0.436
10082SOL    HW131145   6.796   1.112   0.366
10082SOL    HW231146   6.701   0.982   0.393
10083SOL     OW31147   5.611   1.161   4.411
10083SOL    HW131148   5.622   1.228   4.337
10083SOL    HW231149   5.615   1.068   4.373
10084SOL     OW31150   2.791   0.710   6.754
10084SOL    HW131151   2.776   0.643   6.827
10084SOL    HW231152   2.881   0.752   6.766
10085SOL     OW31153   0.874   5.701   2.594
10085SOL    HW131154   0.836   5.695   2.686
10085SOL    HW231155   0.954   5.761   2.595
10086SOL     OW31156   0.032   2.167   2.503
10086SOL    HW131157   6.975   2.187   2.450
10086SOL    HW231158   0.032   2.221   2.587
10087SOL     OW31159   1.765   0.098   3.263
10087SOL    HW131160   1.769   0.194   3.235
10087SOL    HW231161   1.858   0.060   3.268
10088SOL     OW31162   5.644   0.248   4.549
10088SOL    HW131163   5.644   0.333   4.602
10088SOL    HW231164   5.732   0.239   4.502
10089SOL     OW31165   2.109   2.634   2.251
10089SOL    HW131166   2.161   2.589   2.323
10089SOL    HW231167   2.071   2.566   2.189
10090SOL     OW31168   0.268   5.898   2.087
10090SOL    HW131169   0.260   5.905   2.187
10090SOL    HW231170   0.255   5.803   2.059
10091SOL     OW31171   0.781   1.463   4.198
10091SOL    HW131172   0.841   1.497   4.270
10091SOL    HW231173   0.785   1.363   4.195
10092SOL     OW31174   2.632   2.571   5.528
10092SOL    HW131175   2.536   2.550   5.545
10092SOL    HW231176   2.672   2.498   5.472
10093SOL     OW31177   6.851   6.806   5.696
10093SOL    HW131178   6.830   6.766   5.785
10093SOL    HW231179   6.805   6.894   5.687
10094SOL     OW31180   1.399   0.505   1.603
10094SOL    HW131181   1.379   0.595   1.564
10094SOL    HW231182   1.432   0.443   1.532
10095SOL     OW31183   0.880   2.461   5.169
10095SOL    HW131184   0.802   2.521   5.158
10095SOL    HW231185   0.960   2.502   5.125
10096SOL     OW31186   6.390   5.878   2.759
10096SOL    HW131187   6.351   5.791   2.790
10096SOL    HW231188   6.340   5.910   2.678
10097SOL     OW31189   1.654   2.273   6.030
10097SOL    HW131190   1.592   2.347   6.001
10097SOL    HW231191   1.702   2.237   5.950
10098SOL     OW31192   3.634   5.047   6.411
10098SOL    HW131193   3.713   5.103   6.436
10098SOL    HW231194   3.550   5.098   6.431
10099SOL     OW31195   1.121   3.644   4.238
10099SOL    HW131196   1.086   3.559   4.279
10099SOL    HW231197   1.092   3.649   4.143
10100SOL     OW31198   4.611   0.337   6.031
10100SOL    HW131199   4.529   0.284   6.009
10100SOL    HW231200   4.583   0.427   6.066
10101SOL     OW31201   0.073   3.839   2.571
10101SOL    HW131202   0.031   3.840   2.661
10101SOL    HW231203   0.141   3.912   2.565
10102SOL     OW31204   4.421   0.700   4.301
10102SOL    HW131205   4.376   0.788   4.285
10102SOL    HW231206   4.397   0.668   4.393
10103SOL     OW31207   0.034   2.773   0.750
10103SOL    HW131208   7.023   2.744   0.839
10103SOL    HW231209   0.128   2.805   0.760
10104SOL     OW31210   2.105   5.435   5.807
10104SOL    HW131211   2.169   5.435   5.730
10104SOL    HW231212   2.140   5.374   5.879
10105SOL     OW31213   3.619   0.354   6.974
10105SOL    HW131214   3.706   0.404   6.972
10105SOL    HW231215   3.633   0.264   7.015
10106SOL     OW31216   4.690   5.515   0.635
10106SOL    HW131217   4.646   5.570   0.706
10106SOL    HW231218   4.753   5.450   0.677
10107SOL     OW31219   5.803   2.011   6.187
10107SOL    HW131220   5.758   2.042   6.104
10107SOL    HW231221   5.888   2.062   6.200
10108SOL     OW31222   5.058   5.802   6.279
10108SOL    HW131223   5.158   5.809   6.278
10108SOL    HW231224   5.029   5.742   6.354
10109SOL     OW31225   5.117   6.118   4.173
10109SOL    HW131226   5.151   6.205   4.139
10109SOL    HW231227   5.094   6.059   4.096
10110SOL     OW31228   3.686   2.519   6.118
10110SOL    HW131229   3.724   2.601   6.160
10110SOL    HW231230   3.686   2.444   6.185
10111SOL     OW31231   0.024   2.569   1.663
10111SOL    HW131232   6.982   2.634   1.699
10111SOL    HW231233   0.079   2.615   1.593
10112SOL     OW31234   4.908   4.090   5.533
10112SOL    HW131235   4.942   3.998   5.516
10112SOL    HW231236   4.838   4.088   5.604
10113SOL     OW31237   3.210   0.096   0.922
10113SOL    HW131238   3.157   0.150   0.986
10113SOL    HW231239   3.180   0.001   0.926
10114SOL     OW31240   4.588   1.845   1.945
10114SOL    HW131241   4.672   1.892   1.915
10114SOL    HW231242   4.557   1.884   2.031
10115SOL     OW31243   1.231   1.543   4.700
10115SOL    HW131244   1.210   1.623   4.644
10115SOL    HW231245   1.324   1.553   4.738
10116SOL     OW31246   0.321   0.695   0.853
10116SOL    HW131247   0.245   0.755   0.826
10116SOL    HW231248   0.300   0.601   0.825
10117SOL     OW31249   4.103   6.851   6.118
10117SOL    HW131250   4.062   6.764   6.090
10117SOL    HW231251   4.041   6.926   6.095
10118SOL     OW31252   5.038   5.292   2.831
10118SOL    HW131253   5.099   5.235   2.885
10118SOL    HW231254   5.086   5.375   2.802
10119SOL     OW31255   2.078   0.438   6.051
10119SOL    HW131256   2.166   0.422   6.006
10119SOL    HW231257   2.072   0.384   6.135
10120SOL     OW31258   5.905   3.272   3.848
10120SOL    HW131259   5.940   3.225   3.767
10120SOL    HW231260   5.880   3.205   3.918
10121SOL     OW31261   5.993   4.523   4.114
10121SOL    HW131262   5.963   4.540   4.207
10121SOL    HW231263   5.937   4.451   4.073
10122SOL     OW31264   5.406   2.476   1.053
10122SOL    HW131265   5.425   2.557   1.108
10122SOL    HW231266   5.309   2.452   1.063
10123SOL     OW31267   0.748   6.395   0.719
10123SOL    HW131268   0.673   6.355   0.665
10123SOL    HW231269   0.719   6.402   0.814
10124SOL     OW31270   3.381   4.116   0.381
10124SOL    HW131271   3.283   4.115   0.404
10124SOL    HW231272   3.415   4.210   0.385
10125SOL     OW31273   2.552   0.749   7.013
10125SOL    HW131274   2.560   0.819   6.941
10125SOL    HW231275   2.534   0.794   0.075
10126SOL     OW31276   5.917   4.912   6.236
10126SOL    HW131277   5.846   4.880   6.173
10126SOL    HW231278   5.947   5.004   6.209
10127SOL     OW31279   3.990   4.835   5.142
10127SOL    HW131280   4.088   4.827   5.160
10127SOL    HW231281   3.938   4.809   5.223
10128SOL     OW31282   1.325   1.361   0.856
10128SOL    HW131283   1.400   1.418   0.887
10128SOL    HW231284   1.245   1.376   0.914
10129SOL     OW31285   5.332   2.816   3.007
10129SOL    HW131286   5.387   2.869   2.943
10129SOL    HW231287   5.347   2.718   2.991
10130SOL     OW31288   6.185   5.576   1.167
10130SOL    HW131289   6.090   5.551   1.148
10130SOL    HW231290   6.199   5.672   1.144
10131SOL     OW31291   0.416   0.443   0.349
10131SOL    HW131292   0.424   0.379   0.273
10131SOL    HW231293   0.333   0.498   0.338
10132SOL     OW31294   2.599   6.477   2.645
10132SOL    HW131295   2.629   6.573   2.640
10132SOL    HW231296   2.594   6.439   2.553
10133SOL     OW31297   6.046   4.406   2.552
10133SOL    HW131298   5.995   4.484   2.588
10133SOL    HW231299   6.109   4.373   2.622
10134SOL     OW31300   0.836   1.662   1.584
10134SOL    HW131301   0.813   1.633   1.491
10134SOL    HW231302   0.889   1.589   1.629
10135SOL     OW31303   3.147   6.323   2.183
10135SOL    HW131304   3.228   6.380   2.196
10135SOL    HW231305   3.110   6.297   2.272
10136SOL     OW31306   6.275   6.703   2.540
10136SOL    HW131307   6.227   6.716   2.453
10136SOL    HW231308   6.315   6.790   2.570
10137SOL     OW31309   5.782   4.331   4.036
10137SOL    HW131310   5.752   4.366   3.947
10137SOL    HW231311   5.727   4.371   4.108
10138SOL     OW31312   5.541   3.176   6.272
10138SOL    HW131313   5.623   3.160   6.327
10138SOL    HW231314   5.474   3.104   6.289
10139SOL     OW31315   3.926   3.153   2.904
10139SOL    HW131316   3.916   3.136   3.002
10139SOL    HW231317   3.848   3.114   2.855
10140SOL     OW31318   0.868   4.825   4.220
10140SOL    HW131319   0.892   4.778   4.135
10140SOL    HW231320   0.926   4.793   4.294
10141SOL     OW31321   1.722   0.355   3.542
10141SOL    HW131322   1.669   0.424   3.493
10141SOL    HW231323   1.806   0.335   3.491
10142SOL     OW31324   5.401   5.477   4.174
10142SOL    HW131325   5.415   5.576   4.170
10142SOL    HW231326   5.413   5.439   4.082
10143SOL     OW31327   4.271   6.378   1.215
10143SOL    HW131328   4.247   6.342   1.125
10143SOL    HW231329   4.225   6.325   1.286
10144SOL     OW31330   3.276   5.169   2.583
10144SOL    HW131331   3.189   5.190   2.538
10144SOL    HW231332   3.315   5.252   2.622
10145SOL     OW31333   2.326   0.347   5.983
10145SOL    HW131334   2.330   0.248   5.969
10145SOL    HW231335   2.381   0.392   5.913
10146SOL     OW31336   4.467   4.614   3.770
10146SOL    HW131337   4.495   4.710   3.773
10146SOL    HW231338   4.463   4.584   3.675
10147SOL     OW31339   5.362   5.437   4.674
10147SOL    HW131340   5.269   5.408   4.649
10147SOL    HW231341   5.361   5.535   4.693
10148SOL     OW31342   5.986   5.829   1.061
10148SOL    HW131343   6.055   5.821   0.990
10148SOL    HW231344   5.902   5.867   1.023
10149SOL     OW31345   3.646   2.734   1.394
10149SOL    HW131346   3.625   2.799   1.321
10149SOL    HW231347   3.741   2.704   1.387
10150SOL     OW31348   5.272   4.411   1.028
10150SOL    HW131349   5.280   4.422   1.127
10150SOL    HW231350   5.340   4.345   0.996
10151SOL     OW31351   0.260   4.951   6.106
10151SOL    HW131352   0.260   4.871   6.046
10151SOL    HW231353   0.327   4.939   6.178
10152SOL     OW31354   0.184   5.786   4.262
10152SOL    HW131355   0.190   5.714   4.331
10152SOL    HW231356   0.229   5.755   4.178
10153SOL     OW31357   5.660   5.594   3.872
10153SOL    HW131358   5.719   5.556   3.943
10153SOL    HW231359   5.626   5.519   3.814
10154SOL     OW31360   6.542   5.673   5.370
10154SOL    HW131361   6.514   5.731   5.446
10154SOL    HW231362   6.465   5.615   5.343
10155SOL     OW31363   4.048   1.655   5.802
10155SOL    HW131364   4.045   1.618   5.709
10155SOL    HW231365   3.983   1.730   5.810
10156SOL     OW31366   5.776   0.025   2.214
10156SOL    HW131367   5.740   6.958   2.209
10156SOL    HW231368   5.803   0.056   2.122
10157SOL     OW31369   4.811   0.423   3.210
10157SOL    HW131370   4.856   0.347   3.257
10157SOL    HW231371   4.776   0.392   3.122
10158SOL     OW31372   4.956   3.184   5.891
10158SOL    HW131373   4.928   3.106   5.945
10158SOL    HW231374   4.927   3.172   5.796
10159SOL     OW31375   1.227   0.621   6.688
10159SOL    HW131376   1.202   0.527   6.663
10159SOL    HW231377   1.276   0.663   6.612
10160SOL     OW31378   0.249   6.985   3.637
10160SOL    HW131379   0.183   6.915   3.666
10160SOL    HW231380   0.317   6.999   3.708
10161SOL     OW31381   2.834   5.495   4.993
10161SOL    HW131382   2.850   5.456   4.903
10161SOL    HW231383   2.864   5.431   5.063
10162SOL     OW31384   2.722   2.440   5.748
10162SOL    HW131385   2.669   2.485   5.677
10162SOL    HW231386   2.811   2.413   5.711
10163SOL     OW31387   0.615   3.714   5.019
10163SOL    HW131388   0.701   3.738   4.974
10163SOL    HW231389   0.620   3.736   5.116
10164SOL     OW31390   1.657   2.759   6.414
10164SOL    HW131391   1.712   2.842   6.423
10164SOL    HW231392   1.587   2.773   6.344
10165SOL     OW31393   0.251   1.897   3.722
10165SOL    HW131394   0.289   1.988   3.739
10165SOL    HW231395   0.282   1.863   3.633
10166SOL     OW31396   0.619   1.120   2.199
10166SOL    HW131397   0.708   1.163   2.189
10166SOL    HW231398   0.593   1.119   2.296
10167SOL     OW31399   4.875   0.419   0.383
10167SOL    HW131400   4.919   0.467   0.458
10167SOL    HW231401   4.903   0.460   0.296
10168SOL     OW31402   6.709   4.446   5.659
10168SOL    HW131403   6.676   4.403   5.575
10168SOL    HW231404   6.696   4.383   5.736
10169SOL     OW31405   6.674   4.307   5.011
10169SOL    HW131406   6.743   4.242   4.979
10169SOL    HW231407   6.589   4.259   5.030
10170SOL     OW31408   1.616   4.401   5.011
10170SOL    HW131409   1.632   4.497   5.032
10170SOL    HW231410   1.560   4.393   4.928
10171SOL     OW31411   6.410   2.797   6.073
10171SOL    HW131412   6.310   2.787   6.076
10171SOL    HW231413   6.445   2.753   5.990
10172SOL     OW31414   5.062   0.359   4.943
10172SOL    HW131415   5.016   0.291   4.886
10172SOL    HW231416   5.089   0.317   5.030
10173SOL     OW31417   2.061   2.425   2.748
10173SOL    HW131418   2.006   2.355   2.703
10173SOL    HW231419   2.135   2.453   2.687
10174SOL     OW31420   6.579   4.983   1.161
10174SOL    HW131421   6.595   5.000   1.258
10174SOL    HW231422   6.653   4.926   1.125
10175SOL     OW31423   5.632   2.452   5.530
10175SOL    HW131424   5.622   2.354   5.512
10175SOL    HW231425   5.647   2.501   5.444
10176SOL     OW31426   3.121   3.119   0.503
10176SOL    HW131427   3.066   3.036   0.521
10176SOL    HW231428   3.192   3.098   0.436
10177SOL     OW31429   0.877   6.952   5.507
10177SOL    HW131430   0.900   0.024   5.506
10177SOL    HW231431   0.885   6.917   5.601
10178SOL     OW31432   5.217   3.113   5.068
10178SOL    HW131433   5.221   3.013   5.072
10178SOL    HW231434   5.297   3.147   5.018
10179SOL     OW31435   6.846   3.319   0.533
10179SOL    HW131436   6.832   3.320   0.632
10179SOL    HW231437   6.765   3.281   0.488
10180SOL     OW31438   1.723   6.658   6.437
10180SOL    HW131439   1.804   6.677   6.493
10180SOL    HW231440   1.662   6.738   6.438
10181SOL     OW31441   5.722   3.142   2.225
10181SOL    HW131442   5.652   3.146   2.297
10181SOL    HW231443   5.701   3.069   2.161
10182SOL     OW31444   3.925   1.221   1.202
10182SOL    HW131445   3.886   1.286   1.267
10182SOL    HW231446   4.002   1.263   1.155
10183SOL     OW31447   1.902   1.452   6.342
10183SOL    HW131448   1.856   1.432   6.256
10183SOL    HW231449   1.892   1.549   6.364
10184SOL     OW31450   4.698   0.177   0.019
10184SOL    HW131451   4.668   0.196   0.113
10184SOL    HW231452   4.797   0.166   0.017
10185SOL     OW31453   4.201   1.016   0.426
10185SOL    HW131454   4.126   1.009   0.360
10185SOL    HW231455   4.280   0.966   0.391
10186SOL     OW31456   4.830   2.209   2.852
10186SOL    HW131457   4.883   2.238   2.932
10186SOL    HW231458   4.852   2.114   2.830
10187SOL     OW31459   0.082   2.247   2.217
10187SOL    HW131460   0.034   2.161   2.198
10187SOL    HW231461   0.144   2.268   2.141
10188SOL     OW31462   3.996   5.827   0.521
10188SOL    HW131463   3.902   5.851   0.495
10188SOL    HW231464   4.058   5.850   0.446
10189SOL     OW31465   0.768   6.717   4.243
10189SOL    HW131466   0.861   6.726   4.207
10189SOL    HW231467   0.718   6.803   4.227
10190SOL     OW31468   6.001   2.997   0.288
10190SOL    HW131469   6.047   3.062   0.227
10190SOL    HW231470   5.922   2.958   0.242
10191SOL     OW31471   6.601   4.580   0.214
10191SOL    HW131472   6.532   4.632   0.166
10191SOL    HW231473   6.619   4.495   0.164
10192SOL     OW31474   3.640   1.911   0.207
10192SOL    HW131475   3.726   1.961   0.209
10192SOL    HW231476   3.623   1.876   0.115
10193SOL     OW31477   5.066   4.512   0.885
10193SOL    HW131478   5.082   4.602   0.842
10193SOL    HW231479   5.150   4.481   0.928
10194SOL     OW31480   4.832   2.429   4.932
10194SOL    HW131481   4.765   2.359   4.958
10194SOL    HW231482   4.788   2.495   4.870
10195SOL     OW31483   5.349   5.394   2.644
10195SOL    HW131484   5.443   5.360   2.649
10195SOL    HW231485   5.287   5.318   2.626
10196SOL     OW31486   0.822   1.156   4.401
10196SOL    HW131487   0.829   1.229   4.469
10196SOL    HW231488   0.912   1.140   4.360
10197SOL     OW31489   4.863   0.599   6.728
10197SOL    HW131490   4.821   0.686   6.754
10197SOL    HW231491   4.921   0.613   6.648
10198SOL     OW31492   4.622   6.900   2.032
10198SOL    HW131493   4.623   6.916   2.131
10198SOL    HW231494   4.572   6.973   1.987
10199SOL     OW31495   0.433   1.998   5.593
10199SOL    HW131496   0.441   1.905   5.558
10199SOL    HW231497   0.368   2.050   5.538
10200SOL     OW31498   5.412   2.501   2.671
10200SOL    HW131499   5.364   2.505   2.759
10200SOL    HW231500   5.355   2.453   2.604
10201SOL     OW31501   1.712   3.197   0.943
10201SOL    HW131502   1.686   3.260   1.017
10201SOL    HW231503   1.720   3.249   0.857
10202SOL     OW31504   4.692   6.912   2.974
10202SOL    HW131505   4.593   6.908   2.960
10202SOL    HW231506   4.712   6.946   3.065
10203SOL     OW31507   0.749   3.529   5.294
10203SOL    HW131508   0.651   3.514   5.309
10203SOL    HW231509   0.775   3.491   5.206
10204SOL     OW31510   4.634   4.731   6.166
10204SOL    HW131511   4.537   4.751   6.156
10204SOL    HW231512   4.668   4.686   6.083
10205SOL     OW31513   6.895   1.637   6.700
10205SOL    HW131514   6.913   1.730   6.668
10205SOL    HW231515   6.920   1.572   6.628
10206SOL     OW31516   2.579   2.092   4.510
10206SOL    HW131517   2.572   2.119   4.414
10206SOL    HW231518   2.576   1.992   4.517
10207SOL     OW31519   2.144   2.591   6.481
10207SOL    HW131520   2.199   2.618   6.402
10207SOL    HW231521   2.106   2.672   6.525
10208SOL     OW31522   6.556   0.493   5.629
10208SOL    HW131523   6.577   0.467   5.723
10208SOL    HW231524   6.641   0.514   5.580
10209SOL     OW31525   0.025   6.667   5.582
10209SOL    HW131526   0.119   6.651   5.612
10209SOL    HW231527   7.005   6.729   5.646
10210SOL     OW31528   3.747   0.820   1.967
10210SOL    HW131529   3.772   0.907   1.924
10210SOL    HW231530   3.821   0.791   2.028
10211SOL     OW31531   5.549   5.556   6.570
10211SOL    HW131532   5.488   5.523   6.498
10211SOL    HW231533   5.507   5.542   6.659
10212SOL     OW31534   0.176   0.190   0.454
10212SOL    HW131535   0.254   0.196   0.392
10212SOL    HW231536   0.208   0.168   0.546
10213SOL     OW31537   6.737   3.334   1.555
10213SOL    HW131538   6.712   3.349   1.650
10213SOL    HW231539   6.713   3.415   1.501
10214SOL     OW31540   1.174   2.434   1.154
10214SOL    HW131541   1.235   2.500   1.198
10214SOL    HW231542   1.222   2.347   1.143
10215SOL     OW31543   3.850   3.994   2.204
10215SOL    HW131544   3.797   4.042   2.274
10215SOL    HW231545   3.826   4.030   2.114
10216SOL     OW31546   0.466   6.417   2.077
10216SOL    HW131547   0.408   6.336   2.062
10216SOL    HW231548   0.420   6.498   2.039
10217SOL     OW31549   3.500   1.767   5.186
10217SOL    HW131550   3.576   1.710   5.218
10217SOL    HW231551   3.515   1.861   5.216
10218SOL     OW31552   0.741   2.767   2.942
10218SOL    HW131553   0.694   2.729   2.862
10218SOL    HW231554   0.839   2.753   2.932
10219SOL     OW31555   0.097   5.988   2.784
10219SOL    HW131556   0.186   5.979   2.829
10219SOL    HW231557   0.024   5.976   2.851
10220SOL     OW31558   3.880   3.155   6.856
10220SOL    HW131559   3.871   3.102   6.940
10220SOL    HW231560   3.789   3.171   6.817
10221SOL     OW31561   1.257   6.096   3.088
10221SOL    HW131562   1.227   6.134   3.176
10221SOL    HW231563   1.210   6.142   3.014
10222SOL     OW31564   2.933   3.306   3.485
10222SOL    HW131565   2.913   3.398   3.454
10222SOL    HW231566   2.970   3.309   3.578
10223SOL     OW31567   3.335   6.788   0.547
10223SOL    HW131568   3.397   6.715   0.574
10223SOL    HW231569   3.245   6.750   0.527
10224SOL     OW31570   6.885   3.537   3.970
10224SOL    HW131571   6.952   3.491   3.911
10224SOL    HW231572   6.932   3.600   4.031
10225SOL     OW31573   1.998   3.806   5.690
10225SOL    HW131574   1.945   3.890   5.676
10225SOL    HW231575   1.942   3.727   5.665
10226SOL     OW31576   3.822   4.833   6.430
10226SOL    HW131577   3.732   4.869   6.405
10226SOL    HW231578   3.853   4.770   6.359
10227SOL     OW31579   5.316   4.030   0.861
10227SOL    HW131580   5.381   3.989   0.796
10227SOL    HW231581   5.364   4.051   0.946
10228SOL     OW31582   5.352   0.134   6.828
10228SOL    HW131583   5.310   0.185   6.903
10228SOL    HW231584   5.299   0.052   6.810
10229SOL     OW31585   0.581   2.048   5.320
10229SOL    HW131586   0.631   2.121   5.273
10229SOL    HW231587   0.600   2.052   5.418
10230SOL     OW31588   5.753   5.775   1.518
10230SOL    HW131589   5.705   5.863   1.517
10230SOL    HW231590   5.793   5.759   1.427
10231SOL     OW31591   0.387   3.983   2.009
10231SOL    HW131592   0.296   4.002   2.046
10231SOL    HW231593   0.378   3.926   1.927
10232SOL     OW31594   4.622   4.950   2.203
10232SOL    HW131595   4.603   5.027   2.264
10232SOL    HW231596   4.648   4.985   2.113
10233SOL     OW31597   3.652   3.600   6.121
10233SOL    HW131598   3.662   3.657   6.040
10233SOL    HW231599   3.614   3.511   6.096
10234SOL     OW31600   1.026   0.850   2.134
10234SOL    HW131601   1.008   0.914   2.059
10234SOL    HW231602   0.947   0.847   2.195
10235SOL     OW31603   0.970   0.208   2.837
10235SOL    HW131604   1.052   0.168   2.795
10235SOL    HW231605   0.985   0.219   2.935
10236SOL     OW31606   1.222   0.469   2.892
10236SOL    HW131607   1.282   0.548   2.890
10236SOL    HW231608   1.226   0.427   2.983
10237SOL     OW31609   6.934   4.109   5.766
10237SOL    HW131610   6.912   4.062   5.680
10237SOL    HW231611   7.011   4.063   5.810
10238SOL     OW31612   2.763   0.173   0.659
10238SOL    HW131613   2.704   0.190   0.737
10238SOL    HW231614   2.853   0.141   0.690
10239SOL     OW31615   1.095   2.571   5.058
10239SOL    HW131616   1.140   2.585   4.969
10239SOL    HW231617   1.109   2.651   5.116
10240SOL     OW31618   1.445   6.492   1.462
10240SOL    HW131619   1.362   6.456   1.419
10240SOL    HW231620   1.512   6.418   1.471
10241SOL     OW31621   4.409   3.788   1.721
10241SOL    HW131622   4.326   3.733   1.730
10241SOL    HW231623   4.385   3.882   1.698
10242SOL     OW31624   0.800   3.509   1.502
10242SOL    HW131625   0.869   3.575   1.472
10242SOL    HW231626   0.715   3.524   1.452
10243SOL     OW31627   3.708   5.447   2.204
10243SOL    HW131628   3.625   5.412   2.161
10243SOL    HW231629   3.736   5.532   2.160
10244SOL     OW31630   1.862   5.916   1.475
10244SOL    HW131631   1.783   5.857   1.487
10244SOL    HW231632   1.936   5.864   1.431
10245SOL     OW31633   6.174   3.932   1.136
10245SOL    HW131634   6.222   4.004   1.186
10245SOL    HW231635   6.080   3.926   1.169
10246SOL     OW31636   3.527   3.386   3.260
10246SOL    HW131637   3.487   3.318   3.322
10246SOL    HW231638   3.586   3.447   3.312
10247SOL     OW31639   0.761   3.534   4.765
10247SOL    HW131640   0.712   3.521   4.679
10247SOL    HW231641   0.754   3.630   4.793
10248SOL     OW31642   1.236   1.195   4.065
10248SOL    HW131643   1.146   1.153   4.052
10248SOL    HW231644   1.233   1.290   4.035
10249SOL     OW31645   2.623   4.681   5.998
10249SOL    HW131646   2.543   4.621   6.005
10249SOL    HW231647   2.645   4.696   5.901
10250SOL     OW31648   3.060   2.901   0.280
10250SOL    HW131649   2.988   2.832   0.272
10250SOL    HW231650   3.098   2.920   0.190
10251SOL     OW31651   0.820   0.764   4.876
10251SOL    HW131652   0.720   0.762   4.885
10251SOL    HW231653   0.853   0.675   4.847
10252SOL     OW31654   5.346   3.888   6.073
10252SOL    HW131655   5.353   3.983   6.104
10252SOL    HW231656   5.422   3.835   6.111
10253SOL     OW31657   3.642   5.743   0.418
10253SOL    HW131658   3.646   5.828   0.471
10253SOL    HW231659   3.641   5.665   0.480
10254SOL     OW31660   6.588   1.803   6.248
10254SOL    HW131661   6.630   1.795   6.158
10254SOL    HW231662   6.629   1.737   6.311
10255SOL     OW31663   3.999   4.518   1.657
10255SOL    HW131664   4.009   4.551   1.563
10255SOL    HW231665   4.089   4.507   1.699
10256SOL     OW31666   2.008   0.845   4.637
10256SOL    HW131667   2.070   0.778   4.597
10256SOL    HW231668   1.915   0.827   4.605
10257SOL     OW31669   3.367   6.249   2.987
10257SOL    HW131670   3.317   6.163   2.975
10257SOL    HW231671   3.323   6.322   2.935
10258SOL     OW31672   3.542   1.565   2.507
10258SOL    HW131673   3.563   1.572   2.410
10258SOL    HW231674   3.603   1.625   2.559
10259SOL     OW31675   2.171   3.941   3.472
10259SOL    HW131676   2.078   3.930   3.509
10259SOL    HW231677   2.180   4.033   3.434
10260SOL     OW31678   0.208   0.828   3.908
10260SOL    HW131679   0.125   0.847   3.959
10260SOL    HW231680   0.253   0.747   3.946
10261SOL     OW31681   6.598   3.806   1.532
10261SOL    HW131682   6.506   3.769   1.535
10261SOL    HW231683   6.660   3.745   1.581
10262SOL     OW31684   4.601   0.880   6.606
10262SOL    HW131685   4.684   0.875   6.551
10262SOL    HW231686   4.614   0.829   6.691
10263SOL     OW31687   5.662   0.401   2.648
10263SOL    HW131688   5.752   0.444   2.656
10263SOL    HW231689   5.641   0.383   2.552
10264SOL     OW31690   6.941   1.149   5.847
10264SOL    HW131691   6.991   1.183   5.767
10264SOL    HW231692   6.998   1.081   5.894
10265SOL     OW31693   1.767   0.892   2.750
10265SOL    HW131694   1.853   0.894   2.698
10265SOL    HW231695   1.728   0.800   2.747
10266SOL     OW31696   2.763   3.772   1.633
10266SOL    HW131697   2.809   3.749   1.547
10266SOL    HW231698   2.768   3.871   1.647
10267SOL     OW31699   6.234   1.015   0.566
10267SOL    HW131700   6.240   1.092   0.629
10267SOL    HW231701   6.233   0.929   0.618
10268SOL     OW31702   3.655   5.852   2.647
10268SOL    HW131703   3.688   5.904   2.568
10268SOL    HW231704   3.616   5.765   2.616
10269SOL     OW31705   2.570   1.734   6.943
10269SOL    HW131706   2.508   1.677   6.998
10269SOL    HW231707   2.630   1.675   6.889
10270SOL     OW31708   2.701   0.567   3.600
10270SOL    HW131709   2.613   0.612   3.612
10270SOL    HW231710   2.694   0.499   3.527
10271SOL     OW31711   2.065   1.207   0.059
10271SOL    HW131712   2.098   1.210   0.153
10271SOL    HW231713   2.004   1.284   0.042
10272SOL     OW31714   6.085   6.668   5.258
10272SOL    HW131715   6.054   6.647   5.166
10272SOL    HW231716   6.006   6.672   5.320
10273SOL     OW31717   2.283   5.638   2.645
10273SOL    HW131718   2.250   5.563   2.588
10273SOL    HW231719   2.338   5.701   2.590
10274SOL     OW31720   0.808   4.176   5.491
10274SOL    HW131721   0.866   4.094   5.490
10274SOL    HW231722   0.809   4.219   5.401
10275SOL     OW31723   0.294   1.207   1.696
10275SOL    HW131724   0.261   1.155   1.775
10275SOL    HW231725   0.226   1.274   1.669
10276SOL     OW31726   3.457   4.719   5.299
10276SOL    HW131727   3.377   4.669   5.332
10276SOL    HW231728   3.540   4.674   5.333
10277SOL     OW31729   0.510   5.403   3.459
10277SOL    HW131730   0.480   5.310   3.480
10277SOL    HW231731   0.595   5.423   3.507
10278SOL     OW31732   5.894   0.252   4.013
10278SOL    HW131733   5.935   0.163   4.032
10278SOL    HW231734   5.812   0.264   4.068
10279SOL     OW31735   0.938   4.684   3.986
10279SOL    HW131736   1.018   4.744   3.978
10279SOL    HW231737   0.966   4.589   3.971
10280SOL     OW31738   6.298   6.068   0.658
10280SOL    HW131739   6.384   6.023   0.683
10280SOL    HW231740   6.305   6.106   0.566
10281SOL     OW31741   5.947   0.005   4.708
10281SOL    HW131742   5.989   0.054   4.631
10281SOL    HW231743   5.854   0.039   4.722
10282SOL     OW31744   5.287   2.576   3.217
10282SOL    HW131745   5.371   2.603   3.263
10282SOL    HW231746   5.213   2.639   3.243
10283SOL     OW31747   0.084   2.159   0.971
10283SOL    HW131748   0.112   2.184   0.879
10283SOL    HW231749   0.164   2.132   1.024
10284SOL     OW31750   1.154   5.245   5.192
10284SOL    HW131751   1.238   5.191   5.193
10284SOL    HW231752   1.080   5.192   5.234
10285SOL     OW31753   0.188   6.794   6.224
10285SOL    HW131754   0.112   6.838   6.176
10285SOL    HW231755   0.156   6.707   6.262
10286SOL     OW31756   3.239   1.040   1.587
10286SOL    HW131757   3.212   0.945   1.573
10286SOL    HW231758   3.268   1.053   1.681
10287SOL     OW31759   0.376   5.916   2.847
10287SOL    HW131760   0.342   5.881   2.934
10287SOL    HW231761   0.447   5.855   2.812
10288SOL     OW31762   3.972   6.073   4.470
10288SOL    HW131763   3.953   5.993   4.528
10288SOL    HW231764   4.068   6.099   4.479
10289SOL     OW31765   3.741   6.303   6.656
10289SOL    HW131766   3.708   6.354   6.577
10289SOL    HW231767   3.718   6.352   6.740
10290SOL     OW31768   3.673   3.238   2.541
10290SOL    HW131769   3.738   3.292   2.595
10290SOL    HW231770   3.598   3.296   2.511
10291SOL     OW31771   3.479   2.061   2.181
10291SOL    HW131772   3.452   1.992   2.113
10291SOL    HW231773   3.548   2.122   2.142
10292SOL     OW31774   0.329   0.601   5.850
10292SOL    HW131775   0.409   0.607   5.910
10292SOL    HW231776   0.355   0.557   5.764
10293SOL     OW31777   1.880   3.190   5.691
10293SOL    HW131778   1.937   3.229   5.763
10293SOL    HW231779   1.792   3.238   5.689
10294SOL     OW31780   0.908   0.166   1.961
10294SOL    HW131781   0.885   0.157   2.058
10294SOL    HW231782   1.002   0.197   1.952
10295SOL     OW31783   2.221   1.208   0.589
10295SOL    HW131784   2.209   1.160   0.676
10295SOL    HW231785   2.311   1.251   0.588
10296SOL     OW31786   6.959   3.211   5.012
10296SOL    HW131787   0.027   3.186   5.038
10296SOL    HW231788   6.961   3.295   4.956
10297SOL     OW31789   4.291   1.374   1.049
10297SOL    HW131790   4.217   1.441   1.048
10297SOL    HW231791   4.254   1.282   1.032
10298SOL     OW31792   1.396   0.993   1.997
10298SOL    HW131793   1.399   0.947   2.086
10298SOL    HW231794   1.381   0.925   1.925
10299SOL     OW31795   5.543   6.900   2.572
10299SOL    HW131796   5.482   6.832   2.530
10299SOL    HW231797   5.618   6.853   2.617
10300SOL     OW31798   1.136   3.432   0.691
10300SOL    HW131799   1.169   3.526   0.695
10300SOL    HW231800   1.213   3.370   0.673
10301SOL     OW31801   4.537   1.361   6.986
10301SOL    HW131802   4.607   1.413   0.009
10301SOL    HW231803   4.530   1.269   0.001
10302SOL     OW31804   2.936   5.867   5.392
10302SOL    HW131805   2.885   5.895   5.474
10302SOL    HW231806   3.019   5.818   5.420
10303SOL     OW31807   0.577   4.566   5.698
10303SOL    HW131808   0.524   4.491   5.738
10303SOL    HW231809   0.675   4.547   5.709
10304SOL     OW31810   4.746   5.106   0.559
10304SOL    HW131811   4.838   5.124   0.525
10304SOL    HW231812   4.751   5.075   0.654
10305SOL     OW31813   2.885   3.422   5.040
10305SOL    HW131814   2.921   3.348   4.982
10305SOL    HW231815   2.937   3.425   5.126
10306SOL     OW31816   3.641   1.210   1.649
10306SOL    HW131817   3.628   1.230   1.551
10306SOL    HW231818   3.625   1.293   1.702
10307SOL     OW31819   1.894   6.161   4.740
10307SOL    HW131820   1.952   6.080   4.733
10307SOL    HW231821   1.923   6.229   4.673
10308SOL     OW31822   2.558   4.712   1.984
10308SOL    HW131823   2.658   4.718   1.973
10308SOL    HW231824   2.536   4.635   2.044
10309SOL     OW31825   0.223   0.878   4.559
10309SOL    HW131826   0.226   0.933   4.476
10309SOL    HW231827   0.317   0.857   4.589
10310SOL     OW31828   2.760   4.118   6.355
10310SOL    HW131829   2.784   4.085   6.446
10310SOL    HW231830   2.842   4.126   6.300
10311SOL     OW31831   5.085   6.216   7.016
10311SOL    HW131832   5.053   6.181   0.078
10311SOL    HW231833   5.183   6.234   7.021
10312SOL     OW31834   2.490   6.906   1.700
10312SOL    HW131835   2.556   6.840   1.737
10312SOL    HW231836   2.537   6.972   1.642
10313SOL     OW31837   4.885   6.366   3.167
10313SOL    HW131838   4.844   6.451   3.200
10313SOL    HW231839   4.926   6.381   3.077
10314SOL     OW31840   0.615   6.837   0.642
10314SOL    HW131841   0.532   6.795   0.680
10314SOL    HW231842   0.647   6.783   0.564
10315SOL     OW31843   5.094   4.965   3.948
10315SOL    HW131844   5.101   4.975   4.047
10315SOL    HW231845   5.008   5.007   3.916
10316SOL     OW31846   1.192   1.971   0.270
10316SOL    HW131847   1.207   2.052   0.326
10316SOL    HW231848   1.279   1.939   0.233
10317SOL     OW31849   4.256   6.162   4.493
10317SOL    HW131850   4.284   6.124   4.405
10317SOL    HW231851   4.324   6.138   4.562
10318SOL     OW31852   5.992   0.039   6.956
10318SOL    HW131853   6.066   0.102   6.979
10318SOL    HW231854   5.986   0.030   6.856
10319SOL     OW31855   1.375   4.418   4.507
10319SOL    HW131856   1.284   4.377   4.501
10319SOL    HW231857   1.366   4.516   4.527
10320SOL     OW31858   6.800   6.739   3.110
10320SOL    HW131859   6.844   6.828   3.098
10320SOL    HW231860   6.705   6.745   3.078
10321SOL     OW31861   5.966   2.407   3.519
10321SOL    HW131862   6.022   2.487   3.540
10321SOL    HW231863   5.909   2.426   3.439
10322SOL     OW31864   4.535   4.453   4.796
10322SOL    HW131865   4.469   4.430   4.867
10322SOL    HW231866   4.513   4.543   4.759
10323SOL     OW31867   0.910   4.643   6.070
10323SOL    HW131868   0.864   4.562   6.034
10323SOL    HW231869   0.842   4.709   6.102
10324SOL     OW31870   3.251   3.374   2.624
10324SOL    HW131871   3.170   3.321   2.651
10324SOL    HW231872   3.245   3.466   2.662
10325SOL     OW31873   6.080   6.032   5.209
10325SOL    HW131874   6.066   6.097   5.134
10325SOL    HW231875   6.038   5.945   5.186
10326SOL     OW31876   5.081   3.959   6.698
10326SOL    HW131877   5.049   3.976   6.605
10326SOL    HW231878   5.180   3.973   6.703
10327SOL     OW31879   1.700   5.697   6.991
10327SOL    HW131880   1.646   5.659   0.041
10327SOL    HW231881   1.795   5.670   7.002
10328SOL     OW31882   6.466   2.023   3.222
10328SOL    HW131883   6.512   1.980   3.300
10328SOL    HW231884   6.369   1.999   3.223
10329SOL     OW31885   3.510   2.001   1.897
10329SOL    HW131886   3.563   2.077   1.934
10329SOL    HW231887   3.421   2.033   1.866
10330SOL     OW31888   5.037   6.395   1.915
10330SOL    HW131889   4.999   6.390   1.823
10330SOL    HW231890   5.111   6.328   1.924
10331SOL     OW31891   4.998   5.713   5.447
10331SOL    HW131892   5.010   5.811   5.427
10331SOL    HW231893   5.086   5.674   5.474
10332SOL     OW31894   2.364   1.292   6.540
10332SOL    HW131895   2.337   1.200   6.570
10332SOL    HW231896   2.347   1.301   6.441
10333SOL     OW31897   1.713   3.762   3.736
10333SOL    HW131898   1.728   3.742   3.833
10333SOL    HW231899   1.616   3.780   3.720
10334SOL     OW31900   3.390   1.588   4.221
10334SOL    HW131901   3.413   1.684   4.232
10334SOL    HW231902   3.473   1.535   4.203
10335SOL     OW31903   2.105   3.694   3.957
10335SOL    HW131904   2.013   3.677   3.921
10335SOL    HW231905   2.152   3.607   3.968
10336SOL     OW31906   5.909   6.462   3.091
10336SOL    HW131907   5.876   6.496   3.002
10336SOL    HW231908   6.008   6.475   3.096
10337SOL     OW31909   5.844   6.710   6.729
10337SOL    HW131910   5.782   6.786   6.710
10337SOL    HW231911   5.888   6.725   6.818
10338SOL     OW31912   0.184   5.961   1.655
10338SOL    HW131913   0.177   6.042   1.714
10338SOL    HW231914   0.124   5.971   1.576
10339SOL     OW31915   5.314   2.486   6.148
10339SOL    HW131916   5.379   2.484   6.072
10339SOL    HW231917   5.224   2.511   6.114
10340SOL     OW31918   3.278   3.523   6.416
10340SOL    HW131919   3.292   3.613   6.457
10340SOL    HW231920   3.242   3.460   6.485
10341SOL     OW31921   3.740   5.240   3.184
10341SOL    HW131922   3.788   5.240   3.096
10341SOL    HW231923   3.764   5.157   3.234
10342SOL     OW31924   0.870   1.864   3.890
10342SOL    HW131925   0.830   1.773   3.901
10342SOL    HW231926   0.888   1.905   3.980
10343SOL     OW31927   4.101   5.574   1.374
10343SOL    HW131928   4.201   5.574   1.375
10343SOL    HW231929   4.067   5.536   1.460
10344SOL     OW31930   4.976   6.657   6.758
10344SOL    HW131931   4.899   6.644   6.695
10344SOL    HW231932   4.952   6.728   6.824
10345SOL     OW31933   0.985   4.401   5.063
10345SOL    HW131934   1.053   4.328   5.052
10345SOL    HW231935   1.032   4.489   5.074
10346SOL     OW31936   0.744   5.181   0.659
10346SOL    HW131937   0.841   5.188   0.684
10346SOL    HW231938   0.721   5.251   0.592
10347SOL     OW31939   0.332   1.932   5.228
10347SOL    HW131940   0.337   1.835   5.254
10347SOL    HW231941   0.381   1.987   5.295
10348SOL     OW31942   0.233   5.153   1.079
10348SOL    HW131943   0.272   5.218   1.015
10348SOL    HW231944   0.272   5.166   1.170
10349SOL     OW31945   6.648   0.201   6.585
10349SOL    HW131946   6.715   0.241   6.522
10349SOL    HW231947   6.617   0.113   6.549
10350SOL     OW31948   4.138   0.334   6.595
10350SOL    HW131949   4.052   0.326   6.645
10350SOL    HW231950   4.122   0.378   6.506
10351SOL     OW31951   4.650   5.787   6.145
10351SOL    HW131952   4.568   5.750   6.188
10351SOL    HW231953   4.692   5.855   6.205
10352SOL     OW31954   4.496   5.143   6.086
10352SOL    HW131955   4.543   5.131   6.173
10352SOL    HW231956   4.402   5.108   6.093
10353SOL     OW31957   0.360   3.741   4.537
10353SOL    HW131958   0.404   3.829   4.518
10353SOL    HW231959   0.375   3.717   4.633
10354SOL     OW31960   5.319   1.184   0.946
10354SOL    HW131961   5.247   1.143   0.891
10354SOL    HW231962   5.401   1.126   0.942
10355SOL     OW31963   0.952   4.755   3.097
10355SOL    HW131964   0.924   4.671   3.143
10355SOL    HW231965   0.877   4.821   3.099
10356SOL     OW31966   0.527   3.425   4.994
10356SOL    HW131967   0.599   3.492   4.978
10356SOL    HW231968   0.517   3.366   4.913
10357SOL     OW31969   3.280   3.114   6.103
10357SOL    HW131970   3.347   3.085   6.171
10357SOL    HW231971   3.256   3.209   6.119
10358SOL     OW31972   0.852   0.578   2.214
10358SOL    HW131973   0.794   0.655   2.187
10358SOL    HW231974   0.799   0.514   2.269
10359SOL     OW31975   1.420   1.622   0.642
10359SOL    HW131976   1.422   1.539   0.586
10359SOL    HW231977   1.339   1.676   0.618
10360SOL     OW31978   0.553   4.359   4.263
10360SOL    HW131979   0.598   4.449   4.262
10360SOL    HW231980   0.609   4.293   4.213
10361SOL     OW31981   2.885   5.714   0.392
10361SOL    HW131982   2.930   5.658   0.462
10361SOL    HW231983   2.952   5.776   0.352
10362SOL     OW31984   0.854   4.765   5.557
10362SOL    HW131985   0.825   4.714   5.475
10362SOL    HW231986   0.949   4.796   5.544
10363SOL     OW31987   5.235   0.480   4.744
10363SOL    HW131988   5.209   0.575   4.764
10363SOL    HW231989   5.184   0.419   4.805
10364SOL     OW31990   1.163   3.769   0.872
10364SOL    HW131991   1.086   3.823   0.906
10364SOL    HW231992   1.159   3.765   0.772
10365SOL     OW31993   5.711   4.996   6.873
10365SOL    HW131994   5.645   5.069   6.858
10365SOL    HW231995   5.754   5.009   6.963
10366SOL     OW31996   4.673   6.773   3.474
10366SOL    HW131997   4.620   6.789   3.558
10366SOL    HW231998   4.763   6.814   3.484
10367SOL     OW31999   6.337   1.356   3.312
10367SOL    HW132000   6.373   1.447   3.291
10367SOL    HW232001   6.328   1.346   3.411
10368SOL     OW32002   2.395   0.068   1.249
10368SOL    HW132003   2.395   0.070   1.149
10368SOL    HW232004   2.328   0.001   1.280
10369SOL     OW32005   5.103   2.840   6.555
10369SOL    HW132006   5.123   2.775   6.481
10369SOL    HW232007   5.114   2.933   6.522
10370SOL     OW32008   2.422   0.407   4.668
10370SOL    HW132009   2.359   0.330   4.677
10370SOL    HW232010   2.377   0.492   4.695
10371SOL     OW32011   4.973   6.593   5.666
10371SOL    HW132012   4.907   6.636   5.605
10371SOL    HW232013   4.944   6.607   5.761
10372SOL     OW32014   0.210   1.215   3.992
10372SOL    HW132015   0.272   1.180   3.922
10372SOL    HW232016   0.125   1.163   3.991
10373SOL     OW32017   1.433   6.484   5.234
10373SOL    HW132018   1.511   6.432   5.199
10373SOL    HW232019   1.458   6.580   5.241
10374SOL     OW32020   3.604   1.359   3.314
10374SOL    HW132021   3.509   1.326   3.321
10374SOL    HW232022   3.645   1.363   3.405
10375SOL     OW32023   6.684   2.408   1.099
10375SOL    HW132024   6.713   2.359   1.016
10375SOL    HW232025   6.760   2.412   1.164
10376SOL     OW32026   5.865   0.264   3.759
10376SOL    HW132027   5.874   0.259   3.858
10376SOL    HW232028   5.776   0.229   3.731
10377SOL     OW32029   6.598   6.600   3.523
10377SOL    HW132030   6.683   6.556   3.493
10377SOL    HW232031   6.618   6.667   3.594
10378SOL     OW32032   6.472   6.846   5.879
10378SOL    HW132033   6.376   6.824   5.895
10378SOL    HW232034   6.512   6.776   5.820
10379SOL     OW32035   4.576   1.185   5.044
10379SOL    HW132036   4.578   1.092   5.006
10379SOL    HW232037   4.670   1.220   5.050
10380SOL     OW32038   3.351   0.935   4.509
10380SOL    HW132039   3.440   0.945   4.552
10380SOL    HW232040   3.355   0.970   4.415
10381SOL     OW32041   3.056   5.492   5.248
10381SOL    HW132042   3.015   5.403   5.228
10381SOL    HW232043   3.105   5.488   5.334
10382SOL     OW32044   0.152   4.913   1.296
10382SOL    HW132045   0.242   4.908   1.252
10382SOL    HW232046   0.161   4.958   1.384
10383SOL     OW32047   5.496   3.392   1.249
10383SOL    HW132048   5.401   3.370   1.227
10383SOL    HW232049   5.554   3.313   1.229
10384SOL     OW32050   4.970   1.505   6.865
10384SOL    HW132051   5.063   1.508   6.828
10384SOL    HW232052   4.920   1.429   6.823
10385SOL     OW32053   6.736   3.061   6.590
10385SOL    HW132054   6.730   3.069   6.690
10385SOL    HW232055   6.741   3.152   6.550
10386SOL     OW32056   0.133   1.628   6.089
10386SOL    HW132057   0.212   1.568   6.102
10386SOL    HW232058   0.153   1.695   6.018
10387SOL     OW32059   1.385   4.015   3.059
10387SOL    HW132060   1.399   3.937   2.998
10387SOL    HW232061   1.348   3.984   3.146
10388SOL     OW32062   1.577   4.452   2.223
10388SOL    HW132063   1.605   4.548   2.221
10388SOL    HW232064   1.588   4.413   2.132
10389SOL     OW32065   1.727   5.661   3.055
10389SOL    HW132066   1.668   5.603   3.111
10389SOL    HW232067   1.676   5.691   2.974
10390SOL     OW32068   2.168   3.298   3.346
10390SOL    HW132069   2.226   3.370   3.308
10390SOL    HW232070   2.174   3.216   3.289
10391SOL     OW32071   3.406   5.562   4.183
10391SOL    HW132072   3.471   5.580   4.256
10391SOL    HW232073   3.315   5.593   4.211
10392SOL     OW32074   0.184   5.498   6.555
10392SOL    HW132075   0.245   5.563   6.599
10392SOL    HW232076   0.099   5.544   6.528
10393SOL     OW32077   1.399   1.663   4.439
10393SOL    HW132078   1.392   1.609   4.356
10393SOL    HW232079   1.453   1.613   4.507
10394SOL     OW32080   3.303   6.666   0.918
10394SOL    HW132081   3.374   6.695   0.983
10394SOL    HW232082   3.235   6.739   0.908
10395SOL     OW32083   1.174   7.000   3.366
10395SOL    HW132084   1.126   0.049   3.412
10395SOL    HW232085   1.183   6.922   3.427
10396SOL     OW32086   0.324   0.996   4.334
10396SOL    HW132087   0.422   0.982   4.347
10396SOL    HW232088   0.307   1.091   4.309
10397SOL     OW32089   4.738   2.860   2.720
10397SOL    HW132090   4.770   2.880   2.627
10397SOL    HW232091   4.812   2.877   2.785
10398SOL     OW32092   0.277   2.273   2.389
10398SOL    HW132093   0.281   2.206   2.463
10398SOL    HW232094   0.196   2.256   2.333
10399SOL     OW32095   7.019   2.795   5.937
10399SOL    HW132096   6.972   2.799   6.026
10399SOL    HW232097   0.047   2.877   5.924
10400SOL     OW32098   1.940   5.276   2.363
10400SOL    HW132099   1.841   5.288   2.368
10400SOL    HW232100   1.963   5.181   2.380
10401SOL     OW32101   1.102   5.883   1.216
10401SOL    HW132102   1.081   5.906   1.311
10401SOL    HW232103   1.196   5.850   1.209
10402SOL     OW32104   1.102   2.317   4.748
10402SOL    HW132105   1.012   2.336   4.787
10402SOL    HW232106   1.158   2.400   4.749
10403SOL     OW32107   5.378   1.324   3.462
10403SOL    HW132108   5.314   1.399   3.480
10403SOL    HW232109   5.444   1.352   3.393
10404SOL     OW32110   6.526   0.080   4.753
10404SOL    HW132111   6.549   0.131   4.670
10404SOL    HW232112   6.564   7.014   4.747
10405SOL     OW32113   3.640   0.042   6.148
10405SOL    HW132114   3.563   0.096   6.114
10405SOL    HW232115   3.608   6.974   6.167
10406SOL     OW32116   0.951   6.194   4.996
10406SOL    HW132117   1.012   6.245   5.056
10406SOL    HW232118   0.879   6.151   5.049
10407SOL     OW32119   3.512   0.677   0.212
10407SOL    HW132120   3.496   0.596   0.269
10407SOL    HW232121   3.486   0.759   0.263
10408SOL     OW32122   3.198   0.236   2.546
10408SOL    HW132123   3.241   0.158   2.499
10408SOL    HW232124   3.256   0.317   2.535
10409SOL     OW32125   0.081   4.614   2.038
10409SOL    HW132126   0.006   4.675   2.010
10409SOL    HW232127   0.099   4.547   1.966
10410SOL     OW32128   5.544   5.534   0.514
10410SOL    HW132129   5.618   5.550   0.448
10410SOL    HW232130   5.580   5.484   0.592
10411SOL     OW32131   2.213   5.082   2.229
10411SOL    HW132132   2.139   5.109   2.167
10411SOL    HW232133   2.298   5.126   2.200
10412SOL     OW32134   1.081   3.998   6.108
10412SOL    HW132135   1.075   4.067   6.036
10412SOL    HW232136   1.026   3.918   6.083
10413SOL     OW32137   6.950   1.143   5.156
10413SOL    HW132138   6.855   1.174   5.157
10413SOL    HW232139   7.007   1.212   5.110
10414SOL     OW32140   5.501   5.304   5.185
10414SOL    HW132141   5.512   5.337   5.091
10414SOL    HW232142   5.415   5.339   5.222
10415SOL     OW32143   6.979   4.553   2.954
10415SOL    HW132144   0.009   4.632   2.928
10415SOL    HW232145   6.913   4.532   2.882
10416SOL     OW32146   5.081   0.733   0.321
10416SOL    HW132147   5.069   0.821   0.274
10416SOL    HW232148   5.051   0.659   0.261
10417SOL     OW32149   5.126   4.603   4.506
10417SOL    HW132150   5.194   4.530   4.500
10417SOL    HW232151   5.071   4.604   4.422
10418SOL     OW32152   6.172   2.751   0.406
10418SOL    HW132153   6.099   2.752   0.337
10418SOL    HW232154   6.246   2.811   0.377
10419SOL     OW32155   0.944   6.873   4.686
10419SOL    HW132156   0.935   6.945   4.617
10419SOL    HW232157   0.976   6.913   4.772
10420SOL     OW32158   6.465   4.062   4.084
10420SOL    HW132159   6.548   4.093   4.039
10420SOL    HW232160   6.466   4.091   4.180
10421SOL     OW32161   0.451   3.516   4.094
10421SOL    HW132162   0.501   3.602   4.083
10421SOL    HW232163   0.355   3.530   4.068
10422SOL     OW32164   5.605   3.178   6.012
10422SOL    HW132165   5.565   3.196   6.102
10422SOL    HW232166   5.688   3.233   6.001
10423SOL     OW32167   2.720   5.867   1.568
10423SOL    HW132168   2.692   5.899   1.659
10423SOL    HW232169   2.650   5.806   1.531
10424SOL     OW32170   4.915   0.667   2.739
10424SOL    HW132171   4.939   0.583   2.690
10424SOL    HW232172   4.957   0.666   2.830
10425SOL     OW32173   0.392   4.879   0.906
10425SOL    HW132174   0.343   4.793   0.919
10425SOL    HW232175   0.352   4.950   0.964
10426SOL     OW32176   6.517   2.536   7.011
10426SOL    HW132177   6.429   2.514   6.968
10426SOL    HW232178   6.505   2.609   0.052
10427SOL     OW32179   6.239   0.757   3.303
10427SOL    HW132180   6.259   0.715   3.392
10427SOL    HW232181   6.171   0.829   3.315
10428SOL     OW32182   1.729   0.588   5.020
10428SOL    HW132183   1.722   0.538   5.106
10428SOL    HW232184   1.639   0.595   4.977
10429SOL     OW32185   2.007   5.125   2.067
10429SOL    HW132186   2.062   5.127   1.983
10429SOL    HW232187   1.990   5.219   2.097
10430SOL     OW32188   3.475   1.541   4.758
10430SOL    HW132189   3.407   1.536   4.831
10430SOL    HW232190   3.554   1.594   4.789
10431SOL     OW32191   4.638   2.038   3.921
10431SOL    HW132192   4.667   2.098   3.846
10431SOL    HW232193   4.580   2.089   3.984
10432SOL     OW32194   1.958   4.307   1.340
10432SOL    HW132195   1.880   4.363   1.366
10432SOL    HW232196   1.982   4.325   1.245
10433SOL     OW32197   3.167   6.628   3.863
10433SOL    HW132198   3.073   6.594   3.856
10433SOL    HW232199   3.186   6.652   3.958
10434SOL     OW32200   4.386   1.772   0.608
10434SOL    HW132201   4.433   1.690   0.639
10434SOL    HW232202   4.407   1.788   0.511
10435SOL     OW32203   2.417   1.216   1.400
10435SOL    HW132204   2.417   1.159   1.482
10435SOL    HW232205   2.505   1.208   1.354
10436SOL     OW32206   1.663   3.911   5.317
10436SOL    HW132207   1.640   3.991   5.262
10436SOL    HW232208   1.752   3.925   5.361
10437SOL     OW32209   6.638   0.105   5.348
10437SOL    HW132210   6.669   0.039   5.417
10437SOL    HW232211   6.685   0.192   5.361
10438SOL     OW32212   6.651   6.175   0.050
10438SOL    HW132213   6.685   6.118   7.001
10438SOL    HW232214   6.638   6.119   0.132
10439SOL     OW32215   5.877   4.948   5.492
10439SOL    HW132216   5.857   4.914   5.400
10439SOL    HW232217   5.942   5.024   5.485
10440SOL     OW32218   5.551   2.431   2.053
10440SOL    HW132219   5.515   2.377   2.129
10440SOL    HW232220   5.547   2.376   1.969
10441SOL     OW32221   5.326   1.843   6.004
10441SOL    HW132222   5.371   1.864   6.090
10441SOL    HW232223   5.230   1.819   6.021
10442SOL     OW32224   2.805   0.578   6.040
10442SOL    HW132225   2.848   0.516   6.107
10442SOL    HW232226   2.764   0.524   5.966
10443SOL     OW32227   0.884   1.341   6.711
10443SOL    HW132228   0.952   1.312   6.779
10443SOL    HW232229   0.819   1.403   6.755
10444SOL     OW32230   4.394   5.714   3.668
10444SOL    HW132231   4.467   5.646   3.654
10444SOL    HW232232   4.369   5.754   3.580
10445SOL     OW32233   1.541   3.234   3.874
10445SOL    HW132234   1.456   3.183   3.862
10445SOL    HW232235   1.611   3.172   3.910
10446SOL     OW32236   2.946   4.744   5.382
10446SOL    HW132237   2.914   4.695   5.463
10446SOL    HW232238   2.948   4.682   5.304
10447SOL     OW32239   1.625   2.529   3.245
10447SOL    HW132240   1.591   2.622   3.235
10447SOL    HW232241   1.574   2.482   3.317
10448SOL     OW32242   0.466   5.006   1.806
10448SOL    HW132243   0.536   4.934   1.811
10448SOL    HW232244   0.399   4.983   1.735
10449SOL     OW32245   4.020   5.422   4.288
10449SOL    HW132246   3.978   5.511   4.306
10449SOL    HW232247   4.012   5.399   4.191
10450SOL     OW32248   0.736   2.717   4.561
10450SOL    HW132249   0.785   2.630   4.559
10450SOL    HW232250   0.685   2.729   4.475
10451SOL     OW32251   2.084   2.133   5.040
10451SOL    HW132252   2.025   2.210   5.018
10451SOL    HW232253   2.112   2.139   5.136
10452SOL     OW32254   0.128   2.945   4.540
10452SOL    HW132255   0.206   2.905   4.588
10452SOL    HW232256   0.135   2.924   4.443
10453SOL     OW32257   3.189   5.634   3.872
10453SOL    HW132258   3.092   5.627   3.898
10453SOL    HW232259   3.232   5.707   3.925
10454SOL     OW32260   6.639   2.331   0.112
10454SOL    HW132261   6.616   2.406   0.050
10454SOL    HW232262   6.669   2.252   0.059
10455SOL     OW32263   0.810   6.207   2.833
10455SOL    HW132264   0.752   6.287   2.844
10455SOL    HW232265   0.807   6.175   2.739
10456SOL     OW32266   1.214   5.961   5.997
10456SOL    HW132267   1.259   5.912   5.922
10456SOL    HW232268   1.231   5.912   6.082
10457SOL     OW32269   4.400   1.653   1.019
10457SOL    HW132270   4.409   1.554   1.032
10457SOL    HW232271   4.462   1.700   1.082
10458SOL     OW32272   1.962   6.846   6.934
10458SOL    HW132273   2.046   6.832   6.881
10458SOL    HW232274   1.934   6.941   6.927
10459SOL     OW32275   5.319   5.964   1.111
10459SOL    HW132276   5.318   5.988   1.014
10459SOL    HW232277   5.317   6.047   1.167
10460SOL     OW32278   6.282   1.352   6.775
10460SOL    HW132279   6.223   1.278   6.742
10460SOL    HW232280   6.237   1.440   6.760
10461SOL     OW32281   6.733   4.111   6.004
10461SOL    HW132282   6.815   4.117   5.948
10461SOL    HW232283   6.755   4.074   6.094
10462SOL     OW32284   4.645   3.915   0.205
10462SOL    HW132285   4.679   4.005   0.229
10462SOL    HW232286   4.560   3.897   0.253
10463SOL     OW32287   4.395   2.604   5.315
10463SOL    HW132288   4.299   2.591   5.288
10463SOL    HW232289   4.406   2.695   5.353
10464SOL     OW32290   6.085   5.001   1.814
10464SOL    HW132291   6.152   4.998   1.889
10464SOL    HW232292   6.134   5.004   1.727
10465SOL     OW32293   5.181   3.919   0.577
10465SOL    HW132294   5.259   3.978   0.560
10465SOL    HW232295   5.179   3.846   0.509
10466SOL     OW32296   6.417   3.692   5.512
10466SOL    HW132297   6.458   3.775   5.475
10466SOL    HW232298   6.428   3.691   5.611
10467SOL     OW32299   0.184   3.886   6.725
10467SOL    HW132300   0.159   3.789   6.721
10467SOL    HW232301   0.129   3.932   6.795
10468SOL     OW32302   1.657   4.525   3.903
10468SOL    HW132303   1.750   4.536   3.869
10468SOL    HW232304   1.606   4.610   3.890
10469SOL     OW32305   1.416   0.350   4.375
10469SOL    HW132306   1.487   0.340   4.445
10469SOL    HW232307   1.407   0.447   4.351
10470SOL     OW32308   2.571   4.301   1.728
10470SOL    HW132309   2.565   4.360   1.648
10470SOL    HW232310   2.503   4.330   1.796
10471SOL     OW32311   1.578   4.659   6.227
10471SOL    HW132312   1.493   4.710   6.242
10471SOL    HW232313   1.574   4.571   6.274
10472SOL     OW32314   4.238   5.348   6.150
10472SOL    HW132315   4.232   5.249   6.152
10472SOL    HW232316   4.224   5.381   6.057
10473SOL     OW32317   6.074   5.915   0.494
10473SOL    HW132318   6.001   5.976   0.526
10473SOL    HW232319   6.161   5.943   0.535
10474SOL     OW32320   5.890   5.513   5.082
10474SOL    HW132321   5.836   5.512   4.998
10474SOL    HW232322   5.833   5.486   5.159
10475SOL     OW32323   6.603   6.206   1.658
10475SOL    HW132324   6.614   6.237   1.753
10475SOL    HW232325   6.571   6.282   1.602
10476SOL     OW32326   5.213   6.339   1.062
10476SOL    HW132327   5.203   6.435   1.035
10476SOL    HW232328   5.176   6.280   0.990
10477SOL     OW32329   0.224   5.751   3.250
10477SOL    HW132330   0.159   5.812   3.294
10477SOL    HW232331   0.180   5.662   3.233
10478SOL     OW32332   6.932   1.703   0.459
10478SOL    HW132333   7.008   1.767   0.460
10478SOL    HW232334   6.924   1.659   0.549
10479SOL     OW32335   0.290   4.763   2.691
10479SOL    HW132336   0.364   4.697   2.682
10479SOL    HW232337   0.328   4.856   2.689
10480SOL     OW32338   2.789   1.466   3.630
10480SOL    HW132339   2.862   1.476   3.697
10480SOL    HW232340   2.704   1.504   3.668
10481SOL     OW32341   5.785   0.502   1.877
10481SOL    HW132342   5.807   0.540   1.967
10481SOL    HW232343   5.866   0.506   1.819
10482SOL     OW32344   4.564   4.411   4.514
10482SOL    HW132345   4.538   4.416   4.610
10482SOL    HW232346   4.664   4.414   4.507
10483SOL     OW32347   5.945   1.458   6.565
10483SOL    HW132348   5.992   1.532   6.516
10483SOL    HW232349   5.977   1.370   6.530
10484SOL     OW32350   5.639   0.282   1.373
10484SOL    HW132351   5.733   0.290   1.405
10484SOL    HW232352   5.591   0.368   1.389
10485SOL     OW32353   5.711   3.618   5.461
10485SOL    HW132354   5.686   3.578   5.548
10485SOL    HW232355   5.659   3.702   5.446
10486SOL     OW32356   6.385   2.768   2.984
10486SOL    HW132357   6.436   2.708   2.922
10486SOL    HW232358   6.352   2.714   3.062
10487SOL     OW32359   4.092   0.231   2.390
10487SOL    HW132360   4.125   0.303   2.328
10487SOL    HW232361   4.079   0.270   2.482
10488SOL     OW32362   4.081   3.593   0.073
10488SOL    HW132363   4.029   3.573   0.157
10488SOL    HW232364   4.114   3.687   0.077
10489SOL     OW32365   1.304   5.458   5.319
10489SOL    HW132366   1.396   5.420   5.328
10489SOL    HW232367   1.256   5.412   5.244
10490SOL     OW32368   5.791   6.970   4.386
10490SOL    HW132369   5.866   6.906   4.369
10490SOL    HW232370   5.704   6.921   4.387
10491SOL     OW32371   6.948   5.588   4.921
10491SOL    HW132372   6.903   5.677   4.913
10491SOL    HW232373   7.024   5.595   4.986
10492SOL     OW32374   4.693   3.944   5.710
10492SOL    HW132375   4.750   3.869   5.745
10492SOL    HW232376   4.597   3.924   5.729
10493SOL     OW32377   3.509   1.045   0.117
10493SOL    HW132378   3.519   1.021   0.214
10493SOL    HW232379   3.555   0.975   0.061
10494SOL     OW32380   5.417   1.496   5.325
10494SOL    HW132381   5.488   1.563   5.305
10494SOL    HW232382   5.422   1.421   5.260
10495SOL     OW32383   0.813   0.754   6.995
10495SOL    HW132384   0.819   0.654   6.995
10495SOL    HW232385   0.729   0.782   6.950
10496SOL     OW32386   0.500   0.212   5.545
10496SOL    HW132387   0.547   0.173   5.624
10496SOL    HW232388   0.544   0.181   5.461
10497SOL     OW32389   2.539   1.067   6.397
10497SOL    HW132390   2.568   1.037   6.488
10497SOL    HW232391   2.485   0.995   6.353
10498SOL     OW32392   2.633   5.287   5.607
10498SOL    HW132393   2.605   5.224   5.679
10498SOL    HW232394   2.618   5.381   5.637
10499SOL     OW32395   3.578   6.437   2.431
10499SOL    HW132396   3.524   6.416   2.512
10499SOL    HW232397   3.642   6.511   2.452
10500SOL     OW32398   2.062   1.305   6.496
10500SOL    HW132399   1.991   1.357   6.448
10500SOL    HW232400   2.113   1.367   6.556
10501SOL     OW32401   1.653   3.497   3.090
10501SOL    HW132402   1.722   3.444   3.139
10501SOL    HW232403   1.691   3.530   3.003
10502SOL     OW32404   3.440   6.424   4.972
10502SOL    HW132405   3.342   6.404   4.967
10502SOL    HW232406   3.454   6.522   4.959
10503SOL     OW32407   2.365   3.549   6.928
10503SOL    HW132408   2.327   3.611   6.997
10503SOL    HW232409   2.431   3.488   6.972
10504SOL     OW32410   1.711   2.806   0.416
10504SOL    HW132411   1.779   2.736   0.395
10504SOL    HW232412   1.750   2.874   0.477
10505SOL     OW32413   0.745   4.919   0.309
10505SOL    HW132414   0.811   4.919   0.234
10505SOL    HW232415   0.790   4.946   0.394
10506SOL     OW32416   6.627   5.740   6.286
10506SOL    HW132417   6.616   5.788   6.373
10506SOL    HW232418   6.536   5.715   6.251
10507SOL     OW32419   3.338   0.520   3.782
10507SOL    HW132420   3.341   0.469   3.868
10507SOL    HW232421   3.307   0.461   3.708
10508SOL     OW32422   5.313   5.653   3.386
10508SOL    HW132423   5.408   5.674   3.407
10508SOL    HW232424   5.253   5.702   3.449
10509SOL     OW32425   2.006   1.415   5.196
10509SOL    HW132426   1.966   1.326   5.173
10509SOL    HW232427   1.935   1.485   5.189
10510SOL     OW32428   5.441   0.898   6.221
10510SOL    HW132429   5.485   0.920   6.134
10510SOL    HW232430   5.427   0.799   6.227
10511SOL     OW32431   6.814   2.762   2.041
10511SOL    HW132432   6.835   2.664   2.050
10511SOL    HW232433   6.807   2.786   1.945
10512SOL     OW32434   2.188   6.838   6.828
10512SOL    HW132435   2.240   6.765   6.783
10512SOL    HW232436   2.239   6.924   6.822
10513SOL     OW32437   6.825   2.677   1.350
10513SOL    HW132438   6.735   2.719   1.355
10513SOL    HW232439   6.815   2.577   1.345
10514SOL     OW32440   1.874   2.684   1.518
10514SOL    HW132441   1.860   2.764   1.575
10514SOL    HW232442   1.923   2.614   1.571
10515SOL     OW32443   0.114   3.935   4.946
10515SOL    HW132444   0.103   3.874   4.868
10515SOL    HW232445   0.191   3.997   4.929
10516SOL     OW32446   2.623   6.364   6.889
10516SOL    HW132447   2.600   6.267   6.879
10516SOL    HW232448   2.596   6.413   6.807
10517SOL     OW32449   0.327   2.149   3.825
10517SOL    HW132450   0.268   2.203   3.886
10517SOL    HW232451   0.422   2.175   3.840
10518SOL     OW32452   0.904   6.261   3.294
10518SOL    HW132453   0.894   6.197   3.218
10518SOL    HW232454   0.814   6.292   3.323
10519SOL     OW32455   3.244   3.518   5.241
10519SOL    HW132456   3.257   3.568   5.155
10519SOL    HW232457   3.331   3.476   5.268
10520SOL     OW32458   2.771   4.898   6.639
10520SOL    HW132459   2.809   4.871   6.551
10520SOL    HW232460   2.756   4.997   6.641
10521SOL     OW32461   6.558   5.637   1.953
10521SOL    HW132462   6.522   5.546   1.937
10521SOL    HW232463   6.649   5.630   1.993
10522SOL     OW32464   5.924   6.908   2.807
10522SOL    HW132465   5.872   6.879   2.726
10522SOL    HW232466   5.911   7.007   2.821
10523SOL     OW32467   5.692   6.172   6.454
10523SOL    HW132468   5.684   6.072   6.456
10523SOL    HW232469   5.615   6.213   6.502
10524SOL     OW32470   5.114   1.333   4.784
10524SOL    HW132471   5.208   1.336   4.817
10524SOL    HW232472   5.077   1.241   4.800
10525SOL     OW32473   1.845   0.334   5.190
10525SOL    HW132474   1.754   0.376   5.192
10525SOL    HW232475   1.853   0.270   5.266
10526SOL     OW32476   4.320   4.917   2.289
10526SOL    HW132477   4.300   4.877   2.378
10526SOL    HW232478   4.395   4.867   2.246
10527SOL     OW32479   1.953   2.873   4.176
10527SOL    HW132480   1.942   2.962   4.218
10527SOL    HW232481   1.989   2.808   4.243
10528SOL     OW32482   5.650   4.122   6.556
10528SOL    HW132483   5.682   4.078   6.639
10528SOL    HW232484   5.624   4.217   6.576
10529SOL     OW32485   6.853   5.891   5.415
10529SOL    HW132486   6.934   5.921   5.466
10529SOL    HW232487   6.841   5.792   5.426
10530SOL     OW32488   1.087   1.267   4.670
10530SOL    HW132489   1.178   1.304   4.687
10530SOL    HW232490   1.093   1.191   4.605
10531SOL     OW32491   3.250   2.141   4.479
10531SOL    HW132492   3.333   2.159   4.531
10531SOL    HW232493   3.261   2.177   4.386
10532SOL     OW32494   3.364   3.902   4.327
10532SOL    HW132495   3.347   3.838   4.402
10532SOL    HW232496   3.340   3.994   4.356
10533SOL     OW32497   3.139   1.204   6.391
10533SOL    HW132498   3.121   1.301   6.409
10533SOL    HW232499   3.232   1.182   6.420
10534SOL     OW32500   5.853   4.003   2.227
10534SOL    HW132501   5.821   4.096   2.206
10534SOL    HW232502   5.940   4.009   2.277
10535SOL     OW32503   6.426   1.419   1.466
10535SOL    HW132504   6.418   1.419   1.565
10535SOL    HW232505   6.522   1.407   1.441
10536SOL     OW32506   5.844   6.028   2.666
10536SOL    HW132507   5.833   6.041   2.568
10536SOL    HW232508   5.812   5.937   2.691
10537SOL     OW32509   6.320   5.052   1.101
10537SOL    HW132510   6.315   5.148   1.127
10537SOL    HW232511   6.415   5.022   1.100
10538SOL     OW32512   4.383   3.441   6.540
10538SOL    HW132513   4.357   3.405   6.629
10538SOL    HW232514   4.429   3.529   6.552
10539SOL     OW32515   1.674   2.918   5.171
10539SOL    HW132516   1.684   2.887   5.076
10539SOL    HW232517   1.584   2.892   5.205
10540SOL     OW32518   3.410   1.157   0.966
10540SOL    HW132519   3.361   1.215   0.900
10540SOL    HW232520   3.482   1.106   0.920
10541SOL     OW32521   3.077   2.760   1.492
10541SOL    HW132522   3.042   2.757   1.586
10541SOL    HW232523   3.142   2.686   1.478
10542SOL     OW32524   1.799   2.624   0.141
10542SOL    HW132525   1.852   2.587   0.218
10542SOL    HW232526   1.859   2.676   0.081
10543SOL     OW32527   2.681   0.434   4.048
10543SOL    HW132528   2.755   0.500   4.036
10543SOL    HW232529   2.712   0.344   4.018
10544SOL     OW32530   0.279   1.666   1.314
10544SOL    HW132531   0.192   1.653   1.267
10544SOL    HW232532   0.335   1.732   1.263
10545SOL     OW32533   3.498   0.697   3.222
10545SOL    HW132534   3.529   0.668   3.312
10545SOL    HW232535   3.426   0.635   3.190
10546SOL     OW32536   4.619   0.941   4.885
10546SOL    HW132537   4.717   0.923   4.895
10546SOL    HW232538   4.596   0.944   4.787
10547SOL     OW32539   4.448   5.703   2.169
10547SOL    HW132540   4.497   5.674   2.087
10547SOL    HW232541   4.444   5.627   2.234
10548SOL     OW32542   4.768   4.176   5.888
10548SOL    HW132543   4.780   4.077   5.880
10548SOL    HW232544   4.690   4.195   5.948
10549SOL     OW32545   0.039   1.471   2.532
10549SOL    HW132546   7.014   1.469   2.619
10549SOL    HW232547   0.044   1.565   2.499
10550SOL     OW32548   4.330   0.108   4.742
10550SOL    HW132549   4.379   0.091   4.828
10550SOL    HW232550   4.310   0.205   4.734
10551SOL     OW32551   2.362   2.879   5.807
10551SOL    HW132552   2.391   2.801   5.863
10551SOL    HW232553   2.427   2.954   5.818
10552SOL     OW32554   3.439   1.009   5.477
10552SOL    HW132555   3.489   0.923   5.486
10552SOL    HW232556   3.359   1.007   5.538
10553SOL     OW32557   2.737   4.612   6.693
10553SOL    HW132558   2.716   4.540   6.626
10553SOL    HW232559   2.721   4.701   6.652
10554SOL     OW32560   6.480   4.001   5.889
10554SOL    HW132561   6.451   3.924   5.947
10554SOL    HW232562   6.573   4.027   5.914
10555SOL     OW32563   3.448   2.869   0.582
10555SOL    HW132564   3.362   2.827   0.551
10555SOL    HW232565   3.473   2.830   0.671
10556SOL     OW32566   2.831   4.948   4.186
10556SOL    HW132567   2.926   4.923   4.170
10556SOL    HW232568   2.797   4.900   4.267
10557SOL     OW32569   5.338   1.689   3.244
10557SOL    HW132570   5.402   1.731   3.181
10557SOL    HW232571   5.330   1.591   3.224
10558SOL     OW32572   6.097   5.572   6.103
10558SOL    HW132573   6.126   5.588   6.008
10558SOL    HW232574   6.177   5.577   6.163
10559SOL     OW32575   4.224   3.190   1.457
10559SOL    HW132576   4.276   3.165   1.539
10559SOL    HW232577   4.275   3.164   1.376
10560SOL     OW32578   0.132   2.432   4.207
10560SOL    HW132579   0.114   2.378   4.289
10560SOL    HW232580   0.222   2.475   4.215
10561SOL     OW32581   1.578   4.403   6.337
10561SOL    HW132582   1.501   4.347   6.309
10561SOL    HW232583   1.651   4.345   6.373
10562SOL     OW32584   4.318   1.871   0.867
10562SOL    HW132585   4.326   1.807   0.943
10562SOL    HW232586   4.374   1.840   0.791
10563SOL     OW32587   1.925   2.136   2.345
10563SOL    HW132588   1.839   2.175   2.378
10563SOL    HW232589   2.001   2.177   2.395
10564SOL     OW32590   0.289   1.723   2.700
10564SOL    HW132591   0.368   1.783   2.690
10564SOL    HW232592   0.250   1.735   2.791
10565SOL     OW32593   5.520   2.196   5.267
10565SOL    HW132594   5.466   2.125   5.223
10565SOL    HW232595   5.550   2.164   5.357
10566SOL     OW32596   4.744   5.710   0.277
10566SOL    HW132597   4.724   5.737   0.183
10566SOL    HW232598   4.697   5.625   0.298
10567SOL     OW32599   2.158   5.944   5.061
10567SOL    HW132600   2.134   5.868   5.122
10567SOL    HW232601   2.178   6.025   5.116
10568SOL     OW32602   4.257   0.122   3.936
10568SOL    HW132603   4.200   0.191   3.980
10568SOL    HW232604   4.210   0.086   3.856
10569SOL     OW32605   6.647   2.071   3.681
10569SOL    HW132606   6.714   1.997   3.694
10569SOL    HW232607   6.597   2.056   3.596
10570SOL     OW32608   0.738   2.611   2.049
10570SOL    HW132609   0.831   2.584   2.074
10570SOL    HW232610   0.692   2.648   2.130
10571SOL     OW32611   6.870   7.016   4.903
10571SOL    HW132612   6.832   0.081   4.884
10571SOL    HW232613   6.875   7.002   5.001
10572SOL     OW32614   6.597   3.565   2.763
10572SOL    HW132615   6.662   3.507   2.812
10572SOL    HW232616   6.518   3.511   2.735
10573SOL     OW32617   6.751   4.685   5.540
10573SOL    HW132618   6.686   4.672   5.464
10573SOL    HW232619   6.740   4.611   5.606
10574SOL     OW32620   0.642   2.698   2.698
10574SOL    HW132621   0.587   2.697   2.614
10574SOL    HW232622   0.687   2.609   2.709
10575SOL     OW32623   0.289   0.489   6.184
10575SOL    HW132624   0.288   0.419   6.112
10575SOL    HW232625   0.365   0.552   6.169
10576SOL     OW32626   0.474   5.864   3.681
10576SOL    HW132627   0.573   5.855   3.692
10576SOL    HW232628   0.446   5.824   3.594
10577SOL     OW32629   0.504   3.145   5.669
10577SOL    HW132630   0.553   3.070   5.624
10577SOL    HW232631   0.420   3.166   5.618
10578SOL     OW32632   5.431   0.827   5.603
10578SOL    HW132633   5.482   0.743   5.585
10578SOL    HW232634   5.491   0.906   5.588
10579SOL     OW32635   5.498   6.583   1.232
10579SOL    HW132636   5.565   6.509   1.237
10579SOL    HW232637   5.526   6.648   1.162
10580SOL     OW32638   1.066   5.231   1.044
10580SOL    HW132639   1.139   5.238   1.112
10580SOL    HW232640   1.008   5.153   1.066
10581SOL     OW32641   4.236   2.275   2.981
10581SOL    HW132642   4.285   2.335   2.917
10581SOL    HW232643   4.141   2.268   2.953
10582SOL     OW32644   3.309   4.092   6.954
10582SOL    HW132645   3.389   4.103   7.013
10582SOL    HW232646   3.238   4.043   7.003
10583SOL     OW32647   4.800   0.856   1.562
10583SOL    HW132648   4.749   0.770   1.559
10583SOL    HW232649   4.819   0.887   1.469
10584SOL     OW32650   5.253   6.547   1.366
10584SOL    HW132651   5.190   6.472   1.345
10584SOL    HW232652   5.323   6.552   1.294
10585SOL     OW32653   2.974   4.303   6.499
10585SOL    HW132654   3.058   4.261   6.464
10585SOL    HW232655   2.996   4.390   6.542
10586SOL     OW32656   5.191   2.080   2.128
10586SOL    HW132657   5.140   2.072   2.043
10586SOL    HW232658   5.130   2.112   2.201
10587SOL     OW32659   0.271   3.749   0.671
10587SOL    HW132660   0.238   3.839   0.644
10587SOL    HW232661   0.361   3.732   0.632
10588SOL     OW32662   1.782   5.357   3.579
10588SOL    HW132663   1.865   5.315   3.543
10588SOL    HW232664   1.803   5.444   3.622
10589SOL     OW32665   5.794   0.663   4.744
10589SOL    HW132666   5.714   0.690   4.798
10589SOL    HW232667   5.784   0.696   4.650
10590SOL     OW32668   0.496   0.119   4.267
10590SOL    HW132669   0.444   0.102   4.351
10590SOL    HW232670   0.561   0.193   4.284
10591SOL     OW32671   1.344   2.221   1.099
10591SOL    HW132672   1.440   2.228   1.072
10591SOL    HW232673   1.307   2.133   1.068
10592SOL     OW32674   4.908   1.799   6.288
10592SOL    HW132675   4.823   1.840   6.321
10592SOL    HW232676   4.930   1.835   6.198
10593SOL     OW32677   1.653   3.987   2.392
10593SOL    HW132678   1.683   4.082   2.403
10593SOL    HW232679   1.732   3.929   2.371
10594SOL     OW32680   1.742   1.389   4.287
10594SOL    HW132681   1.773   1.315   4.228
10594SOL    HW232682   1.746   1.476   4.236
10595SOL     OW32683   1.417   5.957   4.878
10595SOL    HW132684   1.483   6.010   4.826
10595SOL    HW232685   1.406   5.867   4.836
10596SOL     OW32686   2.551   1.208   0.855
10596SOL    HW132687   2.609   1.131   0.880
10596SOL    HW232688   2.594   1.293   0.885
10597SOL     OW32689   1.852   0.476   3.755
10597SOL    HW132690   1.799   0.477   3.840
10597SOL    HW232691   1.804   0.422   3.686
10598SOL     OW32692   3.107   1.083   0.860
10598SOL    HW132693   3.102   1.121   0.952
10598SOL    HW232694   3.158   0.997   0.861
10599SOL     OW32695   4.684   0.022   6.301
10599SOL    HW132696   4.623   0.068   6.365
10599SOL    HW232697   4.631   6.988   6.241
10600SOL     OW32698   1.784   3.170   5.220
10600SOL    HW132699   1.730   3.099   5.175
10600SOL    HW232700   1.881   3.156   5.199
10601SOL     OW32701   4.552   6.240   5.409
10601SOL    HW132702   4.519   6.330   5.378
10601SOL    HW232703   4.651   6.236   5.398
10602SOL     OW32704   4.741   2.668   2.273
10602SOL    HW132705   4.767   2.725   2.195
10602SOL    HW232706   4.781   2.577   2.262
10603SOL     OW32707   0.426   5.749   5.203
10603SOL    HW132708   0.505   5.694   5.231
10603SOL    HW232709   0.373   5.699   5.135
10604SOL     OW32710   0.527   4.493   6.616
10604SOL    HW132711   0.537   4.587   6.650
10604SOL    HW232712   0.615   4.447   6.619
10605SOL     OW32713   1.422   4.743   0.492
10605SOL    HW132714   1.326   4.739   0.522
10605SOL    HW232715   1.478   4.687   0.552
10606SOL     OW32716   1.418   0.785   1.810
10606SOL    HW132717   1.483   0.805   1.736
10606SOL    HW232718   1.330   0.760   1.770
10607SOL     OW32719   5.382   4.178   0.029
10607SOL    HW132720   5.300   4.198   7.002
10607SOL    HW232721   5.378   4.084   0.063
10608SOL     OW32722   5.139   6.202   2.496
10608SOL    HW132723   5.041   6.192   2.476
10608SOL    HW232724   5.151   6.222   2.593
10609SOL     OW32725   4.030   6.731   3.055
10609SOL    HW132726   4.036   6.786   2.972
10609SOL    HW232727   4.118   6.734   3.103
10610SOL     OW32728   2.241   4.938   4.884
10610SOL    HW132729   2.335   4.963   4.909
10610SOL    HW232730   2.223   4.967   4.790
10611SOL     OW32731   4.951   1.954   5.597
10611SOL    HW132732   4.918   2.012   5.671
10611SOL    HW232733   4.958   1.860   5.630
10612SOL     OW32734   1.798   0.723   1.916
10612SOL    HW132735   1.717   0.735   1.858
10612SOL    HW232736   1.843   0.637   1.892
10613SOL     OW32737   1.701   6.396   0.014
10613SOL    HW132738   1.724   6.486   7.002
10613SOL    HW232739   1.782   6.338   0.013
10614SOL     OW32740   0.546   1.016   3.177
10614SOL    HW132741   0.537   0.977   3.269
10614SOL    HW232742   0.484   0.969   3.115
10615SOL     OW32743   0.785   6.218   5.786
10615SOL    HW132744   0.875   6.196   5.824
10615SOL    HW232745   0.723   6.142   5.803
10616SOL     OW32746   3.352   5.763   1.682
10616SOL    HW132747   3.359   5.823   1.602
10616SOL    HW232748   3.292   5.686   1.660
10617SOL     OW32749   6.629   2.189   6.356
10617SOL    HW132750   6.572   2.152   6.429
10617SOL    HW232751   6.704   2.242   6.395
10618SOL     OW32752   6.978   4.010   1.246
10618SOL    HW132753   6.885   3.977   1.262
10618SOL    HW232754   6.987   4.103   1.282
10619SOL     OW32755   0.593   3.273   4.070
10619SOL    HW132756   0.548   3.355   4.105
10619SOL    HW232757   0.567   3.194   4.126
10620SOL     OW32758   1.722   5.041   3.855
10620SOL    HW132759   1.808   5.091   3.867
10620SOL    HW232760   1.652   5.102   3.819
10621SOL     OW32761   3.306   0.838   0.487
10621SOL    HW132762   3.258   0.873   0.407
10621SOL    HW232763   3.241   0.828   0.563
10622SOL     OW32764   4.508   2.474   0.476
10622SOL    HW132765   4.563   2.518   0.547
10622SOL    HW232766   4.560   2.472   0.390
10623SOL     OW32767   6.561   1.304   4.577
10623SOL    HW132768   6.626   1.303   4.653
10623SOL    HW232769   6.506   1.220   4.579
10624SOL     OW32770   2.576   1.774   3.387
10624SOL    HW132771   2.524   1.712   3.329
10624SOL    HW232772   2.673   1.753   3.381
10625SOL     OW32773   1.035   2.337   1.561
10625SOL    HW132774   0.961   2.351   1.496
10625SOL    HW232775   1.111   2.291   1.516
10626SOL     OW32776   6.906   2.002   3.063
10626SOL    HW132777   6.977   2.059   3.104
10626SOL    HW232778   6.843   1.971   3.134
10627SOL     OW32779   3.169   5.527   4.338
10627SOL    HW132780   3.170   5.462   4.414
10627SOL    HW232781   3.077   5.532   4.300
10628SOL     OW32782   0.382   0.153   5.090
10628SOL    HW132783   0.410   0.106   5.006
10628SOL    HW232784   0.282   0.162   5.092
10629SOL     OW32785   3.545   3.997   6.561
10629SOL    HW132786   3.469   3.950   6.516
10629SOL    HW232787   3.631   3.959   6.529
10630SOL     OW32788   5.339   1.427   1.567
10630SOL    HW132789   5.317   1.334   1.597
10630SOL    HW232790   5.292   1.493   1.626
10631SOL     OW32791   1.722   6.740   4.086
10631SOL    HW132792   1.684   6.790   4.008
10631SOL    HW232793   1.693   6.784   4.171
10632SOL     OW32794   6.721   2.943   0.584
10632SOL    HW132795   6.701   2.990   0.497
10632SOL    HW232796   6.690   2.848   0.578
10633SOL     OW32797   1.817   4.955   6.524
10633SOL    HW132798   1.907   4.925   6.553
10633SOL    HW232799   1.752   4.879   6.531
10634SOL     OW32800   3.310   6.007   2.751
10634SOL    HW132801   3.315   6.006   2.651
10634SOL    HW232802   3.368   5.934   2.788
10635SOL     OW32803   0.672   0.517   1.292
10635SOL    HW132804   0.769   0.540   1.302
10635SOL    HW232805   0.628   0.585   1.234
10636SOL     OW32806   5.249   2.022   6.837
10636SOL    HW132807   5.168   1.991   6.887
10636SOL    HW232808   5.269   2.117   6.861
10637SOL     OW32809   3.391   3.811   6.886
10637SOL    HW132810   3.489   3.799   6.904
10637SOL    HW232811   3.367   3.907   6.903
10638SOL     OW32812   6.839   1.521   5.569
10638SOL    HW132813   6.770   1.537   5.499
10638SOL    HW232814   6.795   1.491   5.653
10639SOL     OW32815   3.418   1.851   4.291
10639SOL    HW132816   3.349   1.842   4.362
10639SOL    HW232817   3.509   1.835   4.331
10640SOL     OW32818   4.727   6.480   0.829
10640SOL    HW132819   4.719   6.381   0.826
10640SOL    HW232820   4.660   6.517   0.894
10641SOL     OW32821   3.535   6.676   6.814
10641SOL    HW132822   3.465   6.733   6.856
10641SOL    HW232823   3.616   6.674   6.873
10642SOL     OW32824   0.265   6.217   2.055
10642SOL    HW132825   0.229   6.268   2.133
10642SOL    HW232826   0.277   6.121   2.081
10643SOL     OW32827   3.463   3.772   6.223
10643SOL    HW132828   3.545   3.721   6.198
10643SOL    HW232829   3.477   3.869   6.202
10644SOL     OW32830   4.181   1.583   5.200
10644SOL    HW132831   4.151   1.549   5.289
10644SOL    HW232832   4.264   1.638   5.211
10645SOL     OW32833   1.660   1.061   3.251
10645SOL    HW132834   1.754   1.041   3.280
10645SOL    HW232835   1.634   0.999   3.177
10646SOL     OW32836   0.003   4.367   0.000
10646SOL    HW132837   0.068   4.437   0.032
10646SOL    HW232838   0.049   4.306   6.961
10647SOL     OW32839   6.162   6.062   1.434
10647SOL    HW132840   6.113   6.133   1.485
10647SOL    HW232841   6.160   5.977   1.486
10648SOL     OW32842   4.682   3.777   6.085
10648SOL    HW132843   4.586   3.804   6.092
10648SOL    HW232844   4.703   3.755   5.989
10649SOL     OW32845   6.494   4.814   6.202
10649SOL    HW132846   6.574   4.767   6.239
10649SOL    HW232847   6.447   4.862   6.276
10650SOL     OW32848   1.819   0.968   5.654
10650SOL    HW132849   1.762   0.886   5.649
10650SOL    HW232850   1.784   1.028   5.727
10651SOL     OW32851   1.285   0.663   5.657
10651SOL    HW132852   1.294   0.750   5.608
10651SOL    HW232853   1.370   0.611   5.648
10652SOL     OW32854   4.764   0.160   0.625
10652SOL    HW132855   4.705   0.233   0.590
10652SOL    HW232856   4.748   0.076   0.575
10653SOL     OW32857   5.996   4.277   3.338
10653SOL    HW132858   6.005   4.374   3.359
10653SOL    HW232859   5.907   4.260   3.294
10654SOL     OW32860   5.045   6.977   1.623
10654SOL    HW132861   4.969   6.916   1.645
10654SOL    HW232862   5.129   6.924   1.611
10655SOL     OW32863   3.088   5.911   0.518
10655SOL    HW132864   3.152   5.860   0.575
10655SOL    HW232865   2.994   5.896   0.552
10656SOL     OW32866   0.439   3.539   6.034
10656SOL    HW132867   0.496   3.560   5.954
10656SOL    HW232868   0.487   3.474   6.092
10657SOL     OW32869   5.978   0.392   6.837
10657SOL    HW132870   6.042   0.376   6.912
10657SOL    HW232871   5.997   0.327   6.763
10658SOL     OW32872   0.085   5.944   3.429
10658SOL    HW132873   0.152   5.983   3.492
10658SOL    HW232874   7.020   5.945   3.472
10659SOL     OW32875   5.993   1.324   2.021
10659SOL    HW132876   5.968   1.279   2.107
10659SOL    HW232877   5.917   1.382   1.990
10660SOL     OW32878   4.483   5.100   4.876
10660SOL    HW132879   4.437   5.033   4.818
10660SOL    HW232880   4.494   5.062   4.968
10661SOL     OW32881   6.788   1.009   1.887
10661SOL    HW132882   6.826   0.957   1.810
10661SOL    HW232883   6.714   1.068   1.854
10662SOL     OW32884   0.496   2.103   0.771
10662SOL    HW132885   0.418   2.119   0.710
10662SOL    HW232886   0.522   2.006   0.767
10663SOL     OW32887   0.967   2.676   2.810
10663SOL    HW132888   1.053   2.632   2.837
10663SOL    HW232889   0.902   2.606   2.782
10664SOL     OW32890   2.154   5.494   6.367
10664SOL    HW132891   2.180   5.509   6.271
10664SOL    HW232892   2.132   5.397   6.380
10665SOL     OW32893   5.846   1.992   6.699
10665SOL    HW132894   5.811   1.979   6.606
10665SOL    HW232895   5.835   2.088   6.725
10666SOL     OW32896   0.094   6.024   0.739
10666SOL    HW132897   0.184   5.981   0.747
10666SOL    HW232898   0.080   6.053   0.644
10667SOL     OW32899   3.572   2.553   5.841
10667SOL    HW132900   3.585   2.571   5.939
10667SOL    HW232901   3.612   2.465   5.818
10668SOL     OW32902   1.680   6.948   6.635
10668SOL    HW132903   1.739   6.983   6.562
10668SOL    HW232904   1.612   7.017   6.658
10669SOL     OW32905   1.836   6.044   6.331
10669SOL    HW132906   1.913   5.989   6.363
10669SOL    HW232907   1.774   5.987   6.277
10670SOL     OW32908   5.817   4.213   5.483
10670SOL    HW132909   5.755   4.210   5.561
10670SOL    HW232910   5.765   4.220   5.398
10671SOL     OW32911   2.202   3.053   3.651
10671SOL    HW132912   2.186   3.142   3.608
10671SOL    HW232913   2.295   3.050   3.687
10672SOL     OW32914   6.705   2.547   0.666
10672SOL    HW132915   6.744   2.529   0.756
10672SOL    HW232916   6.775   2.586   0.606
10673SOL     OW32917   3.272   4.073   3.581
10673SOL    HW132918   3.308   4.139   3.515
10673SOL    HW232919   3.275   3.981   3.541
10674SOL     OW32920   3.775   1.708   2.628
10674SOL    HW132921   3.730   1.763   2.558
10674SOL    HW232922   3.759   1.748   2.718
10675SOL     OW32923   1.616   1.949   5.374
10675SOL    HW132924   1.576   1.979   5.288
10675SOL    HW232925   1.630   2.028   5.433
10676SOL     OW32926   6.381   0.974   0.074
10676SOL    HW132927   6.399   1.007   7.006
10676SOL    HW232928   6.356   1.051   0.132
10677SOL     OW32929   5.340   0.196   6.325
10677SOL    HW132930   5.258   0.198   6.268
10677SOL    HW232931   5.354   0.104   6.360
10678SOL     OW32932   2.087   5.692   3.805
10678SOL    HW132933   2.069   5.593   3.806
10678SOL    HW232934   2.057   5.730   3.717
10679SOL     OW32935   6.250   5.033   4.524
10679SOL    HW132936   6.167   5.032   4.580
10679SOL    HW232937   6.286   5.126   4.520
10680SOL     OW32938   0.555   2.488   3.561
10680SOL    HW132939   0.506   2.428   3.498
10680SOL    HW232940   0.647   2.453   3.577
10681SOL     OW32941   0.831   3.014   7.004
10681SOL    HW132942   0.746   3.051   0.015
10681SOL    HW232943   0.903   3.083   7.011
10682SOL     OW32944   6.809   2.395   3.836
10682SOL    HW132945   6.812   2.427   3.741
10682SOL    HW232946   6.864   2.312   3.845
10683SOL     OW32947   0.888   0.065   4.206
10683SOL    HW132948   0.909   0.162   4.210
10683SOL    HW232949   0.904   0.024   4.296
10684SOL     OW32950   5.091   6.187   0.859
10684SOL    HW132951   5.178   6.143   0.841
10684SOL    HW232952   5.075   6.261   0.793
10685SOL     OW32953   6.417   2.054   4.159
10685SOL    HW132954   6.437   1.987   4.088
10685SOL    HW232955   6.396   2.142   4.116
10686SOL     OW32956   5.457   4.062   1.129
10686SOL    HW132957   5.385   4.030   1.191
10686SOL    HW232958   5.483   4.155   1.153
10687SOL     OW32959   0.510   5.162   0.949
10687SOL    HW132960   0.567   5.099   0.896
10687SOL    HW232961   0.568   5.231   0.991
10688SOL     OW32962   1.939   5.621   1.582
10688SOL    HW132963   1.925   5.598   1.486
10688SOL    HW232964   2.035   5.649   1.596
10689SOL     OW32965   6.857   1.033   2.159
10689SOL    HW132966   6.842   1.025   2.060
10689SOL    HW232967   6.770   1.050   2.205
10690SOL     OW32968   3.756   0.561   2.485
10690SOL    HW132969   3.730   0.645   2.437
10690SOL    HW232970   3.805   0.585   2.569
10691SOL     OW32971   5.113   1.596   1.720
10691SOL    HW132972   5.181   1.649   1.771
10691SOL    HW232973   5.094   1.641   1.633
10692SOL     OW32974   5.652   6.320   3.972
10692SOL    HW132975   5.577   6.307   3.908
10692SOL    HW232976   5.643   6.409   4.016
10693SOL     OW32977   4.053   2.201   4.662
10693SOL    HW132978   4.130   2.248   4.620
10693SOL    HW232979   4.048   2.223   4.759
10694SOL     OW32980   3.415   6.530   0.111
10694SOL    HW132981   3.343   6.536   0.180
10694SOL    HW232982   3.488   6.595   0.133
10695SOL     OW32983   5.799   3.246   5.616
10695SOL    HW132984   5.721   3.208   5.665
10695SOL    HW232985   5.817   3.192   5.534
10696SOL     OW32986   6.558   0.908   0.842
10696SOL    HW132987   6.554   0.826   0.787
10696SOL    HW232988   6.633   0.966   0.810
10697SOL     OW32989   3.008   5.932   2.979
10697SOL    HW132990   2.941   5.985   3.032
10697SOL    HW232991   2.980   5.835   2.978
10698SOL     OW32992   3.628   6.748   3.737
10698SOL    HW132993   3.641   6.654   3.706
10698SOL    HW232994   3.693   6.808   3.691
10699SOL     OW32995   0.377   4.068   3.378
10699SOL    HW132996   0.397   4.134   3.450
10699SOL    HW232997   0.278   4.054   3.372
10700SOL     OW32998   0.263   2.762   3.329
10700SOL    HW132999   0.325   2.717   3.264
10700SOL    HW233000   0.281   2.726   3.421
10701SOL     OW33001   2.071   6.956   1.714
10701SOL    HW133002   2.012   0.003   1.678
10701SOL    HW233003   2.040   6.931   1.806
10702SOL     OW33004   4.593   2.050   1.065
10702SOL    HW133005   4.592   2.094   1.155
10702SOL    HW233006   4.508   2.072   1.017
10703SOL     OW33007   3.508   4.140   4.820
10703SOL    HW133008   3.563   4.065   4.859
10703SOL    HW233009   3.414   4.131   4.851
10704SOL     OW33010   5.500   5.092   1.315
10704SOL    HW133011   5.522   5.004   1.274
10704SOL    HW233012   5.580   5.152   1.311
10705SOL     OW33013   1.027   3.267   0.365
10705SOL    HW133014   1.032   3.168   0.353
10705SOL    HW233015   0.932   3.295   0.378
10706SOL     OW33016   2.915   3.737   0.515
10706SOL    HW133017   2.961   3.749   0.427
10706SOL    HW233018   2.982   3.706   0.583
10707SOL     OW33019   6.138   0.954   6.395
10707SOL    HW133020   6.194   0.958   6.312
10707SOL    HW233021   6.156   0.869   6.444
10708SOL     OW33022   4.417   3.345   1.125
10708SOL    HW133023   4.401   3.252   1.158
10708SOL    HW233024   4.403   3.410   1.200
10709SOL     OW33025   0.511   1.079   5.489
10709SOL    HW133026   0.535   1.176   5.501
10709SOL    HW233027   0.559   1.042   5.410
10710SOL     OW33028   6.582   6.889   3.743
10710SOL    HW133029   6.587   6.989   3.746
10710SOL    HW233030   6.668   6.853   3.705
10711SOL     OW33031   1.975   4.121   5.060
10711SOL    HW133032   2.030   4.180   5.119
10711SOL    HW233033   2.010   4.027   5.063
10712SOL     OW33034   3.864   2.162   5.770
10712SOL    HW133035   3.929   2.095   5.734
10712SOL    HW233036   3.831   2.133   5.860
10713SOL     OW33037   2.433   0.027   0.276
10713SOL    HW133038   2.508   0.022   0.343
10713SOL    HW233039   2.366   6.982   0.297
10714SOL     OW33040   5.465   5.245   4.353
10714SOL    HW133041   5.504   5.269   4.442
10714SOL    HW233042   5.487   5.316   4.286
10715SOL     OW33043   5.808   6.816   2.568
10715SOL    HW133044   5.818   6.909   2.533
10715SOL    HW233045   5.800   6.751   2.492
10716SOL     OW33046   6.594   1.899   2.958
10716SOL    HW133047   6.562   1.934   3.045
10716SOL    HW233048   6.661   1.961   2.919
10717SOL     OW33049   6.772   6.540   1.026
10717SOL    HW133050   6.717   6.544   0.942
10717SOL    HW233051   6.714   6.560   1.105
10718SOL     OW33052   0.540   4.807   5.291
10718SOL    HW133053   0.501   4.795   5.383
10718SOL    HW233054   0.599   4.729   5.270
10719SOL     OW33055   3.854   6.515   3.419
10719SOL    HW133056   3.756   6.534   3.410
10719SOL    HW233057   3.906   6.600   3.417
10720SOL     OW33058   1.318   3.352   5.682
10720SOL    HW133059   1.402   3.321   5.725
10720SOL    HW233060   1.320   3.333   5.584
10721SOL     OW33061   5.334   0.361   4.474
10721SOL    HW133062   5.284   0.386   4.557
10721SOL    HW233063   5.410   0.301   4.498
10722SOL     OW33064   0.705   4.872   0.960
10722SOL    HW133065   0.752   4.946   1.008
10722SOL    HW233066   0.608   4.871   0.984
10723SOL     OW33067   6.733   4.952   6.366
10723SOL    HW133068   6.786   4.993   6.291
10723SOL    HW233069   6.795   4.900   6.425
10724SOL     OW33070   3.809   6.544   5.829
10724SOL    HW133071   3.843   6.611   5.763
10724SOL    HW233072   3.796   6.587   5.918
10725SOL     OW33073   6.470   0.254   5.172
10725SOL    HW133074   6.544   0.240   5.238
10725SOL    HW233075   6.410   0.174   5.172
10726SOL     OW33076   6.622   1.008   3.845
10726SOL    HW133077   6.564   1.081   3.809
10726SOL    HW233078   6.606   0.924   3.792
10727SOL     OW33079   5.358   5.523   5.837
10727SOL    HW133080   5.277   5.543   5.892
10727SOL    HW233081   5.377   5.424   5.841
10728SOL     OW33082   5.220   5.883   4.731
10728SOL    HW133083   5.239   5.814   4.661
10728SOL    HW233084   5.233   5.974   4.692
10729SOL     OW33085   6.462   3.258   4.707
10729SOL    HW133086   6.558   3.280   4.694
10729SOL    HW233087   6.406   3.314   4.647
10730SOL     OW33088   1.003   6.032   4.377
10730SOL    HW133089   1.033   6.081   4.459
10730SOL    HW233090   0.905   6.046   4.363
10731SOL     OW33091   5.131   4.073   5.204
10731SOL    HW133092   5.050   4.082   5.146
10731SOL    HW233093   5.126   4.139   5.279
10732SOL     OW33094   5.590   5.414   2.198
10732SOL    HW133095   5.582   5.431   2.100
10732SOL    HW233096   5.506   5.442   2.244
10733SOL     OW33097   0.865   1.894   6.027
10733SOL    HW133098   0.937   1.866   5.963
10733SOL    HW233099   0.856   1.826   6.099
10734SOL     OW33100   0.309   1.287   4.374
10734SOL    HW133101   0.255   1.328   4.301
10734SOL    HW233102   0.398   1.333   4.381
10735SOL     OW33103   0.378   0.970   2.164
10735SOL    HW133104   0.306   1.039   2.161
10735SOL    HW233105   0.467   1.016   2.168
10736SOL     OW33106   5.583   5.985   4.664
10736SOL    HW133107   5.630   5.923   4.726
10736SOL    HW233108   5.534   6.054   4.717
10737SOL     OW33109   5.499   1.311   0.572
10737SOL    HW133110   5.511   1.306   0.671
10737SOL    HW233111   5.529   1.226   0.530
10738SOL     OW33112   1.006   6.715   2.262
10738SOL    HW133113   1.077   6.665   2.310
10738SOL    HW233114   0.945   6.760   2.328
10739SOL     OW33115   5.290   2.778   4.098
10739SOL    HW133116   5.228   2.799   4.023
10739SOL    HW233117   5.281   2.682   4.124
10740SOL     OW33118   2.883   1.112   6.500
10740SOL    HW133119   2.870   1.142   6.595
10740SOL    HW233120   2.966   1.152   6.463
10741SOL     OW33121   2.334   2.713   3.886
10741SOL    HW133122   2.388   2.629   3.879
10741SOL    HW233123   2.334   2.761   3.799
10742SOL     OW33124   6.940   0.307   2.477
10742SOL    HW133125   6.902   0.273   2.391
10742SOL    HW233126   6.997   0.236   2.518
10743SOL     OW33127   4.165   3.142   6.510
10743SOL    HW133128   4.150   3.226   6.458
10743SOL    HW233129   4.258   3.108   6.492
10744SOL     OW33130   1.716   1.553   0.993
10744SOL    HW133131   1.640   1.615   0.976
10744SOL    HW233132   1.687   1.459   0.972
10745SOL     OW33133   3.826   5.645   2.011
10745SOL    HW133134   3.906   5.703   2.018
10745SOL    HW233135   3.782   5.658   1.922
10746SOL     OW33136   2.578   5.524   5.311
10746SOL    HW133137   2.660   5.577   5.331
10746SOL    HW233138   2.587   5.480   5.222
10747SOL     OW33139   6.716   0.367   5.314
10747SOL    HW133140   6.750   0.395   5.225
10747SOL    HW233141   6.750   0.430   5.384
10748SOL     OW33142   3.616   6.524   1.859
10748SOL    HW133143   3.523   6.560   1.873
10748SOL    HW233144   3.616   6.464   1.779
10749SOL     OW33145   5.462   2.222   2.944
10749SOL    HW133146   5.413   2.309   2.945
10749SOL    HW233147   5.420   2.161   2.877
10750SOL     OW33148   3.544   2.104   3.863
10750SOL    HW133149   3.572   2.144   3.950
10750SOL    HW233150   3.499   2.016   3.880
10751SOL     OW33151   5.749   6.036   3.373
10751SOL    HW133152   5.845   6.017   3.353
10751SOL    HW233153   5.708   6.086   3.297
10752SOL     OW33154   6.957   6.042   6.446
10752SOL    HW133155   0.021   6.022   6.486
10752SOL    HW233156   6.885   6.010   6.508
10753SOL     OW33157   5.095   6.974   4.676
10753SOL    HW133158   5.108   6.920   4.593
10753SOL    HW233159   5.112   0.045   4.656
10754SOL     OW33160   6.268   5.541   2.069
10754SOL    HW133161   6.254   5.566   1.974
10754SOL    HW233162   6.281   5.442   2.076
10755SOL     OW33163   0.526   1.153   2.492
10755SOL    HW133164   0.573   1.228   2.446
10755SOL    HW233165   0.427   1.165   2.482
10756SOL     OW33166   0.779   6.657   0.154
10756SOL    HW133167   0.771   6.746   0.109
10756SOL    HW233168   0.692   6.608   0.147
10757SOL     OW33169   0.224   1.983   2.434
10757SOL    HW133170   0.148   2.045   2.450
10757SOL    HW233171   0.192   1.889   2.438
10758SOL     OW33172   0.349   1.293   1.157
10758SOL    HW133173   0.264   1.317   1.110
10758SOL    HW233174   0.414   1.254   1.092
10759SOL     OW33175   3.701   5.476   5.724
10759SOL    HW133176   3.682   5.500   5.819
10759SOL    HW233177   3.628   5.513   5.666
10760SOL     OW33178   1.357   4.974   6.432
10760SOL    HW133179   1.454   4.992   6.418
10760SOL    HW233180   1.343   4.936   6.524
10761SOL     OW33181   1.570   0.522   6.853
10761SOL    HW133182   1.644   0.510   6.919
10761SOL    HW233183   1.538   0.433   6.822
10762SOL     OW33184   1.872   5.297   0.905
10762SOL    HW133185   1.832   5.388   0.904
10762SOL    HW233186   1.866   5.259   0.998
10763SOL     OW33187   5.517   1.573   1.817
10763SOL    HW133188   5.544   1.610   1.728
10763SOL    HW233189   5.428   1.610   1.844
10764SOL     OW33190   4.946   6.890   3.795
10764SOL    HW133191   5.020   6.956   3.807
10764SOL    HW233192   4.869   6.916   3.853
10765SOL     OW33193   0.229   2.779   1.907
10765SOL    HW133194   0.271   2.777   1.998
10765SOL    HW233195   0.293   2.818   1.842
10766SOL     OW33196   3.463   5.717   7.019
10766SOL    HW133197   3.550   5.669   7.023
10766SOL    HW233198   3.479   5.816   7.014
10767SOL     OW33199   1.034   5.364   0.130
10767SOL    HW133200   1.057   5.460   0.145
10767SOL    HW233201   0.936   5.356   0.109
10768SOL     OW33202   6.421   6.342   0.067
10768SOL    HW133203   6.389   6.422   0.015
10768SOL    HW233204   6.492   6.295   0.015
10769SOL     OW33205   2.950   3.318   4.526
10769SOL    HW133206   2.965   3.283   4.433
10769SOL    HW233207   2.862   3.284   4.560
10770SOL     OW33208   4.825   0.737   4.638
10770SOL    HW133209   4.735   0.779   4.637
10770SOL    HW233210   4.834   0.679   4.719
10771SOL     OW33211   5.286   6.331   5.446
10771SOL    HW133212   5.359   6.394   5.421
10771SOL    HW233213   5.321   6.237   5.448
10772SOL     OW33214   4.905   3.363   4.289
10772SOL    HW133215   4.975   3.294   4.268
10772SOL    HW233216   4.827   3.353   4.228
10773SOL     OW33217   1.270   3.669   0.373
10773SOL    HW133218   1.275   3.570   0.387
10773SOL    HW233219   1.217   3.688   0.290
10774SOL     OW33220   6.411   2.658   1.721
10774SOL    HW133221   6.454   2.679   1.633
10774SOL    HW233222   6.417   2.560   1.739
10775SOL     OW33223   2.075   4.274   6.171
10775SOL    HW133224   2.034   4.353   6.217
10775SOL    HW233225   2.164   4.254   6.212
10776SOL     OW33226   0.357   3.815   3.816
10776SOL    HW133227   0.433   3.760   3.850
10776SOL    HW233228   0.347   3.801   3.717
10777SOL     OW33229   0.428   6.956   1.938
10777SOL    HW133230   0.492   6.884   1.911
10777SOL    HW233231   0.452   0.016   1.892
10778SOL     OW33232   4.759   6.667   3.160
10778SOL    HW133233   4.768   6.677   3.061
10778SOL    HW233234   4.678   6.717   3.191
10779SOL     OW33235   5.547   3.051   5.433
10779SOL    HW133236   5.502   3.043   5.344
10779SOL    HW233237   5.502   3.122   5.487
10780SOL     OW33238   0.841   5.784   4.613
10780SOL    HW133239   0.808   5.724   4.685
10780SOL    HW233240   0.775   5.858   4.598
10781SOL     OW33241   6.038   3.114   6.034
10781SOL    HW133242   6.020   3.028   5.986
10781SOL    HW233243   6.061   3.095   6.129
10782SOL     OW33244   1.694   3.272   4.632
10782SOL    HW133245   1.740   3.220   4.705
10782SOL    HW233246   1.610   3.225   4.605
10783SOL     OW33247   1.496   4.178   4.566
10783SOL    HW133248   1.473   4.266   4.525
10783SOL    HW233249   1.596   4.168   4.570
10784SOL     OW33250   4.652   5.562   3.607
10784SOL    HW133251   4.653   5.600   3.515
10784SOL    HW233252   4.738   5.586   3.654
10785SOL     OW33253   1.805   5.866   1.939
10785SOL    HW133254   1.751   5.873   2.023
10785SOL    HW233255   1.814   5.956   1.897
10786SOL     OW33256   4.860   1.111   2.435
10786SOL    HW133257   4.862   1.039   2.504
10786SOL    HW233258   4.809   1.079   2.355
10787SOL     OW33259   3.390   1.162   3.682
10787SOL    HW133260   3.408   1.159   3.584
10787SOL    HW233261   3.473   1.136   3.731
10788SOL     OW33262   1.493   2.809   6.713
10788SOL    HW133263   1.484   2.881   6.645
10788SOL    HW233264   1.420   2.817   6.781
10789SOL     OW33265   0.306   2.446   2.646
10789SOL    HW133266   0.394   2.456   2.692
10789SOL    HW233267   0.319   2.400   2.558
10790SOL     OW33268   6.720   3.376   4.670
10790SOL    HW133269   6.728   3.287   4.624
10790SOL    HW233270   6.714   3.449   4.602
10791SOL     OW33271   1.949   2.751   3.160
10791SOL    HW133272   1.920   2.750   3.065
10791SOL    HW233273   1.869   2.740   3.219
10792SOL     OW33274   2.867   0.815   1.745
10792SOL    HW133275   2.768   0.818   1.762
10792SOL    HW233276   2.884   0.821   1.647
10793SOL     OW33277   3.977   1.985   3.490
10793SOL    HW133278   3.908   1.987   3.562
10793SOL    HW233279   4.055   1.931   3.521
10794SOL     OW33280   5.094   2.834   0.307
10794SOL    HW133281   5.191   2.815   0.295
10794SOL    HW233282   5.048   2.830   0.218
10795SOL     OW33283   5.982   2.658   3.611
10795SOL    HW133284   5.930   2.695   3.534
10795SOL    HW233285   5.920   2.636   3.686
10796SOL     OW33286   6.892   1.921   6.832
10796SOL    HW133287   6.898   1.918   6.733
10796SOL    HW233288   6.984   1.911   6.871
10797SOL     OW33289   5.685   4.707   6.794
10797SOL    HW133290   5.765   4.697   6.735
10797SOL    HW233291   5.694   4.792   6.846
10798SOL     OW33292   2.813   6.049   0.539
10798SOL    HW133293   2.795   6.031   0.636
10798SOL    HW233294   2.726   6.063   0.492
10799SOL     OW33295   2.002   0.975   2.956
10799SOL    HW133296   2.096   0.991   2.925
10799SOL    HW233297   1.945   1.053   2.933
10800SOL     OW33298   1.083   0.226   5.048
10800SOL    HW133299   1.092   0.322   5.074
10800SOL    HW233300   1.070   0.219   4.949
10801SOL     OW33301   2.726   6.416   6.566
10801SOL    HW133302   2.724   6.317   6.555
10801SOL    HW233303   2.648   6.446   6.620
10802SOL     OW33304   1.349   4.999   3.195
10802SOL    HW133305   1.304   4.913   3.220
10802SOL    HW233306   1.412   4.983   3.120
10803SOL     OW33307   0.808   4.471   4.828
10803SOL    HW133308   0.817   4.571   4.826
10803SOL    HW233309   0.883   4.432   4.882
10804SOL     OW33310   5.460   5.301   6.131
10804SOL    HW133311   5.519   5.312   6.051
10804SOL    HW233312   5.367   5.279   6.100
10805SOL     OW33313   5.804   5.262   6.252
10805SOL    HW133314   5.835   5.197   6.183
10805SOL    HW233315   5.716   5.232   6.288
10806SOL     OW33316   6.606   3.038   5.211
10806SOL    HW133317   6.565   2.948   5.228
10806SOL    HW233318   6.546   3.110   5.244
10807SOL     OW33319   4.410   2.881   5.431
10807SOL    HW133320   4.362   2.945   5.370
10807SOL    HW233321   4.400   2.911   5.525
10808SOL     OW33322   0.396   2.587   0.890
10808SOL    HW133323   0.424   2.519   0.821
10808SOL    HW233324   0.301   2.571   0.915
10809SOL     OW33325   0.908   0.830   3.620
10809SOL    HW133326   0.979   0.882   3.668
10809SOL    HW233327   0.820   0.876   3.630
10810SOL     OW33328   2.197   1.651   6.209
10810SOL    HW133329   2.216   1.553   6.218
10810SOL    HW233330   2.168   1.687   6.298
10811SOL     OW33331   4.232   5.080   6.167
10811SOL    HW133332   4.212   4.997   6.115
10811SOL    HW233333   4.159   5.097   6.233
10812SOL     OW33334   6.565   3.138   2.217
10812SOL    HW133335   6.617   3.203   2.271
10812SOL    HW233336   6.569   3.048   2.260
10813SOL     OW33337   2.789   5.569   2.284
10813SOL    HW133338   2.753   5.477   2.273
10813SOL    HW233339   2.770   5.601   2.377
10814SOL     OW33340   1.962   6.003   4.145
10814SOL    HW133341   2.000   5.913   4.124
10814SOL    HW233342   1.943   6.010   4.243
10815SOL     OW33343   5.437   2.733   6.249
10815SOL    HW133344   5.465   2.762   6.157
10815SOL    HW233345   5.434   2.633   6.253
10816SOL     OW33346   2.015   2.304   1.272
10816SOL    HW133347   2.022   2.357   1.187
10816SOL    HW233348   1.919   2.301   1.301
10817SOL     OW33349   4.083   1.419   1.919
10817SOL    HW133350   4.116   1.514   1.919
10817SOL    HW233351   4.052   1.395   1.827
10818SOL     OW33352   4.576   3.425   5.811
10818SOL    HW133353   4.540   3.371   5.887
10818SOL    HW233354   4.506   3.489   5.780
10819SOL     OW33355   2.104   3.411   4.995
10819SOL    HW133356   2.150   3.323   4.981
10819SOL    HW233357   2.060   3.439   4.909
10820SOL     OW33358   0.490   6.014   5.083
10820SOL    HW133359   0.418   6.071   5.042
10820SOL    HW233360   0.455   5.921   5.097
10821SOL     OW33361   6.991   0.476   6.101
10821SOL    HW133362   6.908   0.476   6.156
10821SOL    HW233363   0.005   0.568   6.100
10822SOL     OW33364   0.350   5.542   6.292
10822SOL    HW133365   0.371   5.468   6.356
10822SOL    HW233366   0.383   5.518   6.201
10823SOL     OW33367   2.600   2.322   0.323
10823SOL    HW133368   2.548   2.381   0.385
10823SOL    HW233369   2.660   2.378   0.266
10824SOL     OW33370   5.225   1.642   4.477
10824SOL    HW133371   5.303   1.580   4.472
10824SOL    HW233372   5.178   1.629   4.564
10825SOL     OW33373   4.445   1.833   2.198
10825SOL    HW133374   4.407   1.757   2.144
10825SOL    HW233375   4.477   1.798   2.286
10826SOL     OW33376   0.191   3.544   0.803
10826SOL    HW133377   0.235   3.547   0.893
10826SOL    HW233378   0.229   3.616   0.745
10827SOL     OW33379   0.061   3.692   4.822
10827SOL    HW133380   0.159   3.682   4.837
10827SOL    HW233381   0.013   3.611   4.856
10828SOL     OW33382   3.161   4.615   6.940
10828SOL    HW133383   3.193   4.526   6.973
10828SOL    HW233384   3.229   4.655   6.879
10829SOL     OW33385   1.642   3.758   1.318
10829SOL    HW133386   1.660   3.794   1.410
10829SOL    HW233387   1.715   3.694   1.293
10830SOL     OW33388   6.330   0.722   3.578
10830SOL    HW133389   6.287   0.709   3.667
10830SOL    HW233390   6.414   0.668   3.572
10831SOL     OW33391   5.238   2.987   2.493
10831SOL    HW133392   5.271   2.909   2.546
10831SOL    HW233393   5.287   2.991   2.406
10832SOL     OW33394   1.696   2.819   2.293
10832SOL    HW133395   1.768   2.887   2.303
10832SOL    HW233396   1.609   2.865   2.272
10833SOL     OW33397   3.635   0.340   4.764
10833SOL    HW133398   3.719   0.301   4.727
10833SOL    HW233399   3.609   0.292   4.848
10834SOL     OW33400   6.700   2.283   5.784
10834SOL    HW133401   6.664   2.226   5.858
10834SOL    HW233402   6.628   2.342   5.749
10835SOL     OW33403   0.523   0.672   1.048
10835SOL    HW133404   0.517   0.573   1.040
10835SOL    HW233405   0.459   0.715   0.983
10836SOL     OW33406   6.664   1.235   1.467
10836SOL    HW133407   6.728   1.255   1.542
10836SOL    HW233408   6.631   1.141   1.475
10837SOL     OW33409   1.609   5.097   0.659
10837SOL    HW133410   1.702   5.063   0.645
10837SOL    HW233411   1.549   5.062   0.587
10838SOL     OW33412   6.286   6.601   1.173
10838SOL    HW133413   6.383   6.595   1.197
10838SOL    HW233414   6.235   6.637   1.251
10839SOL     OW33415   2.583   1.339   6.697
10839SOL    HW133416   2.501   1.336   6.640
10839SOL    HW233417   2.556   1.337   6.794
10840SOL     OW33418   0.802   0.555   3.693
10840SOL    HW133419   0.731   0.533   3.759
10840SOL    HW233420   0.811   0.654   3.684
10841SOL     OW33421   4.414   4.277   6.911
10841SOL    HW133422   4.433   4.199   6.852
10841SOL    HW233423   4.495   4.334   6.919
10842SOL     OW33424   6.076   2.080   2.392
10842SOL    HW133425   6.096   1.983   2.374
10842SOL    HW233426   6.005   2.112   2.329
10843SOL     OW33427   0.823   1.927   1.587
10843SOL    HW133428   0.843   1.966   1.677
10843SOL    HW233429   0.835   1.828   1.590
10844SOL     OW33430   4.163   6.252   3.382
10844SOL    HW133431   4.184   6.201   3.465
10844SOL    HW233432   4.221   6.333   3.377
10845SOL     OW33433   2.571   3.481   1.141
10845SOL    HW133434   2.531   3.397   1.180
10845SOL    HW233435   2.535   3.495   1.049
10846SOL     OW33436   3.271   1.657   2.425
10846SOL    HW133437   3.243   1.691   2.335
10846SOL    HW233438   3.368   1.677   2.440
10847SOL     OW33439   5.523   2.015   4.936
10847SOL    HW133440   5.428   2.043   4.950
10847SOL    HW233441   5.564   2.071   4.864
10848SOL     OW33442   2.074   0.309   6.295
10848SOL    HW133443   2.076   0.213   6.266
10848SOL    HW233444   2.040   0.314   6.390
10849SOL     OW33445   0.683   5.005   5.180
10849SOL    HW133446   0.634   5.089   5.156
10849SOL    HW233447   0.621   4.942   5.226
10850SOL     OW33448   6.283   0.989   3.714
10850SOL    HW133449   6.273   0.890   3.704
10850SOL    HW233450   6.196   1.034   3.690
10851SOL     OW33451   5.401   3.024   0.589
10851SOL    HW133452   5.324   2.961   0.600
10851SOL    HW233453   5.484   2.981   0.623
10852SOL     OW33454   5.873   1.848   5.871
10852SOL    HW133455   5.777   1.846   5.901
10852SOL    HW233456   5.878   1.887   5.780
10853SOL     OW33457   1.535   6.721   5.513
10853SOL    HW133458   1.610   6.763   5.461
10853SOL    HW233459   1.499   6.786   5.579
10854SOL     OW33460   5.741   6.474   6.901
10854SOL    HW133461   5.810   6.530   6.855
10854SOL    HW233462   5.656   6.527   6.908
10855SOL     OW33463   0.575   6.141   6.694
10855SOL    HW133464   0.612   6.233   6.709
10855SOL    HW233465   0.649   6.079   6.666
10856SOL     OW33466   4.248   6.814   6.699
10856SOL    HW133467   4.283   6.888   6.641
10856SOL    HW233468   4.262   6.727   6.653
10857SOL     OW33469   6.101   6.586   4.569
10857SOL    HW133470   6.131   6.505   4.619
10857SOL    HW233471   6.024   6.628   4.617
10858SOL     OW33472   1.359   2.610   1.331
10858SOL    HW133473   1.348   2.699   1.287
10858SOL    HW233474   1.375   2.623   1.429
10859SOL     OW33475   2.038   5.022   2.459
10859SOL    HW133476   2.060   4.969   2.541
10859SOL    HW233477   2.122   5.047   2.412
10860SOL     OW33478   5.511   1.341   2.619
10860SOL    HW133479   5.468   1.429   2.603
10860SOL    HW233480   5.595   1.354   2.673
10861SOL     OW33481   2.900   4.760   1.068
10861SOL    HW133482   2.819   4.785   1.016
10861SOL    HW233483   2.939   4.675   1.032
10862SOL     OW33484   3.381   4.642   5.725
10862SOL    HW133485   3.307   4.707   5.708
10862SOL    HW233486   3.455   4.658   5.660
10863SOL     OW33487   0.343   0.719   4.283
10863SOL    HW133488   0.275   0.668   4.336
10863SOL    HW233489   0.320   0.816   4.283
10864SOL     OW33490   2.890   3.497   2.166
10864SOL    HW133491   2.954   3.497   2.089
10864SOL    HW233492   2.940   3.492   2.252
10865SOL     OW33493   4.049   1.712   2.595
10865SOL    HW133494   3.957   1.678   2.612
10865SOL    HW233495   4.052   1.810   2.611
10866SOL     OW33496   0.390   3.498   5.213
10866SOL    HW133497   0.427   3.472   5.124
10866SOL    HW233498   0.406   3.595   5.229
10867SOL     OW33499   5.399   3.302   0.546
10867SOL    HW133500   5.313   3.322   0.592
10867SOL    HW233501   5.426   3.208   0.565
10868SOL     OW33502   6.824   0.317   5.886
10868SOL    HW133503   6.725   0.331   5.879
10868SOL    HW233504   6.870   0.405   5.883
10869NA      NA33505   6.661   1.403   6.994
10870NA      NA33506   5.111   4.738   4.703
10871NA      NA33507   1.321   4.591   2.825
10872NA      NA33508   6.394   3.737   3.598
10873NA      NA33509   4.242   2.334   5.268
10874NA      NA33510   2.448   3.674   6.740
10875NA      NA33511   1.735   5.416   0.453
10876NA      NA33512   4.251   4.763   1.823
10877NA      NA33513   5.576   3.596   1.186
10878NA      NA33514   3.622   1.917   0.760
10879NA      NA33515   4.844   6.015   1.382
10880NA      NA33516   2.641   6.175   3.966
10881NA      NA33517   3.693   5.906   2.875
10882NA      NA33518   4.660   5.019   5.653
   7.02550   7.02550   7.02550
