Generated by trjconv : CNT in water t= 410.00000
33518
    1C        C    1   2.846   2.775   4.749
    1C        C    2   2.900   2.724   4.869
    1C        C    3   2.850   2.782   4.986
    1C        C    4   2.848   2.778   4.264
    1C        C    5   2.904   2.734   4.386
    1C        C    6   2.851   2.778   4.509
    1C        C    7   3.015   2.642   4.630
    1C        C    8   2.898   2.721   4.629
    1C        C    9   3.082   2.612   4.750
    1C        C   10   3.013   2.639   4.870
    1C        C   11   3.185   2.498   4.979
    1C        C   12   3.061   2.562   4.977
    1C        C   13   2.858   2.781   3.775
    1C        C   14   2.911   2.734   3.898
    1C        C   15   2.855   2.782   4.019
    1C        C   16   3.020   2.653   4.143
    1C        C   17   2.904   2.733   4.142
    1C        C   18   3.084   2.623   4.265
    1C        C   19   3.022   2.656   4.388
    1C        C   20   3.212   2.562   4.507
    1C        C   21   3.079   2.609   4.508
    1C        C   22   3.283   2.543   4.628
    1C        C   23   3.213   2.557   4.750
    1C        C   24   3.416   2.484   4.869
    1C        C   25   3.275   2.506   4.868
    1C        C   26   3.493   2.486   4.986
    1C        C   27   2.855   2.778   3.284
    1C        C   28   2.913   2.738   3.406
    1C        C   29   2.861   2.784   3.529
    1C        C   30   3.025   2.653   3.653
    1C        C   31   2.912   2.737   3.652
    1C        C   32   3.087   2.616   3.774
    1C        C   33   3.025   2.651   3.897
    1C        C   34   3.212   2.562   4.022
    1C        C   35   3.082   2.616   4.021
    1C        C   36   3.281   2.541   4.143
    1C        C   37   3.214   2.566   4.264
    1C        C   38   3.420   2.516   4.384
    1C        C   39   3.281   2.541   4.386
    1C        C   40   3.491   2.506   4.506
    1C        C   41   3.421   2.513   4.629
    1C        C   42   3.634   2.489   4.750
    1C        C   43   3.492   2.493   4.749
    1C        C   44   3.709   2.493   4.870
    1C        C   45   3.632   2.484   4.987
    1C        C   46   2.844   2.765   2.796
    1C        C   47   2.901   2.720   2.917
    1C        C   48   2.848   2.766   3.039
    1C        C   49   3.021   2.646   3.165
    1C        C   50   2.904   2.726   3.163
    1C        C   51   3.085   2.612   3.286
    1C        C   52   3.025   2.651   3.408
    1C        C   53   3.216   2.559   3.532
    1C        C   54   3.087   2.618   3.530
    1C        C   55   3.284   2.535   3.653
    1C        C   56   3.217   2.561   3.775
    1C        C   57   3.419   2.515   3.899
    1C        C   58   3.280   2.540   3.899
    1C        C   59   3.491   2.502   4.019
    1C        C   60   3.420   2.513   4.141
    1C        C   61   3.632   2.504   4.262
    1C        C   62   3.491   2.504   4.262
    1C        C   63   3.703   2.513   4.384
    1C        C   64   3.632   2.504   4.506
    1C        C   65   3.839   2.544   4.622
    1C        C   66   3.703   2.505   4.628
    1C        C   67   3.906   2.563   4.745
    1C        C   68   3.844   2.534   4.868
    1C        C   69   4.057   2.589   4.980
    1C        C   70   3.926   2.538   4.981
    1C        C   71   2.834   2.742   2.311
    1C        C   72   2.888   2.694   2.433
    1C        C   73   2.835   2.746   2.553
    1C        C   74   3.010   2.629   2.678
    1C        C   75   2.894   2.709   2.676
    1C        C   76   3.077   2.598   2.798
    1C        C   77   3.017   2.639   2.919
    1C        C   78   3.211   2.559   3.041
    1C        C   79   3.080   2.610   3.042
    1C        C   80   3.280   2.532   3.162
    1C        C   81   3.215   2.557   3.285
    1C        C   82   3.415   2.496   3.407
    1C        C   83   3.278   2.531   3.409
    1C        C   84   3.488   2.494   3.528
    1C        C   85   3.423   2.508   3.652
    1C        C   86   3.631   2.502   3.774
    1C        C   87   3.490   2.509   3.777
    1C        C   88   3.703   2.510   3.895
    1C        C   89   3.632   2.504   4.018
    1C        C   90   3.840   2.547   4.137
    1C        C   91   3.703   2.513   4.140
    1C        C   92   3.908   2.572   4.259
    1C        C   93   3.841   2.545   4.380
    1C        C   94   4.032   2.638   4.502
    1C        C   95   3.909   2.568   4.502
    1C        C   96   4.093   2.674   4.624
    1C        C   97   4.031   2.632   4.743
    1C        C   98   4.194   2.768   4.866
    1C        C   99   4.102   2.659   4.864
    1C        C  100   4.217   2.843   4.983
    1C        C  101   2.827   2.735   2.071
    1C        C  102   2.991   2.594   2.193
    1C        C  103   2.878   2.682   2.190
    1C        C  104   3.065   2.574   2.313
    1C        C  105   3.008   2.620   2.433
    1C        C  106   3.203   2.542   2.553
    1C        C  107   3.071   2.592   2.556
    1C        C  108   3.276   2.521   2.673
    1C        C  109   3.208   2.545   2.795
    1C        C  110   3.414   2.502   2.918
    1C        C  111   3.275   2.530   2.918
    1C        C  112   3.488   2.494   3.038
    1C        C  113   3.418   2.505   3.161
    1C        C  114   3.627   2.497   3.283
    1C        C  115   3.485   2.490   3.284
    1C        C  116   3.696   2.510   3.406
    1C        C  117   3.629   2.498   3.530
    1C        C  118   3.837   2.543   3.648
    1C        C  119   3.701   2.504   3.651
    1C        C  120   3.902   2.575   3.770
    1C        C  121   3.838   2.549   3.893
    1C        C  122   4.027   2.645   4.016
    1C        C  123   3.906   2.571   4.015
    1C        C  124   4.090   2.682   4.137
    1C        C  125   4.031   2.641   4.259
    1C        C  126   4.200   2.770   4.380
    1C        C  127   4.091   2.680   4.381
    1C        C  128   4.246   2.822   4.503
    1C        C  129   4.195   2.772   4.625
    1C        C  130   4.327   2.938   4.744
    1C        C  131   4.251   2.818   4.746
    1C        C  132   4.353   3.010   4.863
    1C        C  133   4.290   2.961   4.978
    1C        C  134   3.175   2.468   2.083
    1C        C  135   3.042   2.509   2.090
    1C        C  136   3.260   2.483   2.193
    1C        C  137   3.197   2.521   2.314
    1C        C  138   3.411   2.487   2.431
    1C        C  139   3.272   2.514   2.433
    1C        C  140   3.486   2.484   2.551
    1C        C  141   3.416   2.500   2.672
    1C        C  142   3.625   2.500   2.795
    1C        C  143   3.484   2.498   2.796
    1C        C  144   3.699   2.504   2.915
    1C        C  145   3.629   2.499   3.038
    1C        C  146   3.834   2.542   3.158
    1C        C  147   3.697   2.507   3.161
    1C        C  148   3.900   2.567   3.280
    1C        C  149   3.834   2.539   3.402
    1C        C  150   4.025   2.632   3.524
    1C        C  151   3.902   2.562   3.524
    1C        C  152   4.084   2.674   3.645
    1C        C  153   4.028   2.638   3.770
    1C        C  154   4.197   2.766   3.888
    1C        C  155   4.084   2.681   3.892
    1C        C  156   4.249   2.813   4.011
    1C        C  157   4.201   2.769   4.136
    1C        C  158   4.342   2.928   4.255
    1C        C  159   4.253   2.818   4.258
    1C        C  160   4.376   2.989   4.377
    1C        C  161   4.332   2.935   4.500
    1C        C  162   4.439   3.118   4.618
    1C        C  163   4.368   2.996   4.622
    1C        C  164   4.466   3.189   4.737
    1C        C  165   4.431   3.127   4.859
    1C        C  166   4.521   3.322   4.973
    1C        C  167   4.477   3.190   4.976
    1C        C  168   3.474   2.433   2.076
    1C        C  169   3.400   2.467   2.191
    1C        C  170   3.620   2.473   2.305
    1C        C  171   3.478   2.482   2.307
    1C        C  172   3.694   2.487   2.425
    1C        C  173   3.627   2.485   2.550
    1C        C  174   3.832   2.537   2.668
    1C        C  175   3.695   2.501   2.673
    1C        C  176   3.900   2.564   2.789
    1C        C  177   3.835   2.541   2.913
    1C        C  178   4.027   2.628   3.035
    1C        C  179   3.902   2.563   3.035
    1C        C  180   4.086   2.665   3.158
    1C        C  181   4.026   2.631   3.281
    1C        C  182   4.200   2.753   3.403
    1C        C  183   4.087   2.667   3.403
    1C        C  184   4.247   2.809   3.524
    1C        C  185   4.194   2.764   3.646
    1C        C  186   4.341   2.922   3.767
    1C        C  187   4.250   2.813   3.766
    1C        C  188   4.375   2.983   3.889
    1C        C  189   4.338   2.923   4.011
    1C        C  190   4.444   3.110   4.130
    1C        C  191   4.380   2.984   4.131
    1C        C  192   4.470   3.178   4.251
    1C        C  193   4.437   3.117   4.374
    1C        C  194   4.508   3.318   4.493
    1C        C  195   4.466   3.183   4.496
    1C        C  196   4.523   3.391   4.612
    1C        C  197   4.517   3.322   4.735
    1C        C  198   4.564   3.535   4.851
    1C        C  199   4.546   3.393   4.855
    1C        C  200   4.585   3.620   4.964
    1C        C  201   3.613   2.426   2.073
    1C        C  202   3.827   2.521   2.182
    1C        C  203   3.694   2.467   2.184
    1C        C  204   3.900   2.541   2.303
    1C        C  205   3.831   2.519   2.424
    1C        C  206   4.021   2.622   2.546
    1C        C  207   3.896   2.557   2.544
    1C        C  208   4.085   2.659   2.666
    1C        C  209   4.028   2.624   2.790
    1C        C  210   4.199   2.750   2.911
    1C        C  211   4.089   2.662   2.912
    1C        C  212   4.246   2.802   3.033
    1C        C  213   4.198   2.752   3.157
    1C        C  214   4.336   2.912   3.277
    1C        C  215   4.249   2.801   3.279
    1C        C  216   4.375   2.975   3.397
    1C        C  217   4.336   2.919   3.520
    1C        C  218   4.438   3.106   3.639
    1C        C  219   4.377   2.978   3.642
    1C        C  220   4.466   3.173   3.761
    1C        C  221   4.439   3.109   3.884
    1C        C  222   4.502   3.311   4.006
    1C        C  223   4.467   3.175   4.006
    1C        C  224   4.520   3.382   4.127
    1C        C  225   4.511   3.313   4.249
    1C        C  226   4.528   3.527   4.368
    1C        C  227   4.522   3.386   4.370
    1C        C  228   4.529   3.602   4.488
    1C        C  229   4.535   3.532   4.611
    1C        C  230   4.505   3.745   4.731
    1C        C  231   4.538   3.607   4.731
    1C        C  232   4.497   3.822   4.849
    1C        C  233   4.544   3.754   4.962
    1C        C  234   4.020   2.617   2.068
    1C        C  235   3.899   2.550   2.065
    1C        C  236   4.088   2.651   2.187
    1C        C  237   4.025   2.608   2.305
    1C        C  238   4.202   2.737   2.424
    1C        C  239   4.085   2.655   2.424
    1C        C  240   4.256   2.787   2.544
    1C        C  241   4.198   2.745   2.665
    1C        C  242   4.336   2.907   2.787
    1C        C  243   4.246   2.799   2.787
    1C        C  244   4.376   2.966   2.909
    1C        C  245   4.335   2.911   3.034
    1C        C  246   4.438   3.098   3.150
    1C        C  247   4.377   2.971   3.155
    1C        C  248   4.461   3.166   3.271
    1C        C  249   4.440   3.101   3.395
    1C        C  250   4.500   3.306   3.519
    1C        C  251   4.463   3.170   3.516
    1C        C  252   4.514   3.378   3.640
    1C        C  253   4.503   3.309   3.763
    1C        C  254   4.536   3.521   3.879
    1C        C  255   4.522   3.380   3.884
    1C        C  256   4.531   3.591   4.002
    1C        C  257   4.530   3.523   4.125
    1C        C  258   4.506   3.737   4.243
    1C        C  259   4.525   3.598   4.246
    1C        C  260   4.481   3.807   4.363
    1C        C  261   4.499   3.740   4.486
    1C        C  262   4.428   3.939   4.604
    1C        C  263   4.489   3.812   4.607
    1C        C  264   4.404   4.011   4.723
    1C        C  265   4.438   3.950   4.845
    1C        C  266   4.325   4.136   4.960
    1C        C  267   4.393   4.015   4.961
    1C        C  268   4.262   2.786   2.065
    1C        C  269   4.196   2.741   2.180
    1C        C  270   4.344   2.894   2.301
    1C        C  271   4.254   2.784   2.302
    1C        C  272   4.379   2.961   2.421
    1C        C  273   4.340   2.901   2.543
    1C        C  274   4.441   3.090   2.664
    1C        C  275   4.378   2.963   2.664
    1C        C  276   4.479   3.152   2.785
    1C        C  277   4.447   3.088   2.907
    1C        C  278   4.506   3.296   3.027
    1C        C  279   4.467   3.161   3.026
    1C        C  280   4.517   3.368   3.149
    1C        C  281   4.503   3.301   3.272
    1C        C  282   4.521   3.512   3.390
    1C        C  283   4.515   3.371   3.394
    1C        C  284   4.518   3.585   3.511
    1C        C  285   4.522   3.519   3.635
    1C        C  286   4.499   3.729   3.755
    1C        C  287   4.526   3.590   3.757
    1C        C  288   4.483   3.798   3.877
    1C        C  289   4.501   3.729   3.999
    1C        C  290   4.434   3.934   4.119
    1C        C  291   4.486   3.802   4.119
    1C        C  292   4.402   4.001   4.240
    1C        C  293   4.431   3.939   4.364
    1C        C  294   4.328   4.129   4.480
    1C        C  295   4.401   4.008   4.483
    1C        C  296   4.289   4.189   4.602
    1C        C  297   4.334   4.135   4.724
    1C        C  298   4.206   4.319   4.841
    1C        C  299   4.291   4.203   4.842
    1C        C  300   4.174   4.409   4.948
    1C        C  301   4.354   2.890   2.065
    1C        C  302   4.471   3.074   2.180
    1C        C  303   4.398   2.951   2.183
    1C        C  304   4.479   3.150   2.300
    1C        C  305   4.450   3.083   2.421
    1C        C  306   4.510   3.289   2.541
    1C        C  307   4.472   3.152   2.542
    1C        C  308   4.519   3.360   2.662
    1C        C  309   4.515   3.288   2.784
    1C        C  310   4.525   3.504   2.902
    1C        C  311   4.524   3.362   2.904
    1C        C  312   4.525   3.578   3.023
    1C        C  313   4.526   3.509   3.146
    1C        C  314   4.495   3.721   3.265
    1C        C  315   4.519   3.582   3.267
    1C        C  316   4.480   3.791   3.386
    1C        C  317   4.499   3.725   3.510
    1C        C  318   4.433   3.927   3.631
    1C        C  319   4.485   3.796   3.631
    1C        C  320   4.399   3.992   3.752
    1C        C  321   4.432   3.930   3.874
    1C        C  322   4.327   4.114   3.996
    1C        C  323   4.400   3.993   3.996
    1C        C  324   4.279   4.173   4.115
    1C        C  325   4.326   4.119   4.237
    1C        C  326   4.191   4.287   4.355
    1C        C  327   4.290   4.186   4.356
    1C        C  328   4.142   4.339   4.477
    1C        C  329   4.193   4.294   4.600
    1C        C  330   4.032   4.440   4.713
    1C        C  331   4.145   4.354   4.718
    1C        C  332   3.972   4.492   4.830
    1C        C  333   4.055   4.483   4.943
    1C        C  334   4.558   3.272   2.062
    1C        C  335   4.537   3.133   2.067
    1C        C  336   4.550   3.353   2.176
    1C        C  337   4.522   3.285   2.297
    1C        C  338   4.533   3.498   2.417
    1C        C  339   4.531   3.356   2.419
    1C        C  340   4.525   3.572   2.537
    1C        C  341   4.526   3.501   2.659
    1C        C  342   4.499   3.714   2.776
    1C        C  343   4.518   3.574   2.780
    1C        C  344   4.485   3.785   2.898
    1C        C  345   4.499   3.717   3.020
    1C        C  346   4.430   3.920   3.140
    1C        C  347   4.479   3.787   3.141
    1C        C  348   4.404   3.986   3.262
    1C        C  349   4.430   3.923   3.386
    1C        C  350   4.329   4.111   3.507
    1C        C  351   4.401   3.989   3.508
    1C        C  352   4.286   4.170   3.627
    1C        C  353   4.324   4.112   3.750
    1C        C  354   4.185   4.271   3.869
    1C        C  355   4.284   4.170   3.873
    1C        C  356   4.129   4.320   3.990
    1C        C  357   4.177   4.271   4.113
    1C        C  358   4.011   4.403   4.233
    1C        C  359   4.130   4.326   4.234
    1C        C  360   3.953   4.440   4.357
    1C        C  361   4.022   4.415   4.477
    1C        C  362   3.832   4.522   4.597
    1C        C  363   3.962   4.468   4.593
    1C        C  364   3.764   4.552   4.717
    1C        C  365   3.842   4.546   4.835
    1C        C  366   3.632   4.603   4.950
    1C        C  367   3.769   4.576   4.951
    1C        C  368   4.516   3.562   2.055
    1C        C  369   4.532   3.493   2.176
    1C        C  370   4.503   3.708   2.288
    1C        C  371   4.524   3.568   2.295
    1C        C  372   4.495   3.781   2.408
    1C        C  373   4.508   3.712   2.531
    1C        C  374   4.432   3.910   2.652
    1C        C  375   4.486   3.780   2.652
    1C        C  376   4.401   3.977   2.773
    1C        C  377   4.433   3.916   2.896
    1C        C  378   4.318   4.098   3.014
    1C        C  379   4.397   3.980   3.017
    1C        C  380   4.275   4.153   3.137
    1C        C  381   4.324   4.102   3.259
    1C        C  382   4.181   4.257   3.380
    1C        C  383   4.279   4.155   3.382
    1C        C  384   4.125   4.305   3.501
    1C        C  385   4.182   4.266   3.624
    1C        C  386   4.009   4.387   3.746
    1C        C  387   4.128   4.311   3.747
    1C        C  388   3.950   4.433   3.866
    1C        C  389   4.010   4.396   3.988
    1C        C  390   3.820   4.490   4.111
    1C        C  391   3.950   4.435   4.110
    1C        C  392   3.757   4.522   4.234
    1C        C  393   3.827   4.503   4.355
    1C        C  394   3.622   4.562   4.475
    1C        C  395   3.759   4.531   4.476
    1C        C  396   3.549   4.576   4.595
    1C        C  397   3.624   4.572   4.715
    1C        C  398   3.414   4.561   4.840
    1C        C  399   3.553   4.586   4.836
    1C        C  400   3.345   4.523   4.956
    1C        C  401   4.505   3.701   2.053
    1C        C  402   4.457   3.917   2.170
    1C        C  403   4.493   3.781   2.167
    1C        C  404   4.412   3.976   2.290
    1C        C  405   4.444   3.912   2.412
    1C        C  406   4.328   4.096   2.528
    1C        C  407   4.401   3.975   2.531
    1C        C  408   4.282   4.153   2.648
    1C        C  409   4.323   4.095   2.770
    1C        C  410   4.181   4.255   2.888
    1C        C  411   4.279   4.154   2.891
    1C        C  412   4.128   4.299   3.012
    1C        C  413   4.179   4.256   3.137
    1C        C  414   4.007   4.381   3.258
    1C        C  415   4.126   4.304   3.259
    1C        C  416   3.944   4.413   3.380
    1C        C  417   4.006   4.381   3.502
    1C        C  418   3.815   4.476   3.622
    1C        C  419   3.944   4.417   3.624
    1C        C  420   3.749   4.502   3.744
    1C        C  421   3.819   4.487   3.866
    1C        C  422   3.614   4.536   3.989
    1C        C  423   3.752   4.506   3.988
    1C        C  424   3.544   4.542   4.112
    1C        C  425   3.617   4.537   4.233
    1C        C  426   3.406   4.552   4.357
    1C        C  427   3.548   4.554   4.355
    1C        C  428   3.336   4.555   4.480
    1C        C  429   3.408   4.567   4.601
    1C        C  430   3.197   4.527   4.725
    1C        C  431   3.337   4.553   4.722
    1C        C  432   3.128   4.495   4.846
    1C        C  433   3.210   4.494   4.960
    1C        C  434   4.388   4.124   2.057
    1C        C  435   4.450   3.998   2.055
    1C        C  436   4.301   4.160   2.164
    1C        C  437   4.330   4.093   2.286
    1C        C  438   4.186   4.254   2.405
    1C        C  439   4.284   4.153   2.406
    1C        C  440   4.127   4.302   2.524
    1C        C  441   4.179   4.251   2.645
    1C        C  442   4.011   4.382   2.767
    1C        C  443   4.127   4.302   2.766
    1C        C  444   3.950   4.415   2.890
    1C        C  445   4.007   4.373   3.013
    1C        C  446   3.817   4.471   3.133
    1C        C  447   3.945   4.409   3.134
    1C        C  448   3.749   4.493   3.255
    1C        C  449   3.814   4.469   3.378
    1C        C  450   3.611   4.529   3.499
    1C        C  451   3.748   4.498   3.500
    1C        C  452   3.542   4.543   3.622
    1C        C  453   3.612   4.536   3.744
    1C        C  454   3.402   4.553   3.867
    1C        C  455   3.543   4.549   3.867
    1C        C  456   3.332   4.548   3.990
    1C        C  457   3.403   4.551   4.112
    1C        C  458   3.199   4.507   4.239
    1C        C  459   3.335   4.544   4.236
    1C        C  460   3.133   4.489   4.363
    1C        C  461   3.201   4.515   4.484
    1C        C  462   3.003   4.433   4.606
    1C        C  463   3.131   4.494   4.605
    1C        C  464   2.934   4.405   4.726
    1C        C  465   2.994   4.446   4.848
    1C        C  466   2.810   4.337   4.968
    1C        C  467   2.911   4.434   4.964
    1C        C  468   4.125   4.287   2.045
    1C        C  469   4.193   4.253   2.163
    1C        C  470   4.008   4.371   2.281
    1C        C  471   4.130   4.298   2.283
    1C        C  472   3.944   4.405   2.401
    1C        C  473   4.008   4.377   2.524
    1C        C  474   3.816   4.469   2.647
    1C        C  475   3.946   4.414   2.646
    1C        C  476   3.749   4.490   2.770
    1C        C  477   3.819   4.467   2.890
    1C        C  478   3.611   4.516   3.011
    1C        C  479   3.750   4.494   3.011
    1C        C  480   3.538   4.530   3.131
    1C        C  481   3.611   4.522   3.252
    1C        C  482   3.402   4.534   3.378
    1C        C  483   3.543   4.533   3.375
    1C        C  484   3.330   4.538   3.500
    1C        C  485   3.400   4.546   3.622
    1C        C  486   3.196   4.501   3.748
    1C        C  487   3.332   4.540   3.745
    1C        C  488   3.130   4.485   3.872
    1C        C  489   3.195   4.515   3.995
    1C        C  490   3.009   4.416   4.117
    1C        C  491   3.131   4.487   4.117
    1C        C  492   2.951   4.381   4.241
    1C        C  493   3.006   4.425   4.363
    1C        C  494   2.835   4.299   4.488
    1C        C  495   2.945   4.388   4.485
    1C        C  496   2.784   4.253   4.611
    1C        C  497   2.825   4.314   4.731
    1C        C  498   2.673   4.166   4.850
    1C        C  499   2.761   4.276   4.852
    1C        C  500   2.598   4.124   4.961
    1C        C  501   4.007   4.360   2.042
    1C        C  502   3.818   4.465   2.159
    1C        C  503   3.946   4.407   2.159
    1C        C  504   3.746   4.482   2.280
    1C        C  505   3.813   4.458   2.402
    1C        C  506   3.609   4.510   2.525
    1C        C  507   3.747   4.482   2.524
    1C        C  508   3.539   4.525   2.647
    1C        C  509   3.612   4.523   2.768
    1C        C  510   3.398   4.530   2.888
    1C        C  511   3.539   4.525   2.889
    1C        C  512   3.328   4.526   3.011
    1C        C  513   3.397   4.535   3.133
    1C        C  514   3.191   4.498   3.259
    1C        C  515   3.329   4.527   3.257
    1C        C  516   3.123   4.476   3.381
    1C        C  517   3.193   4.502   3.501
    1C        C  518   3.003   4.417   3.628
    1C        C  519   3.130   4.478   3.625
    1C        C  520   2.945   4.378   3.751
    1C        C  521   3.007   4.416   3.872
    1C        C  522   2.841   4.286   4.000
    1C        C  523   2.949   4.378   3.994
    1C        C  524   2.793   4.238   4.124
    1C        C  525   2.842   4.291   4.245
    1C        C  526   2.700   4.135   4.368
    1C        C  527   2.787   4.246   4.367
    1C        C  528   2.656   4.080   4.491
    1C        C  529   2.696   4.142   4.611
    1C        C  530   2.586   3.963   4.733
    1C        C  531   2.645   4.093   4.733
    1C        C  532   2.539   3.903   4.853
    1C        C  533   2.533   4.000   4.959
    1C        C  534   3.619   4.558   2.044
    1C        C  535   3.751   4.509   2.044
    1C        C  536   3.537   4.529   2.158
    1C        C  537   3.608   4.516   2.280
    1C        C  538   3.398   4.525   2.407
    1C        C  539   3.539   4.526   2.403
    1C        C  540   3.323   4.518   2.526
    1C        C  541   3.398   4.521   2.646
    1C        C  542   3.189   4.483   2.770
    1C        C  543   3.326   4.517   2.767
    1C        C  544   3.123   4.468   2.894
    1C        C  545   3.191   4.490   3.016
    1C        C  546   2.997   4.405   3.139
    1C        C  547   3.124   4.468   3.138
    1C        C  548   2.939   4.369   3.263
    1C        C  549   2.997   4.412   3.384
    1C        C  550   2.835   4.281   3.509
    1C        C  551   2.941   4.375   3.508
    1C        C  552   2.785   4.235   3.633
    1C        C  553   2.835   4.289   3.753
    1C        C  554   2.710   4.122   3.880
    1C        C  555   2.793   4.236   3.877
    1C        C  556   2.666   4.066   4.002
    1C        C  557   2.709   4.124   4.124
    1C        C  558   2.605   3.942   4.251
    1C        C  559   2.668   4.069   4.247
    1C        C  560   2.573   3.881   4.374
    1C        C  561   2.596   3.952   4.494
    1C        C  562   2.534   3.750   4.618
    1C        C  563   2.564   3.888   4.616
    1C        C  564   2.512   3.683   4.740
    1C        C  565   2.517   3.762   4.859
    1C        C  566   2.527   3.548   4.979
    1C        C  567   2.524   3.687   4.977
    1C        C  568   3.331   4.482   2.042
    1C        C  569   3.396   4.516   2.161
    1C        C  570   3.189   4.481   2.284
    1C        C  571   3.326   4.518   2.285
    1C        C  572   3.120   4.455   2.405
    1C        C  573   3.187   4.481   2.527
    1C        C  574   2.990   4.406   2.651
    1C        C  575   3.118   4.466   2.649
    1C        C  576   2.931   4.369   2.774
    1C        C  577   2.996   4.405   2.895
    1C        C  578   2.830   4.273   3.020
    1C        C  579   2.938   4.365   3.017
    1C        C  580   2.784   4.222   3.144
    1C        C  581   2.835   4.274   3.265
    1C        C  582   2.699   4.115   3.388
    1C        C  583   2.784   4.228   3.389
    1C        C  584   2.665   4.059   3.513
    1C        C  585   2.700   4.122   3.635
    1C        C  586   2.607   3.935   3.760
    1C        C  587   2.673   4.060   3.759
    1C        C  588   2.580   3.872   3.883
    1C        C  589   2.607   3.937   4.005
    1C        C  590   2.547   3.738   4.131
    1C        C  591   2.585   3.874   4.129
    1C        C  592   2.530   3.671   4.254
    1C        C  593   2.541   3.744   4.375
    1C        C  594   2.517   3.535   4.500
    1C        C  595   2.522   3.676   4.498
    1C        C  596   2.516   3.466   4.623
    1C        C  597   2.507   3.541   4.743
    1C        C  598   2.527   3.328   4.864
    1C        C  599   2.516   3.469   4.864
    1C        C  600   2.522   3.246   4.978
    1C        C  601   3.197   4.448   2.047
    1C        C  602   2.985   4.398   2.167
    1C        C  603   3.121   4.445   2.165
    1C        C  604   2.924   4.362   2.290
    1C        C  605   2.992   4.397   2.409
    1C        C  606   2.821   4.274   2.533
    1C        C  607   2.928   4.367   2.531
    1C        C  608   2.774   4.221   2.656
    1C        C  609   2.824   4.277   2.776
    1C        C  610   2.689   4.115   2.900
    1C        C  611   2.777   4.225   2.899
    1C        C  612   2.653   4.054   3.022
    1C        C  613   2.697   4.111   3.144
    1C        C  614   2.600   3.926   3.272
    1C        C  615   2.657   4.055   3.267
    1C        C  616   2.575   3.864   3.396
    1C        C  617   2.601   3.933   3.517
    1C        C  618   2.535   3.732   3.641
    1C        C  619   2.574   3.868   3.640
    1C        C  620   2.525   3.664   3.765
    1C        C  621   2.541   3.736   3.886
    1C        C  622   2.516   3.528   4.014
    1C        C  623   2.530   3.668   4.009
    1C        C  624   2.515   3.457   4.136
    1C        C  625   2.511   3.531   4.256
    1C        C  626   2.538   3.323   4.382
    1C        C  627   2.512   3.462   4.379
    1C        C  628   2.558   3.254   4.504
    1C        C  629   2.537   3.327   4.623
    1C        C  630   2.598   3.122   4.748
    1C        C  631   2.551   3.256   4.745
    1C        C  632   2.614   3.051   4.870
    1C        C  633   2.562   3.112   4.989
    1C        C  634   2.785   4.305   2.058
    1C        C  635   2.897   4.390   2.055
    1C        C  636   2.756   4.225   2.169
    1C        C  637   2.814   4.271   2.289
    1C        C  638   2.684   4.109   2.413
    1C        C  639   2.765   4.224   2.413
    1C        C  640   2.652   4.048   2.536
    1C        C  641   2.685   4.112   2.657
    1C        C  642   2.591   3.922   2.780
    1C        C  643   2.649   4.051   2.780
    1C        C  644   2.567   3.858   2.903
    1C        C  645   2.594   3.926   3.024
    1C        C  646   2.532   3.727   3.151
    1C        C  647   2.576   3.862   3.148
    1C        C  648   2.519   3.659   3.274
    1C        C  649   2.536   3.728   3.396
    1C        C  650   2.511   3.521   3.522
    1C        C  651   2.517   3.662   3.520
    1C        C  652   2.514   3.455   3.646
    1C        C  653   2.513   3.524   3.770
    1C        C  654   2.524   3.314   3.892
    1C        C  655   2.509   3.455   3.893
    1C        C  656   2.541   3.247   4.016
    1C        C  657   2.526   3.316   4.138
    1C        C  658   2.600   3.119   4.259
    1C        C  659   2.548   3.251   4.262
    1C        C  660   2.634   3.058   4.381
    1C        C  661   2.601   3.119   4.504
    1C        C  662   2.710   2.940   4.626
    1C        C  663   2.627   3.055   4.627
    1C        C  664   2.751   2.881   4.748
    1C        C  665   2.701   2.937   4.869
    1C        C  666   2.749   2.877   4.986
    1C        C  667   2.692   4.020   2.056
    1C        C  668   2.689   4.101   2.171
    1C        C  669   2.592   3.914   2.293
    1C        C  670   2.646   4.045   2.293
    1C        C  671   2.562   3.851   2.416
    1C        C  672   2.591   3.920   2.536
    1C        C  673   2.526   3.719   2.661
    1C        C  674   2.569   3.853   2.659
    1C        C  675   2.514   3.651   2.785
    1C        C  676   2.532   3.721   2.907
    1C        C  677   2.508   3.513   3.032
    1C        C  678   2.518   3.654   3.030
    1C        C  679   2.512   3.445   3.156
    1C        C  680   2.506   3.519   3.277
    1C        C  681   2.525   3.311   3.404
    1C        C  682   2.503   3.450   3.400
    1C        C  683   2.545   3.243   3.526
    1C        C  684   2.527   3.314   3.647
    1C        C  685   2.599   3.116   3.771
    1C        C  686   2.543   3.246   3.770
    1C        C  687   2.638   3.057   3.893
    1C        C  688   2.602   3.120   4.014
    1C        C  689   2.717   2.943   4.140
    1C        C  690   2.633   3.056   4.137
    1C        C  691   2.759   2.888   4.263
    1C        C  692   2.713   2.941   4.385
    1C        C  693   2.763   2.888   4.506
    1C        C  694   2.639   3.891   2.061
    1C        C  695   2.529   3.704   2.177
    1C        C  696   2.583   3.834   2.177
    1C        C  697   2.513   3.639   2.302
    1C        C  698   2.524   3.715   2.420
    1C        C  699   2.495   3.505   2.544
    1C        C  700   2.510   3.645   2.542
    1C        C  701   2.500   3.436   2.668
    1C        C  702   2.501   3.511   2.788
    1C        C  703   2.523   3.302   2.911
    1C        C  704   2.504   3.441   2.911
    1C        C  705   2.537   3.235   3.035
    1C        C  706   2.528   3.305   3.158
    1C        C  707   2.594   3.109   3.281
    1C        C  708   2.544   3.241   3.283
    1C        C  709   2.632   3.051   3.405
    1C        C  710   2.601   3.113   3.528
    1C        C  711   2.712   2.935   3.650
    1C        C  712   2.630   3.049   3.651
    1C        C  713   2.762   2.884   3.772
    1C        C  714   2.720   2.942   3.895
    1C        C  715   2.759   2.885   4.018
    1C        C  716   2.448   3.502   2.066
    1C        C  717   2.494   3.634   2.061
    1C        C  718   2.464   3.424   2.185
    1C        C  719   2.481   3.500   2.303
    1C        C  720   2.514   3.292   2.430
    1C        C  721   2.484   3.430   2.425
    1C        C  722   2.530   3.222   2.551
    1C        C  723   2.521   3.297   2.671
    1C        C  724   2.592   3.096   2.792
    1C        C  725   2.537   3.226   2.793
    1C        C  726   2.622   3.037   2.917
    1C        C  727   2.589   3.104   3.037
    1C        C  728   2.710   2.930   3.160
    1C        C  729   2.626   3.044   3.160
    1C        C  730   2.757   2.880   3.283
    1C        C  731   2.715   2.937   3.406
    1C        C  732   2.759   2.882   3.528
    1C        C  733   2.498   3.202   2.072
    1C        C  734   2.490   3.283   2.186
    1C        C  735   2.586   3.091   2.309
    1C        C  736   2.527   3.221   2.308
    1C        C  737   2.613   3.022   2.429
    1C        C  738   2.581   3.091   2.548
    1C        C  739   2.697   2.912   2.670
    1C        C  740   2.624   3.033   2.670
    1C        C  741   2.745   2.865   2.794
    1C        C  742   2.705   2.923   2.917
    1C        C  743   2.757   2.875   3.039
    1C        C  744   2.555   3.075   2.073
    1C        C  745   2.690   2.903   2.188
    1C        C  746   2.615   3.024   2.188
    1C        C  747   2.739   2.849   2.308
    1C        C  748   2.697   2.909   2.429
    1C        C  749   2.740   2.851   2.550
    1C        C  750   2.744   2.846   2.072
    1C        C  751   3.667   2.316   1.990
    1C        O  752   3.654   2.193   2.015
    1C        O  753   3.663   2.318   1.850
    1C        C  754   4.629   3.063   1.975
    1C        O  755   4.606   3.039   1.853
    1C        O  756   4.761   3.056   2.019
    1C        C  757   4.455   4.240   1.993
    1C        O  758   4.547   4.302   2.054
    1C        O  759   4.468   4.270   1.857
    1C        C  760   3.586   4.672   1.956
    1C        O  761   3.635   4.788   1.958
    1C        O  762   3.555   4.633   1.825
    1C        C  763   2.888   4.491   1.947
    1C        O  764   2.922   4.455   1.830
    1C        O  765   2.896   4.630   1.957
    1C        C  766   2.318   3.482   1.998
    1C        O  767   2.317   3.449   1.877
    1C        O  768   2.198   3.535   2.046
    1C        C  769   4.711   3.601   5.040
    1C        O  770   4.708   3.574   5.163
    1C        O  771   4.837   3.634   4.989
    1C        C  772   4.278   4.461   5.039
    1C        O  773   4.262   4.453   5.164
    1C        O  774   4.360   4.571   5.013
    1C        C  775   4.151   2.512   5.063
    1C        O  776   4.167   2.389   5.042
    1C        O  777   4.169   2.555   5.195
    1C        C  778   2.867   4.554   5.039
    1C        O  779   2.795   4.644   4.986
    1C        O  780   2.939   4.601   5.149
    1C        C  781   2.484   3.041   5.092
    1C        O  782   2.390   2.964   5.058
    1C        O  783   2.506   3.071   5.226
    1C        C  784   2.405   4.011   5.033
    1C        O  785   2.295   4.031   4.976
    1C        O  786   2.386   3.991   5.171
    1C        C  787   2.953   2.405   2.033
    1C        O  788   2.906   2.419   1.917
    1C        O  789   2.895   2.300   2.103
    1C        C  790   3.187   2.381   5.070
    1C        O  791   3.105   2.290   5.043
    1C        O  792   3.227   2.390   5.204
    1C        H  793   4.276   3.026   5.062
    1C        H  794   4.144   2.834   5.061
    1C        H  795   4.484   3.138   5.069
    1C        H  796   4.551   3.365   5.066
    1C        H  797   4.552   3.805   5.055
    1C        H  798   4.405   3.975   5.060
    1C        H  799   4.307   4.187   5.052
    1C        H  800   4.046   4.564   5.012
    1C        H  801   3.816   4.570   5.047
    1C        H  802   3.601   4.683   5.014
    1C        H  803   3.394   4.547   5.049
    1C        H  804   3.160   4.489   5.054
    1C        H  805   3.895   2.477   5.063
    1C        H  806   3.678   2.468   5.082
    1C        H  807   2.993   2.548   5.059
    1C        H  808   3.446   2.465   5.080
    1C        H  809   2.896   2.762   5.081
    1C        H  810   2.677   2.867   5.064
    1C        H  811   2.482   3.287   5.068
    1C        H  812   2.497   3.503   5.071
    1C        H  813   2.564   3.739   5.062
    1C        H  814   2.559   4.197   5.029
    1C        H  815   2.791   4.289   5.062
    1C        H  816   2.710   2.879   1.976
    1C        H  817   2.829   2.680   1.979
    1C        H  818   3.219   2.443   1.989
    1C        H  819   3.424   2.381   1.996
    1C        H  820   3.876   2.494   1.977
    1C        H  821   4.058   2.646   1.972
    1C        H  822   4.233   2.752   1.968
    1C        H  823   4.375   2.924   1.966
    1C        H  824   4.622   3.307   1.984
    1C        H  825   4.481   3.512   1.968
    1C        H  826   4.445   3.736   1.971
    1C        H  827   3.811   4.526   1.958
    1C        H  828   3.950   4.357   1.951
    1C        H  829   4.173   4.271   1.950
    1C        H  830   4.506   3.972   1.968
    1C        H  831   2.669   3.823   1.984
    1C        H  832   2.668   4.075   1.967
    1C        H  833   2.716   4.310   1.977
    1C        H  834   3.363   4.534   1.954
    1C        H  835   3.151   4.439   1.951
    1C        H  836   2.534   3.016   1.986
    1C        H  837   2.424   3.221   1.998
    1C        H  838   2.484   3.688   1.969
    2V3OU   H29  839   2.811   3.547   4.718
    2V3OU   C27  840   2.800   3.506   4.822
    2V3OU   H27  841   2.751   3.577   4.893
    2V3OU   H28  842   2.745   3.409   4.809
    2V3OU   O11  843   2.917   3.478   4.899
    2V3OU   C15  844   2.922   3.401   5.013
    2V3OU   C13  845   3.054   3.382   5.060
    2V3OU   C14  846   3.077   3.272   5.143
    2V3OU   C16  847   2.975   3.192   5.193
    2V3OU    H6  848   2.998   3.107   5.258
    2V3OU   C12  849   3.218   3.230   5.161
    2V3OU    O2  850   3.248   3.131   5.231
    2V3OU   C10  851   3.330   3.311   5.112
    2V3OU    C8  852   3.463   3.277   5.134
    2V3OU   O10  853   3.493   3.158   5.193
    2V3OU   H26  854   3.408   3.119   5.217
    2V3OU    C6  855   3.569   3.355   5.078
    2V3OU    C5  856   3.544   3.466   4.998
    2V3OU    C4  857   3.707   3.299   5.080
    2V3OU    H4  858   3.730   3.230   5.166
    2V3OU    H5  859   3.713   3.237   4.986
    2V3OU    C2  860   3.819   3.404   5.071
    2V3OU    O6  861   3.812   3.476   5.194
    2V3OU   H21  862   3.767   3.558   5.167
    2V3OU    C3  863   3.786   3.500   4.957
    2V3OU    H2  864   3.861   3.582   4.948
    2V3OU    H3  865   3.790   3.442   4.862
    2V3OU   C25  866   3.951   3.327   5.059
    2V3OU    O7  867   4.008   3.291   4.956
    2V3OU   C26  868   4.029   3.289   5.184
    2V3OU   H22  869   4.077   3.384   5.219
    2V3OU   H23  870   4.114   3.221   5.156
    2V3OU    O8  871   3.963   3.208   5.278
    2V3OU   H24  872   3.934   3.271   5.346
    2V3OU    C1  873   3.651   3.569   4.972
    2V3OU    H1  874   3.632   3.624   4.876
    2V3OU    O3  875   3.661   3.662   5.081
    2V3OU   C19  876   3.621   3.798   5.064
    2V3OU    H9  877   3.523   3.809   5.009
    2V3OU    O4  878   3.718   3.848   4.975
    2V3OU   C20  879   3.847   3.881   5.027
    2V3OU   H10  880   3.887   3.777   5.044
    2V3OU   C24  881   3.612   3.867   5.200
    2V3OU   H16  882   3.552   3.805   5.271
    2V3OU   H17  883   3.565   3.968   5.185
    2V3OU   C23  884   3.752   3.879   5.260
    2V3OU   H15  885   3.791   3.773   5.278
    2V3OU    N1  886   3.737   3.957   5.382
    2V3OU   H19  887   3.809   3.932   5.446
    2V3OU   H20  888   3.653   3.936   5.433
    2V3OU   C21  889   3.852   3.949   5.164
    2V3OU   H11  890   3.951   3.918   5.210
    2V3OU    O5  891   3.835   4.090   5.166
    2V3OU   H18  892   3.787   4.107   5.249
    2V3OU   C22  893   3.919   3.954   4.915
    2V3OU   H12  894   3.866   4.050   4.891
    2V3OU   H13  895   3.915   3.896   4.820
    2V3OU   H14  896   4.028   3.966   4.941
    2V3OU   C11  897   3.165   3.473   5.029
    2V3OU    O1  898   3.135   3.583   4.977
    2V3OU    C9  899   3.304   3.424   5.029
    2V3OU    C7  900   3.407   3.501   4.977
    2V3OU    O9  901   3.389   3.619   4.907
    2V3OU   H25  902   3.294   3.635   4.911
    2V3OU   C17  903   2.821   3.316   5.062
    2V3OU    H7  904   2.717   3.351   5.061
    2V3OU   C18  905   2.844   3.210   5.149
    2V3OU    H8  906   2.762   3.155   5.197
    3SOL     OW  907   3.609   4.207   4.573
    3SOL    HW1  908   3.570   4.174   4.487
    3SOL    HW2  909   3.666   4.287   4.555
    4SOL     OW  910   6.752   0.029   0.074
    4SOL    HW1  911   6.790   0.118   0.050
    4SOL    HW2  912   6.826   6.993   0.087
    5SOL     OW  913   3.948   1.279   1.422
    5SOL    HW1  914   3.893   1.271   1.338
    5SOL    HW2  915   3.983   1.189   1.447
    6SOL     OW  916   5.380   0.608   2.756
    6SOL    HW1  917   5.466   0.659   2.758
    6SOL    HW2  918   5.305   0.667   2.786
    7SOL     OW  919   1.527   4.645   3.989
    7SOL    HW1  920   1.539   4.692   4.076
    7SOL    HW2  921   1.537   4.710   3.914
    8SOL     OW  922   2.149   3.405   5.782
    8SOL    HW1  923   2.101   3.334   5.834
    8SOL    HW2  924   2.242   3.373   5.761
    9SOL     OW  925   6.413   1.142   6.356
    9SOL    HW1  926   6.335   1.095   6.397
    9SOL    HW2  927   6.482   1.159   6.426
   10SOL     OW  928   4.983   4.687   3.456
   10SOL    HW1  929   4.966   4.613   3.520
   10SOL    HW2  930   4.897   4.715   3.414
   11SOL     OW  931   2.261   1.471   0.672
   11SOL    HW1  932   2.308   1.387   0.643
   11SOL    HW2  933   2.193   1.448   0.742
   12SOL     OW  934   3.149   4.905   3.477
   12SOL    HW1  935   3.133   4.843   3.400
   12SOL    HW2  936   3.065   4.955   3.498
   13SOL     OW  937   4.643   6.012   2.343
   13SOL    HW1  938   4.552   6.039   2.372
   13SOL    HW2  939   4.697   5.983   2.422
   14SOL     OW  940   4.633   4.964   4.954
   14SOL    HW1  941   4.535   4.963   4.969
   14SOL    HW2  942   4.680   4.932   5.037
   15SOL     OW  943   0.397   5.954   6.208
   15SOL    HW1  944   0.396   6.051   6.233
   15SOL    HW2  945   0.480   5.911   6.243
   16SOL     OW  946   0.084   2.903   5.837
   16SOL    HW1  947   7.024   2.946   5.830
   16SOL    HW2  948   0.076   2.821   5.893
   17SOL     OW  949   6.098   0.892   5.263
   17SOL    HW1  950   6.114   0.991   5.272
   17SOL    HW2  951   6.029   0.876   5.192
   18SOL     OW  952   3.519   6.945   5.167
   18SOL    HW1  953   3.515   7.026   5.108
   18SOL    HW2  954   3.611   6.936   5.205
   19SOL     OW  955   0.949   1.273   3.094
   19SOL    HW1  956   1.012   1.270   3.017
   19SOL    HW2  957   0.858   1.246   3.064
   20SOL     OW  958   5.605   2.329   4.915
   20SOL    HW1  959   5.614   2.428   4.901
   20SOL    HW2  960   5.696   2.289   4.927
   21SOL     OW  961   3.514   6.102   2.569
   21SOL    HW1  962   3.604   6.088   2.526
   21SOL    HW2  963   3.526   6.148   2.657
   22SOL     OW  964   2.551   6.828   5.082
   22SOL    HW1  965   2.541   6.875   5.169
   22SOL    HW2  966   2.465   6.784   5.057
   23SOL     OW  967   5.296   4.310   2.254
   23SOL    HW1  968   5.373   4.369   2.232
   23SOL    HW2  969   5.299   4.284   2.350
   24SOL     OW  970   4.330   0.658   1.237
   24SOL    HW1  971   4.410   0.662   1.297
   24SOL    HW2  972   4.292   0.749   1.225
   25SOL     OW  973   2.823   6.947   3.383
   25SOL    HW1  974   2.895   6.930   3.451
   25SOL    HW2  975   2.736   6.962   3.429
   26SOL     OW  976   0.548   2.750   6.588
   26SOL    HW1  977   0.631   2.805   6.595
   26SOL    HW2  978   0.469   2.803   6.620
   27SOL     OW  979   6.116   1.576   1.547
   27SOL    HW1  980   6.050   1.575   1.622
   27SOL    HW2  981   6.193   1.636   1.571
   28SOL     OW  982   1.930   0.544   4.498
   28SOL    HW1  983   1.998   0.593   4.553
   28SOL    HW2  984   1.967   0.456   4.468
   29SOL     OW  985   7.013   0.647   0.343
   29SOL    HW1  986   7.022   0.561   0.292
   29SOL    HW2  987   6.962   0.714   0.288
   30SOL     OW  988   4.351   0.660   5.128
   30SOL    HW1  989   4.319   0.701   5.043
   30SOL    HW2  990   4.276   0.611   5.172
   31SOL     OW  991   1.036   3.087   5.707
   31SOL    HW1  992   1.076   3.007   5.662
   31SOL    HW2  993   1.006   3.153   5.638
   32SOL     OW  994   1.749   0.114   1.459
   32SOL    HW1  995   1.652   0.124   1.436
   32SOL    HW2  996   1.781   0.195   1.508
   33SOL     OW  997   0.652   4.406   6.002
   33SOL    HW1  998   0.643   4.409   5.903
   33SOL    HW2  999   0.716   4.334   6.028
   34SOL     OW 1000   1.865   4.939   5.328
   34SOL    HW1 1001   1.765   4.936   5.333
   34SOL    HW2 1002   1.894   4.905   5.238
   35SOL     OW 1003   3.973   2.962   0.073
   35SOL    HW1 1004   4.025   3.023   0.014
   35SOL    HW2 1005   3.919   3.015   0.138
   36SOL     OW 1006   4.730   0.950   3.736
   36SOL    HW1 1007   4.669   1.029   3.734
   36SOL    HW2 1008   4.773   0.944   3.826
   37SOL     OW 1009   2.009   1.474   3.816
   37SOL    HW1 1010   2.085   1.451   3.756
   37SOL    HW2 1011   1.935   1.516   3.763
   38SOL     OW 1012   1.261   4.712   2.094
   38SOL    HW1 1013   1.325   4.634   2.097
   38SOL    HW2 1014   1.206   4.706   2.011
   39SOL     OW 1015   6.456   5.362   6.675
   39SOL    HW1 1016   6.497   5.271   6.680
   39SOL    HW2 1017   6.499   5.422   6.742
   40SOL     OW 1018   3.527   0.779   6.115
   40SOL    HW1 1019   3.436   0.779   6.073
   40SOL    HW2 1020   3.548   0.687   6.149
   41SOL     OW 1021   6.056   4.088   1.979
   41SOL    HW1 1022   5.990   4.130   2.042
   41SOL    HW2 1023   6.132   4.151   1.964
   42SOL     OW 1024   2.205   5.795   5.275
   42SOL    HW1 1025   2.186   5.697   5.267
   42SOL    HW2 1026   2.150   5.845   5.209
   43SOL     OW 1027   5.058   6.878   4.949
   43SOL    HW1 1028   5.002   6.853   5.028
   43SOL    HW2 1029   5.146   6.831   4.954
   44SOL     OW 1030   5.915   2.222   5.365
   44SOL    HW1 1031   5.999   2.200   5.317
   44SOL    HW2 1032   5.837   2.185   5.315
   45SOL     OW 1033   4.047   5.032   0.137
   45SOL    HW1 1034   3.963   5.059   0.089
   45SOL    HW2 1035   4.072   4.939   0.110
   46SOL     OW 1036   0.899   3.234   5.059
   46SOL    HW1 1037   0.997   3.238   5.076
   46SOL    HW2 1038   0.882   3.197   4.968
   47SOL     OW 1039   5.636   3.104   1.681
   47SOL    HW1 1040   5.561   3.088   1.745
   47SOL    HW2 1041   5.723   3.093   1.730
   48SOL     OW 1042   6.539   3.908   6.942
   48SOL    HW1 1043   6.542   3.922   6.843
   48SOL    HW2 1044   6.467   3.843   6.965
   49SOL     OW 1045   4.725   3.367   0.125
   49SOL    HW1 1046   4.822   3.341   0.123
   49SOL    HW2 1047   4.669   3.287   0.106
   50SOL     OW 1048   6.143   2.627   6.179
   50SOL    HW1 1049   6.147   2.713   6.229
   50SOL    HW2 1050   6.107   2.555   6.239
   51SOL     OW 1051   2.071   4.914   3.368
   51SOL    HW1 1052   1.975   4.932   3.391
   51SOL    HW2 1053   2.131   4.959   3.434
   52SOL     OW 1054   5.646   2.777   1.588
   52SOL    HW1 1055   5.703   2.796   1.668
   52SOL    HW2 1056   5.554   2.814   1.603
   53SOL     OW 1057   3.974   0.372   2.597
   53SOL    HW1 1058   3.960   0.405   2.504
   53SOL    HW2 1059   4.006   0.277   2.595
   54SOL     OW 1060   5.153   6.289   6.631
   54SOL    HW1 1061   5.229   6.265   6.571
   54SOL    HW2 1062   5.134   6.387   6.624
   55SOL     OW 1063   1.706   2.968   6.366
   55SOL    HW1 1064   1.666   3.038   6.307
   55SOL    HW2 1065   1.665   2.973   6.457
   56SOL     OW 1066   1.728   2.284   6.814
   56SOL    HW1 1067   1.820   2.307   6.782
   56SOL    HW2 1068   1.734   2.236   6.902
   57SOL     OW 1069   4.300   0.840   0.668
   57SOL    HW1 1070   4.223   0.777   0.661
   57SOL    HW2 1071   4.369   0.816   0.600
   58SOL     OW 1072   1.080   1.076   6.396
   58SOL    HW1 1073   1.164   1.052   6.347
   58SOL    HW2 1074   1.103   1.135   6.473
   59SOL     OW 1075   5.595   3.599   6.230
   59SOL    HW1 1076   5.536   3.586   6.310
   59SOL    HW2 1077   5.593   3.516   6.174
   60SOL     OW 1078   5.376   0.717   3.040
   60SOL    HW1 1079   5.292   0.751   2.999
   60SOL    HW2 1080   5.380   0.618   3.032
   61SOL     OW 1081   0.392   0.168   5.052
   61SOL    HW1 1082   0.448   0.235   5.101
   61SOL    HW2 1083   0.385   0.193   4.956
   62SOL     OW 1084   0.230   2.091   2.159
   62SOL    HW1 1085   0.243   2.152   2.080
   62SOL    HW2 1086   0.210   2.146   2.240
   63SOL     OW 1087   4.092   6.280   4.575
   63SOL    HW1 1088   4.189   6.255   4.574
   63SOL    HW2 1089   4.042   6.221   4.511
   64SOL     OW 1090   1.176   4.683   6.796
   64SOL    HW1 1091   1.198   4.612   6.729
   64SOL    HW2 1092   1.110   4.747   6.756
   65SOL     OW 1093   0.815   0.136   5.114
   65SOL    HW1 1094   0.915   0.137   5.112
   65SOL    HW2 1095   0.779   0.156   5.023
   66SOL     OW 1096   4.259   0.175   1.955
   66SOL    HW1 1097   4.225   0.104   2.016
   66SOL    HW2 1098   4.321   0.236   2.006
   67SOL     OW 1099   0.270   3.088   1.283
   67SOL    HW1 1100   0.225   3.001   1.303
   67SOL    HW2 1101   0.369   3.079   1.300
   68SOL     OW 1102   6.732   2.271   5.792
   68SOL    HW1 1103   6.777   2.236   5.710
   68SOL    HW2 1104   6.633   2.254   5.786
   69SOL     OW 1105   0.857   5.525   5.515
   69SOL    HW1 1106   0.757   5.520   5.510
   69SOL    HW2 1107   0.896   5.442   5.476
   70SOL     OW 1108   5.174   3.295   4.875
   70SOL    HW1 1109   5.083   3.324   4.904
   70SOL    HW2 1110   5.220   3.371   4.828
   71SOL     OW 1111   4.518   1.970   4.393
   71SOL    HW1 1112   4.495   2.058   4.351
   71SOL    HW2 1113   4.442   1.939   4.449
   72SOL     OW 1114   6.620   0.560   3.581
   72SOL    HW1 1115   6.534   0.510   3.577
   72SOL    HW2 1116   6.601   0.658   3.591
   73SOL     OW 1117   3.061   0.424   0.804
   73SOL    HW1 1118   3.020   0.500   0.854
   73SOL    HW2 1119   2.995   0.348   0.802
   74SOL     OW 1120   1.954   1.687   0.068
   74SOL    HW1 1121   1.925   1.655   0.159
   74SOL    HW2 1122   2.046   1.726   0.075
   75SOL     OW 1123   4.262   1.662   0.738
   75SOL    HW1 1124   4.344   1.709   0.770
   75SOL    HW2 1125   4.289   1.587   0.676
   76SOL     OW 1126   3.049   4.476   5.349
   76SOL    HW1 1127   3.128   4.423   5.318
   76SOL    HW2 1128   3.010   4.526   5.272
   77SOL     OW 1129   1.368   4.892   4.219
   77SOL    HW1 1130   1.330   4.799   4.213
   77SOL    HW2 1131   1.444   4.901   4.154
   78SOL     OW 1132   4.341   1.481   1.268
   78SOL    HW1 1133   4.297   1.396   1.240
   78SOL    HW2 1134   4.415   1.502   1.204
   79SOL     OW 1135   1.855   5.482   2.065
   79SOL    HW1 1136   1.803   5.412   2.015
   79SOL    HW2 1137   1.798   5.564   2.075
   80SOL     OW 1138   4.708   1.700   5.275
   80SOL    HW1 1139   4.794   1.676   5.320
   80SOL    HW2 1140   4.672   1.619   5.228
   81SOL     OW 1141   3.128   5.991   1.535
   81SOL    HW1 1142   3.065   5.960   1.464
   81SOL    HW2 1143   3.087   6.066   1.586
   82SOL     OW 1144   1.148   6.320   1.329
   82SOL    HW1 1145   1.131   6.340   1.426
   82SOL    HW2 1146   1.238   6.276   1.319
   83SOL     OW 1147   5.470   1.854   5.172
   83SOL    HW1 1148   5.503   1.948   5.162
   83SOL    HW2 1149   5.479   1.827   5.268
   84SOL     OW 1150   6.252   2.754   3.318
   84SOL    HW1 1151   6.179   2.802   3.270
   84SOL    HW2 1152   6.284   2.678   3.261
   85SOL     OW 1153   2.319   0.332   4.035
   85SOL    HW1 1154   2.229   0.314   4.075
   85SOL    HW2 1155   2.342   0.428   4.049
   86SOL     OW 1156   5.809   1.273   6.322
   86SOL    HW1 1157   5.796   1.370   6.303
   86SOL    HW2 1158   5.723   1.233   6.353
   87SOL     OW 1159   3.624   3.828   6.503
   87SOL    HW1 1160   3.675   3.822   6.416
   87SOL    HW2 1161   3.549   3.762   6.502
   88SOL     OW 1162   3.229   3.499   6.777
   88SOL    HW1 1163   3.178   3.581   6.803
   88SOL    HW2 1164   3.200   3.470   6.686
   89SOL     OW 1165   3.165   3.634   2.915
   89SOL    HW1 1166   3.082   3.588   2.882
   89SOL    HW2 1167   3.219   3.665   2.837
   90SOL     OW 1168   4.838   4.081   3.147
   90SOL    HW1 1169   4.755   4.135   3.164
   90SOL    HW2 1170   4.912   4.143   3.120
   91SOL     OW 1171   5.449   4.858   6.105
   91SOL    HW1 1172   5.513   4.935   6.102
   91SOL    HW2 1173   5.357   4.891   6.086
   92SOL     OW 1174   5.529   4.187   6.781
   92SOL    HW1 1175   5.436   4.159   6.758
   92SOL    HW2 1176   5.560   4.139   6.863
   93SOL     OW 1177   2.579   3.403   1.197
   93SOL    HW1 1178   2.615   3.315   1.227
   93SOL    HW2 1179   2.530   3.392   1.110
   94SOL     OW 1180   3.326   0.930   5.973
   94SOL    HW1 1181   3.241   0.890   6.008
   94SOL    HW2 1182   3.324   0.930   5.873
   95SOL     OW 1183   6.972   0.513   3.858
   95SOL    HW1 1184   6.928   0.482   3.774
   95SOL    HW2 1185   6.946   0.608   3.876
   96SOL     OW 1186   4.823   4.932   0.260
   96SOL    HW1 1187   4.781   5.022   0.266
   96SOL    HW2 1188   4.777   4.878   0.189
   97SOL     OW 1189   2.092   5.521   5.273
   97SOL    HW1 1190   2.144   5.462   5.211
   97SOL    HW2 1191   2.129   5.512   5.366
   98SOL     OW 1192   1.418   3.038   2.805
   98SOL    HW1 1193   1.485   3.109   2.783
   98SOL    HW2 1194   1.424   3.016   2.902
   99SOL     OW 1195   3.816   2.937   3.969
   99SOL    HW1 1196   3.749   2.887   3.914
   99SOL    HW2 1197   3.869   2.998   3.910
  100SOL     OW 1198   6.873   0.076   3.665
  100SOL    HW1 1199   6.933   0.111   3.594
  100SOL    HW2 1200   6.912   0.097   3.755
  101SOL     OW 1201   0.053   3.569   2.641
  101SOL    HW1 1202   0.006   3.611   2.563
  101SOL    HW2 1203   0.148   3.601   2.643
  102SOL     OW 1204   2.392   6.462   0.958
  102SOL    HW1 1205   2.335   6.533   0.917
  102SOL    HW2 1206   2.354   6.372   0.934
  103SOL     OW 1207   1.952   0.997   2.170
  103SOL    HW1 1208   2.025   1.066   2.176
  103SOL    HW2 1209   1.974   0.932   2.098
  104SOL     OW 1210   1.495   4.583   1.892
  104SOL    HW1 1211   1.483   4.575   1.991
  104SOL    HW2 1212   1.405   4.578   1.847
  105SOL     OW 1213   4.615   1.789   6.450
  105SOL    HW1 1214   4.593   1.758   6.357
  105SOL    HW2 1215   4.535   1.835   6.489
  106SOL     OW 1216   5.558   4.992   2.579
  106SOL    HW1 1217   5.600   4.908   2.544
  106SOL    HW2 1218   5.492   5.026   2.513
  107SOL     OW 1219   6.254   1.051   0.636
  107SOL    HW1 1220   6.318   1.123   0.662
  107SOL    HW2 1221   6.278   1.016   0.545
  108SOL     OW 1222   1.716   0.255   5.748
  108SOL    HW1 1223   1.810   0.230   5.727
  108SOL    HW2 1224   1.708   0.278   5.845
  109SOL     OW 1225   2.640   1.137   3.439
  109SOL    HW1 1226   2.542   1.118   3.433
  109SOL    HW2 1227   2.665   1.156   3.534
  110SOL     OW 1228   2.822   4.590   5.552
  110SOL    HW1 1229   2.823   4.490   5.556
  110SOL    HW2 1230   2.774   4.619   5.469
  111SOL     OW 1231   6.472   2.040   2.462
  111SOL    HW1 1232   6.383   2.085   2.453
  111SOL    HW2 1233   6.513   2.031   2.371
  112SOL     OW 1234   4.225   7.006   6.914
  112SOL    HW1 1235   4.241   0.030   6.832
  112SOL    HW2 1236   4.300   7.021   6.979
  113SOL     OW 1237   6.563   6.378   2.872
  113SOL    HW1 1238   6.657   6.372   2.840
  113SOL    HW2 1239   6.532   6.287   2.900
  114SOL     OW 1240   1.676   4.239   3.603
  114SOL    HW1 1241   1.670   4.196   3.693
  114SOL    HW2 1242   1.601   4.206   3.545
  115SOL     OW 1243   5.693   1.136   3.423
  115SOL    HW1 1244   5.704   1.231   3.453
  115SOL    HW2 1245   5.605   1.101   3.455
  116SOL     OW 1246   1.525   5.158   0.625
  116SOL    HW1 1247   1.491   5.067   0.603
  116SOL    HW2 1248   1.465   5.227   0.586
  117SOL     OW 1249   2.198   1.250   0.051
  117SOL    HW1 1250   2.292   1.243   0.018
  117SOL    HW2 1251   2.145   1.306   7.016
  118SOL     OW 1252   1.392   1.434   4.826
  118SOL    HW1 1253   1.311   1.375   4.823
  118SOL    HW2 1254   1.437   1.433   4.736
  119SOL     OW 1255   0.209   6.620   6.319
  119SOL    HW1 1256   0.293   6.625   6.265
  119SOL    HW2 1257   0.153   6.700   6.300
  120SOL     OW 1258   4.621   1.761   4.863
  120SOL    HW1 1259   4.665   1.850   4.847
  120SOL    HW2 1260   4.691   1.692   4.880
  121SOL     OW 1261   0.986   3.834   6.405
  121SOL    HW1 1262   0.966   3.819   6.502
  121SOL    HW2 1263   0.902   3.827   6.352
  122SOL     OW 1264   1.364   4.409   0.137
  122SOL    HW1 1265   1.362   4.392   0.235
  122SOL    HW2 1266   1.331   4.329   0.088
  123SOL     OW 1267   1.159   1.476   1.770
  123SOL    HW1 1268   1.148   1.559   1.716
  123SOL    HW2 1269   1.188   1.401   1.711
  124SOL     OW 1270   2.713   2.544   0.597
  124SOL    HW1 1271   2.648   2.531   0.522
  124SOL    HW2 1272   2.760   2.631   0.587
  125SOL     OW 1273   3.601   2.969   0.258
  125SOL    HW1 1274   3.657   2.890   0.285
  125SOL    HW2 1275   3.633   3.050   0.306
  126SOL     OW 1276   3.885   3.050   4.198
  126SOL    HW1 1277   3.961   3.114   4.190
  126SOL    HW2 1278   3.868   3.007   4.109
  127SOL     OW 1279   0.234   6.297   6.125
  127SOL    HW1 1280   0.178   6.322   6.204
  127SOL    HW2 1281   0.330   6.292   6.153
  128SOL     OW 1282   4.773   3.281   0.890
  128SOL    HW1 1283   4.760   3.293   0.988
  128SOL    HW2 1284   4.867   3.306   0.865
  129SOL     OW 1285   2.412   5.984   0.556
  129SOL    HW1 1286   2.409   5.884   0.550
  129SOL    HW2 1287   2.339   6.017   0.616
  130SOL     OW 1288   5.262   2.532   4.648
  130SOL    HW1 1289   5.204   2.524   4.729
  130SOL    HW2 1290   5.228   2.471   4.576
  131SOL     OW 1291   7.007   2.669   3.500
  131SOL    HW1 1292   0.049   2.715   3.553
  131SOL    HW2 1293   7.024   2.570   3.500
  132SOL     OW 1294   3.312   4.068   1.858
  132SOL    HW1 1295   3.262   4.126   1.794
  132SOL    HW2 1296   3.410   4.086   1.849
  133SOL     OW 1297   5.428   6.699   5.391
  133SOL    HW1 1298   5.489   6.668   5.464
  133SOL    HW2 1299   5.432   6.799   5.385
  134SOL     OW 1300   5.030   0.957   1.932
  134SOL    HW1 1301   5.069   1.043   1.963
  134SOL    HW2 1302   4.974   0.973   1.851
  135SOL     OW 1303   4.925   3.716   4.452
  135SOL    HW1 1304   4.899   3.681   4.362
  135SOL    HW2 1305   4.885   3.807   4.465
  136SOL     OW 1306   3.377   6.949   5.410
  136SOL    HW1 1307   3.426   6.928   5.325
  136SOL    HW2 1308   3.419   7.029   5.454
  137SOL     OW 1309   2.856   2.221   5.000
  137SOL    HW1 1310   2.862   2.145   4.936
  137SOL    HW2 1311   2.947   2.248   5.029
  138SOL     OW 1312   0.798   5.415   5.072
  138SOL    HW1 1313   0.889   5.425   5.111
  138SOL    HW2 1314   0.803   5.429   4.973
  139SOL     OW 1315   2.229   6.203   6.447
  139SOL    HW1 1316   2.194   6.270   6.512
  139SOL    HW2 1317   2.245   6.247   6.358
  140SOL     OW 1318   2.303   0.884   2.683
  140SOL    HW1 1319   2.276   0.791   2.707
  140SOL    HW2 1320   2.226   0.932   2.641
  141SOL     OW 1321   6.991   4.615   0.189
  141SOL    HW1 1322   6.988   4.681   0.264
  141SOL    HW2 1323   6.918   4.636   0.124
  142SOL     OW 1324   1.140   3.722   1.903
  142SOL    HW1 1325   1.096   3.659   1.967
  142SOL    HW2 1326   1.216   3.676   1.857
  143SOL     OW 1327   5.082   6.649   1.878
  143SOL    HW1 1328   5.120   6.689   1.962
  143SOL    HW2 1329   5.043   6.559   1.899
  144SOL     OW 1330   3.011   4.851   2.826
  144SOL    HW1 1331   3.028   4.860   2.728
  144SOL    HW2 1332   3.092   4.878   2.877
  145SOL     OW 1333   0.219   4.162   2.712
  145SOL    HW1 1334   0.187   4.226   2.782
  145SOL    HW2 1335   0.317   4.174   2.699
  146SOL     OW 1336   6.438   1.625   6.151
  146SOL    HW1 1337   6.459   1.721   6.168
  146SOL    HW2 1338   6.340   1.614   6.138
  147SOL     OW 1339   4.723   1.342   5.708
  147SOL    HW1 1340   4.659   1.278   5.750
  147SOL    HW2 1341   4.770   1.393   5.780
  148SOL     OW 1342   1.503   4.707   1.078
  148SOL    HW1 1343   1.565   4.776   1.113
  148SOL    HW2 1344   1.478   4.729   0.984
  149SOL     OW 1345   1.919   2.576   5.410
  149SOL    HW1 1346   1.946   2.492   5.364
  149SOL    HW2 1347   1.996   2.614   5.460
  150SOL     OW 1348   4.593   1.352   4.771
  150SOL    HW1 1349   4.637   1.442   4.760
  150SOL    HW2 1350   4.507   1.351   4.719
  151SOL     OW 1351   4.377   2.024   0.792
  151SOL    HW1 1352   4.280   2.007   0.807
  151SOL    HW2 1353   4.413   2.078   0.868
  152SOL     OW 1354   0.697   1.176   0.132
  152SOL    HW1 1355   0.743   1.112   0.193
  152SOL    HW2 1356   0.661   1.253   0.185
  153SOL     OW 1357   2.495   1.242   3.891
  153SOL    HW1 1358   2.535   1.153   3.912
  153SOL    HW2 1359   2.478   1.291   3.976
  154SOL     OW 1360   5.698   2.208   1.270
  154SOL    HW1 1361   5.662   2.274   1.336
  154SOL    HW2 1362   5.781   2.166   1.307
  155SOL     OW 1363   1.101   6.776   1.825
  155SOL    HW1 1364   1.130   6.741   1.736
  155SOL    HW2 1365   1.172   6.837   1.861
  156SOL     OW 1366   4.791   2.089   0.629
  156SOL    HW1 1367   4.789   1.997   0.591
  156SOL    HW2 1368   4.766   2.155   0.558
  157SOL     OW 1369   5.260   4.718   0.486
  157SOL    HW1 1370   5.234   4.663   0.565
  157SOL    HW2 1371   5.359   4.732   0.486
  158SOL     OW 1372   0.540   2.929   3.165
  158SOL    HW1 1373   0.577   2.999   3.226
  158SOL    HW2 1374   0.575   2.839   3.193
  159SOL     OW 1375   5.647   5.761   0.424
  159SOL    HW1 1376   5.661   5.748   0.326
  159SOL    HW2 1377   5.560   5.807   0.440
  160SOL     OW 1378   6.537   6.817   1.132
  160SOL    HW1 1379   6.464   6.876   1.096
  160SOL    HW2 1380   6.606   6.803   1.061
  161SOL     OW 1381   0.599   0.268   0.481
  161SOL    HW1 1382   0.594   0.234   0.387
  161SOL    HW2 1383   0.672   0.220   0.529
  162SOL     OW 1384   3.907   6.629   0.415
  162SOL    HW1 1385   4.006   6.638   0.411
  162SOL    HW2 1386   3.883   6.534   0.436
  163SOL     OW 1387   0.127   3.902   3.878
  163SOL    HW1 1388   0.164   3.867   3.792
  163SOL    HW2 1389   0.201   3.926   3.940
  164SOL     OW 1390   1.634   1.879   3.153
  164SOL    HW1 1391   1.651   1.917   3.244
  164SOL    HW2 1392   1.542   1.905   3.123
  165SOL     OW 1393   0.865   5.560   2.478
  165SOL    HW1 1394   0.813   5.622   2.419
  165SOL    HW2 1395   0.963   5.577   2.466
  166SOL     OW 1396   6.791   4.019   2.921
  166SOL    HW1 1397   6.826   3.939   2.969
  166SOL    HW2 1398   6.845   4.099   2.945
  167SOL     OW 1399   4.707   2.416   0.092
  167SOL    HW1 1400   4.620   2.410   0.043
  167SOL    HW2 1401   4.762   2.335   0.073
  168SOL     OW 1402   4.883   3.950   1.977
  168SOL    HW1 1403   4.836   3.866   1.952
  168SOL    HW2 1404   4.828   4.029   1.949
  169SOL     OW 1405   6.077   2.405   1.065
  169SOL    HW1 1406   6.108   2.373   1.154
  169SOL    HW2 1407   6.033   2.330   1.016
  170SOL     OW 1408   0.800   5.227   1.926
  170SOL    HW1 1409   0.806   5.272   2.016
  170SOL    HW2 1410   0.860   5.274   1.862
  171SOL     OW 1411   2.641   3.830   0.536
  171SOL    HW1 1412   2.735   3.795   0.526
  171SOL    HW2 1413   2.612   3.822   0.631
  172SOL     OW 1414   6.331   2.076   1.622
  172SOL    HW1 1415   6.344   2.165   1.666
  172SOL    HW2 1416   6.415   2.048   1.576
  173SOL     OW 1417   6.680   1.625   6.000
  173SOL    HW1 1418   6.752   1.667   6.055
  173SOL    HW2 1419   6.590   1.652   6.035
  174SOL     OW 1420   5.754   5.400   5.356
  174SOL    HW1 1421   5.822   5.408   5.428
  174SOL    HW2 1422   5.771   5.470   5.286
  175SOL     OW 1423   0.968   0.659   0.562
  175SOL    HW1 1424   0.957   0.578   0.619
  175SOL    HW2 1425   0.900   0.728   0.589
  176SOL     OW 1426   5.173   4.530   2.827
  176SOL    HW1 1427   5.273   4.538   2.836
  176SOL    HW2 1428   5.151   4.475   2.747
  177SOL     OW 1429   5.828   2.243   4.311
  177SOL    HW1 1430   5.748   2.302   4.325
  177SOL    HW2 1431   5.899   2.267   4.377
  178SOL     OW 1432   1.939   6.536   5.546
  178SOL    HW1 1433   1.995   6.554   5.626
  178SOL    HW2 1434   1.886   6.617   5.523
  179SOL     OW 1435   4.317   5.440   0.870
  179SOL    HW1 1436   4.265   5.494   0.936
  179SOL    HW2 1437   4.303   5.477   0.779
  180SOL     OW 1438   4.529   0.960   1.239
  180SOL    HW1 1439   4.529   1.060   1.241
  180SOL    HW2 1440   4.520   0.929   1.144
  181SOL     OW 1441   3.546   2.574   5.526
  181SOL    HW1 1442   3.463   2.558   5.473
  181SOL    HW2 1443   3.582   2.665   5.504
  182SOL     OW 1444   5.113   2.487   6.656
  182SOL    HW1 1445   5.186   2.518   6.717
  182SOL    HW2 1446   5.111   2.544   6.574
  183SOL     OW 1447   2.975   1.565   3.647
  183SOL    HW1 1448   2.952   1.503   3.721
  183SOL    HW2 1449   2.952   1.659   3.673
  184SOL     OW 1450   6.699   6.899   2.559
  184SOL    HW1 1451   6.724   6.959   2.636
  184SOL    HW2 1452   6.776   6.838   2.539
  185SOL     OW 1453   0.419   1.345   3.803
  185SOL    HW1 1454   0.343   1.311   3.858
  185SOL    HW2 1455   0.481   1.269   3.780
  186SOL     OW 1456   4.558   5.654   4.105
  186SOL    HW1 1457   4.491   5.679   4.175
  186SOL    HW2 1458   4.590   5.560   4.121
  187SOL     OW 1459   4.137   6.114   2.194
  187SOL    HW1 1460   4.232   6.146   2.190
  187SOL    HW2 1461   4.118   6.057   2.114
  188SOL     OW 1462   2.508   2.620   2.904
  188SOL    HW1 1463   2.494   2.538   2.848
  188SOL    HW2 1464   2.584   2.673   2.866
  189SOL     OW 1465   6.025   5.697   6.242
  189SOL    HW1 1466   6.021   5.657   6.334
  189SOL    HW2 1467   6.109   5.751   6.233
  190SOL     OW 1468   5.749   6.702   0.148
  190SOL    HW1 1469   5.699   6.788   0.154
  190SOL    HW2 1470   5.844   6.720   0.123
  191SOL     OW 1471   5.991   0.836   5.616
  191SOL    HW1 1472   6.069   0.863   5.560
  191SOL    HW2 1473   5.926   0.785   5.560
  192SOL     OW 1474   0.341   5.471   0.707
  192SOL    HW1 1475   0.308   5.413   0.632
  192SOL    HW2 1476   0.307   5.436   0.794
  193SOL     OW 1477   3.085   5.107   6.033
  193SOL    HW1 1478   3.118   5.019   6.066
  193SOL    HW2 1479   3.043   5.157   6.109
  194SOL     OW 1480   3.947   7.009   2.361
  194SOL    HW1 1481   4.012   6.933   2.356
  194SOL    HW2 1482   3.868   6.982   2.417
  195SOL     OW 1483   3.098   0.595   1.522
  195SOL    HW1 1484   3.121   0.685   1.558
  195SOL    HW2 1485   3.001   0.591   1.501
  196SOL     OW 1486   1.981   0.687   6.838
  196SOL    HW1 1487   1.898   0.640   6.807
  196SOL    HW2 1488   2.059   0.655   6.784
  197SOL     OW 1489   2.617   5.412   0.482
  197SOL    HW1 1490   2.701   5.403   0.429
  197SOL    HW2 1491   2.572   5.323   0.488
  198SOL     OW 1492   4.007   6.555   6.987
  198SOL    HW1 1493   3.924   6.500   7.002
  198SOL    HW2 1494   4.004   6.596   6.896
  199SOL     OW 1495   5.864   6.719   2.904
  199SOL    HW1 1496   5.897   6.699   2.812
  199SOL    HW2 1497   5.773   6.760   2.899
  200SOL     OW 1498   0.530   3.785   3.267
  200SOL    HW1 1499   0.473   3.861   3.233
  200SOL    HW2 1500   0.496   3.699   3.229
  201SOL     OW 1501   2.956   0.695   0.101
  201SOL    HW1 1502   2.883   0.762   0.084
  201SOL    HW2 1503   2.980   0.650   0.016
  202SOL     OW 1504   3.575   6.873   3.755
  202SOL    HW1 1505   3.616   6.861   3.846
  202SOL    HW2 1506   3.537   6.965   3.747
  203SOL     OW 1507   5.408   3.830   6.428
  203SOL    HW1 1508   5.435   3.735   6.447
  203SOL    HW2 1509   5.461   3.892   6.486
  204SOL     OW 1510   1.850   6.953   0.365
  204SOL    HW1 1511   1.814   0.005   0.319
  204SOL    HW2 1512   1.881   6.978   0.457
  205SOL     OW 1513   5.796   1.940   1.039
  205SOL    HW1 1514   5.809   1.931   1.138
  205SOL    HW2 1515   5.699   1.952   1.020
  206SOL     OW 1516   0.493   4.785   1.544
  206SOL    HW1 1517   0.575   4.740   1.581
  206SOL    HW2 1518   0.465   4.858   1.606
  207SOL     OW 1519   4.700   0.619   6.024
  207SOL    HW1 1520   4.602   0.615   6.047
  207SOL    HW2 1521   4.744   0.689   6.080
  208SOL     OW 1522   4.902   5.263   6.010
  208SOL    HW1 1523   4.825   5.234   5.953
  208SOL    HW2 1524   4.935   5.185   6.064
  209SOL     OW 1525   6.740   5.851   5.727
  209SOL    HW1 1526   6.702   5.934   5.766
  209SOL    HW2 1527   6.781   5.796   5.799
  210SOL     OW 1528   3.884   1.968   1.493
  210SOL    HW1 1529   3.948   2.024   1.440
  210SOL    HW2 1530   3.868   1.881   1.445
  211SOL     OW 1531   0.841   1.535   1.177
  211SOL    HW1 1532   0.834   1.591   1.095
  211SOL    HW2 1533   0.888   1.450   1.156
  212SOL     OW 1534   0.865   5.124   3.599
  212SOL    HW1 1535   0.944   5.111   3.659
  212SOL    HW2 1536   0.790   5.066   3.631
  213SOL     OW 1537   5.074   1.924   0.122
  213SOL    HW1 1538   5.003   1.877   0.175
  213SOL    HW2 1539   5.147   1.953   0.183
  214SOL     OW 1540   1.007   6.709   2.295
  214SOL    HW1 1541   0.983   6.699   2.198
  214SOL    HW2 1542   0.945   6.775   2.338
  215SOL     OW 1543   3.668   3.312   2.420
  215SOL    HW1 1544   3.683   3.214   2.412
  215SOL    HW2 1545   3.641   3.349   2.331
  216SOL     OW 1546   1.281   0.267   5.179
  216SOL    HW1 1547   1.274   0.173   5.212
  216SOL    HW2 1548   1.204   0.286   5.117
  217SOL     OW 1549   1.361   2.929   3.965
  217SOL    HW1 1550   1.337   2.838   3.996
  217SOL    HW2 1551   1.320   2.997   4.025
  218SOL     OW 1552   1.211   2.863   5.354
  218SOL    HW1 1553   1.118   2.883   5.321
  218SOL    HW2 1554   1.264   2.824   5.279
  219SOL     OW 1555   4.455   4.716   0.217
  219SOL    HW1 1556   4.414   4.625   0.211
  219SOL    HW2 1557   4.487   4.732   0.311
  220SOL     OW 1558   2.904   5.061   0.175
  220SOL    HW1 1559   2.821   5.118   0.172
  220SOL    HW2 1560   2.931   5.036   0.082
  221SOL     OW 1561   5.503   3.386   3.960
  221SOL    HW1 1562   5.443   3.371   4.039
  221SOL    HW2 1563   5.598   3.383   3.990
  222SOL     OW 1564   0.771   6.066   5.649
  222SOL    HW1 1565   0.865   6.034   5.655
  222SOL    HW2 1566   0.717   6.024   5.722
  223SOL     OW 1567   0.173   3.300   2.288
  223SOL    HW1 1568   0.199   3.229   2.223
  223SOL    HW2 1569   0.090   3.274   2.336
  224SOL     OW 1570   2.733   2.368   2.296
  224SOL    HW1 1571   2.797   2.339   2.225
  224SOL    HW2 1572   2.670   2.436   2.258
  225SOL     OW 1573   5.729   0.730   0.233
  225SOL    HW1 1574   5.719   0.789   0.154
  225SOL    HW2 1575   5.826   0.712   0.250
  226SOL     OW 1576   1.018   6.017   0.341
  226SOL    HW1 1577   1.019   6.117   0.344
  226SOL    HW2 1578   0.923   5.984   0.344
  227SOL     OW 1579   1.965   3.851   3.807
  227SOL    HW1 1580   1.916   3.911   3.870
  227SOL    HW2 1581   1.905   3.828   3.730
  228SOL     OW 1582   4.094   6.345   3.946
  228SOL    HW1 1583   4.156   6.368   4.021
  228SOL    HW2 1584   4.091   6.421   3.881
  229SOL     OW 1585   5.905   5.771   1.747
  229SOL    HW1 1586   5.997   5.786   1.782
  229SOL    HW2 1587   5.856   5.710   1.808
  230SOL     OW 1588   2.274   4.251   4.833
  230SOL    HW1 1589   2.205   4.249   4.761
  230SOL    HW2 1590   2.276   4.163   4.881
  231SOL     OW 1591   0.121   3.531   6.391
  231SOL    HW1 1592   0.094   3.501   6.483
  231SOL    HW2 1593   0.139   3.451   6.334
  232SOL     OW 1594   1.024   3.752   7.013
  232SOL    HW1 1595   0.976   3.804   6.942
  232SOL    HW2 1596   1.006   3.654   7.000
  233SOL     OW 1597   2.122   1.299   5.764
  233SOL    HW1 1598   2.144   1.257   5.676
  233SOL    HW2 1599   2.030   1.271   5.791
  234SOL     OW 1600   2.649   4.705   6.889
  234SOL    HW1 1601   2.714   4.629   6.889
  234SOL    HW2 1602   2.682   4.777   6.828
  235SOL     OW 1603   2.874   3.400   4.233
  235SOL    HW1 1604   2.899   3.497   4.237
  235SOL    HW2 1605   2.934   3.349   4.294
  236SOL     OW 1606   6.676   2.865   5.530
  236SOL    HW1 1607   6.745   2.874   5.458
  236SOL    HW2 1608   6.603   2.804   5.498
  237SOL     OW 1609   0.291   0.229   1.418
  237SOL    HW1 1610   0.346   0.147   1.435
  237SOL    HW2 1611   0.206   0.204   1.373
  238SOL     OW 1612   5.726   3.629   2.249
  238SOL    HW1 1613   5.776   3.557   2.200
  238SOL    HW2 1614   5.750   3.718   2.210
  239SOL     OW 1615   6.654   5.855   6.650
  239SOL    HW1 1616   6.665   5.790   6.724
  239SOL    HW2 1617   6.740   5.862   6.599
  240SOL     OW 1618   0.427   4.394   6.141
  240SOL    HW1 1619   0.506   4.441   6.103
  240SOL    HW2 1620   0.444   4.296   6.144
  241SOL     OW 1621   0.496   0.843   3.354
  241SOL    HW1 1622   0.512   0.866   3.450
  241SOL    HW2 1623   0.548   0.906   3.295
  242SOL     OW 1624   1.253   3.691   4.993
  242SOL    HW1 1625   1.239   3.776   5.044
  242SOL    HW2 1626   1.239   3.708   4.895
  243SOL     OW 1627   5.820   0.022   5.389
  243SOL    HW1 1628   5.843   6.963   5.347
  243SOL    HW2 1629   5.726   0.047   5.364
  244SOL     OW 1630   5.403   1.897   4.750
  244SOL    HW1 1631   5.483   1.957   4.750
  244SOL    HW2 1632   5.364   1.893   4.842
  245SOL     OW 1633   6.474   2.790   4.479
  245SOL    HW1 1634   6.491   2.727   4.404
  245SOL    HW2 1635   6.381   2.826   4.473
  246SOL     OW 1636   4.990   3.652   3.626
  246SOL    HW1 1637   4.986   3.717   3.550
  246SOL    HW2 1638   5.077   3.604   3.625
  247SOL     OW 1639   1.659   1.528   3.950
  247SOL    HW1 1640   1.705   1.443   3.976
  247SOL    HW2 1641   1.579   1.543   4.009
  248SOL     OW 1642   5.035   2.099   3.916
  248SOL    HW1 1643   5.054   2.134   3.825
  248SOL    HW2 1644   5.121   2.084   3.965
  249SOL     OW 1645   3.098   6.607   4.377
  249SOL    HW1 1646   3.153   6.620   4.295
  249SOL    HW2 1647   3.139   6.536   4.434
  250SOL     OW 1648   5.215   3.488   5.475
  250SOL    HW1 1649   5.179   3.482   5.381
  250SOL    HW2 1650   5.254   3.400   5.501
  251SOL     OW 1651   4.245   2.824   6.424
  251SOL    HW1 1652   4.299   2.826   6.508
  251SOL    HW2 1653   4.162   2.769   6.439
  252SOL     OW 1654   6.707   0.755   5.907
  252SOL    HW1 1655   6.622   0.763   5.855
  252SOL    HW2 1656   6.690   0.704   5.992
  253SOL     OW 1657   2.809   3.031   0.218
  253SOL    HW1 1658   2.881   2.989   0.274
  253SOL    HW2 1659   2.770   3.109   0.268
  254SOL     OW 1660   6.311   3.294   4.849
  254SOL    HW1 1661   6.278   3.380   4.811
  254SOL    HW2 1662   6.234   3.232   4.864
  255SOL     OW 1663   2.940   2.258   3.463
  255SOL    HW1 1664   2.878   2.270   3.541
  255SOL    HW2 1665   2.936   2.340   3.406
  256SOL     OW 1666   6.325   5.332   6.975
  256SOL    HW1 1667   6.274   5.341   0.030
  256SOL    HW2 1668   6.386   5.411   6.964
  257SOL     OW 1669   2.894   5.718   6.415
  257SOL    HW1 1670   2.831   5.690   6.488
  257SOL    HW2 1671   2.956   5.642   6.394
  258SOL     OW 1672   5.870   4.353   4.015
  258SOL    HW1 1673   5.858   4.397   4.104
  258SOL    HW2 1674   5.782   4.319   3.983
  259SOL     OW 1675   1.412   2.370   2.992
  259SOL    HW1 1676   1.403   2.348   2.895
  259SOL    HW2 1677   1.479   2.443   3.003
  260SOL     OW 1678   5.718   0.227   6.007
  260SOL    HW1 1679   5.644   0.191   6.063
  260SOL    HW2 1680   5.803   0.227   6.060
  261SOL     OW 1681   0.968   3.967   2.242
  261SOL    HW1 1682   0.881   3.949   2.196
  261SOL    HW2 1683   1.037   3.990   2.173
  262SOL     OW 1684   0.599   3.665   1.719
  262SOL    HW1 1685   0.632   3.739   1.777
  262SOL    HW2 1686   0.646   3.580   1.744
  263SOL     OW 1687   0.335   1.657   5.218
  263SOL    HW1 1688   0.323   1.739   5.163
  263SOL    HW2 1689   0.332   1.576   5.160
  264SOL     OW 1690   1.780   4.546   6.390
  264SOL    HW1 1691   1.826   4.631   6.365
  264SOL    HW2 1692   1.760   4.546   6.488
  265SOL     OW 1693   5.532   4.494   4.120
  265SOL    HW1 1694   5.490   4.413   4.160
  265SOL    HW2 1695   5.626   4.472   4.093
  266SOL     OW 1696   4.387   1.457   0.575
  266SOL    HW1 1697   4.337   1.374   0.551
  266SOL    HW2 1698   4.447   1.484   0.499
  267SOL     OW 1699   1.453   2.111   6.098
  267SOL    HW1 1700   1.511   2.187   6.068
  267SOL    HW2 1701   1.405   2.136   6.182
  268SOL     OW 1702   4.175   4.719   4.462
  268SOL    HW1 1703   4.255   4.700   4.519
  268SOL    HW2 1704   4.096   4.739   4.519
  269SOL     OW 1705   0.821   2.269   6.216
  269SOL    HW1 1706   0.893   2.282   6.284
  269SOL    HW2 1707   0.751   2.339   6.227
  270SOL     OW 1708   4.801   0.995   2.103
  270SOL    HW1 1709   4.869   0.957   2.040
  270SOL    HW2 1710   4.845   1.018   2.190
  271SOL     OW 1711   1.760   0.498   0.125
  271SOL    HW1 1712   1.728   0.454   0.208
  271SOL    HW2 1713   1.681   0.532   0.073
  272SOL     OW 1714   3.622   5.457   3.298
  272SOL    HW1 1715   3.648   5.404   3.379
  272SOL    HW2 1716   3.673   5.543   3.297
  273SOL     OW 1717   2.277   6.203   5.337
  273SOL    HW1 1718   2.290   6.165   5.245
  273SOL    HW2 1719   2.211   6.278   5.333
  274SOL     OW 1720   6.308   2.784   2.725
  274SOL    HW1 1721   6.287   2.775   2.823
  274SOL    HW2 1722   6.229   2.755   2.671
  275SOL     OW 1723   6.669   6.360   5.600
  275SOL    HW1 1724   6.702   6.271   5.569
  275SOL    HW2 1725   6.712   6.432   5.546
  276SOL     OW 1726   6.456   6.246   3.869
  276SOL    HW1 1727   6.360   6.275   3.869
  276SOL    HW2 1728   6.468   6.169   3.806
  277SOL     OW 1729   4.057   1.562   5.714
  277SOL    HW1 1730   4.081   1.567   5.811
  277SOL    HW2 1731   4.113   1.627   5.662
  278SOL     OW 1732   5.752   3.744   2.516
  278SOL    HW1 1733   5.719   3.765   2.424
  278SOL    HW2 1734   5.753   3.645   2.529
  279SOL     OW 1735   0.226   2.819   3.597
  279SOL    HW1 1736   0.272   2.734   3.623
  279SOL    HW2 1737   0.227   2.828   3.498
  280SOL     OW 1738   4.396   0.415   4.556
  280SOL    HW1 1739   4.411   0.356   4.477
  280SOL    HW2 1740   4.307   0.460   4.549
  281SOL     OW 1741   5.132   6.429   3.953
  281SOL    HW1 1742   5.128   6.517   3.907
  281SOL    HW2 1743   5.095   6.437   4.045
  282SOL     OW 1744   4.439   2.148   6.619
  282SOL    HW1 1745   4.343   2.170   6.639
  282SOL    HW2 1746   4.449   2.049   6.614
  283SOL     OW 1747   6.404   1.067   5.062
  283SOL    HW1 1748   6.389   1.159   5.026
  283SOL    HW2 1749   6.502   1.052   5.075
  284SOL     OW 1750   6.204   5.318   4.342
  284SOL    HW1 1751   6.167   5.402   4.301
  284SOL    HW2 1752   6.260   5.341   4.421
  285SOL     OW 1753   4.093   0.368   6.869
  285SOL    HW1 1754   4.020   0.300   6.867
  285SOL    HW2 1755   4.144   0.364   6.784
  286SOL     OW 1756   3.983   4.885   4.566
  286SOL    HW1 1757   3.903   4.864   4.623
  286SOL    HW2 1758   4.013   4.978   4.585
  287SOL     OW 1759   2.926   6.281   5.702
  287SOL    HW1 1760   3.003   6.249   5.648
  287SOL    HW2 1761   2.922   6.381   5.698
  288SOL     OW 1762   3.664   1.228   0.203
  288SOL    HW1 1763   3.719   1.311   0.213
  288SOL    HW2 1764   3.605   1.237   0.123
  289SOL     OW 1765   0.458   6.252   3.983
  289SOL    HW1 1766   0.439   6.321   3.913
  289SOL    HW2 1767   0.534   6.282   4.040
  290SOL     OW 1768   3.783   0.760   4.262
  290SOL    HW1 1769   3.777   0.860   4.258
  290SOL    HW2 1770   3.708   0.720   4.209
  291SOL     OW 1771   4.487   0.637   4.411
  291SOL    HW1 1772   4.562   0.585   4.370
  291SOL    HW2 1773   4.441   0.582   4.480
  292SOL     OW 1774   3.460   0.087   3.735
  292SOL    HW1 1775   3.450   0.112   3.832
  292SOL    HW2 1776   3.507   0.161   3.687
  293SOL     OW 1777   5.750   6.956   3.480
  293SOL    HW1 1778   5.723   6.991   3.570
  293SOL    HW2 1779   5.841   6.990   3.457
  294SOL     OW 1780   5.795   1.207   5.877
  294SOL    HW1 1781   5.875   1.265   5.892
  294SOL    HW2 1782   5.713   1.263   5.870
  295SOL     OW 1783   0.916   1.672   5.367
  295SOL    HW1 1784   0.980   1.748   5.375
  295SOL    HW2 1785   0.866   1.679   5.280
  296SOL     OW 1786   6.749   1.442   1.604
  296SOL    HW1 1787   6.786   1.512   1.543
  296SOL    HW2 1788   6.825   1.392   1.646
  297SOL     OW 1789   5.549   4.033   3.627
  297SOL    HW1 1790   5.573   3.962   3.693
  297SOL    HW2 1791   5.629   4.054   3.571
  298SOL     OW 1792   4.029   0.835   0.301
  298SOL    HW1 1793   3.961   0.831   0.227
  298SOL    HW2 1794   3.983   0.824   0.389
  299SOL     OW 1795   2.703   1.423   6.617
  299SOL    HW1 1796   2.604   1.408   6.614
  299SOL    HW2 1797   2.750   1.336   6.606
  300SOL     OW 1798   3.845   1.090   3.138
  300SOL    HW1 1799   3.752   1.073   3.170
  300SOL    HW2 1800   3.870   1.185   3.156
  301SOL     OW 1801   6.054   5.962   1.538
  301SOL    HW1 1802   6.048   5.951   1.439
  301SOL    HW2 1803   5.977   6.019   1.569
  302SOL     OW 1804   6.526   6.227   1.517
  302SOL    HW1 1805   6.430   6.202   1.505
  302SOL    HW2 1806   6.583   6.169   1.458
  303SOL     OW 1807   6.432   5.936   2.710
  303SOL    HW1 1808   6.411   6.012   2.773
  303SOL    HW2 1809   6.455   5.855   2.763
  304SOL     OW 1810   1.532   0.126   5.142
  304SOL    HW1 1811   1.463   0.197   5.127
  304SOL    HW2 1812   1.616   0.151   5.093
  305SOL     OW 1813   1.847   2.497   2.073
  305SOL    HW1 1814   1.946   2.480   2.081
  305SOL    HW2 1815   1.802   2.413   2.043
  306SOL     OW 1816   6.144   0.832   3.054
  306SOL    HW1 1817   6.131   0.929   3.075
  306SOL    HW2 1818   6.203   0.824   2.973
  307SOL     OW 1819   3.304   3.179   2.334
  307SOL    HW1 1820   3.361   3.097   2.321
  307SOL    HW2 1821   3.290   3.225   2.246
  308SOL     OW 1822   5.472   1.642   4.052
  308SOL    HW1 1823   5.561   1.600   4.036
  308SOL    HW2 1824   5.436   1.613   4.140
  309SOL     OW 1825   0.930   6.525   6.483
  309SOL    HW1 1826   0.855   6.470   6.520
  309SOL    HW2 1827   1.017   6.478   6.498
  310SOL     OW 1828   5.106   5.372   4.699
  310SOL    HW1 1829   5.059   5.303   4.755
  310SOL    HW2 1830   5.057   5.459   4.706
  311SOL     OW 1831   1.899   5.399   2.718
  311SOL    HW1 1832   1.939   5.485   2.751
  311SOL    HW2 1833   1.920   5.326   2.782
  312SOL     OW 1834   4.734   2.404   3.188
  312SOL    HW1 1835   4.831   2.410   3.212
  312SOL    HW2 1836   4.695   2.320   3.225
  313SOL     OW 1837   3.794   3.506   3.163
  313SOL    HW1 1838   3.756   3.414   3.167
  313SOL    HW2 1839   3.817   3.537   3.256
  314SOL     OW 1840   2.001   6.671   5.227
  314SOL    HW1 1841   2.057   6.743   5.186
  314SOL    HW2 1842   1.968   6.700   5.316
  315SOL     OW 1843   6.504   1.257   3.753
  315SOL    HW1 1844   6.482   1.342   3.802
  315SOL    HW2 1845   6.556   1.279   3.670
  316SOL     OW 1846   3.913   1.637   4.969
  316SOL    HW1 1847   3.986   1.665   4.907
  316SOL    HW2 1848   3.894   1.540   4.958
  317SOL     OW 1849   1.490   1.399   1.732
  317SOL    HW1 1850   1.564   1.442   1.680
  317SOL    HW2 1851   1.421   1.364   1.668
  318SOL     OW 1852   0.025   0.616   5.436
  318SOL    HW1 1853   0.086   0.552   5.389
  318SOL    HW2 1854   0.073   0.657   5.514
  319SOL     OW 1855   1.204   1.875   2.538
  319SOL    HW1 1856   1.206   1.974   2.530
  319SOL    HW2 1857   1.144   1.848   2.613
  320SOL     OW 1858   5.922   2.122   6.857
  320SOL    HW1 1859   5.932   2.048   6.924
  320SOL    HW2 1860   5.845   2.180   6.883
  321SOL     OW 1861   4.063   3.089   0.880
  321SOL    HW1 1862   3.991   3.077   0.810
  321SOL    HW2 1863   4.101   3.000   0.904
  322SOL     OW 1864   4.671   3.153   6.730
  322SOL    HW1 1865   4.759   3.200   6.717
  322SOL    HW2 1866   4.620   3.200   6.802
  323SOL     OW 1867   0.537   3.279   3.729
  323SOL    HW1 1868   0.459   3.290   3.791
  323SOL    HW2 1869   0.557   3.367   3.685
  324SOL     OW 1870   1.394   0.338   2.832
  324SOL    HW1 1871   1.432   0.411   2.888
  324SOL    HW2 1872   1.429   0.250   2.864
  325SOL     OW 1873   0.802   3.512   2.373
  325SOL    HW1 1874   0.755   3.460   2.444
  325SOL    HW2 1875   0.860   3.582   2.415
  326SOL     OW 1876   2.162   5.953   6.542
  326SOL    HW1 1877   2.191   6.045   6.516
  326SOL    HW2 1878   2.063   5.943   6.528
  327SOL     OW 1879   4.082   5.357   3.353
  327SOL    HW1 1880   3.989   5.322   3.350
  327SOL    HW2 1881   4.091   5.436   3.292
  328SOL     OW 1882   2.490   4.534   2.060
  328SOL    HW1 1883   2.436   4.474   2.118
  328SOL    HW2 1884   2.436   4.615   2.036
  329SOL     OW 1885   2.972   3.986   1.807
  329SOL    HW1 1886   2.986   4.081   1.833
  329SOL    HW2 1887   3.035   3.962   1.733
  330SOL     OW 1888   4.198   4.752   0.146
  330SOL    HW1 1889   4.189   4.687   0.071
  330SOL    HW2 1890   4.294   4.775   0.160
  331SOL     OW 1891   4.760   5.749   0.868
  331SOL    HW1 1892   4.856   5.768   0.886
  331SOL    HW2 1893   4.751   5.696   0.784
  332SOL     OW 1894   5.566   2.216   2.984
  332SOL    HW1 1895   5.559   2.180   3.077
  332SOL    HW2 1896   5.658   2.252   2.969
  333SOL     OW 1897   3.587   1.125   5.542
  333SOL    HW1 1898   3.670   1.127   5.598
  333SOL    HW2 1899   3.571   1.215   5.501
  334SOL     OW 1900   4.110   3.635   3.266
  334SOL    HW1 1901   4.024   3.651   3.314
  334SOL    HW2 1902   4.102   3.557   3.205
  335SOL     OW 1903   3.856   6.968   6.476
  335SOL    HW1 1904   3.756   6.959   6.474
  335SOL    HW2 1905   3.894   6.904   6.543
  336SOL     OW 1906   2.207   1.931   3.457
  336SOL    HW1 1907   2.156   2.016   3.473
  336SOL    HW2 1908   2.168   1.884   3.378
  337SOL     OW 1909   1.667   1.746   6.071
  337SOL    HW1 1910   1.759   1.781   6.052
  337SOL    HW2 1911   1.603   1.783   6.003
  338SOL     OW 1912   4.481   2.744   1.191
  338SOL    HW1 1913   4.431   2.740   1.104
  338SOL    HW2 1914   4.417   2.727   1.266
  339SOL     OW 1915   4.101   5.122   4.671
  339SOL    HW1 1916   4.197   5.096   4.664
  339SOL    HW2 1917   4.078   5.142   4.767
  340SOL     OW 1918   4.731   2.294   4.655
  340SOL    HW1 1919   4.640   2.310   4.694
  340SOL    HW2 1920   4.743   2.196   4.636
  341SOL     OW 1921   5.633   6.529   3.911
  341SOL    HW1 1922   5.577   6.447   3.899
  341SOL    HW2 1923   5.685   6.522   3.997
  342SOL     OW 1924   5.087   3.033   0.903
  342SOL    HW1 1925   5.161   3.056   0.966
  342SOL    HW2 1926   5.070   3.110   0.842
  343SOL     OW 1927   1.179   5.586   3.063
  343SOL    HW1 1928   1.131   5.527   3.128
  343SOL    HW2 1929   1.268   5.547   3.042
  344SOL     OW 1930   1.688   1.177   1.244
  344SOL    HW1 1931   1.685   1.125   1.329
  344SOL    HW2 1932   1.782   1.203   1.224
  345SOL     OW 1933   6.390   1.950   4.357
  345SOL    HW1 1934   6.468   1.916   4.304
  345SOL    HW2 1935   6.311   1.892   4.342
  346SOL     OW 1936   1.745   0.506   2.808
  346SOL    HW1 1937   1.650   0.474   2.816
  346SOL    HW2 1938   1.761   0.540   2.716
  347SOL     OW 1939   2.957   5.623   0.434
  347SOL    HW1 1940   3.044   5.576   0.421
  347SOL    HW2 1941   2.882   5.562   0.407
  348SOL     OW 1942   5.116   5.406   2.290
  348SOL    HW1 1943   5.124   5.414   2.389
  348SOL    HW2 1944   5.046   5.338   2.267
  349SOL     OW 1945   6.884   4.082   1.378
  349SOL    HW1 1946   6.919   4.166   1.336
  349SOL    HW2 1947   6.806   4.104   1.437
  350SOL     OW 1948   3.889   3.145   0.238
  350SOL    HW1 1949   3.935   3.213   0.181
  350SOL    HW2 1950   3.801   3.181   0.268
  351SOL     OW 1951   3.641   4.154   0.386
  351SOL    HW1 1952   3.707   4.109   0.447
  351SOL    HW2 1953   3.679   4.241   0.354
  352SOL     OW 1954   4.449   5.912   3.665
  352SOL    HW1 1955   4.520   5.921   3.595
  352SOL    HW2 1956   4.492   5.903   3.755
  353SOL     OW 1957   2.479   6.995   6.077
  353SOL    HW1 1958   2.476   0.008   6.168
  353SOL    HW2 1959   2.386   6.991   6.039
  354SOL     OW 1960   5.719   2.621   1.144
  354SOL    HW1 1961   5.784   2.629   1.219
  354SOL    HW2 1962   5.740   2.540   1.089
  355SOL     OW 1963   1.567   2.823   2.309
  355SOL    HW1 1964   1.517   2.844   2.393
  355SOL    HW2 1965   1.505   2.781   2.243
  356SOL     OW 1966   1.733   0.428   5.468
  356SOL    HW1 1967   1.694   0.397   5.554
  356SOL    HW2 1968   1.670   0.406   5.393
  357SOL     OW 1969   5.684   0.235   4.669
  357SOL    HW1 1970   5.747   0.293   4.618
  357SOL    HW2 1971   5.726   0.146   4.687
  358SOL     OW 1972   5.206   5.989   0.622
  358SOL    HW1 1973   5.176   6.081   0.595
  358SOL    HW2 1974   5.158   5.920   0.569
  359SOL     OW 1975   3.206   1.660   2.305
  359SOL    HW1 1976   3.185   1.666   2.402
  359SOL    HW2 1977   3.143   1.719   2.254
  360SOL     OW 1978   1.004   5.301   4.307
  360SOL    HW1 1979   0.990   5.350   4.221
  360SOL    HW2 1980   1.101   5.279   4.317
  361SOL     OW 1981   6.379   5.887   3.282
  361SOL    HW1 1982   6.360   5.950   3.358
  361SOL    HW2 1983   6.305   5.821   3.274
  362SOL     OW 1984   4.074   4.323   0.602
  362SOL    HW1 1985   4.044   4.368   0.686
  362SOL    HW2 1986   4.003   4.333   0.532
  363SOL     OW 1987   6.246   5.043   2.577
  363SOL    HW1 1988   6.147   5.041   2.562
  363SOL    HW2 1989   6.264   5.054   2.675
  364SOL     OW 1990   0.608   5.362   6.230
  364SOL    HW1 1991   0.576   5.433   6.293
  364SOL    HW2 1992   0.531   5.302   6.207
  365SOL     OW 1993   3.406   0.845   1.995
  365SOL    HW1 1994   3.415   0.768   1.932
  365SOL    HW2 1995   3.419   0.813   2.089
  366SOL     OW 1996   6.123   3.546   6.913
  366SOL    HW1 1997   6.046   3.564   6.975
  366SOL    HW2 1998   6.184   3.479   6.954
  367SOL     OW 1999   5.051   2.018   5.485
  367SOL    HW1 2000   4.995   2.093   5.520
  367SOL    HW2 2001   5.090   1.967   5.562
  368SOL     OW 2002   6.693   2.031   6.238
  368SOL    HW1 2003   6.740   1.998   6.320
  368SOL    HW2 2004   6.760   2.069   6.175
  369SOL     OW 2005   5.857   4.120   3.242
  369SOL    HW1 2006   5.793   4.197   3.234
  369SOL    HW2 2007   5.831   4.048   3.178
  370SOL     OW 2008   1.840   2.877   4.132
  370SOL    HW1 2009   1.744   2.857   4.150
  370SOL    HW2 2010   1.848   2.933   4.050
  371SOL     OW 2011   1.580   3.938   6.764
  371SOL    HW1 2012   1.610   3.967   6.855
  371SOL    HW2 2013   1.647   3.876   6.725
  372SOL     OW 2014   2.028   6.872   4.898
  372SOL    HW1 2015   2.085   6.812   4.842
  372SOL    HW2 2016   2.081   6.908   4.974
  373SOL     OW 2017   5.854   6.474   5.047
  373SOL    HW1 2018   5.858   6.541   4.972
  373SOL    HW2 2019   5.867   6.520   5.134
  374SOL     OW 2020   2.192   1.784   2.597
  374SOL    HW1 2021   2.234   1.844   2.528
  374SOL    HW2 2022   2.129   1.721   2.552
  375SOL     OW 2023   0.306   5.335   5.183
  375SOL    HW1 2024   0.386   5.333   5.122
  375SOL    HW2 2025   0.279   5.241   5.205
  376SOL     OW 2026   2.871   1.280   4.194
  376SOL    HW1 2027   2.782   1.306   4.158
  376SOL    HW2 2028   2.941   1.344   4.160
  377SOL     OW 2029   1.497   2.438   0.214
  377SOL    HW1 2030   1.552   2.356   0.206
  377SOL    HW2 2031   1.423   2.436   0.146
  378SOL     OW 2032   2.775   1.454   6.918
  378SOL    HW1 2033   2.760   1.431   6.822
  378SOL    HW2 2034   2.866   1.493   6.929
  379SOL     OW 2035   5.812   2.341   6.278
  379SOL    HW1 2036   5.717   2.310   6.272
  379SOL    HW2 2037   5.814   2.436   6.309
  380SOL     OW 2038   3.033   1.035   1.381
  380SOL    HW1 2039   2.972   0.984   1.443
  380SOL    HW2 2040   2.993   1.038   1.290
  381SOL     OW 2041   1.208   4.997   4.481
  381SOL    HW1 2042   1.161   4.988   4.393
  381SOL    HW2 2043   1.221   4.906   4.520
  382SOL     OW 2044   5.949   0.348   0.521
  382SOL    HW1 2045   5.938   0.269   0.581
  382SOL    HW2 2046   5.969   0.429   0.577
  383SOL     OW 2047   4.073   2.779   0.934
  383SOL    HW1 2048   3.981   2.759   0.901
  383SOL    HW2 2049   4.068   2.845   1.009
  384SOL     OW 2050   0.261   3.842   4.282
  384SOL    HW1 2051   0.170   3.879   4.262
  384SOL    HW2 2052   0.251   3.752   4.325
  385SOL     OW 2053   3.717   5.247   6.230
  385SOL    HW1 2054   3.762   5.337   6.229
  385SOL    HW2 2055   3.766   5.185   6.169
  386SOL     OW 2056   4.490   0.398   3.926
  386SOL    HW1 2057   4.541   0.476   3.964
  386SOL    HW2 2058   4.401   0.392   3.971
  387SOL     OW 2059   2.042   5.166   3.152
  387SOL    HW1 2060   2.124   5.118   3.182
  387SOL    HW2 2061   1.981   5.181   3.230
  388SOL     OW 2062   2.442   2.158   6.607
  388SOL    HW1 2063   2.374   2.139   6.678
  388SOL    HW2 2064   2.408   2.230   6.546
  389SOL     OW 2065   3.667   3.718   3.008
  389SOL    HW1 2066   3.697   3.643   3.067
  389SOL    HW2 2067   3.714   3.802   3.033
  390SOL     OW 2068   2.340   0.905   4.049
  390SOL    HW1 2069   2.264   0.955   4.008
  390SOL    HW2 2070   2.426   0.937   4.012
  391SOL     OW 2071   1.546   3.052   6.973
  391SOL    HW1 2072   1.505   3.005   0.022
  391SOL    HW2 2073   1.609   3.122   7.005
  392SOL     OW 2074   2.208   5.221   1.341
  392SOL    HW1 2075   2.175   5.310   1.309
  392SOL    HW2 2076   2.140   5.151   1.321
  393SOL     OW 2077   6.279   4.666   5.328
  393SOL    HW1 2078   6.321   4.648   5.417
  393SOL    HW2 2079   6.268   4.765   5.317
  394SOL     OW 2080   0.598   6.982   0.462
  394SOL    HW1 2081   0.508   7.002   0.500
  394SOL    HW2 2082   0.630   0.030   0.408
  395SOL     OW 2083   4.868   3.865   2.250
  395SOL    HW1 2084   4.874   3.893   2.154
  395SOL    HW2 2085   4.920   3.780   2.263
  396SOL     OW 2086   3.720   3.839   2.701
  396SOL    HW1 2087   3.667   3.760   2.668
  396SOL    HW2 2088   3.814   3.811   2.719
  397SOL     OW 2089   4.019   2.979   5.708
  397SOL    HW1 2090   4.103   2.957   5.658
  397SOL    HW2 2091   3.999   3.076   5.698
  398SOL     OW 2092   1.057   5.638   2.191
  398SOL    HW1 2093   1.087   5.547   2.219
  398SOL    HW2 2094   1.122   5.706   2.226
  399SOL     OW 2095   5.171   5.809   2.427
  399SOL    HW1 2096   5.188   5.840   2.521
  399SOL    HW2 2097   5.258   5.802   2.378
  400SOL     OW 2098   0.102   0.335   5.761
  400SOL    HW1 2099   0.067   0.247   5.792
  400SOL    HW2 2100   0.202   0.335   5.763
  401SOL     OW 2101   5.177   0.640   6.545
  401SOL    HW1 2102   5.222   0.624   6.457
  401SOL    HW2 2103   5.246   0.655   6.616
  402SOL     OW 2104   6.290   6.509   3.322
  402SOL    HW1 2105   6.336   6.585   3.277
  402SOL    HW2 2106   6.258   6.537   3.412
  403SOL     OW 2107   4.742   2.441   6.030
  403SOL    HW1 2108   4.756   2.523   5.975
  403SOL    HW2 2109   4.667   2.387   5.991
  404SOL     OW 2110   1.614   0.110   3.475
  404SOL    HW1 2111   1.540   0.052   3.442
  404SOL    HW2 2112   1.577   0.197   3.505
  405SOL     OW 2113   1.776   2.092   1.509
  405SOL    HW1 2114   1.853   2.079   1.448
  405SOL    HW2 2115   1.692   2.103   1.456
  406SOL     OW 2116   1.082   2.922   4.119
  406SOL    HW1 2117   1.086   2.838   4.173
  406SOL    HW2 2118   1.152   2.986   4.150
  407SOL     OW 2119   2.478   0.109   4.068
  407SOL    HW1 2120   2.413   0.182   4.045
  407SOL    HW2 2121   2.519   0.128   4.158
  408SOL     OW 2122   1.573   0.760   3.346
  408SOL    HW1 2123   1.609   0.853   3.354
  408SOL    HW2 2124   1.647   0.697   3.320
  409SOL     OW 2125   5.828   3.456   2.891
  409SOL    HW1 2126   5.788   3.427   2.978
  409SOL    HW2 2127   5.887   3.384   2.856
  410SOL     OW 2128   2.682   0.066   0.187
  410SOL    HW1 2129   2.738   0.001   0.136
  410SOL    HW2 2130   2.585   0.041   0.178
  411SOL     OW 2131   5.937   6.085   6.464
  411SOL    HW1 2132   5.908   6.072   6.369
  411SOL    HW2 2133   5.857   6.077   6.524
  412SOL     OW 2134   3.968   6.728   2.749
  412SOL    HW1 2135   4.056   6.695   2.784
  412SOL    HW2 2136   3.894   6.699   2.810
  413SOL     OW 2137   3.910   4.737   1.138
  413SOL    HW1 2138   3.915   4.638   1.127
  413SOL    HW2 2139   3.891   4.780   1.050
  414SOL     OW 2140   4.743   5.089   2.415
  414SOL    HW1 2141   4.703   5.065   2.504
  414SOL    HW2 2142   4.698   5.171   2.379
  415SOL     OW 2143   1.696   5.980   0.354
  415SOL    HW1 2144   1.642   5.947   0.277
  415SOL    HW2 2145   1.771   6.036   0.321
  416SOL     OW 2146   4.687   5.601   4.815
  416SOL    HW1 2147   4.676   5.522   4.754
  416SOL    HW2 2148   4.610   5.604   4.880
  417SOL     OW 2149   2.962   6.594   1.166
  417SOL    HW1 2150   3.031   6.563   1.231
  417SOL    HW2 2151   2.963   6.534   1.086
  418SOL     OW 2152   4.765   6.425   0.271
  418SOL    HW1 2153   4.777   6.503   0.209
  418SOL    HW2 2154   4.834   6.429   0.343
  419SOL     OW 2155   0.889   0.198   1.221
  419SOL    HW1 2156   0.855   0.121   1.274
  419SOL    HW2 2157   0.978   0.227   1.257
  420SOL     OW 2158   6.265   3.727   1.148
  420SOL    HW1 2159   6.253   3.630   1.167
  420SOL    HW2 2160   6.361   3.745   1.126
  421SOL     OW 2161   0.731   4.970   5.984
  421SOL    HW1 2162   0.697   4.921   5.904
  421SOL    HW2 2163   0.743   4.906   6.060
  422SOL     OW 2164   6.266   5.735   0.844
  422SOL    HW1 2165   6.193   5.802   0.854
  422SOL    HW2 2166   6.335   5.749   0.915
  423SOL     OW 2167   6.374   3.337   6.778
  423SOL    HW1 2168   6.401   3.254   6.730
  423SOL    HW2 2169   6.407   3.333   6.872
  424SOL     OW 2170   3.112   3.381   0.667
  424SOL    HW1 2171   3.135   3.295   0.622
  424SOL    HW2 2172   3.196   3.432   0.686
  425SOL     OW 2173   5.069   1.317   1.972
  425SOL    HW1 2174   5.117   1.352   1.892
  425SOL    HW2 2175   4.973   1.300   1.948
  426SOL     OW 2176   5.874   2.490   5.107
  426SOL    HW1 2177   5.959   2.529   5.144
  426SOL    HW2 2178   5.889   2.394   5.084
  427SOL     OW 2179   5.640   4.969   2.912
  427SOL    HW1 2180   5.549   4.964   2.870
  427SOL    HW2 2181   5.700   4.903   2.867
  428SOL     OW 2182   4.547   0.068   5.243
  428SOL    HW1 2183   4.534   0.150   5.299
  428SOL    HW2 2184   4.598   0.092   5.160
  429SOL     OW 2185   2.976   5.298   0.940
  429SOL    HW1 2186   2.924   5.235   0.883
  429SOL    HW2 2187   2.925   5.318   1.024
  430SOL     OW 2188   0.974   6.751   4.103
  430SOL    HW1 2189   0.979   6.662   4.059
  430SOL    HW2 2190   0.989   6.740   4.202
  431SOL     OW 2191   3.365   1.169   0.080
  431SOL    HW1 2192   3.399   1.081   0.049
  431SOL    HW2 2193   3.290   1.199   0.021
  432SOL     OW 2194   6.581   2.474   0.960
  432SOL    HW1 2195   6.560   2.527   0.878
  432SOL    HW2 2196   6.672   2.433   0.952
  433SOL     OW 2197   2.635   7.001   3.614
  433SOL    HW1 2198   2.653   7.023   3.710
  433SOL    HW2 2199   2.602   6.907   3.607
  434SOL     OW 2200   4.925   4.818   1.851
  434SOL    HW1 2201   4.829   4.844   1.853
  434SOL    HW2 2202   4.935   4.729   1.806
  435SOL     OW 2203   3.937   2.678   5.623
  435SOL    HW1 2204   3.881   2.741   5.676
  435SOL    HW2 2205   3.931   2.702   5.526
  436SOL     OW 2206   2.073   6.602   1.015
  436SOL    HW1 2207   2.095   6.660   0.937
  436SOL    HW2 2208   2.003   6.646   1.071
  437SOL     OW 2209   0.512   7.001   6.492
  437SOL    HW1 2210   0.489   0.068   6.500
  437SOL    HW2 2211   0.572   6.974   6.568
  438SOL     OW 2212   1.326   3.004   2.101
  438SOL    HW1 2213   1.407   3.061   2.089
  438SOL    HW2 2214   1.275   3.036   2.181
  439SOL     OW 2215   5.990   4.125   3.825
  439SOL    HW1 2216   6.051   4.178   3.883
  439SOL    HW2 2217   5.964   4.180   3.745
  440SOL     OW 2218   0.869   1.994   4.677
  440SOL    HW1 2219   0.954   1.979   4.727
  440SOL    HW2 2220   0.888   2.038   4.589
  441SOL     OW 2221   0.593   1.804   3.112
  441SOL    HW1 2222   0.673   1.744   3.122
  441SOL    HW2 2223   0.610   1.870   3.039
  442SOL     OW 2224   1.886   4.829   6.986
  442SOL    HW1 2225   1.802   4.883   6.985
  442SOL    HW2 2226   1.887   4.771   0.038
  443SOL     OW 2227   1.074   4.157   4.812
  443SOL    HW1 2228   1.038   4.191   4.725
  443SOL    HW2 2229   1.076   4.232   4.879
  444SOL     OW 2230   5.187   2.188   6.000
  444SOL    HW1 2231   5.089   2.177   5.981
  444SOL    HW2 2232   5.221   2.104   6.043
  445SOL     OW 2233   1.442   5.493   2.993
  445SOL    HW1 2234   1.500   5.543   2.928
  445SOL    HW2 2235   1.500   5.450   3.062
  446SOL     OW 2236   4.064   4.764   3.281
  446SOL    HW1 2237   4.141   4.814   3.241
  446SOL    HW2 2238   4.098   4.680   3.324
  447SOL     OW 2239   0.349   3.520   0.020
  447SOL    HW1 2240   0.308   3.609   0.039
  447SOL    HW2 2241   0.329   3.494   6.955
  448SOL     OW 2242   3.476   0.551   4.873
  448SOL    HW1 2243   3.570   0.520   4.860
  448SOL    HW2 2244   3.420   0.475   4.908
  449SOL     OW 2245   4.514   0.899   5.264
  449SOL    HW1 2246   4.598   0.943   5.234
  449SOL    HW2 2247   4.504   0.908   5.363
  450SOL     OW 2248   0.834   6.009   3.003
  450SOL    HW1 2249   0.898   6.058   3.063
  450SOL    HW2 2250   0.781   5.944   3.056
  451SOL     OW 2251   1.366   2.288   2.717
  451SOL    HW1 2252   1.346   2.223   2.644
  451SOL    HW2 2253   1.421   2.363   2.681
  452SOL     OW 2254   6.089   5.591   0.597
  452SOL    HW1 2255   6.051   5.681   0.620
  452SOL    HW2 2256   6.020   5.538   0.547
  453SOL     OW 2257   3.157   0.051   5.319
  453SOL    HW1 2258   3.237   7.026   5.346
  453SOL    HW2 2259   3.177   0.148   5.331
  454SOL     OW 2260   0.332   5.239   5.861
  454SOL    HW1 2261   0.330   5.139   5.865
  454SOL    HW2 2262   0.420   5.269   5.824
  455SOL     OW 2263   6.693   0.730   4.177
  455SOL    HW1 2264   6.685   0.798   4.104
  455SOL    HW2 2265   6.769   0.754   4.237
  456SOL     OW 2266   4.344   5.904   4.562
  456SOL    HW1 2267   4.352   5.805   4.570
  456SOL    HW2 2268   4.422   5.947   4.608
  457SOL     OW 2269   2.022   3.699   3.479
  457SOL    HW1 2270   1.951   3.770   3.478
  457SOL    HW2 2271   2.029   3.658   3.388
  458SOL     OW 2272   4.634   5.830   4.691
  458SOL    HW1 2273   4.648   5.797   4.598
  458SOL    HW2 2274   4.649   5.756   4.756
  459SOL     OW 2275   1.041   0.382   4.256
  459SOL    HW1 2276   1.097   0.426   4.326
  459SOL    HW2 2277   1.082   0.295   4.229
  460SOL     OW 2278   0.973   1.016   2.380
  460SOL    HW1 2279   1.033   0.936   2.379
  460SOL    HW2 2280   0.990   1.071   2.298
  461SOL     OW 2281   5.991   6.725   4.712
  461SOL    HW1 2282   5.905   6.726   4.763
  461SOL    HW2 2283   6.057   6.666   4.757
  462SOL     OW 2284   4.376   2.157   5.960
  462SOL    HW1 2285   4.281   2.153   5.928
  462SOL    HW2 2286   4.399   2.072   6.007
  463SOL     OW 2287   6.434   6.222   3.145
  463SOL    HW1 2288   6.375   6.295   3.111
  463SOL    HW2 2289   6.494   6.258   3.216
  464SOL     OW 2290   2.909   1.853   6.014
  464SOL    HW1 2291   2.903   1.803   6.100
  464SOL    HW2 2292   2.891   1.950   6.031
  465SOL     OW 2293   1.276   2.250   4.414
  465SOL    HW1 2294   1.266   2.201   4.500
  465SOL    HW2 2295   1.357   2.308   4.419
  466SOL     OW 2296   0.997   5.780   3.077
  466SOL    HW1 2297   1.065   5.718   3.036
  466SOL    HW2 2298   0.961   5.840   3.006
  467SOL     OW 2299   0.962   0.556   6.264
  467SOL    HW1 2300   1.021   0.511   6.197
  467SOL    HW2 2301   0.926   0.489   6.329
  468SOL     OW 2302   2.932   6.229   0.218
  468SOL    HW1 2303   2.942   6.319   0.175
  468SOL    HW2 2304   2.939   6.238   0.317
  469SOL     OW 2305   2.503   4.412   0.665
  469SOL    HW1 2306   2.602   4.422   0.678
  469SOL    HW2 2307   2.456   4.491   0.706
  470SOL     OW 2308   3.455   0.464   2.357
  470SOL    HW1 2309   3.366   0.472   2.403
  470SOL    HW2 2310   3.523   0.517   2.406
  471SOL     OW 2311   1.575   2.646   4.600
  471SOL    HW1 2312   1.664   2.601   4.611
  471SOL    HW2 2313   1.547   2.687   4.688
  472SOL     OW 2314   5.010   3.890   6.634
  472SOL    HW1 2315   5.020   3.916   6.729
  472SOL    HW2 2316   5.027   3.791   6.625
  473SOL     OW 2317   0.673   3.202   1.685
  473SOL    HW1 2318   0.625   3.251   1.612
  473SOL    HW2 2319   0.768   3.188   1.659
  474SOL     OW 2320   4.471   4.952   3.805
  474SOL    HW1 2321   4.387   4.990   3.766
  474SOL    HW2 2322   4.545   4.958   3.738
  475SOL     OW 2323   6.142   1.011   6.446
  475SOL    HW1 2324   6.148   0.911   6.446
  475SOL    HW2 2325   6.088   1.041   6.367
  476SOL     OW 2326   0.686   4.201   2.217
  476SOL    HW1 2327   0.764   4.175   2.161
  476SOL    HW2 2328   0.708   4.189   2.313
  477SOL     OW 2329   2.258   4.649   5.095
  477SOL    HW1 2330   2.352   4.654   5.060
  477SOL    HW2 2331   2.204   4.724   5.057
  478SOL     OW 2332   2.975   6.587   2.706
  478SOL    HW1 2333   3.054   6.564   2.763
  478SOL    HW2 2334   3.005   6.596   2.611
  479SOL     OW 2335   4.510   2.413   6.929
  479SOL    HW1 2336   4.421   2.452   6.951
  479SOL    HW2 2337   4.501   2.356   6.847
  480SOL     OW 2338   2.485   0.925   0.451
  480SOL    HW1 2339   2.472   1.017   0.413
  480SOL    HW2 2340   2.512   0.862   0.378
  481SOL     OW 2341   1.584   6.916   0.005
  481SOL    HW1 2342   1.516   6.873   0.064
  481SOL    HW2 2343   1.590   7.014   0.027
  482SOL     OW 2344   4.366   5.027   2.951
  482SOL    HW1 2345   4.430   5.079   2.894
  482SOL    HW2 2346   4.322   4.956   2.896
  483SOL     OW 2347   6.436   2.070   2.131
  483SOL    HW1 2348   6.397   2.066   2.039
  483SOL    HW2 2349   6.387   2.007   2.191
  484SOL     OW 2350   0.930   2.719   5.344
  484SOL    HW1 2351   0.889   2.744   5.257
  484SOL    HW2 2352   0.862   2.727   5.417
  485SOL     OW 2353   4.290   5.879   2.028
  485SOL    HW1 2354   4.271   5.900   2.124
  485SOL    HW2 2355   4.371   5.930   1.999
  486SOL     OW 2356   6.943   1.496   1.156
  486SOL    HW1 2357   7.029   1.522   1.112
  486SOL    HW2 2358   6.962   1.452   1.244
  487SOL     OW 2359   0.601   2.056   0.729
  487SOL    HW1 2360   0.605   2.032   0.826
  487SOL    HW2 2361   0.663   2.131   0.710
  488SOL     OW 2362   0.551   1.462   1.817
  488SOL    HW1 2363   0.644   1.452   1.782
  488SOL    HW2 2364   0.538   1.554   1.853
  489SOL     OW 2365   3.437   6.186   6.311
  489SOL    HW1 2366   3.393   6.239   6.383
  489SOL    HW2 2367   3.536   6.185   6.325
  490SOL     OW 2368   6.900   6.366   3.496
  490SOL    HW1 2369   6.909   6.361   3.396
  490SOL    HW2 2370   6.811   6.330   3.523
  491SOL     OW 2371   0.320   2.974   2.494
  491SOL    HW1 2372   0.224   2.994   2.513
  491SOL    HW2 2373   0.339   2.878   2.512
  492SOL     OW 2374   3.067   0.629   4.738
  492SOL    HW1 2375   3.015   0.556   4.782
  492SOL    HW2 2376   3.045   0.632   4.641
  493SOL     OW 2377   5.520   6.358   5.415
  493SOL    HW1 2378   5.581   6.286   5.383
  493SOL    HW2 2379   5.487   6.411   5.336
  494SOL     OW 2380   0.399   0.338   6.821
  494SOL    HW1 2381   0.384   0.240   6.833
  494SOL    HW2 2382   0.497   0.356   6.807
  495SOL     OW 2383   5.383   5.933   3.025
  495SOL    HW1 2384   5.300   5.905   3.074
  495SOL    HW2 2385   5.398   6.031   3.038
  496SOL     OW 2386   5.416   3.714   2.562
  496SOL    HW1 2387   5.461   3.646   2.504
  496SOL    HW2 2388   5.419   3.803   2.518
  497SOL     OW 2389   3.102   1.484   5.579
  497SOL    HW1 2390   3.103   1.583   5.564
  497SOL    HW2 2391   3.020   1.459   5.631
  498SOL     OW 2392   1.481   3.776   1.706
  498SOL    HW1 2393   1.422   3.696   1.696
  498SOL    HW2 2394   1.577   3.746   1.713
  499SOL     OW 2395   3.045   0.199   4.171
  499SOL    HW1 2396   3.120   0.250   4.214
  499SOL    HW2 2397   3.001   0.256   4.103
  500SOL     OW 2398   1.254   3.280   2.521
  500SOL    HW1 2399   1.210   3.354   2.469
  500SOL    HW2 2400   1.353   3.295   2.522
  501SOL     OW 2401   3.098   0.104   0.412
  501SOL    HW1 2402   3.124   0.101   0.509
  501SOL    HW2 2403   3.037   0.182   0.397
  502SOL     OW 2404   6.683   4.681   6.264
  502SOL    HW1 2405   6.745   4.668   6.341
  502SOL    HW2 2406   6.711   4.761   6.211
  503SOL     OW 2407   5.662   5.815   5.764
  503SOL    HW1 2408   5.567   5.790   5.746
  503SOL    HW2 2409   5.721   5.735   5.751
  504SOL     OW 2410   2.386   5.754   3.024
  504SOL    HW1 2411   2.320   5.794   3.087
  504SOL    HW2 2412   2.454   5.823   2.999
  505SOL     OW 2413   3.725   6.539   5.650
  505SOL    HW1 2414   3.700   6.474   5.722
  505SOL    HW2 2415   3.667   6.523   5.570
  506SOL     OW 2416   1.119   5.563   4.752
  506SOL    HW1 2417   1.086   5.535   4.662
  506SOL    HW2 2418   1.219   5.563   4.753
  507SOL     OW 2419   3.408   0.946   3.962
  507SOL    HW1 2420   3.432   0.928   3.866
  507SOL    HW2 2421   3.490   0.976   4.011
  508SOL     OW 2422   6.334   3.502   2.839
  508SOL    HW1 2423   6.321   3.587   2.891
  508SOL    HW2 2424   6.281   3.429   2.882
  509SOL     OW 2425   2.823   0.853   0.594
  509SOL    HW1 2426   2.886   0.819   0.664
  509SOL    HW2 2427   2.834   0.801   0.510
  510SOL     OW 2428   6.266   5.106   5.793
  510SOL    HW1 2429   6.340   5.042   5.777
  510SOL    HW2 2430   6.301   5.188   5.839
  511SOL     OW 2431   0.208   6.923   6.720
  511SOL    HW1 2432   0.138   6.969   6.664
  511SOL    HW2 2433   0.163   6.860   6.784
  512SOL     OW 2434   0.068   2.996   0.475
  512SOL    HW1 2435   0.052   3.071   0.539
  512SOL    HW2 2436   0.090   3.034   0.385
  513SOL     OW 2437   5.667   6.208   2.934
  513SOL    HW1 2438   5.765   6.216   2.952
  513SOL    HW2 2439   5.622   6.293   2.958
  514SOL     OW 2440   6.756   2.737   3.767
  514SOL    HW1 2441   6.771   2.646   3.804
  514SOL    HW2 2442   6.831   2.797   3.795
  515SOL     OW 2443   1.517   0.563   6.614
  515SOL    HW1 2444   1.445   0.563   6.545
  515SOL    HW2 2445   1.510   0.644   6.671
  516SOL     OW 2446   3.112   4.571   1.680
  516SOL    HW1 2447   3.046   4.545   1.750
  516SOL    HW2 2448   3.193   4.610   1.723
  517SOL     OW 2449   4.919   6.022   1.907
  517SOL    HW1 2450   4.937   6.009   2.004
  517SOL    HW2 2451   4.931   5.935   1.858
  518SOL     OW 2452   3.013   2.121   2.296
  518SOL    HW1 2453   2.998   2.190   2.224
  518SOL    HW2 2454   2.938   2.055   2.294
  519SOL     OW 2455   0.385   0.658   4.686
  519SOL    HW1 2456   0.436   0.742   4.705
  519SOL    HW2 2457   0.375   0.605   4.770
  520SOL     OW 2458   6.177   4.889   6.942
  520SOL    HW1 2459   6.087   4.917   6.908
  520SOL    HW2 2460   6.203   4.802   6.900
  521SOL     OW 2461   6.495   2.949   6.308
  521SOL    HW1 2462   6.584   2.986   6.334
  521SOL    HW2 2463   6.509   2.869   6.248
  522SOL     OW 2464   3.634   3.256   5.449
  522SOL    HW1 2465   3.596   3.325   5.387
  522SOL    HW2 2466   3.571   3.179   5.455
  523SOL     OW 2467   0.594   4.722   2.407
  523SOL    HW1 2468   0.667   4.729   2.475
  523SOL    HW2 2469   0.538   4.805   2.410
  524SOL     OW 2470   1.887   1.079   0.052
  524SOL    HW1 2471   1.886   1.152   0.121
  524SOL    HW2 2472   1.973   1.030   0.057
  525SOL     OW 2473   2.766   3.580   6.631
  525SOL    HW1 2474   2.797   3.672   6.656
  525SOL    HW2 2475   2.718   3.539   6.708
  526SOL     OW 2476   2.781   0.303   4.568
  526SOL    HW1 2477   2.744   0.364   4.499
  526SOL    HW2 2478   2.777   0.208   4.535
  527SOL     OW 2479   5.862   3.388   6.050
  527SOL    HW1 2480   5.894   3.481   6.031
  527SOL    HW2 2481   5.763   3.390   6.067
  528SOL     OW 2482   0.796   2.011   4.232
  528SOL    HW1 2483   0.873   2.055   4.186
  528SOL    HW2 2484   0.750   1.950   4.167
  529SOL     OW 2485   0.464   5.750   4.633
  529SOL    HW1 2486   0.448   5.652   4.620
  529SOL    HW2 2487   0.417   5.800   4.560
  530SOL     OW 2488   2.699   2.973   5.369
  530SOL    HW1 2489   2.630   3.004   5.304
  530SOL    HW2 2490   2.656   2.911   5.435
  531SOL     OW 2491   0.144   0.969   2.004
  531SOL    HW1 2492   0.238   1.000   2.011
  531SOL    HW2 2493   0.132   0.885   2.056
  532SOL     OW 2494   1.078   2.329   7.019
  532SOL    HW1 2495   1.018   2.354   6.943
  532SOL    HW2 2496   1.023   2.320   0.073
  533SOL     OW 2497   3.886   5.919   4.013
  533SOL    HW1 2498   3.884   6.019   4.009
  533SOL    HW2 2499   3.797   5.883   3.986
  534SOL     OW 2500   5.250   5.173   3.645
  534SOL    HW1 2501   5.239   5.127   3.557
  534SOL    HW2 2502   5.309   5.253   3.633
  535SOL     OW 2503   1.007   3.895   4.921
  535SOL    HW1 2504   0.987   3.907   5.019
  535SOL    HW2 2505   1.048   3.980   4.886
  536SOL     OW 2506   0.112   5.057   2.104
  536SOL    HW1 2507   0.199   5.095   2.073
  536SOL    HW2 2508   0.093   4.972   2.055
  537SOL     OW 2509   1.895   6.542   3.541
  537SOL    HW1 2510   1.895   6.449   3.504
  537SOL    HW2 2511   1.869   6.540   3.637
  538SOL     OW 2512   2.129   5.645   3.906
  538SOL    HW1 2513   2.116   5.743   3.921
  538SOL    HW2 2514   2.170   5.603   3.987
  539SOL     OW 2515   0.721   5.929   0.332
  539SOL    HW1 2516   0.735   5.831   0.338
  539SOL    HW2 2517   0.692   5.953   0.240
  540SOL     OW 2518   0.090   1.233   1.950
  540SOL    HW1 2519   0.073   1.135   1.965
  540SOL    HW2 2520   0.186   1.246   1.927
  541SOL     OW 2521   2.968   6.970   4.682
  541SOL    HW1 2522   2.997   6.930   4.769
  541SOL    HW2 2523   2.966   6.898   4.612
  542SOL     OW 2524   6.978   0.256   0.528
  542SOL    HW1 2525   7.021   0.329   0.582
  542SOL    HW2 2526   6.884   0.243   0.560
  543SOL     OW 2527   0.410   5.140   5.373
  543SOL    HW1 2528   0.447   5.067   5.430
  543SOL    HW2 2529   0.360   5.101   5.296
  544SOL     OW 2530   1.984   4.060   1.156
  544SOL    HW1 2531   1.914   4.085   1.223
  544SOL    HW2 2532   2.047   4.136   1.143
  545SOL     OW 2533   3.550   1.435   3.234
  545SOL    HW1 2534   3.510   1.355   3.279
  545SOL    HW2 2535   3.490   1.465   3.160
  546SOL     OW 2536   1.544   3.345   1.040
  546SOL    HW1 2537   1.455   3.383   1.066
  546SOL    HW2 2538   1.613   3.417   1.041
  547SOL     OW 2539   2.754   1.137   6.563
  547SOL    HW1 2540   2.849   1.163   6.546
  547SOL    HW2 2541   2.743   1.039   6.549
  548SOL     OW 2542   3.744   2.971   2.961
  548SOL    HW1 2543   3.683   2.895   2.982
  548SOL    HW2 2544   3.713   3.016   2.877
  549SOL     OW 2545   4.487   3.691   1.315
  549SOL    HW1 2546   4.466   3.737   1.401
  549SOL    HW2 2547   4.562   3.627   1.329
  550SOL     OW 2548   6.840   3.831   3.758
  550SOL    HW1 2549   6.826   3.732   3.749
  550SOL    HW2 2550   6.913   3.860   3.697
  551SOL     OW 2551   0.090   0.857   1.016
  551SOL    HW1 2552   7.028   0.897   1.016
  551SOL    HW2 2553   0.119   0.841   0.921
  552SOL     OW 2554   4.649   5.087   0.671
  552SOL    HW1 2555   4.719   5.017   0.685
  552SOL    HW2 2556   4.564   5.043   0.643
  553SOL     OW 2557   1.898   0.380   2.133
  553SOL    HW1 2558   1.798   0.381   2.140
  553SOL    HW2 2559   1.930   0.286   2.129
  554SOL     OW 2560   4.685   6.430   6.362
  554SOL    HW1 2561   4.645   6.497   6.425
  554SOL    HW2 2562   4.771   6.396   6.400
  555SOL     OW 2563   2.365   5.211   4.370
  555SOL    HW1 2564   2.440   5.203   4.436
  555SOL    HW2 2565   2.400   5.253   4.286
  556SOL     OW 2566   6.124   1.827   4.379
  556SOL    HW1 2567   6.094   1.732   4.376
  556SOL    HW2 2568   6.061   1.884   4.325
  557SOL     OW 2569   7.024   5.447   6.597
  557SOL    HW1 2570   6.946   5.396   6.560
  557SOL    HW2 2571   0.008   5.531   6.544
  558SOL     OW 2572   3.924   3.911   4.546
  558SOL    HW1 2573   3.827   3.924   4.569
  558SOL    HW2 2574   3.980   3.970   4.604
  559SOL     OW 2575   6.220   6.078   6.821
  559SOL    HW1 2576   6.274   6.011   6.770
  559SOL    HW2 2577   6.214   6.050   6.917
  560SOL     OW 2578   3.947   6.356   0.774
  560SOL    HW1 2579   3.981   6.416   0.846
  560SOL    HW2 2580   3.965   6.261   0.799
  561SOL     OW 2581   6.356   7.012   6.824
  561SOL    HW1 2582   6.350   0.082   6.817
  561SOL    HW2 2583   6.453   6.985   6.821
  562SOL     OW 2584   4.530   0.249   6.526
  562SOL    HW1 2585   4.513   0.289   6.436
  562SOL    HW2 2586   4.495   0.310   6.597
  563SOL     OW 2587   3.042   0.216   3.087
  563SOL    HW1 2588   2.995   0.235   3.173
  563SOL    HW2 2589   3.120   0.278   3.077
  564SOL     OW 2590   2.826   2.095   6.134
  564SOL    HW1 2591   2.741   2.128   6.175
  564SOL    HW2 2592   2.889   2.172   6.121
  565SOL     OW 2593   4.369   3.069   5.315
  565SOL    HW1 2594   4.303   3.138   5.287
  565SOL    HW2 2595   4.404   3.091   5.407
  566SOL     OW 2596   4.646   4.378   3.685
  566SOL    HW1 2597   4.668   4.345   3.777
  566SOL    HW2 2598   4.656   4.303   3.620
  567SOL     OW 2599   3.357   3.837   3.874
  567SOL    HW1 2600   3.400   3.753   3.907
  567SOL    HW2 2601   3.265   3.816   3.840
  568SOL     OW 2602   3.694   2.422   1.069
  568SOL    HW1 2603   3.759   2.420   1.145
  568SOL    HW2 2604   3.744   2.427   0.982
  569SOL     OW 2605   1.463   3.100   0.643
  569SOL    HW1 2606   1.445   3.056   0.556
  569SOL    HW2 2607   1.560   3.092   0.666
  570SOL     OW 2608   1.876   6.919   6.407
  570SOL    HW1 2609   1.781   6.947   6.425
  570SOL    HW2 2610   1.886   6.896   6.311
  571SOL     OW 2611   3.537   6.307   2.769
  571SOL    HW1 2612   3.539   6.303   2.868
  571SOL    HW2 2613   3.503   6.396   2.739
  572SOL     OW 2614   2.732   5.131   5.859
  572SOL    HW1 2615   2.695   5.216   5.821
  572SOL    HW2 2616   2.696   5.053   5.808
  573SOL     OW 2617   3.852   2.061   5.037
  573SOL    HW1 2618   3.939   2.014   5.044
  573SOL    HW2 2619   3.811   2.043   4.948
  574SOL     OW 2620   2.320   2.086   4.236
  574SOL    HW1 2621   2.278   2.150   4.300
  574SOL    HW2 2622   2.411   2.060   4.269
  575SOL     OW 2623   6.427   4.064   6.342
  575SOL    HW1 2624   6.465   3.976   6.316
  575SOL    HW2 2625   6.394   4.112   6.261
  576SOL     OW 2626   1.564   1.923   1.779
  576SOL    HW1 2627   1.474   1.915   1.737
  576SOL    HW2 2628   1.587   2.020   1.791
  577SOL     OW 2629   1.905   1.614   3.582
  577SOL    HW1 2630   1.983   1.675   3.573
  577SOL    HW2 2631   1.928   1.525   3.542
  578SOL     OW 2632   6.855   3.099   3.595
  578SOL    HW1 2633   6.769   3.110   3.645
  578SOL    HW2 2634   6.931   3.091   3.660
  579SOL     OW 2635   3.440   2.469   1.182
  579SOL    HW1 2636   3.393   2.383   1.201
  579SOL    HW2 2637   3.536   2.450   1.160
  580SOL     OW 2638   0.705   4.668   5.922
  580SOL    HW1 2639   0.673   4.584   5.965
  580SOL    HW2 2640   0.804   4.677   5.936
  581SOL     OW 2641   3.090   3.033   3.102
  581SOL    HW1 2642   3.078   3.131   3.081
  581SOL    HW2 2643   3.103   2.983   3.016
  582SOL     OW 2644   5.590   4.747   2.376
  582SOL    HW1 2645   5.655   4.697   2.434
  582SOL    HW2 2646   5.545   4.683   2.314
  583SOL     OW 2647   2.785   4.762   6.554
  583SOL    HW1 2648   2.767   4.727   6.462
  583SOL    HW2 2649   2.712   4.826   6.580
  584SOL     OW 2650   0.438   4.735   5.866
  584SOL    HW1 2651   0.410   4.652   5.817
  584SOL    HW2 2652   0.537   4.733   5.882
  585SOL     OW 2653   6.730   2.703   6.040
  585SOL    HW1 2654   6.634   2.698   6.066
  585SOL    HW2 2655   6.751   2.794   6.004
  586SOL     OW 2656   3.253   6.712   0.408
  586SOL    HW1 2657   3.220   6.619   0.394
  586SOL    HW2 2658   3.176   6.776   0.407
  587SOL     OW 2659   1.777   2.186   5.168
  587SOL    HW1 2660   1.752   2.246   5.244
  587SOL    HW2 2661   1.720   2.104   5.170
  588SOL     OW 2662   3.522   6.393   1.014
  588SOL    HW1 2663   3.476   6.403   0.926
  588SOL    HW2 2664   3.482   6.456   1.080
  589SOL     OW 2665   4.022   5.019   1.982
  589SOL    HW1 2666   3.940   5.068   1.955
  589SOL    HW2 2667   4.001   4.922   1.994
  590SOL     OW 2668   6.666   2.838   2.165
  590SOL    HW1 2669   6.575   2.875   2.184
  590SOL    HW2 2670   6.711   2.895   2.095
  591SOL     OW 2671   3.718   6.796   3.977
  591SOL    HW1 2672   3.657   6.805   4.056
  591SOL    HW2 2673   3.807   6.761   4.008
  592SOL     OW 2674   4.542   1.078   0.542
  592SOL    HW1 2675   4.535   0.981   0.519
  592SOL    HW2 2676   4.464   1.127   0.503
  593SOL     OW 2677   4.465   2.007   3.742
  593SOL    HW1 2678   4.428   1.954   3.819
  593SOL    HW2 2679   4.551   1.967   3.713
  594SOL     OW 2680   4.027   2.685   6.421
  594SOL    HW1 2681   4.058   2.602   6.375
  594SOL    HW2 2682   3.943   2.666   6.472
  595SOL     OW 2683   4.618   7.011   3.938
  595SOL    HW1 2684   4.690   0.050   3.943
  595SOL    HW2 2685   4.637   6.948   3.862
  596SOL     OW 2686   1.043   4.093   1.324
  596SOL    HW1 2687   1.129   4.065   1.367
  596SOL    HW2 2688   0.979   4.016   1.324
  597SOL     OW 2689   4.171   6.687   6.120
  597SOL    HW1 2690   4.114   6.652   6.194
  597SOL    HW2 2691   4.144   6.643   6.034
  598SOL     OW 2692   3.778   4.207   0.797
  598SOL    HW1 2693   3.786   4.190   0.896
  598SOL    HW2 2694   3.804   4.124   0.747
  599SOL     OW 2695   0.405   0.867   2.754
  599SOL    HW1 2696   0.362   0.812   2.682
  599SOL    HW2 2697   0.338   0.888   2.825
  600SOL     OW 2698   0.534   0.133   0.788
  600SOL    HW1 2699   0.528   0.035   0.805
  600SOL    HW2 2700   0.607   0.152   0.723
  601SOL     OW 2701   3.029   5.546   3.137
  601SOL    HW1 2702   3.071   5.519   3.050
  601SOL    HW2 2703   2.970   5.625   3.122
  602SOL     OW 2704   0.806   1.161   0.778
  602SOL    HW1 2705   0.832   1.251   0.746
  602SOL    HW2 2706   0.832   1.092   0.711
  603SOL     OW 2707   3.990   1.829   4.009
  603SOL    HW1 2708   4.002   1.783   3.921
  603SOL    HW2 2709   3.902   1.875   4.011
  604SOL     OW 2710   0.701   3.031   0.301
  604SOL    HW1 2711   0.627   3.066   0.244
  604SOL    HW2 2712   0.709   3.087   0.384
  605SOL     OW 2713   6.663   5.909   3.395
  605SOL    HW1 2714   6.565   5.889   3.397
  605SOL    HW2 2715   6.712   5.842   3.451
  606SOL     OW 2716   4.814   0.863   5.516
  606SOL    HW1 2717   4.722   0.889   5.546
  606SOL    HW2 2718   4.823   0.878   5.417
  607SOL     OW 2719   5.528   1.346   4.402
  607SOL    HW1 2720   5.463   1.339   4.477
  607SOL    HW2 2721   5.519   1.266   4.343
  608SOL     OW 2722   3.238   0.073   0.653
  608SOL    HW1 2723   3.252   0.172   0.654
  608SOL    HW2 2724   3.327   0.028   0.658
  609SOL     OW 2725   3.466   3.052   4.839
  609SOL    HW1 2726   3.405   3.129   4.820
  609SOL    HW2 2727   3.423   2.992   4.906
  610SOL     OW 2728   5.843   2.279   3.025
  610SOL    HW1 2729   5.866   2.283   3.123
  610SOL    HW2 2730   5.926   2.257   2.973
  611SOL     OW 2731   0.563   0.835   6.941
  611SOL    HW1 2732   0.481   0.880   6.978
  611SOL    HW2 2733   0.565   0.846   6.842
  612SOL     OW 2734   3.590   5.652   5.840
  612SOL    HW1 2735   3.515   5.684   5.782
  612SOL    HW2 2736   3.558   5.574   5.895
  613SOL     OW 2737   4.113   1.208   5.379
  613SOL    HW1 2738   4.045   1.159   5.324
  613SOL    HW2 2739   4.145   1.288   5.330
  614SOL     OW 2740   5.987   5.057   1.049
  614SOL    HW1 2741   5.970   5.137   0.992
  614SOL    HW2 2742   6.082   5.027   1.038
  615SOL     OW 2743   0.918   0.391   6.631
  615SOL    HW1 2744   0.913   0.486   6.661
  615SOL    HW2 2745   0.990   0.344   6.682
  616SOL     OW 2746   6.059   1.899   3.747
  616SOL    HW1 2747   6.070   1.866   3.841
  616SOL    HW2 2748   5.974   1.951   3.740
  617SOL     OW 2749   0.344   4.748   6.418
  617SOL    HW1 2750   0.311   4.672   6.362
  617SOL    HW2 2751   0.379   4.820   6.358
  618SOL     OW 2752   5.968   3.262   1.402
  618SOL    HW1 2753   6.035   3.221   1.464
  618SOL    HW2 2754   5.877   3.255   1.442
  619SOL     OW 2755   3.572   6.735   6.924
  619SOL    HW1 2756   3.480   6.774   6.922
  619SOL    HW2 2757   3.614   6.744   6.834
  620SOL     OW 2758   5.866   3.332   2.003
  620SOL    HW1 2759   5.867   3.432   1.995
  620SOL    HW2 2760   5.784   3.304   2.052
  621SOL     OW 2761   2.700   0.083   5.067
  621SOL    HW1 2762   2.617   0.120   5.026
  621SOL    HW2 2763   2.684   7.019   5.097
  622SOL     OW 2764   0.856   2.418   5.725
  622SOL    HW1 2765   0.856   2.370   5.638
  622SOL    HW2 2766   0.926   2.490   5.723
  623SOL     OW 2767   6.107   6.336   5.050
  623SOL    HW1 2768   6.046   6.414   5.032
  623SOL    HW2 2769   6.084   6.295   5.139
  624SOL     OW 2770   6.443   1.199   6.809
  624SOL    HW1 2771   6.469   1.113   6.853
  624SOL    HW2 2772   6.348   1.193   6.778
  625SOL     OW 2773   2.010   0.871   0.379
  625SOL    HW1 2774   2.058   0.784   0.366
  625SOL    HW2 2775   2.067   0.947   0.349
  626SOL     OW 2776   1.551   5.710   3.281
  626SOL    HW1 2777   1.595   5.632   3.238
  626SOL    HW2 2778   1.501   5.762   3.212
  627SOL     OW 2779   6.379   6.150   0.681
  627SOL    HW1 2780   6.393   6.060   0.722
  627SOL    HW2 2781   6.434   6.159   0.598
  628SOL     OW 2782   5.330   3.764   5.027
  628SOL    HW1 2783   5.366   3.678   4.991
  628SOL    HW2 2784   5.403   3.831   5.032
  629SOL     OW 2785   0.240   1.205   6.973
  629SOL    HW1 2786   0.335   1.187   6.949
  629SOL    HW2 2787   0.236   1.266   0.023
  630SOL     OW 2788   6.531   0.772   1.066
  630SOL    HW1 2789   6.505   0.861   1.103
  630SOL    HW2 2790   6.493   0.699   1.123
  631SOL     OW 2791   2.701   2.392   4.666
  631SOL    HW1 2792   2.686   2.419   4.761
  631SOL    HW2 2793   2.646   2.311   4.645
  632SOL     OW 2794   4.789   3.187   0.510
  632SOL    HW1 2795   4.834   3.245   0.442
  632SOL    HW2 2796   4.846   3.107   0.530
  633SOL     OW 2797   2.156   4.961   1.135
  633SOL    HW1 2798   2.136   4.867   1.107
  633SOL    HW2 2799   2.246   4.964   1.179
  634SOL     OW 2800   3.678   3.479   3.492
  634SOL    HW1 2801   3.614   3.455   3.418
  634SOL    HW2 2802   3.672   3.411   3.565
  635SOL     OW 2803   4.709   0.652   0.048
  635SOL    HW1 2804   4.613   0.663   0.023
  635SOL    HW2 2805   4.739   0.731   0.102
  636SOL     OW 2806   3.254   0.351   4.862
  636SOL    HW1 2807   3.155   0.361   4.875
  636SOL    HW2 2808   3.278   0.254   4.855
  637SOL     OW 2809   6.289   1.886   2.796
  637SOL    HW1 2810   6.226   1.915   2.725
  637SOL    HW2 2811   6.280   1.788   2.811
  638SOL     OW 2812   5.693   3.474   4.203
  638SOL    HW1 2813   5.770   3.525   4.165
  638SOL    HW2 2814   5.704   3.377   4.182
  639SOL     OW 2815   5.319   4.776   3.087
  639SOL    HW1 2816   5.370   4.807   3.167
  639SOL    HW2 2817   5.303   4.853   3.025
  640SOL     OW 2818   0.573   3.454   3.383
  640SOL    HW1 2819   0.652   3.494   3.337
  640SOL    HW2 2820   0.491   3.507   3.360
  641SOL     OW 2821   1.535   4.577   5.448
  641SOL    HW1 2822   1.521   4.540   5.540
  641SOL    HW2 2823   1.603   4.521   5.400
  642SOL     OW 2824   1.151   3.691   4.738
  642SOL    HW1 2825   1.055   3.668   4.759
  642SOL    HW2 2826   1.176   3.650   4.651
  643SOL     OW 2827   6.576   6.223   0.069
  643SOL    HW1 2828   6.669   6.189   0.082
  643SOL    HW2 2829   6.546   6.206   7.005
  644SOL     OW 2830   0.374   0.437   4.526
  644SOL    HW1 2831   0.423   0.463   4.443
  644SOL    HW2 2832   0.384   0.508   4.595
  645SOL     OW 2833   3.360   4.913   2.830
  645SOL    HW1 2834   3.365   5.009   2.803
  645SOL    HW2 2835   3.312   4.904   2.917
  646SOL     OW 2836   3.903   0.846   4.771
  646SOL    HW1 2837   3.862   0.797   4.694
  646SOL    HW2 2838   3.831   0.872   4.836
  647SOL     OW 2839   4.586   2.066   5.043
  647SOL    HW1 2840   4.591   2.165   5.060
  647SOL    HW2 2841   4.656   2.040   4.976
  648SOL     OW 2842   6.442   2.527   3.542
  648SOL    HW1 2843   6.385   2.448   3.519
  648SOL    HW2 2844   6.515   2.498   3.604
  649SOL     OW 2845   1.964   4.196   0.408
  649SOL    HW1 2846   2.057   4.164   0.392
  649SOL    HW2 2847   1.912   4.123   0.455
  650SOL     OW 2848   6.614   5.509   0.704
  650SOL    HW1 2849   6.633   5.564   0.786
  650SOL    HW2 2850   6.677   5.431   0.702
  651SOL     OW 2851   1.849   0.606   6.028
  651SOL    HW1 2852   1.940   0.646   6.023
  651SOL    HW2 2853   1.813   0.592   5.936
  652SOL     OW 2854   4.025   6.832   1.845
  652SOL    HW1 2855   4.019   6.807   1.748
  652SOL    HW2 2856   3.966   6.911   1.862
  653SOL     OW 2857   0.654   6.567   0.397
  653SOL    HW1 2858   0.659   6.470   0.420
  653SOL    HW2 2859   0.599   6.615   0.465
  654SOL     OW 2860   0.163   5.945   5.635
  654SOL    HW1 2861   0.070   5.932   5.602
  654SOL    HW2 2862   0.164   5.940   5.735
  655SOL     OW 2863   0.108   5.406   2.004
  655SOL    HW1 2864   0.174   5.381   1.933
  655SOL    HW2 2865   0.120   5.503   2.028
  656SOL     OW 2866   2.802   6.643   0.733
  656SOL    HW1 2867   2.720   6.589   0.750
  656SOL    HW2 2868   2.786   6.738   0.759
  657SOL     OW 2869   3.054   3.273   1.463
  657SOL    HW1 2870   3.134   3.332   1.457
  657SOL    HW2 2871   2.971   3.328   1.456
  658SOL     OW 2872   1.857   4.227   4.605
  658SOL    HW1 2873   1.865   4.193   4.699
  658SOL    HW2 2874   1.790   4.301   4.601
  659SOL     OW 2875   3.244   5.899   4.980
  659SOL    HW1 2876   3.197   5.888   5.068
  659SOL    HW2 2877   3.337   5.932   4.996
  660SOL     OW 2878   4.757   5.242   2.693
  660SOL    HW1 2879   4.840   5.189   2.714
  660SOL    HW2 2880   4.773   5.297   2.611
  661SOL     OW 2881   5.114   4.322   4.282
  661SOL    HW1 2882   5.127   4.332   4.381
  661SOL    HW2 2883   5.148   4.403   4.235
  662SOL     OW 2884   4.740   2.157   6.838
  662SOL    HW1 2885   4.825   2.200   6.807
  662SOL    HW2 2886   4.685   2.130   6.759
  663SOL     OW 2887   0.448   5.170   6.804
  663SOL    HW1 2888   0.538   5.173   6.848
  663SOL    HW2 2889   0.377   5.197   6.870
  664SOL     OW 2890   2.052   5.319   6.878
  664SOL    HW1 2891   2.137   5.266   6.878
  664SOL    HW2 2892   2.065   5.403   6.824
  665SOL     OW 2893   4.274   5.245   1.710
  665SOL    HW1 2894   4.196   5.302   1.736
  665SOL    HW2 2895   4.312   5.278   1.624
  666SOL     OW 2896   3.540   1.953   0.164
  666SOL    HW1 2897   3.454   1.988   0.201
  666SOL    HW2 2898   3.527   1.858   0.133
  667SOL     OW 2899   0.069   2.527   4.450
  667SOL    HW1 2900   0.060   2.542   4.352
  667SOL    HW2 2901   7.008   2.519   4.491
  668SOL     OW 2902   4.291   5.824   6.966
  668SOL    HW1 2903   4.377   5.813   7.016
  668SOL    HW2 2904   4.310   5.825   6.867
  669SOL     OW 2905   1.565   6.892   2.863
  669SOL    HW1 2906   1.508   6.817   2.829
  669SOL    HW2 2907   1.653   6.855   2.894
  670SOL     OW 2908   2.909   3.749   3.262
  670SOL    HW1 2909   2.833   3.732   3.324
  670SOL    HW2 2910   2.973   3.813   3.304
  671SOL     OW 2911   2.227   5.440   6.198
  671SOL    HW1 2912   2.264   5.476   6.112
  671SOL    HW2 2913   2.300   5.395   6.249
  672SOL     OW 2914   1.012   3.281   3.850
  672SOL    HW1 2915   0.921   3.240   3.845
  672SOL    HW2 2916   1.057   3.273   3.762
  673SOL     OW 2917   4.577   6.971   6.988
  673SOL    HW1 2918   4.514   6.931   0.026
  673SOL    HW2 2919   4.617   6.897   6.933
  674SOL     OW 2920   0.691   2.784   4.483
  674SOL    HW1 2921   0.696   2.847   4.561
  674SOL    HW2 2922   0.749   2.705   4.502
  675SOL     OW 2923   1.089   1.945   4.865
  675SOL    HW1 2924   1.165   1.906   4.917
  675SOL    HW2 2925   1.099   2.045   4.862
  676SOL     OW 2926   3.085   4.859   4.114
  676SOL    HW1 2927   3.093   4.886   4.210
  676SOL    HW2 2928   3.019   4.784   4.106
  677SOL     OW 2929   5.692   0.525   0.029
  677SOL    HW1 2930   5.790   0.533   0.011
  677SOL    HW2 2931   5.663   0.597   0.092
  678SOL     OW 2932   2.474   1.709   5.289
  678SOL    HW1 2933   2.430   1.626   5.256
  678SOL    HW2 2934   2.479   1.707   5.389
  679SOL     OW 2935   3.997   1.210   3.910
  679SOL    HW1 2936   4.094   1.222   3.888
  679SOL    HW2 2937   3.982   1.233   4.006
  680SOL     OW 2938   6.064   4.333   6.179
  680SOL    HW1 2939   6.088   4.265   6.110
  680SOL    HW2 2940   5.967   4.357   6.171
  681SOL     OW 2941   6.952   6.385   0.531
  681SOL    HW1 2942   0.011   6.403   0.489
  681SOL    HW2 2943   6.888   6.354   0.460
  682SOL     OW 2944   2.347   6.880   6.481
  682SOL    HW1 2945   2.300   6.802   6.438
  682SOL    HW2 2946   2.353   6.955   6.416
  683SOL     OW 2947   3.845   0.720   5.807
  683SOL    HW1 2948   3.790   0.738   5.726
  683SOL    HW2 2949   3.940   0.748   5.791
  684SOL     OW 2950   6.683   0.649   6.189
  684SOL    HW1 2951   6.711   0.732   6.237
  684SOL    HW2 2952   6.764   0.593   6.170
  685SOL     OW 2953   5.335   0.575   5.858
  685SOL    HW1 2954   5.385   0.492   5.881
  685SOL    HW2 2955   5.356   0.647   5.924
  686SOL     OW 2956   5.545   3.164   3.177
  686SOL    HW1 2957   5.640   3.147   3.204
  686SOL    HW2 2958   5.505   3.081   3.140
  687SOL     OW 2959   0.116   3.220   6.472
  687SOL    HW1 2960   0.159   3.200   6.384
  687SOL    HW2 2961   0.046   3.151   6.492
  688SOL     OW 2962   2.112   3.353   0.242
  688SOL    HW1 2963   2.114   3.312   0.334
  688SOL    HW2 2964   2.022   3.391   0.224
  689SOL     OW 2965   1.370   4.573   5.753
  689SOL    HW1 2966   1.322   4.657   5.780
  689SOL    HW2 2967   1.321   4.494   5.789
  690SOL     OW 2968   0.995   2.975   3.342
  690SOL    HW1 2969   0.996   3.034   3.423
  690SOL    HW2 2970   1.021   2.882   3.369
  691SOL     OW 2971   1.535   2.541   6.192
  691SOL    HW1 2972   1.582   2.592   6.120
  691SOL    HW2 2973   1.445   2.582   6.208
  692SOL     OW 2974   3.203   6.851   3.384
  692SOL    HW1 2975   3.150   6.893   3.310
  692SOL    HW2 2976   3.300   6.875   3.374
  693SOL     OW 2977   6.585   1.472   3.312
  693SOL    HW1 2978   6.569   1.449   3.216
  693SOL    HW2 2979   6.651   1.409   3.351
  694SOL     OW 2980   4.022   5.631   1.242
  694SOL    HW1 2981   3.950   5.701   1.237
  694SOL    HW2 2982   4.074   5.631   1.157
  695SOL     OW 2983   4.759   4.966   4.684
  695SOL    HW1 2984   4.711   4.958   4.771
  695SOL    HW2 2985   4.693   4.966   4.609
  696SOL     OW 2986   3.182   5.293   2.450
  696SOL    HW1 2987   3.118   5.358   2.410
  696SOL    HW2 2988   3.146   5.259   2.536
  697SOL     OW 2989   1.286   3.535   5.621
  697SOL    HW1 2990   1.292   3.634   5.609
  697SOL    HW2 2991   1.232   3.515   5.702
  698SOL     OW 2992   5.065   0.231   4.054
  698SOL    HW1 2993   5.145   0.209   4.111
  698SOL    HW2 2994   5.095   0.280   3.972
  699SOL     OW 2995   1.924   4.373   0.966
  699SOL    HW1 2996   1.840   4.427   0.954
  699SOL    HW2 2997   1.956   4.382   1.060
  700SOL     OW 2998   2.725   1.901   3.375
  700SOL    HW1 2999   2.650   1.965   3.358
  700SOL    HW2 3000   2.810   1.939   3.340
  701SOL     OW 3001   1.390   4.783   6.969
  701SOL    HW1 3002   1.324   4.748   6.903
  701SOL    HW2 3003   1.482   4.753   6.944
  702SOL     OW 3004   5.204   5.960   5.658
  702SOL    HW1 3005   5.117   5.924   5.622
  702SOL    HW2 3006   5.230   6.041   5.606
  703SOL     OW 3007   4.331   3.330   0.069
  703SOL    HW1 3008   4.252   3.323   0.009
  703SOL    HW2 3009   4.361   3.425   0.075
  704SOL     OW 3010   1.108   1.175   5.971
  704SOL    HW1 3011   1.178   1.242   5.998
  704SOL    HW2 3012   1.099   1.174   5.871
  705SOL     OW 3013   4.837   0.486   3.501
  705SOL    HW1 3014   4.826   0.466   3.404
  705SOL    HW2 3015   4.929   0.524   3.517
  706SOL     OW 3016   3.915   1.630   3.482
  706SOL    HW1 3017   3.824   1.620   3.443
  706SOL    HW2 3018   3.942   1.544   3.526
  707SOL     OW 3019   4.300   6.951   1.736
  707SOL    HW1 3020   4.210   6.922   1.767
  707SOL    HW2 3021   4.318   6.913   1.645
  708SOL     OW 3022   4.725   0.541   0.714
  708SOL    HW1 3023   4.633   0.512   0.741
  708SOL    HW2 3024   4.781   0.554   0.796
  709SOL     OW 3025   1.407   5.187   1.357
  709SOL    HW1 3026   1.335   5.218   1.294
  709SOL    HW2 3027   1.372   5.188   1.450
  710SOL     OW 3028   3.442   3.921   2.927
  710SOL    HW1 3029   3.386   3.951   2.850
  710SOL    HW2 3030   3.520   3.867   2.894
  711SOL     OW 3031   6.708   2.511   5.541
  711SOL    HW1 3032   6.737   2.569   5.617
  711SOL    HW2 3033   6.609   2.497   5.545
  712SOL     OW 3034   1.315   3.684   1.199
  712SOL    HW1 3035   1.335   3.634   1.115
  712SOL    HW2 3036   1.390   3.669   1.265
  713SOL     OW 3037   3.640   3.599   1.563
  713SOL    HW1 3038   3.637   3.651   1.648
  713SOL    HW2 3039   3.656   3.502   1.584
  714SOL     OW 3040   5.473   4.115   5.451
  714SOL    HW1 3041   5.509   4.025   5.424
  714SOL    HW2 3042   5.525   4.187   5.405
  715SOL     OW 3043   4.768   5.964   0.108
  715SOL    HW1 3044   4.829   5.891   0.078
  715SOL    HW2 3045   4.790   6.049   0.060
  716SOL     OW 3046   0.813   5.545   0.990
  716SOL    HW1 3047   0.870   5.578   1.065
  716SOL    HW2 3048   0.849   5.581   0.903
  717SOL     OW 3049   6.497   4.909   6.448
  717SOL    HW1 3050   6.483   4.971   6.370
  717SOL    HW2 3051   6.456   4.820   6.427
  718SOL     OW 3052   4.126   2.465   6.261
  718SOL    HW1 3053   4.137   2.366   6.260
  718SOL    HW2 3054   4.216   2.508   6.254
  719SOL     OW 3055   6.455   2.721   1.409
  719SOL    HW1 3056   6.445   2.678   1.499
  719SOL    HW2 3057   6.365   2.743   1.373
  720SOL     OW 3058   2.555   1.765   5.599
  720SOL    HW1 3059   2.641   1.770   5.650
  720SOL    HW2 3060   2.481   1.804   5.655
  721SOL     OW 3061   1.688   0.942   5.141
  721SOL    HW1 3062   1.657   0.892   5.222
  721SOL    HW2 3063   1.678   0.885   5.060
  722SOL     OW 3064   4.234   6.534   4.956
  722SOL    HW1 3065   4.196   6.620   4.988
  722SOL    HW2 3066   4.175   6.495   4.885
  723SOL     OW 3067   2.018   2.693   2.249
  723SOL    HW1 3068   1.922   2.670   2.233
  723SOL    HW2 3069   2.024   2.787   2.283
  724SOL     OW 3070   1.488   1.696   5.722
  724SOL    HW1 3071   1.463   1.791   5.703
  724SOL    HW2 3072   1.424   1.657   5.788
  725SOL     OW 3073   2.766   4.981   2.148
  725SOL    HW1 3074   2.829   5.050   2.183
  725SOL    HW2 3075   2.672   5.008   2.170
  726SOL     OW 3076   3.906   4.842   0.429
  726SOL    HW1 3077   3.837   4.873   0.363
  726SOL    HW2 3078   3.953   4.921   0.468
  727SOL     OW 3079   3.822   6.308   4.235
  727SOL    HW1 3080   3.828   6.239   4.164
  727SOL    HW2 3081   3.890   6.288   4.306
  728SOL     OW 3082   6.875   3.647   5.536
  728SOL    HW1 3083   6.902   3.623   5.443
  728SOL    HW2 3084   6.900   3.574   5.599
  729SOL     OW 3085   2.177   0.471   0.603
  729SOL    HW1 3086   2.212   0.559   0.572
  729SOL    HW2 3087   2.095   0.447   0.550
  730SOL     OW 3088   5.647   0.613   3.194
  730SOL    HW1 3089   5.700   0.646   3.115
  730SOL    HW2 3090   5.647   0.683   3.265
  731SOL     OW 3091   5.310   3.240   5.435
  731SOL    HW1 3092   5.372   3.300   5.386
  731SOL    HW2 3093   5.355   3.152   5.452
  732SOL     OW 3094   0.792   3.164   1.288
  732SOL    HW1 3095   0.824   3.180   1.194
  732SOL    HW2 3096   0.839   3.084   1.326
  733SOL     OW 3097   5.585   3.989   4.138
  733SOL    HW1 3098   5.683   3.967   4.133
  733SOL    HW2 3099   5.542   3.965   4.051
  734SOL     OW 3100   7.014   5.346   2.264
  734SOL    HW1 3101   0.026   5.281   2.327
  734SOL    HW2 3102   0.022   5.333   2.172
  735SOL     OW 3103   2.589   2.996   0.912
  735SOL    HW1 3104   2.650   3.072   0.888
  735SOL    HW2 3105   2.565   2.945   0.830
  736SOL     OW 3106   6.470   6.766   2.598
  736SOL    HW1 3107   6.431   6.749   2.507
  736SOL    HW2 3108   6.564   6.799   2.588
  737SOL     OW 3109   4.959   3.703   0.996
  737SOL    HW1 3110   5.018   3.622   1.000
  737SOL    HW2 3111   4.902   3.700   0.914
  738SOL     OW 3112   1.068   4.955   4.046
  738SOL    HW1 3113   1.118   4.875   4.012
  738SOL    HW2 3114   1.132   5.015   4.094
  739SOL     OW 3115   4.645   6.680   5.469
  739SOL    HW1 3116   4.552   6.705   5.498
  739SOL    HW2 3117   4.709   6.701   5.542
  740SOL     OW 3118   5.195   0.300   0.700
  740SOL    HW1 3119   5.100   0.267   0.693
  740SOL    HW2 3120   5.221   0.343   0.613
  741SOL     OW 3121   1.759   6.740   3.037
  741SOL    HW1 3122   1.811   6.826   3.036
  741SOL    HW2 3123   1.818   6.665   3.007
  742SOL     OW 3124   2.158   6.911   2.440
  742SOL    HW1 3125   2.113   6.927   2.352
  742SOL    HW2 3126   2.228   6.840   2.429
  743SOL     OW 3127   1.713   4.465   4.104
  743SOL    HW1 3128   1.638   4.475   4.038
  743SOL    HW2 3129   1.711   4.542   4.168
  744SOL     OW 3130   7.008   6.650   6.723
  744SOL    HW1 3131   6.969   6.729   6.676
  744SOL    HW2 3132   0.062   6.622   6.675
  745SOL     OW 3133   0.817   6.008   3.794
  745SOL    HW1 3134   0.868   6.093   3.789
  745SOL    HW2 3135   0.771   6.002   3.883
  746SOL     OW 3136   0.143   6.485   5.348
  746SOL    HW1 3137   0.242   6.498   5.338
  746SOL    HW2 3138   0.114   6.518   5.438
  747SOL     OW 3139   4.427   5.166   4.227
  747SOL    HW1 3140   4.334   5.190   4.253
  747SOL    HW2 3141   4.427   5.078   4.178
  748SOL     OW 3142   4.455   5.204   2.051
  748SOL    HW1 3143   4.491   5.154   1.973
  748SOL    HW2 3144   4.391   5.146   2.102
  749SOL     OW 3145   6.871   3.095   5.218
  749SOL    HW1 3146   6.962   3.073   5.183
  749SOL    HW2 3147   6.874   3.184   5.263
  750SOL     OW 3148   2.452   3.077   0.294
  750SOL    HW1 3149   2.377   3.117   0.242
  750SOL    HW2 3150   2.479   2.991   0.252
  751SOL     OW 3151   4.225   2.199   6.328
  751SOL    HW1 3152   4.313   2.225   6.368
  751SOL    HW2 3153   4.224   2.101   6.310
  752SOL     OW 3154   4.632   2.686   1.820
  752SOL    HW1 3155   4.572   2.607   1.803
  752SOL    HW2 3156   4.589   2.769   1.783
  753SOL     OW 3157   2.118   3.151   4.546
  753SOL    HW1 3158   2.188   3.082   4.530
  753SOL    HW2 3159   2.102   3.202   4.462
  754SOL     OW 3160   5.606   3.767   6.826
  754SOL    HW1 3161   5.679   3.700   6.810
  754SOL    HW2 3162   5.541   3.731   6.892
  755SOL     OW 3163   0.979   5.711   6.936
  755SOL    HW1 3164   1.056   5.682   6.878
  755SOL    HW2 3165   0.965   5.809   6.925
  756SOL     OW 3166   5.095   0.116   1.636
  756SOL    HW1 3167   5.020   0.061   1.599
  756SOL    HW2 3168   5.067   0.155   1.724
  757SOL     OW 3169   0.929   6.436   2.920
  757SOL    HW1 3170   0.885   6.363   2.972
  757SOL    HW2 3171   0.860   6.504   2.894
  758SOL     OW 3172   3.324   1.403   1.627
  758SOL    HW1 3173   3.241   1.382   1.575
  758SOL    HW2 3174   3.346   1.326   1.686
  759SOL     OW 3175   6.957   1.078   0.613
  759SOL    HW1 3176   6.977   0.986   0.579
  759SOL    HW2 3177   6.886   1.072   0.684
  760SOL     OW 3178   4.729   1.668   6.134
  760SOL    HW1 3179   4.753   1.765   6.145
  760SOL    HW2 3180   4.636   1.653   6.168
  761SOL     OW 3181   5.388   3.609   6.984
  761SOL    HW1 3182   5.295   3.574   6.995
  761SOL    HW2 3183   5.427   3.631   0.043
  762SOL     OW 3184   2.036   6.209   3.225
  762SOL    HW1 3185   2.034   6.132   3.160
  762SOL    HW2 3186   1.951   6.261   3.218
  763SOL     OW 3187   4.005   5.669   6.395
  763SOL    HW1 3188   4.092   5.621   6.384
  763SOL    HW2 3189   3.956   5.632   6.473
  764SOL     OW 3190   4.053   0.114   4.197
  764SOL    HW1 3191   3.967   0.110   4.145
  764SOL    HW2 3192   4.041   0.067   4.285
  765SOL     OW 3193   1.504   6.317   1.093
  765SOL    HW1 3194   1.569   6.373   1.041
  765SOL    HW2 3195   1.423   6.299   1.037
  766SOL     OW 3196   6.732   1.325   0.108
  766SOL    HW1 3197   6.705   1.405   0.054
  766SOL    HW2 3198   6.661   1.304   0.175
  767SOL     OW 3199   0.835   6.175   1.983
  767SOL    HW1 3200   0.866   6.081   1.966
  767SOL    HW2 3201   0.908   6.228   2.025
  768SOL     OW 3202   2.078   1.028   2.578
  768SOL    HW1 3203   1.994   1.006   2.628
  768SOL    HW2 3204   2.070   1.119   2.539
  769SOL     OW 3205   2.892   6.506   4.216
  769SOL    HW1 3206   2.955   6.563   4.268
  769SOL    HW2 3207   2.891   6.413   4.254
  770SOL     OW 3208   2.358   5.077   2.702
  770SOL    HW1 3209   2.390   5.003   2.761
  770SOL    HW2 3210   2.382   5.165   2.742
  771SOL     OW 3211   1.910   5.595   2.455
  771SOL    HW1 3212   1.889   5.654   2.533
  771SOL    HW2 3213   1.904   5.499   2.484
  772SOL     OW 3214   6.634   5.120   0.766
  772SOL    HW1 3215   6.579   5.179   0.825
  772SOL    HW2 3216   6.693   5.062   0.822
  773SOL     OW 3217   0.485   3.012   3.609
  773SOL    HW1 3218   0.394   2.974   3.597
  773SOL    HW2 3219   0.481   3.112   3.602
  774SOL     OW 3220   1.294   1.735   1.480
  774SOL    HW1 3221   1.302   1.804   1.408
  774SOL    HW2 3222   1.335   1.649   1.449
  775SOL     OW 3223   1.352   2.564   4.074
  775SOL    HW1 3224   1.386   2.575   3.980
  775SOL    HW2 3225   1.321   2.470   4.088
  776SOL     OW 3226   0.190   0.556   6.013
  776SOL    HW1 3227   0.130   0.580   5.937
  776SOL    HW2 3228   0.159   0.602   6.096
  777SOL     OW 3229   3.692   0.601   0.969
  777SOL    HW1 3230   3.737   0.513   0.984
  777SOL    HW2 3231   3.673   0.643   1.058
  778SOL     OW 3232   3.703   1.463   3.782
  778SOL    HW1 3233   3.607   1.464   3.756
  778SOL    HW2 3234   3.718   1.524   3.859
  779SOL     OW 3235   0.418   1.861   2.434
  779SOL    HW1 3236   0.350   1.799   2.474
  779SOL    HW2 3237   0.474   1.900   2.507
  780SOL     OW 3238   5.497   3.064   4.607
  780SOL    HW1 3239   5.569   3.134   4.608
  780SOL    HW2 3240   5.410   3.106   4.580
  781SOL     OW 3241   6.009   1.398   5.888
  781SOL    HW1 3242   6.083   1.346   5.930
  781SOL    HW2 3243   6.013   1.389   5.789
  782SOL     OW 3244   1.575   4.316   0.754
  782SOL    HW1 3245   1.655   4.256   0.766
  782SOL    HW2 3246   1.565   4.337   0.656
  783SOL     OW 3247   3.719   4.578   0.435
  783SOL    HW1 3248   3.742   4.564   0.339
  783SOL    HW2 3249   3.775   4.651   0.473
  784SOL     OW 3250   4.812   0.310   5.381
  784SOL    HW1 3251   4.862   0.296   5.296
  784SOL    HW2 3252   4.846   0.394   5.425
  785SOL     OW 3253   6.644   2.212   2.884
  785SOL    HW1 3254   6.710   2.272   2.839
  785SOL    HW2 3255   6.619   2.138   2.822
  786SOL     OW 3256   0.505   0.849   0.402
  786SOL    HW1 3257   0.509   0.920   0.332
  786SOL    HW2 3258   0.454   0.883   0.481
  787SOL     OW 3259   2.800   0.924   5.798
  787SOL    HW1 3260   2.844   0.956   5.714
  787SOL    HW2 3261   2.774   1.002   5.854
  788SOL     OW 3262   2.379   2.593   4.618
  788SOL    HW1 3263   2.424   2.526   4.560
  788SOL    HW2 3264   2.421   2.591   4.709
  789SOL     OW 3265   6.024   4.095   1.697
  789SOL    HW1 3266   6.028   4.190   1.665
  789SOL    HW2 3267   6.006   4.094   1.795
  790SOL     OW 3268   2.146   1.627   4.303
  790SOL    HW1 3269   2.126   1.724   4.308
  790SOL    HW2 3270   2.111   1.589   4.217
  791SOL     OW 3271   3.507   6.801   4.164
  791SOL    HW1 3272   3.534   6.885   4.211
  791SOL    HW2 3273   3.414   6.810   4.129
  792SOL     OW 3274   6.783   6.815   1.546
  792SOL    HW1 3275   6.826   6.904   1.562
  792SOL    HW2 3276   6.842   6.759   1.488
  793SOL     OW 3277   4.821   6.339   2.191
  793SOL    HW1 3278   4.837   6.250   2.234
  793SOL    HW2 3279   4.750   6.388   2.242
  794SOL     OW 3280   2.220   4.351   5.550
  794SOL    HW1 3281   2.208   4.437   5.500
  794SOL    HW2 3282   2.282   4.291   5.499
  795SOL     OW 3283   3.127   5.032   5.278
  795SOL    HW1 3284   3.132   4.957   5.212
  795SOL    HW2 3285   3.213   5.084   5.275
  796SOL     OW 3286   0.268   2.264   6.450
  796SOL    HW1 3287   0.360   2.238   6.478
  796SOL    HW2 3288   0.210   2.273   6.531
  797SOL     OW 3289   5.182   2.680   2.510
  797SOL    HW1 3290   5.115   2.754   2.509
  797SOL    HW2 3291   5.168   2.624   2.592
  798SOL     OW 3292   4.747   0.345   1.034
  798SOL    HW1 3293   4.654   0.373   1.055
  798SOL    HW2 3294   4.747   0.297   0.946
  799SOL     OW 3295   6.744   1.282   3.511
  799SOL    HW1 3296   6.739   1.346   3.588
  799SOL    HW2 3297   6.840   1.257   3.495
  800SOL     OW 3298   5.627   0.626   2.332
  800SOL    HW1 3299   5.655   0.660   2.422
  800SOL    HW2 3300   5.661   0.687   2.261
  801SOL     OW 3301   1.609   3.467   3.178
  801SOL    HW1 3302   1.531   3.487   3.119
  801SOL    HW2 3303   1.692   3.507   3.139
  802SOL     OW 3304   4.724   1.329   0.620
  802SOL    HW1 3305   4.655   1.274   0.574
  802SOL    HW2 3306   4.709   1.326   0.719
  803SOL     OW 3307   6.728   5.937   4.977
  803SOL    HW1 3308   6.694   5.887   5.057
  803SOL    HW2 3309   6.805   5.888   4.937
  804SOL     OW 3310   6.538   5.774   0.101
  804SOL    HW1 3311   6.491   5.794   0.015
  804SOL    HW2 3312   6.519   5.847   0.167
  805SOL     OW 3313   4.215   2.487   5.865
  805SOL    HW1 3314   4.260   2.555   5.923
  805SOL    HW2 3315   4.225   2.397   5.907
  806SOL     OW 3316   3.466   2.122   5.012
  806SOL    HW1 3317   3.455   2.036   4.961
  806SOL    HW2 3318   3.454   2.199   4.950
  807SOL     OW 3319   0.969   1.881   3.646
  807SOL    HW1 3320   0.902   1.807   3.643
  807SOL    HW2 3321   0.984   1.916   3.554
  808SOL     OW 3322   5.300   3.095   6.438
  808SOL    HW1 3323   5.306   3.188   6.402
  808SOL    HW2 3324   5.340   3.031   6.373
  809SOL     OW 3325   1.568   4.899   1.603
  809SOL    HW1 3326   1.580   4.826   1.670
  809SOL    HW2 3327   1.621   4.877   1.520
  810SOL     OW 3328   4.447   2.833   0.927
  810SOL    HW1 3329   4.419   2.782   0.846
  810SOL    HW2 3330   4.509   2.906   0.901
  811SOL     OW 3331   4.672   5.000   3.639
  811SOL    HW1 3332   4.709   5.093   3.642
  811SOL    HW2 3333   4.743   4.937   3.608
  812SOL     OW 3334   0.178   0.841   1.729
  812SOL    HW1 3335   0.095   0.878   1.770
  812SOL    HW2 3336   0.222   0.778   1.793
  813SOL     OW 3337   4.264   5.770   3.479
  813SOL    HW1 3338   4.334   5.809   3.538
  813SOL    HW2 3339   4.214   5.843   3.433
  814SOL     OW 3340   5.014   6.616   3.255
  814SOL    HW1 3341   5.000   6.692   3.319
  814SOL    HW2 3342   5.005   6.651   3.161
  815SOL     OW 3343   6.428   2.946   2.242
  815SOL    HW1 3344   6.409   2.950   2.340
  815SOL    HW2 3345   6.430   3.038   2.204
  816SOL     OW 3346   0.297   6.924   0.075
  816SOL    HW1 3347   0.396   6.914   0.063
  816SOL    HW2 3348   0.255   6.834   0.079
  817SOL     OW 3349   1.945   4.045   2.265
  817SOL    HW1 3350   1.948   3.990   2.181
  817SOL    HW2 3351   2.007   4.005   2.333
  818SOL     OW 3352   6.552   2.544   0.634
  818SOL    HW1 3353   6.494   2.607   0.581
  818SOL    HW2 3354   6.648   2.558   0.608
  819SOL     OW 3355   6.195   2.925   4.229
  819SOL    HW1 3356   6.271   2.937   4.165
  819SOL    HW2 3357   6.195   3.002   4.294
  820SOL     OW 3358   1.387   2.824   5.738
  820SOL    HW1 3359   1.415   2.888   5.810
  820SOL    HW2 3360   1.456   2.824   5.665
  821SOL     OW 3361   2.820   4.237   0.450
  821SOL    HW1 3362   2.839   4.239   0.352
  821SOL    HW2 3363   2.858   4.153   0.489
  822SOL     OW 3364   0.606   5.329   4.320
  822SOL    HW1 3365   0.656   5.408   4.354
  822SOL    HW2 3366   0.670   5.261   4.286
  823SOL     OW 3367   4.488   3.774   6.488
  823SOL    HW1 3368   4.430   3.828   6.549
  823SOL    HW2 3369   4.575   3.821   6.476
  824SOL     OW 3370   5.347   1.083   5.231
  824SOL    HW1 3371   5.438   1.060   5.267
  824SOL    HW2 3372   5.352   1.086   5.131
  825SOL     OW 3373   2.166   3.005   2.066
  825SOL    HW1 3374   2.151   3.104   2.071
  825SOL    HW2 3375   2.177   2.968   2.158
  826SOL     OW 3376   6.313   4.190   0.569
  826SOL    HW1 3377   6.367   4.112   0.601
  826SOL    HW2 3378   6.222   4.159   0.542
  827SOL     OW 3379   3.243   5.494   5.695
  827SOL    HW1 3380   3.249   5.456   5.603
  827SOL    HW2 3381   3.198   5.429   5.755
  828SOL     OW 3382   6.153   0.513   5.157
  828SOL    HW1 3383   6.212   0.496   5.078
  828SOL    HW2 3384   6.198   0.480   5.240
  829SOL     OW 3385   2.909   3.355   4.539
  829SOL    HW1 3386   2.942   3.448   4.550
  829SOL    HW2 3387   2.829   3.354   4.479
  830SOL     OW 3388   5.166   4.508   6.119
  830SOL    HW1 3389   5.115   4.584   6.080
  830SOL    HW2 3390   5.234   4.476   6.053
  831SOL     OW 3391   0.065   6.926   4.361
  831SOL    HW1 3392   0.142   6.901   4.303
  831SOL    HW2 3393   0.051   6.854   4.430
  832SOL     OW 3394   2.116   1.101   0.266
  832SOL    HW1 3395   2.043   1.150   0.313
  832SOL    HW2 3396   2.145   1.152   0.185
  833SOL     OW 3397   0.243   5.733   6.214
  833SOL    HW1 3398   0.249   5.698   6.121
  833SOL    HW2 3399   0.282   5.825   6.217
  834SOL     OW 3400   3.723   3.948   2.283
  834SOL    HW1 3401   3.800   3.955   2.220
  834SOL    HW2 3402   3.752   3.975   2.375
  835SOL     OW 3403   3.949   6.705   4.029
  835SOL    HW1 3404   3.965   6.650   4.111
  835SOL    HW2 3405   4.005   6.788   4.032
  836SOL     OW 3406   3.143   6.328   6.720
  836SOL    HW1 3407   3.052   6.286   6.716
  836SOL    HW2 3408   3.212   6.256   6.729
  837SOL     OW 3409   4.875   0.343   6.770
  837SOL    HW1 3410   4.813   0.284   6.821
  837SOL    HW2 3411   4.957   0.292   6.745
  838SOL     OW 3412   1.033   0.040   4.899
  838SOL    HW1 3413   1.121   0.032   4.853
  838SOL    HW2 3414   0.960   0.037   4.831
  839SOL     OW 3415   2.777   1.297   2.864
  839SOL    HW1 3416   2.733   1.356   2.797
  839SOL    HW2 3417   2.874   1.290   2.844
  840SOL     OW 3418   6.489   1.107   5.531
  840SOL    HW1 3419   6.486   1.175   5.604
  840SOL    HW2 3420   6.585   1.087   5.509
  841SOL     OW 3421   6.020   4.387   0.280
  841SOL    HW1 3422   5.927   4.384   0.316
  841SOL    HW2 3423   6.085   4.398   0.356
  842SOL     OW 3424   4.382   5.676   3.223
  842SOL    HW1 3425   4.341   5.586   3.215
  842SOL    HW2 3426   4.356   5.717   3.311
  843SOL     OW 3427   5.342   2.044   0.237
  843SOL    HW1 3428   5.435   2.007   0.235
  843SOL    HW2 3429   5.346   2.143   0.227
  844SOL     OW 3430   4.556   6.520   0.428
  844SOL    HW1 3431   4.644   6.490   0.391
  844SOL    HW2 3432   4.555   6.507   0.527
  845SOL     OW 3433   6.185   2.614   4.932
  845SOL    HW1 3434   6.225   2.683   4.872
  845SOL    HW2 3435   6.169   2.653   5.023
  846SOL     OW 3436   5.559   1.173   6.394
  846SOL    HW1 3437   5.535   1.167   6.491
  846SOL    HW2 3438   5.526   1.259   6.356
  847SOL     OW 3439   6.318   3.135   0.787
  847SOL    HW1 3440   6.347   3.054   0.839
  847SOL    HW2 3441   6.283   3.204   0.851
  848SOL     OW 3442   5.830   0.937   6.319
  848SOL    HW1 3443   5.881   0.864   6.272
  848SOL    HW2 3444   5.882   1.022   6.314
  849SOL     OW 3445   6.899   5.654   5.157
  849SOL    HW1 3446   6.923   5.694   5.069
  849SOL    HW2 3447   6.842   5.573   5.142
  850SOL     OW 3448   4.368   0.520   3.344
  850SOL    HW1 3449   4.433   0.515   3.419
  850SOL    HW2 3450   4.413   0.496   3.258
  851SOL     OW 3451   0.221   1.421   0.456
  851SOL    HW1 3452   0.144   1.356   0.455
  851SOL    HW2 3453   0.191   1.507   0.499
  852SOL     OW 3454   2.334   2.505   6.937
  852SOL    HW1 3455   2.413   2.562   6.962
  852SOL    HW2 3456   2.345   2.414   6.978
  853SOL     OW 3457   0.808   3.715   3.250
  853SOL    HW1 3458   0.717   3.755   3.262
  853SOL    HW2 3459   0.876   3.775   3.291
  854SOL     OW 3460   5.277   6.447   2.382
  854SOL    HW1 3461   5.314   6.358   2.357
  854SOL    HW2 3462   5.209   6.475   2.314
  855SOL     OW 3463   6.332   7.013   1.360
  855SOL    HW1 3464   6.386   6.928   1.367
  855SOL    HW2 3465   6.240   6.997   1.395
  856SOL     OW 3466   2.034   0.856   5.102
  856SOL    HW1 3467   2.079   0.773   5.136
  856SOL    HW2 3468   2.091   0.935   5.122
  857SOL     OW 3469   5.717   5.009   1.365
  857SOL    HW1 3470   5.770   5.090   1.338
  857SOL    HW2 3471   5.736   4.987   1.461
  858SOL     OW 3472   2.861   4.921   1.888
  858SOL    HW1 3473   2.846   4.968   1.975
  858SOL    HW2 3474   2.886   4.826   1.905
  859SOL     OW 3475   5.737   5.203   6.706
  859SOL    HW1 3476   5.742   5.257   6.622
  859SOL    HW2 3477   5.739   5.106   6.682
  860SOL     OW 3478   4.590   3.747   0.282
  860SOL    HW1 3479   4.633   3.833   0.312
  860SOL    HW2 3480   4.616   3.673   0.345
  861SOL     OW 3481   2.371   7.021   4.460
  861SOL    HW1 3482   2.392   6.976   4.547
  861SOL    HW2 3483   2.383   0.090   4.469
  862SOL     OW 3484   5.696   4.614   5.178
  862SOL    HW1 3485   5.713   4.539   5.114
  862SOL    HW2 3486   5.770   4.681   5.172
  863SOL     OW 3487   1.210   0.169   0.877
  863SOL    HW1 3488   1.127   0.116   0.859
  863SOL    HW2 3489   1.186   0.251   0.929
  864SOL     OW 3490   5.162   4.359   3.651
  864SOL    HW1 3491   5.065   4.346   3.632
  864SOL    HW2 3492   5.174   4.441   3.707
  865SOL     OW 3493   0.888   6.988   4.321
  865SOL    HW1 3494   0.864   6.929   4.398
  865SOL    HW2 3495   0.815   6.985   4.253
  866SOL     OW 3496   2.610   1.558   2.226
  866SOL    HW1 3497   2.642   1.527   2.137
  866SOL    HW2 3498   2.631   1.655   2.238
  867SOL     OW 3499   3.268   2.744   0.376
  867SOL    HW1 3500   3.253   2.676   0.304
  867SOL    HW2 3501   3.360   2.732   0.414
  868SOL     OW 3502   6.025   0.107   1.737
  868SOL    HW1 3503   6.113   0.066   1.712
  868SOL    HW2 3504   5.959   0.034   1.754
  869SOL     OW 3505   6.648   5.610   3.130
  869SOL    HW1 3506   6.721   5.643   3.189
  869SOL    HW2 3507   6.591   5.687   3.100
  870SOL     OW 3508   6.219   3.223   1.543
  870SOL    HW1 3509   6.218   3.306   1.599
  870SOL    HW2 3510   6.173   3.149   1.592
  871SOL     OW 3511   7.016   3.053   1.670
  871SOL    HW1 3512   0.078   3.071   1.634
  871SOL    HW2 3513   7.011   3.083   1.765
  872SOL     OW 3514   6.226   2.941   4.619
  872SOL    HW1 3515   6.290   2.946   4.695
  872SOL    HW2 3516   6.139   2.984   4.644
  873SOL     OW 3517   3.927   0.057   2.998
  873SOL    HW1 3518   4.024   0.033   2.996
  873SOL    HW2 3519   3.917   0.153   3.021
  874SOL     OW 3520   2.077   4.248   5.274
  874SOL    HW1 3521   2.165   4.270   5.316
  874SOL    HW2 3522   2.071   4.149   5.259
  875SOL     OW 3523   5.190   4.658   0.777
  875SOL    HW1 3524   5.277   4.636   0.822
  875SOL    HW2 3525   5.124   4.586   0.796
  876SOL     OW 3526   6.554   4.032   3.315
  876SOL    HW1 3527   6.592   3.964   3.378
  876SOL    HW2 3528   6.517   3.986   3.234
  877SOL     OW 3529   4.795   4.710   6.856
  877SOL    HW1 3530   4.868   4.719   6.924
  877SOL    HW2 3531   4.808   4.625   6.805
  878SOL     OW 3532   3.690   5.278   0.039
  878SOL    HW1 3533   3.757   5.213   0.004
  878SOL    HW2 3534   3.698   5.283   0.139
  879SOL     OW 3535   4.320   1.791   2.583
  879SOL    HW1 3536   4.231   1.777   2.540
  879SOL    HW2 3537   4.342   1.889   2.581
  880SOL     OW 3538   3.345   4.314   6.762
  880SOL    HW1 3539   3.360   4.368   6.679
  880SOL    HW2 3540   3.290   4.367   6.826
  881SOL     OW 3541   4.335   4.803   4.853
  881SOL    HW1 3542   4.239   4.806   4.879
  881SOL    HW2 3543   4.378   4.720   4.889
  882SOL     OW 3544   1.814   1.054   4.725
  882SOL    HW1 3545   1.739   1.117   4.706
  882SOL    HW2 3546   1.843   1.010   4.640
  883SOL     OW 3547   3.989   5.149   5.437
  883SOL    HW1 3548   4.009   5.238   5.478
  883SOL    HW2 3549   3.898   5.152   5.395
  884SOL     OW 3550   6.531   3.193   1.808
  884SOL    HW1 3551   6.434   3.173   1.799
  884SOL    HW2 3552   6.556   3.265   1.743
  885SOL     OW 3553   5.815   6.279   0.055
  885SOL    HW1 3554   5.913   6.300   0.061
  885SOL    HW2 3555   5.777   6.270   0.147
  886SOL     OW 3556   4.268   1.174   6.796
  886SOL    HW1 3557   4.279   1.186   6.894
  886SOL    HW2 3558   4.356   1.189   6.750
  887SOL     OW 3559   4.037   6.933   6.103
  887SOL    HW1 3560   4.101   6.856   6.103
  887SOL    HW2 3561   3.960   6.912   6.044
  888SOL     OW 3562   6.721   6.437   3.715
  888SOL    HW1 3563   6.806   6.487   3.699
  888SOL    HW2 3564   6.725   6.391   3.803
  889SOL     OW 3565   0.032   6.331   5.850
  889SOL    HW1 3566   0.059   6.425   5.830
  889SOL    HW2 3567   0.099   6.268   5.810
  890SOL     OW 3568   2.859   4.744   2.179
  890SOL    HW1 3569   2.804   4.826   2.160
  890SOL    HW2 3570   2.888   4.703   2.092
  891SOL     OW 3571   5.704   3.596   1.350
  891SOL    HW1 3572   5.713   3.505   1.390
  891SOL    HW2 3573   5.771   3.658   1.392
  892SOL     OW 3574   3.152   4.014   0.896
  892SOL    HW1 3575   3.085   4.088   0.896
  892SOL    HW2 3576   3.104   3.926   0.901
  893SOL     OW 3577   1.637   0.404   0.351
  893SOL    HW1 3578   1.652   0.464   0.430
  893SOL    HW2 3579   1.557   0.347   0.368
  894SOL     OW 3580   1.237   5.137   4.170
  894SOL    HW1 3581   1.309   5.070   4.185
  894SOL    HW2 3582   1.273   5.229   4.182
  895SOL     OW 3583   2.090   6.949   4.098
  895SOL    HW1 3584   2.067   0.009   4.137
  895SOL    HW2 3585   2.175   6.915   4.139
  896SOL     OW 3586   5.836   6.511   4.107
  896SOL    HW1 3587   5.810   6.415   4.118
  896SOL    HW2 3588   5.931   6.517   4.075
  897SOL     OW 3589   4.803   1.805   0.491
  897SOL    HW1 3590   4.840   1.795   0.398
  897SOL    HW2 3591   4.705   1.787   0.490
  898SOL     OW 3592   5.393   6.367   3.951
  898SOL    HW1 3593   5.407   6.275   3.914
  898SOL    HW2 3594   5.297   6.393   3.939
  899SOL     OW 3595   0.700   5.161   6.897
  899SOL    HW1 3596   0.727   5.164   6.993
  899SOL    HW2 3597   0.769   5.111   6.845
  900SOL     OW 3598   6.300   6.024   1.990
  900SOL    HW1 3599   6.318   6.041   1.893
  900SOL    HW2 3600   6.376   6.060   2.045
  901SOL     OW 3601   0.120   1.197   4.258
  901SOL    HW1 3602   0.136   1.295   4.260
  901SOL    HW2 3603   0.062   1.171   4.335
  902SOL     OW 3604   6.457   0.273   6.653
  902SOL    HW1 3605   6.389   0.265   6.726
  902SOL    HW2 3606   6.411   0.283   6.565
  903SOL     OW 3607   6.692   4.690   0.812
  903SOL    HW1 3608   6.748   4.644   0.881
  903SOL    HW2 3609   6.706   4.646   0.723
  904SOL     OW 3610   1.215   1.493   3.374
  904SOL    HW1 3611   1.131   1.548   3.375
  904SOL    HW2 3612   1.194   1.402   3.339
  905SOL     OW 3613   4.965   2.010   6.394
  905SOL    HW1 3614   4.930   1.992   6.303
  905SOL    HW2 3615   5.044   2.071   6.388
  906SOL     OW 3616   0.467   4.651   0.220
  906SOL    HW1 3617   0.382   4.604   0.245
  906SOL    HW2 3618   0.534   4.640   0.293
  907SOL     OW 3619   6.040   2.240   2.717
  907SOL    HW1 3620   6.118   2.197   2.671
  907SOL    HW2 3621   5.960   2.180   2.710
  908SOL     OW 3622   1.374   6.724   4.208
  908SOL    HW1 3623   1.283   6.717   4.249
  908SOL    HW2 3624   1.366   6.717   4.109
  909SOL     OW 3625   2.600   0.773   0.240
  909SOL    HW1 3626   2.654   0.841   0.189
  909SOL    HW2 3627   2.661   0.701   0.273
  910SOL     OW 3628   1.232   0.457   0.490
  910SOL    HW1 3629   1.142   0.428   0.458
  910SOL    HW2 3630   1.223   0.500   0.580
  911SOL     OW 3631   0.030   4.876   1.639
  911SOL    HW1 3632   0.090   4.798   1.621
  911SOL    HW2 3633   0.029   4.936   1.559
  912SOL     OW 3634   0.154   1.624   5.679
  912SOL    HW1 3635   0.080   1.682   5.644
  912SOL    HW2 3636   0.217   1.602   5.604
  913SOL     OW 3637   2.013   0.334   3.937
  913SOL    HW1 3638   2.046   0.306   3.847
  913SOL    HW2 3639   2.036   0.430   3.953
  914SOL     OW 3640   2.479   5.836   4.274
  914SOL    HW1 3641   2.430   5.759   4.316
  914SOL    HW2 3642   2.575   5.833   4.301
  915SOL     OW 3643   0.612   3.622   0.058
  915SOL    HW1 3644   0.562   3.697   0.100
  915SOL    HW2 3645   0.547   3.554   0.024
  916SOL     OW 3646   2.061   1.995   2.667
  916SOL    HW1 3647   2.108   1.909   2.645
  916SOL    HW2 3648   2.078   2.019   2.763
  917SOL     OW 3649   3.604   0.752   1.187
  917SOL    HW1 3650   3.541   0.829   1.184
  917SOL    HW2 3651   3.679   0.773   1.249
  918SOL     OW 3652   2.736   6.182   6.161
  918SOL    HW1 3653   2.658   6.244   6.160
  918SOL    HW2 3654   2.705   6.089   6.138
  919SOL     OW 3655   1.250   5.180   2.075
  919SOL    HW1 3656   1.285   5.273   2.064
  919SOL    HW2 3657   1.320   5.122   2.116
  920SOL     OW 3658   2.620   0.441   2.871
  920SOL    HW1 3659   2.716   0.447   2.899
  920SOL    HW2 3660   2.606   0.357   2.818
  921SOL     OW 3661   6.479   4.714   4.240
  921SOL    HW1 3662   6.454   4.643   4.174
  921SOL    HW2 3663   6.456   4.804   4.203
  922SOL     OW 3664   3.060   3.736   0.127
  922SOL    HW1 3665   3.045   3.742   0.226
  922SOL    HW2 3666   3.127   3.804   0.099
  923SOL     OW 3667   2.826   5.841   0.255
  923SOL    HW1 3668   2.802   5.938   0.253
  923SOL    HW2 3669   2.894   5.825   0.326
  924SOL     OW 3670   5.489   3.381   2.630
  924SOL    HW1 3671   5.481   3.295   2.680
  924SOL    HW2 3672   5.586   3.406   2.623
  925SOL     OW 3673   0.284   1.868   5.834
  925SOL    HW1 3674   0.352   1.825   5.894
  925SOL    HW2 3675   0.251   1.802   5.768
  926SOL     OW 3676   6.016   6.435   0.606
  926SOL    HW1 3677   6.031   6.380   0.524
  926SOL    HW2 3678   6.100   6.437   0.661
  927SOL     OW 3679   4.837   3.987   4.173
  927SOL    HW1 3680   4.894   4.048   4.229
  927SOL    HW2 3681   4.778   3.932   4.233
  928SOL     OW 3682   1.354   0.167   0.651
  928SOL    HW1 3683   1.340   0.079   0.606
  928SOL    HW2 3684   1.296   0.173   0.732
  929SOL     OW 3685   0.365   2.786   2.217
  929SOL    HW1 3686   0.397   2.754   2.128
  929SOL    HW2 3687   0.308   2.716   2.260
  930SOL     OW 3688   5.247   4.615   4.192
  930SOL    HW1 3689   5.339   4.640   4.224
  930SOL    HW2 3690   5.196   4.697   4.169
  931SOL     OW 3691   0.732   2.664   2.726
  931SOL    HW1 3692   0.797   2.728   2.685
  931SOL    HW2 3693   0.775   2.619   2.804
  932SOL     OW 3694   4.000   5.963   1.582
  932SOL    HW1 3695   3.903   5.960   1.603
  932SOL    HW2 3696   4.041   6.044   1.625
  933SOL     OW 3697   1.384   4.630   3.025
  933SOL    HW1 3698   1.317   4.682   3.077
  933SOL    HW2 3699   1.427   4.689   2.957
  934SOL     OW 3700   3.322   1.000   4.823
  934SOL    HW1 3701   3.280   0.915   4.855
  934SOL    HW2 3702   3.311   1.007   4.724
  935SOL     OW 3703   4.879   3.393   6.205
  935SOL    HW1 3704   4.805   3.441   6.157
  935SOL    HW2 3705   4.847   3.303   6.235
  936SOL     OW 3706   0.819   0.019   1.418
  936SOL    HW1 3707   0.741   7.012   1.469
  936SOL    HW2 3708   0.880   6.973   1.392
  937SOL     OW 3709   4.843   1.545   4.225
  937SOL    HW1 3710   4.940   1.569   4.236
  937SOL    HW2 3711   4.818   1.555   4.129
  938SOL     OW 3712   6.767   3.991   5.979
  938SOL    HW1 3713   6.671   3.962   5.988
  938SOL    HW2 3714   6.827   3.914   6.000
  939SOL     OW 3715   5.127   1.156   6.295
  939SOL    HW1 3716   5.210   1.165   6.240
  939SOL    HW2 3717   5.078   1.073   6.267
  940SOL     OW 3718   7.027   0.922   2.497
  940SOL    HW1 3719   6.946   0.917   2.439
  940SOL    HW2 3720   0.063   0.986   2.457
  941SOL     OW 3721   5.245   1.609   3.894
  941SOL    HW1 3722   5.315   1.634   3.961
  941SOL    HW2 3723   5.195   1.691   3.866
  942SOL     OW 3724   5.203   6.902   5.292
  942SOL    HW1 3725   5.241   6.872   5.204
  942SOL    HW2 3726   5.228   6.998   5.308
  943SOL     OW 3727   6.431   3.175   2.699
  943SOL    HW1 3728   6.413   3.091   2.750
  943SOL    HW2 3729   6.471   3.243   2.761
  944SOL     OW 3730   6.024   3.301   4.547
  944SOL    HW1 3731   6.034   3.208   4.584
  944SOL    HW2 3732   5.930   3.313   4.514
  945SOL     OW 3733   4.577   4.427   4.137
  945SOL    HW1 3734   4.576   4.377   4.223
  945SOL    HW2 3735   4.672   4.448   4.112
  946SOL     OW 3736   5.745   2.458   5.966
  946SOL    HW1 3737   5.694   2.512   6.032
  946SOL    HW2 3738   5.827   2.509   5.937
  947SOL     OW 3739   3.178   3.420   6.529
  947SOL    HW1 3740   3.198   3.352   6.459
  947SOL    HW2 3741   3.079   3.424   6.544
  948SOL     OW 3742   3.175   1.113   0.354
  948SOL    HW1 3743   3.184   1.024   0.310
  948SOL    HW2 3744   3.251   1.171   0.325
  949SOL     OW 3745   6.047   5.501   6.574
  949SOL    HW1 3746   6.026   5.594   6.603
  949SOL    HW2 3747   6.069   5.445   6.654
  950SOL     OW 3748   4.145   4.938   1.705
  950SOL    HW1 3749   4.153   5.009   1.775
  950SOL    HW2 3750   4.151   4.848   1.749
  951SOL     OW 3751   0.707   0.665   1.194
  951SOL    HW1 3752   0.773   0.728   1.235
  951SOL    HW2 3753   0.730   0.571   1.220
  952SOL     OW 3754   5.148   0.993   2.760
  952SOL    HW1 3755   5.074   1.051   2.727
  952SOL    HW2 3756   5.165   1.012   2.857
  953SOL     OW 3757   4.281   6.273   5.477
  953SOL    HW1 3758   4.287   6.180   5.440
  953SOL    HW2 3759   4.207   6.323   5.432
  954SOL     OW 3760   6.520   0.124   1.490
  954SOL    HW1 3761   6.579   0.170   1.423
  954SOL    HW2 3762   6.452   0.069   1.441
  955SOL     OW 3763   0.676   4.945   3.661
  955SOL    HW1 3764   0.690   4.888   3.580
  955SOL    HW2 3765   0.735   4.912   3.735
  956SOL     OW 3766   1.256   1.321   1.559
  956SOL    HW1 3767   1.275   1.228   1.525
  956SOL    HW2 3768   1.323   1.384   1.522
  957SOL     OW 3769   1.385   5.295   5.569
  957SOL    HW1 3770   1.443   5.215   5.558
  957SOL    HW2 3771   1.289   5.267   5.575
  958SOL     OW 3772   4.910   2.275   1.017
  958SOL    HW1 3773   5.007   2.267   1.042
  958SOL    HW2 3774   4.854   2.272   1.100
  959SOL     OW 3775   2.748   4.834   2.654
  959SOL    HW1 3776   2.758   4.924   2.696
  959SOL    HW2 3777   2.801   4.831   2.570
  960SOL     OW 3778   2.201   6.197   4.285
  960SOL    HW1 3779   2.208   6.110   4.334
  960SOL    HW2 3780   2.125   6.250   4.322
  961SOL     OW 3781   4.103   6.789   2.311
  961SOL    HW1 3782   4.201   6.772   2.321
  961SOL    HW2 3783   4.056   6.703   2.289
  962SOL     OW 3784   1.838   1.321   3.501
  962SOL    HW1 3785   1.805   1.240   3.551
  962SOL    HW2 3786   1.767   1.354   3.439
  963SOL     OW 3787   6.345   6.965   0.986
  963SOL    HW1 3788   6.287   0.006   0.947
  963SOL    HW2 3789   6.371   6.900   0.915
  964SOL     OW 3790   5.599   2.963   0.816
  964SOL    HW1 3791   5.625   2.866   0.822
  964SOL    HW2 3792   5.581   2.987   0.721
  965SOL     OW 3793   6.344   1.256   1.026
  965SOL    HW1 3794   6.255   1.286   1.059
  965SOL    HW2 3795   6.416   1.302   1.078
  966SOL     OW 3796   6.290   1.721   3.222
  966SOL    HW1 3797   6.234   1.785   3.168
  966SOL    HW2 3798   6.370   1.770   3.258
  967SOL     OW 3799   1.641   5.548   0.589
  967SOL    HW1 3800   1.730   5.512   0.616
  967SOL    HW2 3801   1.635   5.552   0.489
  968SOL     OW 3802   4.710   2.816   2.476
  968SOL    HW1 3803   4.780   2.777   2.536
  968SOL    HW2 3804   4.721   2.915   2.471
  969SOL     OW 3805   3.969   6.574   6.270
  969SOL    HW1 3806   4.020   6.519   6.337
  969SOL    HW2 3807   3.881   6.602   6.309
  970SOL     OW 3808   4.170   1.741   5.530
  970SOL    HW1 3809   4.258   1.736   5.483
  970SOL    HW2 3810   4.098   1.761   5.463
  971SOL     OW 3811   6.898   1.208   2.534
  971SOL    HW1 3812   6.880   1.109   2.535
  971SOL    HW2 3813   6.811   1.258   2.533
  972SOL     OW 3814   6.217   4.796   0.823
  972SOL    HW1 3815   6.306   4.751   0.827
  972SOL    HW2 3816   6.150   4.735   0.780
  973SOL     OW 3817   0.498   4.671   6.637
  973SOL    HW1 3818   0.491   4.746   6.703
  973SOL    HW2 3819   0.457   4.699   6.550
  974SOL     OW 3820   3.269   0.579   2.566
  974SOL    HW1 3821   3.298   0.673   2.580
  974SOL    HW2 3822   3.290   0.525   2.647
  975SOL     OW 3823   3.008   6.237   6.293
  975SOL    HW1 3824   3.028   6.140   6.309
  975SOL    HW2 3825   2.917   6.246   6.252
  976SOL     OW 3826   7.006   2.871   2.321
  976SOL    HW1 3827   0.058   2.908   2.365
  976SOL    HW2 3828   6.933   2.863   2.389
  977SOL     OW 3829   1.511   1.152   3.904
  977SOL    HW1 3830   1.481   1.072   3.852
  977SOL    HW2 3831   1.440   1.222   3.901
  978SOL     OW 3832   5.921   4.585   4.198
  978SOL    HW1 3833   6.017   4.597   4.173
  978SOL    HW2 3834   5.871   4.669   4.179
  979SOL     OW 3835   6.224   1.381   3.225
  979SOL    HW1 3836   6.206   1.399   3.322
  979SOL    HW2 3837   6.301   1.437   3.194
  980SOL     OW 3838   5.593   2.532   3.422
  980SOL    HW1 3839   5.497   2.533   3.449
  980SOL    HW2 3840   5.648   2.575   3.493
  981SOL     OW 3841   1.400   1.763   4.945
  981SOL    HW1 3842   1.492   1.801   4.950
  981SOL    HW2 3843   1.404   1.668   4.916
  982SOL     OW 3844   1.702   2.650   1.903
  982SOL    HW1 3845   1.699   2.742   1.942
  982SOL    HW2 3846   1.766   2.594   1.956
  983SOL     OW 3847   6.117   2.472   3.405
  983SOL    HW1 3848   6.194   2.523   3.365
  983SOL    HW2 3849   6.031   2.513   3.374
  984SOL     OW 3850   4.171   0.960   5.504
  984SOL    HW1 3851   4.251   0.915   5.465
  984SOL    HW2 3852   4.151   1.043   5.453
  985SOL     OW 3853   4.357   5.057   0.065
  985SOL    HW1 3854   4.337   4.975   0.010
  985SOL    HW2 3855   4.404   5.030   0.149
  986SOL     OW 3856   5.133   5.566   6.163
  986SOL    HW1 3857   5.187   5.484   6.180
  986SOL    HW2 3858   5.183   5.627   6.102
  987SOL     OW 3859   3.740   6.557   1.561
  987SOL    HW1 3860   3.740   6.631   1.628
  987SOL    HW2 3861   3.649   6.548   1.521
  988SOL     OW 3862   3.782   2.436   0.810
  988SOL    HW1 3863   3.875   2.416   0.779
  988SOL    HW2 3864   3.723   2.359   0.787
  989SOL     OW 3865   0.365   0.686   6.303
  989SOL    HW1 3866   0.369   0.619   6.377
  989SOL    HW2 3867   0.284   0.671   6.248
  990SOL     OW 3868   4.792   0.191   3.951
  990SOL    HW1 3869   4.808   0.248   3.870
  990SOL    HW2 3870   4.878   0.180   4.001
  991SOL     OW 3871   1.404   2.335   4.744
  991SOL    HW1 3872   1.330   2.365   4.684
  991SOL    HW2 3873   1.366   2.285   4.822
  992SOL     OW 3874   0.273   2.945   6.958
  992SOL    HW1 3875   0.242   2.878   6.890
  992SOL    HW2 3876   0.289   3.033   6.914
  993SOL     OW 3877   2.639   5.505   2.408
  993SOL    HW1 3878   2.636   5.438   2.334
  993SOL    HW2 3879   2.548   5.513   2.450
  994SOL     OW 3880   3.452   4.101   2.521
  994SOL    HW1 3881   3.551   4.093   2.523
  994SOL    HW2 3882   3.426   4.185   2.474
  995SOL     OW 3883   1.613   2.688   5.971
  995SOL    HW1 3884   1.682   2.677   5.900
  995SOL    HW2 3885   1.526   2.650   5.939
  996SOL     OW 3886   1.780   3.667   3.658
  996SOL    HW1 3887   1.752   3.629   3.746
  996SOL    HW2 3888   1.845   3.605   3.614
  997SOL     OW 3889   0.461   0.428   1.522
  997SOL    HW1 3890   0.409   0.358   1.473
  997SOL    HW2 3891   0.530   0.385   1.580
  998SOL     OW 3892   4.190   7.027   2.983
  998SOL    HW1 3893   4.217   0.081   3.031
  998SOL    HW2 3894   4.239   7.022   2.896
  999SOL     OW 3895   5.482   5.705   1.505
  999SOL    HW1 3896   5.520   5.671   1.419
  999SOL    HW2 3897   5.411   5.772   1.486
 1000SOL     OW 3898   1.958   1.613   2.509
 1000SOL    HW1 3899   1.958   1.624   2.410
 1000SOL    HW2 3900   2.017   1.537   2.534
 1001SOL     OW 3901   4.083   6.439   6.479
 1001SOL    HW1 3902   4.169   6.415   6.435
 1001SOL    HW2 3903   4.045   6.359   6.524
 1002SOL     OW 3904   5.709   1.467   6.600
 1002SOL    HW1 3905   5.669   1.472   6.692
 1002SOL    HW2 3906   5.698   1.555   6.554
 1003SOL     OW 3907   2.284   6.845   2.121
 1003SOL    HW1 3908   2.334   6.780   2.178
 1003SOL    HW2 3909   2.200   6.872   2.168
 1004SOL     OW 3910   6.455   0.283   0.152
 1004SOL    HW1 3911   6.425   0.194   0.184
 1004SOL    HW2 3912   6.403   0.355   0.199
 1005SOL     OW 3913   0.251   0.675   2.561
 1005SOL    HW1 3914   0.174   0.640   2.614
 1005SOL    HW2 3915   0.274   0.610   2.488
 1006SOL     OW 3916   2.513   5.764   1.678
 1006SOL    HW1 3917   2.560   5.805   1.757
 1006SOL    HW2 3918   2.489   5.836   1.613
 1007SOL     OW 3919   6.360   0.767   3.580
 1007SOL    HW1 3920   6.360   0.825   3.498
 1007SOL    HW2 3921   6.311   0.682   3.561
 1008SOL     OW 3922   0.708   2.569   4.121
 1008SOL    HW1 3923   0.748   2.537   4.208
 1008SOL    HW2 3924   0.625   2.621   4.140
 1009SOL     OW 3925   6.594   5.362   3.779
 1009SOL    HW1 3926   6.639   5.441   3.736
 1009SOL    HW2 3927   6.574   5.383   3.875
 1010SOL     OW 3928   4.053   2.036   0.106
 1010SOL    HW1 3929   3.970   2.028   0.161
 1010SOL    HW2 3930   4.114   1.960   0.127
 1011SOL     OW 3931   3.154   5.418   3.706
 1011SOL    HW1 3932   3.059   5.397   3.684
 1011SOL    HW2 3933   3.192   5.477   3.635
 1012SOL     OW 3934   6.144   5.283   0.202
 1012SOL    HW1 3935   6.201   5.318   0.276
 1012SOL    HW2 3936   6.138   5.183   0.209
 1013SOL     OW 3937   0.477   1.114   6.861
 1013SOL    HW1 3938   0.438   1.133   6.771
 1013SOL    HW2 3939   0.576   1.122   6.857
 1014SOL     OW 3940   5.480   5.486   6.501
 1014SOL    HW1 3941   5.445   5.415   6.562
 1014SOL    HW2 3942   5.418   5.565   6.503
 1015SOL     OW 3943   3.781   6.554   4.748
 1015SOL    HW1 3944   3.744   6.467   4.782
 1015SOL    HW2 3945   3.707   6.619   4.734
 1016SOL     OW 3946   2.783   2.740   0.870
 1016SOL    HW1 3947   2.787   2.640   0.871
 1016SOL    HW2 3948   2.694   2.769   0.835
 1017SOL     OW 3949   5.302   2.526   1.232
 1017SOL    HW1 3950   5.380   2.588   1.241
 1017SOL    HW2 3951   5.288   2.478   1.319
 1018SOL     OW 3952   1.714   3.376   4.219
 1018SOL    HW1 3953   1.719   3.475   4.210
 1018SOL    HW2 3954   1.767   3.347   4.299
 1019SOL     OW 3955   0.219   1.118   0.621
 1019SOL    HW1 3956   0.130   1.073   0.616
 1019SOL    HW2 3957   0.206   1.215   0.645
 1020SOL     OW 3958   1.049   6.690   0.624
 1020SOL    HW1 3959   1.119   6.658   0.688
 1020SOL    HW2 3960   1.069   6.785   0.598
 1021SOL     OW 3961   5.475   1.303   1.949
 1021SOL    HW1 3962   5.422   1.305   2.034
 1021SOL    HW2 3963   5.445   1.226   1.893
 1022SOL     OW 3964   4.081   4.853   6.083
 1022SOL    HW1 3965   4.140   4.810   6.151
 1022SOL    HW2 3966   4.134   4.872   6.000
 1023SOL     OW 3967   6.780   6.860   2.024
 1023SOL    HW1 3968   6.863   6.878   2.076
 1023SOL    HW2 3969   6.727   6.787   2.068
 1024SOL     OW 3970   6.791   2.600   4.340
 1024SOL    HW1 3971   6.697   2.571   4.327
 1024SOL    HW2 3972   6.820   2.582   4.434
 1025SOL     OW 3973   4.090   4.646   0.400
 1025SOL    HW1 3974   4.134   4.657   0.311
 1025SOL    HW2 3975   4.017   4.713   0.411
 1026SOL     OW 3976   1.113   1.202   0.897
 1026SOL    HW1 3977   1.179   1.148   0.950
 1026SOL    HW2 3978   1.039   1.143   0.865
 1027SOL     OW 3979   2.840   5.475   1.376
 1027SOL    HW1 3980   2.821   5.474   1.474
 1027SOL    HW2 3981   2.800   5.557   1.335
 1028SOL     OW 3982   3.243   5.515   0.458
 1028SOL    HW1 3983   3.284   5.585   0.517
 1028SOL    HW2 3984   3.303   5.498   0.380
 1029SOL     OW 3985   1.959   0.503   0.451
 1029SOL    HW1 3986   1.879   0.548   0.493
 1029SOL    HW2 3987   1.979   0.546   0.363
 1030SOL     OW 3988   3.406   2.904   3.721
 1030SOL    HW1 3989   3.358   2.829   3.768
 1030SOL    HW2 3990   3.473   2.944   3.784
 1031SOL     OW 3991   4.001   5.348   1.751
 1031SOL    HW1 3992   3.964   5.371   1.660
 1031SOL    HW2 3993   3.946   5.392   1.821
 1032SOL     OW 3994   2.328   1.424   5.475
 1032SOL    HW1 3995   2.252   1.474   5.515
 1032SOL    HW2 3996   2.317   1.421   5.375
 1033SOL     OW 3997   1.990   5.653   1.260
 1033SOL    HW1 3998   2.077   5.694   1.289
 1033SOL    HW2 3999   1.946   5.714   1.193
 1034SOL     OW 4000   1.905   6.245   4.703
 1034SOL    HW1 4001   1.866   6.336   4.721
 1034SOL    HW2 4002   1.838   6.189   4.656
 1035SOL     OW 4003   2.749   2.011   3.833
 1035SOL    HW1 4004   2.681   2.024   3.905
 1035SOL    HW2 4005   2.836   2.053   3.861
 1036SOL     OW 4006   3.641   0.891   0.822
 1036SOL    HW1 4007   3.656   0.830   0.744
 1036SOL    HW2 4008   3.705   0.869   0.895
 1037SOL     OW 4009   0.888   1.249   1.221
 1037SOL    HW1 4010   0.902   1.178   1.290
 1037SOL    HW2 4011   0.850   1.208   1.138
 1038SOL     OW 4012   0.589   1.321   5.791
 1038SOL    HW1 4013   0.522   1.360   5.854
 1038SOL    HW2 4014   0.665   1.385   5.779
 1039SOL     OW 4015   4.399   1.763   5.375
 1039SOL    HW1 4016   4.467   1.819   5.421
 1039SOL    HW2 4017   4.428   1.743   5.281
 1040SOL     OW 4018   5.619   3.393   3.401
 1040SOL    HW1 4019   5.598   3.484   3.438
 1040SOL    HW2 4020   5.669   3.340   3.469
 1041SOL     OW 4021   6.393   0.091   4.175
 1041SOL    HW1 4022   6.344   0.178   4.180
 1041SOL    HW2 4023   6.429   0.077   4.083
 1042SOL     OW 4024   4.112   4.726   2.451
 1042SOL    HW1 4025   4.209   4.722   2.427
 1042SOL    HW2 4026   4.057   4.685   2.378
 1043SOL     OW 4027   4.206   1.334   6.391
 1043SOL    HW1 4028   4.258   1.256   6.358
 1043SOL    HW2 4029   4.113   1.305   6.414
 1044SOL     OW 4030   3.460   2.559   1.431
 1044SOL    HW1 4031   3.504   2.491   1.489
 1044SOL    HW2 4032   3.447   2.522   1.339
 1045SOL     OW 4033   3.459   0.774   1.585
 1045SOL    HW1 4034   3.373   0.819   1.611
 1045SOL    HW2 4035   3.442   0.676   1.571
 1046SOL     OW 4036   2.462   0.111   6.565
 1046SOL    HW1 4037   2.418   0.178   6.626
 1046SOL    HW2 4038   2.470   0.023   6.612
 1047SOL     OW 4039   1.300   5.369   2.710
 1047SOL    HW1 4040   1.400   5.368   2.717
 1047SOL    HW2 4041   1.266   5.460   2.737
 1048SOL     OW 4042   4.801   5.787   5.371
 1048SOL    HW1 4043   4.792   5.876   5.327
 1048SOL    HW2 4044   4.888   5.746   5.346
 1049SOL     OW 4045   6.865   3.696   5.114
 1049SOL    HW1 4046   6.959   3.719   5.088
 1049SOL    HW2 4047   6.802   3.733   5.045
 1050SOL     OW 4048   3.762   6.549   0.803
 1050SOL    HW1 4049   3.687   6.518   0.744
 1050SOL    HW2 4050   3.833   6.480   0.806
 1051SOL     OW 4051   4.272   4.516   7.027
 1051SOL    HW1 4052   4.187   4.473   6.995
 1051SOL    HW2 4053   4.293   4.481   0.089
 1052SOL     OW 4054   3.792   0.742   4.541
 1052SOL    HW1 4055   3.820   0.729   4.446
 1052SOL    HW2 4056   3.725   0.817   4.546
 1053SOL     OW 4057   6.072   6.262   3.354
 1053SOL    HW1 4058   6.126   6.282   3.272
 1053SOL    HW2 4059   6.044   6.347   3.397
 1054SOL     OW 4060   2.261   5.294   5.485
 1054SOL    HW1 4061   2.345   5.255   5.447
 1054SOL    HW2 4062   2.181   5.246   5.447
 1055SOL     OW 4063   5.829   6.022   4.371
 1055SOL    HW1 4064   5.745   5.980   4.337
 1055SOL    HW2 4065   5.806   6.086   4.444
 1056SOL     OW 4066   1.604   6.554   5.346
 1056SOL    HW1 4067   1.610   6.603   5.433
 1056SOL    HW2 4068   1.562   6.465   5.361
 1057SOL     OW 4069   3.318   3.781   3.510
 1057SOL    HW1 4070   3.305   3.833   3.594
 1057SOL    HW2 4071   3.416   3.770   3.492
 1058SOL     OW 4072   4.552   1.478   1.984
 1058SOL    HW1 4073   4.499   1.401   1.949
 1058SOL    HW2 4074   4.499   1.527   2.053
 1059SOL     OW 4075   3.659   0.527   1.589
 1059SOL    HW1 4076   3.689   0.611   1.635
 1059SOL    HW2 4077   3.610   0.551   1.505
 1060SOL     OW 4078   0.034   3.662   5.892
 1060SOL    HW1 4079   6.986   3.677   5.953
 1060SOL    HW2 4080   0.006   3.603   5.816
 1061SOL     OW 4081   3.751   4.163   1.068
 1061SOL    HW1 4082   3.717   4.227   1.137
 1061SOL    HW2 4083   3.829   4.113   1.105
 1062SOL     OW 4084   6.761   6.142   5.469
 1062SOL    HW1 4085   6.731   6.105   5.381
 1062SOL    HW2 4086   6.855   6.111   5.488
 1063SOL     OW 4087   1.058   3.779   0.786
 1063SOL    HW1 4088   1.078   3.808   0.880
 1063SOL    HW2 4089   1.035   3.682   0.787
 1064SOL     OW 4090   1.407   3.372   2.279
 1064SOL    HW1 4091   1.465   3.453   2.275
 1064SOL    HW2 4092   1.322   3.389   2.230
 1065SOL     OW 4093   5.066   0.522   4.158
 1065SOL    HW1 4094   5.040   0.428   4.134
 1065SOL    HW2 4095   5.127   0.559   4.089
 1066SOL     OW 4096   5.169   0.674   4.371
 1066SOL    HW1 4097   5.165   0.629   4.460
 1066SOL    HW2 4098   5.143   0.609   4.300
 1067SOL     OW 4099   1.756   2.822   0.926
 1067SOL    HW1 4100   1.771   2.840   0.829
 1067SOL    HW2 4101   1.700   2.895   0.965
 1068SOL     OW 4102   6.942   3.782   1.903
 1068SOL    HW1 4103   6.995   3.864   1.882
 1068SOL    HW2 4104   6.990   3.701   1.869
 1069SOL     OW 4105   4.358   4.724   0.802
 1069SOL    HW1 4106   4.400   4.635   0.819
 1069SOL    HW2 4107   4.263   4.711   0.772
 1070SOL     OW 4108   1.791   0.908   6.869
 1070SOL    HW1 4109   1.866   0.842   6.872
 1070SOL    HW2 4110   1.801   0.973   6.945
 1071SOL     OW 4111   3.792   7.021   3.405
 1071SOL    HW1 4112   3.734   0.044   3.344
 1071SOL    HW2 4113   3.736   6.953   3.454
 1072SOL     OW 4114   2.397   5.722   2.025
 1072SOL    HW1 4115   2.479   5.754   2.072
 1072SOL    HW2 4116   2.371   5.789   1.956
 1073SOL     OW 4117   3.879   5.439   1.985
 1073SOL    HW1 4118   3.823   5.490   2.050
 1073SOL    HW2 4119   3.975   5.467   1.995
 1074SOL     OW 4120   1.399   5.399   2.005
 1074SOL    HW1 4121   1.490   5.382   2.043
 1074SOL    HW2 4122   1.403   5.399   1.905
 1075SOL     OW 4123   4.999   4.961   3.273
 1075SOL    HW1 4124   4.958   4.909   3.348
 1075SOL    HW2 4125   4.974   4.918   3.186
 1076SOL     OW 4126   1.072   4.357   4.980
 1076SOL    HW1 4127   1.167   4.385   4.966
 1076SOL    HW2 4128   1.022   4.431   5.026
 1077SOL     OW 4129   6.020   6.809   0.149
 1077SOL    HW1 4130   6.056   6.765   0.231
 1077SOL    HW2 4131   6.096   6.838   0.091
 1078SOL     OW 4132   1.976   1.257   2.425
 1078SOL    HW1 4133   1.979   1.297   2.516
 1078SOL    HW2 4134   1.882   1.253   2.392
 1079SOL     OW 4135   2.352   5.315   3.439
 1079SOL    HW1 4136   2.287   5.361   3.501
 1079SOL    HW2 4137   2.445   5.340   3.465
 1080SOL     OW 4138   2.764   5.364   3.089
 1080SOL    HW1 4139   2.694   5.411   3.143
 1080SOL    HW2 4140   2.846   5.351   3.145
 1081SOL     OW 4141   1.203   1.156   5.690
 1081SOL    HW1 4142   1.125   1.100   5.662
 1081SOL    HW2 4143   1.285   1.099   5.694
 1082SOL     OW 4144   1.402   6.932   5.692
 1082SOL    HW1 4145   1.424   7.022   5.655
 1082SOL    HW2 4146   1.353   6.878   5.623
 1083SOL     OW 4147   3.948   3.426   2.434
 1083SOL    HW1 4148   3.851   3.435   2.455
 1083SOL    HW2 4149   4.002   3.454   2.514
 1084SOL     OW 4150   6.280   5.572   1.179
 1084SOL    HW1 4151   6.193   5.611   1.148
 1084SOL    HW2 4152   6.267   5.521   1.264
 1085SOL     OW 4153   2.066   4.411   3.897
 1085SOL    HW1 4154   2.107   4.482   3.955
 1085SOL    HW2 4155   2.131   4.382   3.828
 1086SOL     OW 4156   6.187   5.372   3.553
 1086SOL    HW1 4157   6.251   5.440   3.518
 1086SOL    HW2 4158   6.238   5.293   3.588
 1087SOL     OW 4159   5.079   2.824   4.947
 1087SOL    HW1 4160   5.148   2.800   4.879
 1087SOL    HW2 4161   5.009   2.882   4.905
 1088SOL     OW 4162   4.928   4.406   3.316
 1088SOL    HW1 4163   5.002   4.366   3.262
 1088SOL    HW2 4164   4.905   4.496   3.278
 1089SOL     OW 4165   0.279   0.232   4.361
 1089SOL    HW1 4166   0.185   0.259   4.344
 1089SOL    HW2 4167   0.328   0.308   4.403
 1090SOL     OW 4168   2.977   1.149   4.743
 1090SOL    HW1 4169   3.021   1.237   4.728
 1090SOL    HW2 4170   2.989   1.091   4.662
 1091SOL     OW 4171   1.296   2.315   4.125
 1091SOL    HW1 4172   1.233   2.318   4.203
 1091SOL    HW2 4173   1.362   2.240   4.139
 1092SOL     OW 4174   2.599   3.776   1.136
 1092SOL    HW1 4175   2.562   3.860   1.176
 1092SOL    HW2 4176   2.689   3.794   1.096
 1093SOL     OW 4177   1.340   1.682   2.404
 1093SOL    HW1 4178   1.298   1.763   2.445
 1093SOL    HW2 4179   1.404   1.710   2.332
 1094SOL     OW 4180   0.263   6.657   1.619
 1094SOL    HW1 4181   0.218   6.568   1.626
 1094SOL    HW2 4182   0.287   6.690   1.711
 1095SOL     OW 4183   6.195   2.371   6.446
 1095SOL    HW1 4184   6.151   2.300   6.501
 1095SOL    HW2 4185   6.166   2.362   6.351
 1096SOL     OW 4186   3.898   5.349   1.494
 1096SOL    HW1 4187   3.952   5.268   1.514
 1096SOL    HW2 4188   3.933   5.394   1.412
 1097SOL     OW 4189   1.616   5.189   4.661
 1097SOL    HW1 4190   1.574   5.273   4.697
 1097SOL    HW2 4191   1.549   5.140   4.605
 1098SOL     OW 4192   5.327   2.397   0.776
 1098SOL    HW1 4193   5.309   2.473   0.714
 1098SOL    HW2 4194   5.271   2.406   0.858
 1099SOL     OW 4195   3.863   2.163   4.583
 1099SOL    HW1 4196   3.785   2.139   4.641
 1099SOL    HW2 4197   3.948   2.135   4.628
 1100SOL     OW 4198   0.746   1.358   6.449
 1100SOL    HW1 4199   0.656   1.372   6.407
 1100SOL    HW2 4200   0.807   1.315   6.383
 1101SOL     OW 4201   5.806   3.523   1.116
 1101SOL    HW1 4202   5.883   3.461   1.128
 1101SOL    HW2 4203   5.765   3.543   1.205
 1102SOL     OW 4204   1.004   4.817   4.327
 1102SOL    HW1 4205   0.947   4.868   4.263
 1102SOL    HW2 4206   1.046   4.739   4.280
 1103SOL     OW 4207   1.740   1.421   1.932
 1103SOL    HW1 4208   1.643   1.400   1.922
 1103SOL    HW2 4209   1.754   1.477   2.014
 1104SOL     OW 4210   2.080   4.469   6.079
 1104SOL    HW1 4211   2.066   4.565   6.102
 1104SOL    HW2 4212   2.177   4.452   6.065
 1105SOL     OW 4213   5.053   4.142   6.499
 1105SOL    HW1 4214   5.022   4.060   6.546
 1105SOL    HW2 4215   5.153   4.138   6.488
 1106SOL     OW 4216   0.585   2.019   6.313
 1106SOL    HW1 4217   0.495   1.984   6.339
 1106SOL    HW2 4218   0.590   2.030   6.214
 1107SOL     OW 4219   0.745   0.398   6.992
 1107SOL    HW1 4220   0.831   0.448   6.981
 1107SOL    HW2 4221   0.691   0.440   0.035
 1108SOL     OW 4222   2.455   0.617   5.008
 1108SOL    HW1 4223   2.403   0.637   5.091
 1108SOL    HW2 4224   2.547   0.586   5.033
 1109SOL     OW 4225   3.682   5.660   4.590
 1109SOL    HW1 4226   3.614   5.730   4.567
 1109SOL    HW2 4227   3.765   5.674   4.537
 1110SOL     OW 4228   2.645   2.508   1.113
 1110SOL    HW1 4229   2.653   2.604   1.139
 1110SOL    HW2 4230   2.619   2.501   1.016
 1111SOL     OW 4231   5.046   6.762   6.473
 1111SOL    HW1 4232   5.071   6.853   6.505
 1111SOL    HW2 4233   4.951   6.742   6.499
 1112SOL     OW 4234   5.986   1.051   2.711
 1112SOL    HW1 4235   6.055   1.097   2.767
 1112SOL    HW2 4236   5.982   0.954   2.736
 1113SOL     OW 4237   6.110   3.408   2.641
 1113SOL    HW1 4238   6.152   3.456   2.718
 1113SOL    HW2 4239   6.083   3.475   2.571
 1114SOL     OW 4240   5.056   0.503   6.359
 1114SOL    HW1 4241   5.008   0.428   6.403
 1114SOL    HW2 4242   5.076   0.575   6.426
 1115SOL     OW 4243   3.844   2.024   0.526
 1115SOL    HW1 4244   3.903   2.101   0.549
 1115SOL    HW2 4245   3.890   1.938   0.550
 1116SOL     OW 4246   5.322   5.705   4.004
 1116SOL    HW1 4247   5.250   5.726   4.070
 1116SOL    HW2 4248   5.384   5.636   4.042
 1117SOL     OW 4249   2.296   2.607   1.480
 1117SOL    HW1 4250   2.313   2.634   1.385
 1117SOL    HW2 4251   2.381   2.573   1.521
 1118SOL     OW 4252   1.570   5.144   3.063
 1118SOL    HW1 4253   1.484   5.193   3.046
 1118SOL    HW2 4254   1.610   5.114   2.977
 1119SOL     OW 4255   4.283   4.168   1.712
 1119SOL    HW1 4256   4.365   4.209   1.751
 1119SOL    HW2 4257   4.212   4.237   1.702
 1120SOL     OW 4258   5.309   6.592   5.953
 1120SOL    HW1 4259   5.337   6.518   6.013
 1120SOL    HW2 4260   5.273   6.553   5.868
 1121SOL     OW 4261   5.079   2.802   2.105
 1121SOL    HW1 4262   4.982   2.782   2.091
 1121SOL    HW2 4263   5.091   2.901   2.114
 1122SOL     OW 4264   5.807   2.835   6.682
 1122SOL    HW1 4265   5.803   2.933   6.665
 1122SOL    HW2 4266   5.902   2.806   6.689
 1123SOL     OW 4267   4.887   1.491   1.756
 1123SOL    HW1 4268   4.850   1.555   1.824
 1123SOL    HW2 4269   4.833   1.407   1.755
 1124SOL     OW 4270   6.593   3.576   4.949
 1124SOL    HW1 4271   6.556   3.658   4.991
 1124SOL    HW2 4272   6.642   3.600   4.865
 1125SOL     OW 4273   2.614   2.525   5.185
 1125SOL    HW1 4274   2.691   2.534   5.248
 1125SOL    HW2 4275   2.576   2.615   5.166
 1126SOL     OW 4276   4.399   6.841   0.115
 1126SOL    HW1 4277   4.460   6.764   0.103
 1126SOL    HW2 4278   4.314   6.810   0.158
 1127SOL     OW 4279   2.677   4.347   6.501
 1127SOL    HW1 4280   2.722   4.262   6.475
 1127SOL    HW2 4281   2.581   4.344   6.473
 1128SOL     OW 4282   4.401   2.492   4.110
 1128SOL    HW1 4283   4.395   2.563   4.180
 1128SOL    HW2 4284   4.493   2.490   4.073
 1129SOL     OW 4285   4.179   0.275   0.571
 1129SOL    HW1 4286   4.091   0.267   0.617
 1129SOL    HW2 4287   4.238   0.338   0.622
 1130SOL     OW 4288   1.473   4.157   1.460
 1130SOL    HW1 4289   1.506   4.099   1.535
 1130SOL    HW2 4290   1.470   4.252   1.490
 1131SOL     OW 4291   0.248   6.200   5.701
 1131SOL    HW1 4292   0.217   6.105   5.697
 1131SOL    HW2 4293   0.313   6.216   5.627
 1132SOL     OW 4294   5.109   6.808   5.933
 1132SOL    HW1 4295   5.092   6.856   6.019
 1132SOL    HW2 4296   5.169   6.730   5.950
 1133SOL     OW 4297   0.439   2.379   1.601
 1133SOL    HW1 4298   0.350   2.420   1.581
 1133SOL    HW2 4299   0.509   2.422   1.545
 1134SOL     OW 4300   5.873   2.550   6.567
 1134SOL    HW1 4301   5.787   2.538   6.616
 1134SOL    HW2 4302   5.948   2.515   6.622
 1135SOL     OW 4303   2.896   2.076   3.252
 1135SOL    HW1 4304   2.914   2.113   3.343
 1135SOL    HW2 4305   2.884   2.152   3.187
 1136SOL     OW 4306   2.289   5.411   3.709
 1136SOL    HW1 4307   2.354   5.352   3.758
 1136SOL    HW2 4308   2.203   5.415   3.760
 1137SOL     OW 4309   0.957   1.885   6.678
 1137SOL    HW1 4310   0.974   1.811   6.743
 1137SOL    HW2 4311   0.988   1.858   6.588
 1138SOL     OW 4312   2.433   3.374   6.006
 1138SOL    HW1 4313   2.433   3.404   5.910
 1138SOL    HW2 4314   2.384   3.442   6.061
 1139SOL     OW 4315   1.575   6.071   3.186
 1139SOL    HW1 4316   1.643   6.085   3.259
 1139SOL    HW2 4317   1.525   6.156   3.170
 1140SOL     OW 4318   3.742   1.988   3.271
 1140SOL    HW1 4319   3.837   2.017   3.287
 1140SOL    HW2 4320   3.725   1.987   3.172
 1141SOL     OW 4321   5.337   5.352   5.583
 1141SOL    HW1 4322   5.417   5.322   5.531
 1141SOL    HW2 4323   5.256   5.303   5.550
 1142SOL     OW 4324   4.983   0.118   4.415
 1142SOL    HW1 4325   5.037   0.050   4.464
 1142SOL    HW2 4326   5.045   0.184   4.371
 1143SOL     OW 4327   3.940   2.193   2.541
 1143SOL    HW1 4328   3.924   2.170   2.637
 1143SOL    HW2 4329   3.857   2.176   2.488
 1144SOL     OW 4330   0.087   4.225   4.190
 1144SOL    HW1 4331   0.168   4.284   4.197
 1144SOL    HW2 4332   0.044   4.239   4.100
 1145SOL     OW 4333   6.847   5.783   3.570
 1145SOL    HW1 4334   6.934   5.792   3.522
 1145SOL    HW2 4335   6.840   5.853   3.641
 1146SOL     OW 4336   5.655   1.796   0.821
 1146SOL    HW1 4337   5.589   1.843   0.880
 1146SOL    HW2 4338   5.748   1.822   0.848
 1147SOL     OW 4339   1.118   3.567   1.418
 1147SOL    HW1 4340   1.059   3.493   1.385
 1147SOL    HW2 4341   1.174   3.601   1.343
 1148SOL     OW 4342   3.263   5.812   6.276
 1148SOL    HW1 4343   3.296   5.720   6.255
 1148SOL    HW2 4344   3.332   5.879   6.249
 1149SOL     OW 4345   6.468   3.282   3.271
 1149SOL    HW1 4346   6.543   3.319   3.217
 1149SOL    HW2 4347   6.474   3.183   3.275
 1150SOL     OW 4348   2.697   4.712   1.119
 1150SOL    HW1 4349   2.716   4.682   1.212
 1150SOL    HW2 4350   2.742   4.651   1.054
 1151SOL     OW 4351   5.605   5.761   6.449
 1151SOL    HW1 4352   5.522   5.709   6.474
 1151SOL    HW2 4353   5.661   5.775   6.530
 1152SOL     OW 4354   1.268   0.498   4.736
 1152SOL    HW1 4355   1.198   0.560   4.771
 1152SOL    HW2 4356   1.233   0.404   4.740
 1153SOL     OW 4357   2.506   6.408   3.044
 1153SOL    HW1 4358   2.579   6.371   3.101
 1153SOL    HW2 4359   2.532   6.402   2.948
 1154SOL     OW 4360   0.664   3.875   2.172
 1154SOL    HW1 4361   0.591   3.906   2.110
 1154SOL    HW2 4362   0.662   3.929   2.256
 1155SOL     OW 4363   3.086   5.973   0.550
 1155SOL    HW1 4364   3.151   5.989   0.624
 1155SOL    HW2 4365   3.124   5.907   0.485
 1156SOL     OW 4366   2.344   0.511   3.743
 1156SOL    HW1 4367   2.383   0.558   3.822
 1156SOL    HW2 4368   2.353   0.570   3.662
 1157SOL     OW 4369   6.857   2.245   4.884
 1157SOL    HW1 4370   6.877   2.251   4.982
 1157SOL    HW2 4371   6.942   2.229   4.834
 1158SOL     OW 4372   5.375   4.625   5.635
 1158SOL    HW1 4373   5.414   4.702   5.585
 1158SOL    HW2 4374   5.309   4.577   5.577
 1159SOL     OW 4375   3.850   6.502   2.937
 1159SOL    HW1 4376   3.842   6.454   2.851
 1159SOL    HW2 4377   3.939   6.482   2.979
 1160SOL     OW 4378   3.536   4.005   2.074
 1160SOL    HW1 4379   3.580   4.060   2.003
 1160SOL    HW2 4380   3.589   4.009   2.158
 1161SOL     OW 4381   5.222   0.695   4.673
 1161SOL    HW1 4382   5.194   0.707   4.768
 1161SOL    HW2 4383   5.204   0.600   4.645
 1162SOL     OW 4384   3.563   2.904   1.007
 1162SOL    HW1 4385   3.645   2.951   1.040
 1162SOL    HW2 4386   3.522   2.851   1.081
 1163SOL     OW 4387   4.983   2.335   1.987
 1163SOL    HW1 4388   4.944   2.405   2.047
 1163SOL    HW2 4389   4.932   2.332   1.901
 1164SOL     OW 4390   5.392   3.043   2.923
 1164SOL    HW1 4391   5.334   3.021   2.845
 1164SOL    HW2 4392   5.457   3.115   2.897
 1165SOL     OW 4393   1.342   3.446   3.637
 1165SOL    HW1 4394   1.309   3.361   3.679
 1165SOL    HW2 4395   1.372   3.427   3.544
 1166SOL     OW 4396   4.169   1.819   6.420
 1166SOL    HW1 4397   4.209   1.737   6.379
 1166SOL    HW2 4398   4.078   1.835   6.381
 1167SOL     OW 4399   3.505   0.490   5.184
 1167SOL    HW1 4400   3.597   0.502   5.147
 1167SOL    HW2 4401   3.446   0.564   5.152
 1168SOL     OW 4402   6.136   6.924   2.938
 1168SOL    HW1 4403   6.127   7.014   2.979
 1168SOL    HW2 4404   6.078   6.859   2.987
 1169SOL     OW 4405   0.365   3.553   0.927
 1169SOL    HW1 4406   0.320   3.538   0.838
 1169SOL    HW2 4407   0.351   3.648   0.955
 1170SOL     OW 4408   3.595   0.962   2.656
 1170SOL    HW1 4409   3.628   1.021   2.730
 1170SOL    HW2 4410   3.601   1.011   2.569
 1171SOL     OW 4411   3.086   6.140   0.947
 1171SOL    HW1 4412   3.074   6.180   0.856
 1171SOL    HW2 4413   3.056   6.045   0.945
 1172SOL     OW 4414   3.950   3.909   4.169
 1172SOL    HW1 4415   3.888   3.980   4.135
 1172SOL    HW2 4416   4.018   3.888   4.099
 1173SOL     OW 4417   3.425   0.185   5.501
 1173SOL    HW1 4418   3.383   0.244   5.432
 1173SOL    HW2 4419   3.522   0.171   5.479
 1174SOL     OW 4420   2.877   5.668   0.691
 1174SOL    HW1 4421   2.830   5.756   0.690
 1174SOL    HW2 4422   2.921   5.651   0.603
 1175SOL     OW 4423   5.948   4.622   6.879
 1175SOL    HW1 4424   5.948   4.653   6.974
 1175SOL    HW2 4425   5.919   4.527   6.875
 1176SOL     OW 4426   5.826   4.808   0.987
 1176SOL    HW1 4427   5.866   4.900   0.995
 1176SOL    HW2 4428   5.793   4.779   1.077
 1177SOL     OW 4429   0.079   2.568   5.390
 1177SOL    HW1 4430   0.093   2.658   5.431
 1177SOL    HW2 4431   7.012   2.556   5.368
 1178SOL     OW 4432   4.866   4.042   2.438
 1178SOL    HW1 4433   4.808   4.112   2.397
 1178SOL    HW2 4434   4.870   3.962   2.378
 1179SOL     OW 4435   1.691   3.826   0.739
 1179SOL    HW1 4436   1.663   3.864   0.826
 1179SOL    HW2 4437   1.769   3.764   0.752
 1180SOL     OW 4438   2.098   1.252   3.454
 1180SOL    HW1 4439   2.134   1.288   3.368
 1180SOL    HW2 4440   2.003   1.280   3.465
 1181SOL     OW 4441   0.871   4.955   4.644
 1181SOL    HW1 4442   0.913   5.030   4.594
 1181SOL    HW2 4443   0.792   4.921   4.593
 1182SOL     OW 4444   2.406   4.446   3.512
 1182SOL    HW1 4445   2.463   4.521   3.479
 1182SOL    HW2 4446   2.310   4.469   3.500
 1183SOL     OW 4447   4.666   5.337   1.758
 1183SOL    HW1 4448   4.600   5.265   1.779
 1183SOL    HW2 4449   4.617   5.423   1.742
 1184SOL     OW 4450   3.405   3.088   5.496
 1184SOL    HW1 4451   3.404   3.121   5.591
 1184SOL    HW2 4452   3.313   3.098   5.457
 1185SOL     OW 4453   2.515   0.378   0.110
 1185SOL    HW1 4454   2.415   0.371   0.117
 1185SOL    HW2 4455   2.551   0.419   0.194
 1186SOL     OW 4456   6.095   0.239   5.074
 1186SOL    HW1 4457   6.049   0.245   5.163
 1186SOL    HW2 4458   6.190   0.268   5.083
 1187SOL     OW 4459   5.407   6.221   4.679
 1187SOL    HW1 4460   5.431   6.258   4.589
 1187SOL    HW2 4461   5.470   6.258   4.748
 1188SOL     OW 4462   2.336   6.610   5.691
 1188SOL    HW1 4463   2.324   6.602   5.592
 1188SOL    HW2 4464   2.289   6.534   5.736
 1189SOL     OW 4465   4.943   1.259   2.296
 1189SOL    HW1 4466   5.010   1.330   2.273
 1189SOL    HW2 4467   4.850   1.297   2.289
 1190SOL     OW 4468   3.852   5.219   3.288
 1190SOL    HW1 4469   3.860   5.121   3.305
 1190SOL    HW2 4470   3.777   5.235   3.223
 1191SOL     OW 4471   3.308   5.092   6.395
 1191SOL    HW1 4472   3.345   5.056   6.480
 1191SOL    HW2 4473   3.343   5.038   6.318
 1192SOL     OW 4474   6.057   4.873   3.332
 1192SOL    HW1 4475   5.997   4.947   3.361
 1192SOL    HW2 4476   6.027   4.788   3.376
 1193SOL     OW 4477   5.259   7.018   4.566
 1193SOL    HW1 4478   5.352   6.993   4.594
 1193SOL    HW2 4479   5.193   6.961   4.614
 1194SOL     OW 4480   6.716   0.446   0.703
 1194SOL    HW1 4481   6.629   0.426   0.749
 1194SOL    HW2 4482   6.791   0.406   0.755
 1195SOL     OW 4483   6.353   0.924   6.140
 1195SOL    HW1 4484   6.290   0.945   6.065
 1195SOL    HW2 4485   6.377   1.009   6.188
 1196SOL     OW 4486   0.532   4.965   2.262
 1196SOL    HW1 4487   0.629   4.956   2.284
 1196SOL    HW2 4488   0.508   4.900   2.190
 1197SOL     OW 4489   3.724   5.896   5.413
 1197SOL    HW1 4490   3.739   5.890   5.512
 1197SOL    HW2 4491   3.795   5.842   5.366
 1198SOL     OW 4492   2.664   2.328   2.562
 1198SOL    HW1 4493   2.642   2.230   2.561
 1198SOL    HW2 4494   2.726   2.348   2.486
 1199SOL     OW 4495   3.015   3.948   2.366
 1199SOL    HW1 4496   2.927   3.988   2.341
 1199SOL    HW2 4497   3.030   3.959   2.464
 1200SOL     OW 4498   4.189   3.853   5.434
 1200SOL    HW1 4499   4.282   3.825   5.408
 1200SOL    HW2 4500   4.187   3.952   5.446
 1201SOL     OW 4501   1.405   1.465   5.111
 1201SOL    HW1 4502   1.334   1.463   5.041
 1201SOL    HW2 4503   1.495   1.475   5.068
 1202SOL     OW 4504   5.657   6.828   5.822
 1202SOL    HW1 4505   5.676   6.731   5.830
 1202SOL    HW2 4506   5.582   6.852   5.884
 1203SOL     OW 4507   5.208   0.158   0.993
 1203SOL    HW1 4508   5.147   0.236   1.012
 1203SOL    HW2 4509   5.210   0.141   0.894
 1204SOL     OW 4510   3.591   1.382   0.483
 1204SOL    HW1 4511   3.642   1.296   0.489
 1204SOL    HW2 4512   3.634   1.450   0.542
 1205SOL     OW 4513   5.570   2.597   6.132
 1205SOL    HW1 4514   5.648   2.624   6.190
 1205SOL    HW2 4515   5.485   2.627   6.175
 1206SOL     OW 4516   1.706   1.491   5.043
 1206SOL    HW1 4517   1.730   1.399   5.072
 1206SOL    HW2 4518   1.778   1.555   5.071
 1207SOL     OW 4519   6.288   6.381   0.294
 1207SOL    HW1 4520   6.337   6.434   0.362
 1207SOL    HW2 4521   6.205   6.342   0.334
 1208SOL     OW 4522   3.372   3.655   3.120
 1208SOL    HW1 4523   3.452   3.680   3.064
 1208SOL    HW2 4524   3.288   3.677   3.071
 1209SOL     OW 4525   6.241   5.438   5.261
 1209SOL    HW1 4526   6.296   5.403   5.185
 1209SOL    HW2 4527   6.209   5.361   5.317
 1210SOL     OW 4528   3.734   0.390   2.775
 1210SOL    HW1 4529   3.811   0.379   2.712
 1210SOL    HW2 4530   3.721   0.487   2.796
 1211SOL     OW 4531   1.334   3.285   3.936
 1211SOL    HW1 4532   1.246   3.244   3.957
 1211SOL    HW2 4533   1.384   3.226   3.873
 1212SOL     OW 4534   1.238   3.205   5.890
 1212SOL    HW1 4535   1.271   3.133   5.952
 1212SOL    HW2 4536   1.152   3.177   5.849
 1213SOL     OW 4537   6.329   2.938   5.244
 1213SOL    HW1 4538   6.375   2.894   5.321
 1213SOL    HW2 4539   6.281   2.869   5.190
 1214SOL     OW 4540   1.855   3.482   4.845
 1214SOL    HW1 4541   1.936   3.428   4.869
 1214SOL    HW2 4542   1.804   3.434   4.774
 1215SOL     OW 4543   2.246   4.688   2.721
 1215SOL    HW1 4544   2.310   4.635   2.665
 1215SOL    HW2 4545   2.297   4.748   2.782
 1216SOL     OW 4546   1.546   6.546   1.359
 1216SOL    HW1 4547   1.634   6.500   1.346
 1216SOL    HW2 4548   1.477   6.480   1.388
 1217SOL     OW 4549   1.137   6.553   0.076
 1217SOL    HW1 4550   1.168   6.572   7.012
 1217SOL    HW2 4551   1.037   6.550   0.077
 1218SOL     OW 4552   1.175   3.333   5.486
 1218SOL    HW1 4553   1.222   3.246   5.474
 1218SOL    HW2 4554   1.237   3.398   5.531
 1219SOL     OW 4555   4.656   5.213   0.300
 1219SOL    HW1 4556   4.694   5.261   0.379
 1219SOL    HW2 4557   4.690   5.256   0.216
 1220SOL     OW 4558   5.757   3.478   2.604
 1220SOL    HW1 4559   5.790   3.399   2.552
 1220SOL    HW2 4560   5.774   3.463   2.702
 1221SOL     OW 4561   5.920   4.013   7.027
 1221SOL    HW1 4562   5.927   3.966   6.939
 1221SOL    HW2 4563   5.979   4.094   7.026
 1222SOL     OW 4564   6.806   6.593   0.661
 1222SOL    HW1 4565   6.859   6.538   0.597
 1222SOL    HW2 4566   6.768   6.534   0.732
 1223SOL     OW 4567   6.011   0.128   6.636
 1223SOL    HW1 4568   5.964   0.039   6.640
 1223SOL    HW2 4569   6.034   0.157   6.729
 1224SOL     OW 4570   4.148   6.066   7.016
 1224SOL    HW1 4571   4.188   6.093   0.074
 1224SOL    HW2 4572   4.175   5.972   6.995
 1225SOL     OW 4573   3.816   1.657   0.979
 1225SOL    HW1 4574   3.735   1.618   1.021
 1225SOL    HW2 4575   3.793   1.745   0.937
 1226SOL     OW 4576   6.160   6.510   0.979
 1226SOL    HW1 4577   6.225   6.521   1.054
 1226SOL    HW2 4578   6.209   6.484   0.896
 1227SOL     OW 4579   5.659   4.511   5.783
 1227SOL    HW1 4580   5.592   4.581   5.810
 1227SOL    HW2 4581   5.647   4.490   5.686
 1228SOL     OW 4582   3.734   2.931   1.992
 1228SOL    HW1 4583   3.783   2.870   1.930
 1228SOL    HW2 4584   3.792   3.011   2.012
 1229SOL     OW 4585   1.456   6.632   2.098
 1229SOL    HW1 4586   1.522   6.615   2.024
 1229SOL    HW2 4587   1.388   6.559   2.099
 1230SOL     OW 4588   5.513   5.329   2.892
 1230SOL    HW1 4589   5.466   5.391   2.829
 1230SOL    HW2 4590   5.585   5.280   2.843
 1231SOL     OW 4591   1.787   2.701   6.428
 1231SOL    HW1 4592   1.803   2.740   6.518
 1231SOL    HW2 4593   1.763   2.775   6.364
 1232SOL     OW 4594   3.829   1.054   5.003
 1232SOL    HW1 4595   3.735   1.056   4.969
 1232SOL    HW2 4596   3.891   1.086   4.931
 1233SOL     OW 4597   1.351   4.544   3.536
 1233SOL    HW1 4598   1.408   4.493   3.470
 1233SOL    HW2 4599   1.285   4.482   3.578
 1234SOL     OW 4600   6.867   3.374   6.764
 1234SOL    HW1 4601   6.826   3.441   6.826
 1234SOL    HW2 4602   6.824   3.284   6.780
 1235SOL     OW 4603   6.092   4.988   0.221
 1235SOL    HW1 4604   6.191   4.978   0.234
 1235SOL    HW2 4605   6.069   4.972   0.125
 1236SOL     OW 4606   3.146   1.304   7.000
 1236SOL    HW1 4607   3.123   1.369   6.927
 1236SOL    HW2 4608   3.064   1.253   7.026
 1237SOL     OW 4609   1.399   0.662   4.563
 1237SOL    HW1 4610   1.449   0.747   4.583
 1237SOL    HW2 4611   1.355   0.630   4.647
 1238SOL     OW 4612   0.291   0.131   2.946
 1238SOL    HW1 4613   0.273   0.076   2.865
 1238SOL    HW2 4614   0.254   0.223   2.933
 1239SOL     OW 4615   0.014   5.194   4.488
 1239SOL    HW1 4616   0.067   5.190   4.572
 1239SOL    HW2 4617   6.990   5.110   4.479
 1240SOL     OW 4618   6.004   5.656   3.269
 1240SOL    HW1 4619   5.998   5.594   3.191
 1240SOL    HW2 4620   5.942   5.733   3.257
 1241SOL     OW 4621   0.042   5.482   4.318
 1241SOL    HW1 4622   0.044   5.405   4.382
 1241SOL    HW2 4623   6.980   5.489   4.277
 1242SOL     OW 4624   1.018   3.464   6.947
 1242SOL    HW1 4625   1.057   3.410   7.023
 1242SOL    HW2 4626   1.050   3.426   6.860
 1243SOL     OW 4627   0.996   3.546   5.761
 1243SOL    HW1 4628   0.945   3.501   5.687
 1243SOL    HW2 4629   0.983   3.645   5.755
 1244SOL     OW 4630   5.706   6.797   5.195
 1244SOL    HW1 4631   5.612   6.793   5.229
 1244SOL    HW2 4632   5.722   6.887   5.154
 1245SOL     OW 4633   5.327   5.911   1.353
 1245SOL    HW1 4634   5.383   5.926   1.272
 1245SOL    HW2 4635   5.332   5.991   1.413
 1246SOL     OW 4636   4.672   1.239   0.907
 1246SOL    HW1 4637   4.581   1.280   0.892
 1246SOL    HW2 4638   4.696   1.247   1.004
 1247SOL     OW 4639   7.023   6.811   4.024
 1247SOL    HW1 4640   6.946   6.755   3.993
 1247SOL    HW2 4641   0.074   6.754   4.035
 1248SOL     OW 4642   0.018   6.638   4.749
 1248SOL    HW1 4643   0.009   6.643   4.649
 1248SOL    HW2 4644   6.982   6.700   4.791
 1249SOL     OW 4645   0.492   4.686   1.293
 1249SOL    HW1 4646   0.493   4.722   1.387
 1249SOL    HW2 4647   0.584   4.657   1.268
 1250SOL     OW 4648   5.668   4.136   4.849
 1250SOL    HW1 4649   5.640   4.127   4.754
 1250SOL    HW2 4650   5.759   4.176   4.854
 1251SOL     OW 4651   2.197   1.268   3.160
 1251SOL    HW1 4652   2.231   1.242   3.070
 1251SOL    HW2 4653   2.243   1.352   3.189
 1252SOL     OW 4654   3.025   5.345   0.034
 1252SOL    HW1 4655   3.084   5.322   6.987
 1252SOL    HW2 4656   3.011   5.444   0.037
 1253SOL     OW 4657   3.290   0.356   0.673
 1253SOL    HW1 4658   3.315   0.441   0.628
 1253SOL    HW2 4659   3.200   0.366   0.716
 1254SOL     OW 4660   6.171   1.885   3.052
 1254SOL    HW1 4661   6.159   1.981   3.077
 1254SOL    HW2 4662   6.216   1.879   2.963
 1255SOL     OW 4663   5.787   2.630   4.886
 1255SOL    HW1 4664   5.692   2.638   4.915
 1255SOL    HW2 4665   5.841   2.588   4.959
 1256SOL     OW 4666   6.917   5.859   4.069
 1256SOL    HW1 4667   6.845   5.928   4.056
 1256SOL    HW2 4668   7.004   5.895   4.037
 1257SOL     OW 4669   1.009   4.684   3.604
 1257SOL    HW1 4670   0.997   4.615   3.675
 1257SOL    HW2 4671   0.976   4.772   3.638
 1258SOL     OW 4672   2.230   6.070   3.452
 1258SOL    HW1 4673   2.181   6.034   3.531
 1258SOL    HW2 4674   2.180   6.148   3.414
 1259SOL     OW 4675   4.583   0.490   5.125
 1259SOL    HW1 4676   4.649   0.525   5.190
 1259SOL    HW2 4677   4.502   0.548   5.125
 1260SOL     OW 4678   2.447   0.697   1.976
 1260SOL    HW1 4679   2.474   0.770   2.038
 1260SOL    HW2 4680   2.481   0.609   2.011
 1261SOL     OW 4681   0.291   3.496   6.776
 1261SOL    HW1 4682   0.212   3.467   6.722
 1261SOL    HW2 4683   0.374   3.487   6.720
 1262SOL     OW 4684   4.672   4.979   1.073
 1262SOL    HW1 4685   4.586   4.966   1.023
 1262SOL    HW2 4686   4.713   5.066   1.047
 1263SOL     OW 4687   6.620   2.012   1.081
 1263SOL    HW1 4688   6.640   1.947   1.008
 1263SOL    HW2 4689   6.555   1.972   1.145
 1264SOL     OW 4690   0.742   4.492   3.315
 1264SOL    HW1 4691   0.667   4.433   3.346
 1264SOL    HW2 4692   0.806   4.438   3.260
 1265SOL     OW 4693   0.460   3.607   4.542
 1265SOL    HW1 4694   0.369   3.609   4.502
 1265SOL    HW2 4695   0.527   3.590   4.469
 1266SOL     OW 4696   2.698   1.186   5.471
 1266SOL    HW1 4697   2.766   1.165   5.400
 1266SOL    HW2 4698   2.613   1.139   5.449
 1267SOL     OW 4699   0.052   5.591   2.821
 1267SOL    HW1 4700   0.152   5.585   2.828
 1267SOL    HW2 4701   0.011   5.538   2.894
 1268SOL     OW 4702   5.727   2.188   6.528
 1268SOL    HW1 4703   5.730   2.244   6.611
 1268SOL    HW2 4704   5.815   2.197   6.480
 1269SOL     OW 4705   6.851   6.617   5.146
 1269SOL    HW1 4706   6.937   6.667   5.148
 1269SOL    HW2 4707   6.787   6.662   5.085
 1270SOL     OW 4708   1.923   3.998   4.265
 1270SOL    HW1 4709   1.852   3.971   4.329
 1270SOL    HW2 4710   1.916   4.096   4.247
 1271SOL     OW 4711   3.254   1.757   2.889
 1271SOL    HW1 4712   3.219   1.815   2.963
 1271SOL    HW2 4713   3.203   1.671   2.887
 1272SOL     OW 4714   0.593   5.735   1.005
 1272SOL    HW1 4715   0.643   5.649   1.001
 1272SOL    HW2 4716   0.631   5.799   0.937
 1273SOL     OW 4717   2.239   4.336   0.598
 1273SOL    HW1 4718   2.327   4.380   0.613
 1273SOL    HW2 4719   2.248   4.237   0.612
 1274SOL     OW 4720   0.389   2.974   1.752
 1274SOL    HW1 4721   0.305   2.943   1.796
 1274SOL    HW2 4722   0.419   3.060   1.793
 1275SOL     OW 4723   4.448   0.663   3.804
 1275SOL    HW1 4724   4.508   0.641   3.882
 1275SOL    HW2 4725   4.479   0.612   3.724
 1276SOL     OW 4726   6.720   0.569   2.954
 1276SOL    HW1 4727   6.713   0.487   2.896
 1276SOL    HW2 4728   6.628   0.601   2.977
 1277SOL     OW 4729   0.294   1.042   5.046
 1277SOL    HW1 4730   0.310   0.948   5.015
 1277SOL    HW2 4731   0.371   1.071   5.103
 1278SOL     OW 4732   2.147   1.757   5.966
 1278SOL    HW1 4733   2.070   1.811   5.999
 1278SOL    HW2 4734   2.114   1.669   5.932
 1279SOL     OW 4735   2.597   6.841   0.432
 1279SOL    HW1 4736   2.570   6.934   0.458
 1279SOL    HW2 4737   2.554   6.775   0.494
 1280SOL     OW 4738   2.186   0.628   2.713
 1280SOL    HW1 4739   2.117   0.568   2.752
 1280SOL    HW2 4740   2.214   0.593   2.623
 1281SOL     OW 4741   1.222   6.141   3.057
 1281SOL    HW1 4742   1.282   6.061   3.055
 1281SOL    HW2 4743   1.140   6.120   3.110
 1282SOL     OW 4744   0.426   1.474   1.100
 1282SOL    HW1 4745   0.405   1.428   1.014
 1282SOL    HW2 4746   0.491   1.419   1.153
 1283SOL     OW 4747   5.601   3.888   5.498
 1283SOL    HW1 4748   5.540   3.832   5.442
 1283SOL    HW2 4749   5.566   3.892   5.592
 1284SOL     OW 4750   2.958   2.621   1.751
 1284SOL    HW1 4751   2.925   2.532   1.782
 1284SOL    HW2 4752   2.979   2.678   1.830
 1285SOL     OW 4753   5.684   3.203   6.378
 1285SOL    HW1 4754   5.644   3.220   6.468
 1285SOL    HW2 4755   5.695   3.105   6.364
 1286SOL     OW 4756   4.832   4.623   2.384
 1286SOL    HW1 4757   4.842   4.709   2.434
 1286SOL    HW2 4758   4.860   4.636   2.288
 1287SOL     OW 4759   6.144   4.792   6.245
 1287SOL    HW1 4760   6.124   4.841   6.330
 1287SOL    HW2 4761   6.065   4.798   6.184
 1288SOL     OW 4762   0.281   3.071   0.709
 1288SOL    HW1 4763   0.350   3.120   0.655
 1288SOL    HW2 4764   0.251   2.991   0.658
 1289SOL     OW 4765   0.386   5.925   1.709
 1289SOL    HW1 4766   0.365   5.891   1.617
 1289SOL    HW2 4767   0.462   5.990   1.704
 1290SOL     OW 4768   0.357   0.554   6.592
 1290SOL    HW1 4769   0.337   0.505   6.677
 1290SOL    HW2 4770   0.410   0.636   6.613
 1291SOL     OW 4771   2.210   4.766   6.566
 1291SOL    HW1 4772   2.302   4.800   6.549
 1291SOL    HW2 4773   2.193   4.762   6.664
 1292SOL     OW 4774   6.999   4.618   2.075
 1292SOL    HW1 4775   0.007   4.579   1.990
 1292SOL    HW2 4776   0.030   4.595   2.151
 1293SOL     OW 4777   2.542   1.002   6.105
 1293SOL    HW1 4778   2.542   0.915   6.056
 1293SOL    HW2 4779   2.601   1.067   6.057
 1294SOL     OW 4780   0.163   3.347   1.734
 1294SOL    HW1 4781   0.177   3.281   1.660
 1294SOL    HW2 4782   0.194   3.307   1.821
 1295SOL     OW 4783   6.264   4.048   2.796
 1295SOL    HW1 4784   6.298   4.122   2.854
 1295SOL    HW2 4785   6.301   4.058   2.704
 1296SOL     OW 4786   3.559   1.639   6.251
 1296SOL    HW1 4787   3.611   1.702   6.309
 1296SOL    HW2 4788   3.609   1.553   6.241
 1297SOL     OW 4789   5.952   1.899   5.665
 1297SOL    HW1 4790   5.960   1.998   5.652
 1297SOL    HW2 4791   5.928   1.856   5.578
 1298SOL     OW 4792   6.084   3.205   3.769
 1298SOL    HW1 4793   6.095   3.106   3.763
 1298SOL    HW2 4794   6.164   3.250   3.729
 1299SOL     OW 4795   2.177   4.248   3.201
 1299SOL    HW1 4796   2.236   4.328   3.188
 1299SOL    HW2 4797   2.213   4.193   3.276
 1300SOL     OW 4798   3.051   3.580   1.972
 1300SOL    HW1 4799   2.993   3.609   2.048
 1300SOL    HW2 4800   2.998   3.524   1.909
 1301SOL     OW 4801   1.341   6.433   2.413
 1301SOL    HW1 4802   1.438   6.452   2.433
 1301SOL    HW2 4803   1.328   6.427   2.315
 1302SOL     OW 4804   2.115   6.888   4.459
 1302SOL    HW1 4805   2.162   6.956   4.402
 1302SOL    HW2 4806   2.061   6.934   4.529
 1303SOL     OW 4807   3.928   1.333   0.896
 1303SOL    HW1 4808   4.028   1.335   0.889
 1303SOL    HW2 4809   3.896   1.417   0.939
 1304SOL     OW 4810   1.186   0.722   6.290
 1304SOL    HW1 4811   1.099   0.676   6.277
 1304SOL    HW2 4812   1.174   0.820   6.275
 1305SOL     OW 4813   5.347   5.862   4.941
 1305SOL    HW1 4814   5.280   5.909   4.998
 1305SOL    HW2 4815   5.353   5.766   4.968
 1306SOL     OW 4816   1.320   3.537   5.341
 1306SOL    HW1 4817   1.238   3.539   5.283
 1306SOL    HW2 4818   1.293   3.554   5.436
 1307SOL     OW 4819   1.811   3.089   4.939
 1307SOL    HW1 4820   1.797   3.150   5.017
 1307SOL    HW2 4821   1.900   3.107   4.897
 1308SOL     OW 4822   3.950   6.092   4.406
 1308SOL    HW1 4823   4.018   6.019   4.411
 1308SOL    HW2 4824   3.865   6.056   4.366
 1309SOL     OW 4825   5.743   3.186   5.401
 1309SOL    HW1 4826   5.752   3.202   5.499
 1309SOL    HW2 4827   5.661   3.131   5.384
 1310SOL     OW 4828   5.742   3.782   4.941
 1310SOL    HW1 4829   5.807   3.853   4.911
 1310SOL    HW2 4830   5.670   3.772   4.872
 1311SOL     OW 4831   5.863   6.856   4.041
 1311SOL    HW1 4832   5.852   6.763   4.077
 1311SOL    HW2 4833   5.900   6.916   4.112
 1312SOL     OW 4834   0.786   0.890   6.700
 1312SOL    HW1 4835   0.776   0.975   6.753
 1312SOL    HW2 4836   0.808   0.913   6.605
 1313SOL     OW 4837   2.699   5.812   5.274
 1313SOL    HW1 4838   2.698   5.903   5.314
 1313SOL    HW2 4839   2.712   5.744   5.346
 1314SOL     OW 4840   1.852   1.271   5.784
 1314SOL    HW1 4841   1.850   1.255   5.686
 1314SOL    HW2 4842   1.825   1.365   5.804
 1315SOL     OW 4843   1.168   1.356   0.638
 1315SOL    HW1 4844   1.255   1.347   0.591
 1315SOL    HW2 4845   1.165   1.294   0.716
 1316SOL     OW 4846   1.905   6.981   3.122
 1316SOL    HW1 4847   2.004   6.987   3.119
 1316SOL    HW2 4848   1.869   0.019   3.186
 1317SOL     OW 4849   0.813   4.416   4.856
 1317SOL    HW1 4850   0.754   4.335   4.866
 1317SOL    HW2 4851   0.755   4.498   4.851
 1318SOL     OW 4852   0.539   1.169   0.668
 1318SOL    HW1 4853   0.615   1.167   0.733
 1318SOL    HW2 4854   0.507   1.076   0.651
 1319SOL     OW 4855   6.180   1.158   0.084
 1319SOL    HW1 4856   6.103   1.127   0.028
 1319SOL    HW2 4857   6.244   1.082   0.097
 1320SOL     OW 4858   5.710   4.344   0.262
 1320SOL    HW1 4859   5.646   4.417   0.288
 1320SOL    HW2 4860   5.719   4.342   0.162
 1321SOL     OW 4861   4.481   3.130   6.971
 1321SOL    HW1 4862   4.411   3.190   7.011
 1321SOL    HW2 4863   4.448   3.035   6.974
 1322SOL     OW 4864   5.394   1.246   2.811
 1322SOL    HW1 4865   5.391   1.247   2.911
 1322SOL    HW2 4866   5.327   1.311   2.776
 1323SOL     OW 4867   5.495   1.368   5.233
 1323SOL    HW1 4868   5.520   1.331   5.322
 1323SOL    HW2 4869   5.521   1.303   5.161
 1324SOL     OW 4870   1.685   2.102   2.300
 1324SOL    HW1 4871   1.627   2.055   2.366
 1324SOL    HW2 4872   1.776   2.115   2.339
 1325SOL     OW 4873   1.903   0.090   2.818
 1325SOL    HW1 4874   1.995   0.127   2.806
 1325SOL    HW2 4875   1.898   0.041   2.905
 1326SOL     OW 4876   4.790   2.619   4.718
 1326SOL    HW1 4877   4.847   2.700   4.704
 1326SOL    HW2 4878   4.796   2.591   4.814
 1327SOL     OW 4879   2.344   5.265   3.030
 1327SOL    HW1 4880   2.257   5.271   2.981
 1327SOL    HW2 4881   2.340   5.189   3.095
 1328SOL     OW 4882   1.315   1.997   6.939
 1328SOL    HW1 4883   1.279   2.066   6.877
 1328SOL    HW2 4884   1.397   1.956   6.899
 1329SOL     OW 4885   6.802   1.351   0.882
 1329SOL    HW1 4886   6.880   1.396   0.925
 1329SOL    HW2 4887   6.826   1.324   0.789
 1330SOL     OW 4888   6.706   6.793   0.863
 1330SOL    HW1 4889   6.751   6.741   0.791
 1330SOL    HW2 4890   6.612   6.761   0.874
 1331SOL     OW 4891   5.202   1.498   2.734
 1331SOL    HW1 4892   5.282   1.553   2.710
 1331SOL    HW2 4893   5.190   1.426   2.666
 1332SOL     OW 4894   3.938   0.871   1.125
 1332SOL    HW1 4895   3.869   0.926   1.077
 1332SOL    HW2 4896   3.908   0.854   1.218
 1333SOL     OW 4897   3.576   4.195   5.050
 1333SOL    HW1 4898   3.662   4.146   5.042
 1333SOL    HW2 4899   3.516   4.169   4.974
 1334SOL     OW 4900   1.403   2.590   5.037
 1334SOL    HW1 4901   1.434   2.629   4.950
 1334SOL    HW2 4902   1.304   2.604   5.045
 1335SOL     OW 4903   2.556   6.421   2.341
 1335SOL    HW1 4904   2.619   6.450   2.413
 1335SOL    HW2 4905   2.579   6.467   2.256
 1336SOL     OW 4906   1.161   1.366   7.004
 1336SOL    HW1 4907   1.240   1.304   7.010
 1336SOL    HW2 4908   1.192   1.457   6.974
 1337SOL     OW 4909   1.499   2.860   5.460
 1337SOL    HW1 4910   1.467   2.848   5.366
 1337SOL    HW2 4911   1.571   2.929   5.462
 1338SOL     OW 4912   4.521   3.515   6.371
 1338SOL    HW1 4913   4.463   3.447   6.416
 1338SOL    HW2 4914   4.501   3.606   6.407
 1339SOL     OW 4915   0.182   5.079   6.807
 1339SOL    HW1 4916   0.116   5.011   6.837
 1339SOL    HW2 4917   0.272   5.037   6.797
 1340SOL     OW 4918   0.896   1.997   1.032
 1340SOL    HW1 4919   0.985   2.007   0.986
 1340SOL    HW2 4920   0.896   1.914   1.087
 1341SOL     OW 4921   4.214   1.379   5.060
 1341SOL    HW1 4922   4.118   1.375   5.032
 1341SOL    HW2 4923   4.225   1.447   5.132
 1342SOL     OW 4924   1.554   5.831   6.044
 1342SOL    HW1 4925   1.464   5.793   6.021
 1342SOL    HW2 4926   1.598   5.865   5.961
 1343SOL     OW 4927   3.483   6.317   1.976
 1343SOL    HW1 4928   3.406   6.369   1.940
 1343SOL    HW2 4929   3.566   6.373   1.973
 1344SOL     OW 4930   6.606   2.124   3.115
 1344SOL    HW1 4931   6.685   2.063   3.125
 1344SOL    HW2 4932   6.610   2.169   3.026
 1345SOL     OW 4933   0.661   1.260   3.689
 1345SOL    HW1 4934   0.732   1.247   3.619
 1345SOL    HW2 4935   0.687   1.335   3.750
 1346SOL     OW 4936   0.992   6.699   3.232
 1346SOL    HW1 4937   0.945   6.644   3.301
 1346SOL    HW2 4938   0.926   6.732   3.164
 1347SOL     OW 4939   6.459   6.499   3.681
 1347SOL    HW1 4940   6.418   6.504   3.772
 1347SOL    HW2 4941   6.549   6.455   3.687
 1348SOL     OW 4942   5.968   5.163   4.153
 1348SOL    HW1 4943   5.895   5.139   4.088
 1348SOL    HW2 4944   6.051   5.185   4.102
 1349SOL     OW 4945   4.817   2.819   6.723
 1349SOL    HW1 4946   4.846   2.772   6.639
 1349SOL    HW2 4947   4.898   2.846   6.776
 1350SOL     OW 4948   3.635   4.933   6.865
 1350SOL    HW1 4949   3.614   4.984   6.781
 1350SOL    HW2 4950   3.606   4.838   6.855
 1351SOL     OW 4951   1.335   0.624   3.154
 1351SOL    HW1 4952   1.340   0.724   3.157
 1351SOL    HW2 4953   1.376   0.592   3.069
 1352SOL     OW 4954   6.880   0.377   3.614
 1352SOL    HW1 4955   6.796   0.429   3.598
 1352SOL    HW2 4956   6.935   0.374   3.531
 1353SOL     OW 4957   6.497   4.683   5.526
 1353SOL    HW1 4958   6.558   4.670   5.604
 1353SOL    HW2 4959   6.497   4.778   5.498
 1354SOL     OW 4960   6.643   1.119   1.188
 1354SOL    HW1 4961   6.638   1.211   1.148
 1354SOL    HW2 4962   6.552   1.091   1.219
 1355SOL     OW 4963   5.335   4.123   0.611
 1355SOL    HW1 4964   5.427   4.083   0.608
 1355SOL    HW2 4965   5.276   4.075   0.547
 1356SOL     OW 4966   3.653   4.123   3.164
 1356SOL    HW1 4967   3.714   4.090   3.093
 1356SOL    HW2 4968   3.678   4.217   3.189
 1357SOL     OW 4969   3.012   3.180   6.176
 1357SOL    HW1 4970   2.979   3.100   6.225
 1357SOL    HW2 4971   3.013   3.160   6.078
 1358SOL     OW 4972   2.094   2.721   6.533
 1358SOL    HW1 4973   2.088   2.786   6.457
 1358SOL    HW2 4974   2.025   2.649   6.522
 1359SOL     OW 4975   6.408   3.575   1.819
 1359SOL    HW1 4976   6.462   3.655   1.841
 1359SOL    HW2 4977   6.468   3.502   1.785
 1360SOL     OW 4978   4.074   3.697   2.539
 1360SOL    HW1 4979   4.055   3.704   2.441
 1360SOL    HW2 4980   4.145   3.628   2.554
 1361SOL     OW 4981   0.702   0.128   5.754
 1361SOL    HW1 4982   0.782   0.159   5.702
 1361SOL    HW2 4983   0.633   0.093   5.691
 1362SOL     OW 4984   2.943   3.389   5.437
 1362SOL    HW1 4985   2.924   3.297   5.470
 1362SOL    HW2 4986   3.041   3.399   5.419
 1363SOL     OW 4987   6.663   6.149   3.533
 1363SOL    HW1 4988   6.615   6.124   3.617
 1363SOL    HW2 4989   6.691   6.066   3.485
 1364SOL     OW 4990   6.998   3.154   0.680
 1364SOL    HW1 4991   6.996   3.172   0.779
 1364SOL    HW2 4992   6.964   3.234   0.631
 1365SOL     OW 4993   1.318   3.838   5.638
 1365SOL    HW1 4994   1.253   3.827   5.713
 1365SOL    HW2 4995   1.269   3.855   5.553
 1366SOL     OW 4996   0.027   3.201   1.321
 1366SOL    HW1 4997   0.120   3.193   1.285
 1366SOL    HW2 4998   7.002   3.123   1.288
 1367SOL     OW 4999   1.433   5.069   3.676
 1367SOL    HW1 5000   1.514   5.106   3.631
 1367SOL    HW2 5001   1.389   5.140   3.731
 1368SOL     OW 5002   6.641   6.532   4.389
 1368SOL    HW1 5003   6.709   6.595   4.351
 1368SOL    HW2 5004   6.550   6.571   4.379
 1369SOL     OW 5005   2.137   5.997   1.466
 1369SOL    HW1 5006   2.062   5.983   1.532
 1369SOL    HW2 5007   2.128   6.087   1.424
 1370SOL     OW 5008   0.444   2.195   3.841
 1370SOL    HW1 5009   0.509   2.265   3.869
 1370SOL    HW2 5010   0.466   2.109   3.886
 1371SOL     OW 5011   5.322   1.057   4.866
 1371SOL    HW1 5012   5.317   1.023   4.772
 1371SOL    HW2 5013   5.245   1.118   4.883
 1372SOL     OW 5014   6.371   2.342   0.688
 1372SOL    HW1 5015   6.426   2.417   0.650
 1372SOL    HW2 5016   6.309   2.378   0.758
 1373SOL     OW 5017   4.866   2.563   0.898
 1373SOL    HW1 5018   4.836   2.618   0.976
 1373SOL    HW2 5019   4.895   2.473   0.930
 1374SOL     OW 5020   5.591   4.026   0.589
 1374SOL    HW1 5021   5.663   4.073   0.538
 1374SOL    HW2 5022   5.626   4.000   0.679
 1375SOL     OW 5023   6.869   5.753   6.141
 1375SOL    HW1 5024   6.814   5.832   6.170
 1375SOL    HW2 5025   6.869   5.748   6.041
 1376SOL     OW 5026   3.064   4.555   5.906
 1376SOL    HW1 5027   3.038   4.640   5.860
 1376SOL    HW2 5028   3.005   4.481   5.874
 1377SOL     OW 5029   1.099   2.648   4.164
 1377SOL    HW1 5030   1.183   2.619   4.118
 1377SOL    HW2 5031   1.121   2.681   4.256
 1378SOL     OW 5032   4.227   2.255   4.820
 1378SOL    HW1 5033   4.197   2.299   4.905
 1378SOL    HW2 5034   4.150   2.203   4.781
 1379SOL     OW 5035   5.072   5.681   2.189
 1379SOL    HW1 5036   5.061   5.591   2.146
 1379SOL    HW2 5037   5.092   5.669   2.286
 1380SOL     OW 5038   6.814   6.453   2.465
 1380SOL    HW1 5039   6.769   6.493   2.385
 1380SOL    HW2 5040   6.866   6.523   2.513
 1381SOL     OW 5041   5.828   1.999   6.314
 1381SOL    HW1 5042   5.926   2.019   6.311
 1381SOL    HW2 5043   5.807   1.948   6.397
 1382SOL     OW 5044   4.548   3.302   1.466
 1382SOL    HW1 5045   4.609   3.374   1.432
 1382SOL    HW2 5046   4.479   3.343   1.526
 1383SOL     OW 5047   1.442   6.339   1.536
 1383SOL    HW1 5048   1.439   6.284   1.453
 1383SOL    HW2 5049   1.386   6.296   1.607
 1384SOL     OW 5050   4.438   6.899   1.031
 1384SOL    HW1 5051   4.521   6.947   1.060
 1384SOL    HW2 5052   4.418   6.921   0.936
 1385SOL     OW 5053   2.425   5.245   3.889
 1385SOL    HW1 5054   2.432   5.257   3.988
 1385SOL    HW2 5055   2.443   5.150   3.865
 1386SOL     OW 5056   2.831   6.409   3.571
 1386SOL    HW1 5057   2.847   6.461   3.655
 1386SOL    HW2 5058   2.786   6.468   3.504
 1387SOL     OW 5059   3.425   5.877   1.583
 1387SOL    HW1 5060   3.448   5.789   1.543
 1387SOL    HW2 5061   3.397   5.940   1.510
 1388SOL     OW 5062   6.290   6.653   1.200
 1388SOL    HW1 5063   6.354   6.724   1.169
 1388SOL    HW2 5064   6.329   6.605   1.279
 1389SOL     OW 5065   5.609   1.508   3.145
 1389SOL    HW1 5066   5.703   1.492   3.174
 1389SOL    HW2 5067   5.609   1.564   3.062
 1390SOL     OW 5068   0.488   3.886   0.167
 1390SOL    HW1 5069   0.510   3.926   0.078
 1390SOL    HW2 5070   0.389   3.873   0.173
 1391SOL     OW 5071   6.515   0.619   3.963
 1391SOL    HW1 5072   6.583   0.654   4.028
 1391SOL    HW2 5073   6.548   0.533   3.924
 1392SOL     OW 5074   4.887   5.800   6.058
 1392SOL    HW1 5075   4.888   5.797   6.158
 1392SOL    HW2 5076   4.862   5.710   6.022
 1393SOL     OW 5077   6.112   5.295   5.030
 1393SOL    HW1 5078   6.129   5.379   5.082
 1393SOL    HW2 5079   6.017   5.294   5.000
 1394SOL     OW 5080   3.033   5.856   4.822
 1394SOL    HW1 5081   3.108   5.846   4.887
 1394SOL    HW2 5082   2.952   5.892   4.869
 1395SOL     OW 5083   2.445   4.671   6.214
 1395SOL    HW1 5084   2.358   4.668   6.263
 1395SOL    HW2 5085   2.429   4.703   6.120
 1396SOL     OW 5086   2.019   0.907   4.422
 1396SOL    HW1 5087   2.068   0.836   4.372
 1396SOL    HW2 5088   1.928   0.874   4.447
 1397SOL     OW 5089   0.298   0.212   3.835
 1397SOL    HW1 5090   0.303   0.113   3.821
 1397SOL    HW2 5091   0.374   0.256   3.787
 1398SOL     OW 5092   2.136   0.979   5.959
 1398SOL    HW1 5093   2.196   1.035   6.016
 1398SOL    HW2 5094   2.051   0.961   6.008
 1399SOL     OW 5095   4.032   6.913   0.932
 1399SOL    HW1 5096   4.110   6.857   0.958
 1399SOL    HW2 5097   3.948   6.860   0.942
 1400SOL     OW 5098   6.743   1.850   2.921
 1400SOL    HW1 5099   6.746   1.889   2.829
 1400SOL    HW2 5100   6.814   1.893   2.978
 1401SOL     OW 5101   6.963   1.579   4.502
 1401SOL    HW1 5102   0.014   1.612   4.552
 1401SOL    HW2 5103   6.886   1.569   4.565
 1402SOL     OW 5104   0.769   4.334   0.600
 1402SOL    HW1 5105   0.858   4.321   0.644
 1402SOL    HW2 5106   0.696   4.311   0.665
 1403SOL     OW 5107   2.958   1.771   1.747
 1403SOL    HW1 5108   3.053   1.798   1.729
 1403SOL    HW2 5109   2.906   1.773   1.662
 1404SOL     OW 5110   5.260   6.742   0.044
 1404SOL    HW1 5111   5.348   6.760   0.001
 1404SOL    HW2 5112   5.256   6.788   0.133
 1405SOL     OW 5113   2.232   3.459   1.484
 1405SOL    HW1 5114   2.307   3.524   1.470
 1405SOL    HW2 5115   2.266   3.380   1.536
 1406SOL     OW 5116   1.439   5.406   1.719
 1406SOL    HW1 5117   1.457   5.313   1.687
 1406SOL    HW2 5118   1.524   5.447   1.752
 1407SOL     OW 5119   0.656   2.117   2.217
 1407SOL    HW1 5120   0.575   2.066   2.188
 1407SOL    HW2 5121   0.700   2.069   2.293
 1408SOL     OW 5122   5.006   0.961   6.089
 1408SOL    HW1 5123   5.053   0.877   6.115
 1408SOL    HW2 5124   4.911   0.940   6.065
 1409SOL     OW 5125   0.776   6.843   5.167
 1409SOL    HW1 5126   0.715   6.862   5.090
 1409SOL    HW2 5127   0.762   6.911   5.238
 1410SOL     OW 5128   2.185   3.704   6.648
 1410SOL    HW1 5129   2.270   3.750   6.625
 1410SOL    HW2 5130   2.196   3.654   6.734
 1411SOL     OW 5131   2.750   6.542   2.520
 1411SOL    HW1 5132   2.816   6.555   2.446
 1411SOL    HW2 5133   2.796   6.498   2.598
 1412SOL     OW 5134   0.524   2.295   1.160
 1412SOL    HW1 5135   0.458   2.289   1.084
 1412SOL    HW2 5136   0.498   2.370   1.220
 1413SOL     OW 5137   2.293   1.131   4.776
 1413SOL    HW1 5138   2.324   1.067   4.846
 1413SOL    HW2 5139   2.341   1.218   4.787
 1414SOL     OW 5140   2.604   0.706   1.149
 1414SOL    HW1 5141   2.509   0.739   1.152
 1414SOL    HW2 5142   2.647   0.721   1.238
 1415SOL     OW 5143   2.595   0.799   4.676
 1415SOL    HW1 5144   2.614   0.838   4.766
 1415SOL    HW2 5145   2.541   0.715   4.687
 1416SOL     OW 5146   4.490   4.520   4.391
 1416SOL    HW1 5147   4.490   4.549   4.487
 1416SOL    HW2 5148   4.425   4.576   4.340
 1417SOL     OW 5149   2.496   1.519   6.903
 1417SOL    HW1 5150   2.589   1.489   6.922
 1417SOL    HW2 5151   2.498   1.585   6.828
 1418SOL     OW 5152   3.099   3.778   3.802
 1418SOL    HW1 5153   3.084   3.866   3.758
 1418SOL    HW2 5154   3.042   3.709   3.757
 1419SOL     OW 5155   2.593   6.674   4.594
 1419SOL    HW1 5156   2.612   6.658   4.691
 1419SOL    HW2 5157   2.561   6.589   4.552
 1420SOL     OW 5158   2.212   6.879   1.302
 1420SOL    HW1 5159   2.128   6.927   1.327
 1420SOL    HW2 5160   2.268   6.937   1.243
 1421SOL     OW 5161   2.161   3.327   3.442
 1421SOL    HW1 5162   2.137   3.233   3.465
 1421SOL    HW2 5163   2.183   3.377   3.526
 1422SOL     OW 5164   2.121   3.864   1.646
 1422SOL    HW1 5165   2.127   3.923   1.565
 1422SOL    HW2 5166   2.148   3.916   1.726
 1423SOL     OW 5167   5.345   6.630   3.083
 1423SOL    HW1 5168   5.314   6.692   3.011
 1423SOL    HW2 5169   5.331   6.673   3.172
 1424SOL     OW 5170   6.838   4.276   4.625
 1424SOL    HW1 5171   6.785   4.312   4.702
 1424SOL    HW2 5172   6.778   4.227   4.563
 1425SOL     OW 5173   1.098   6.153   4.654
 1425SOL    HW1 5174   1.165   6.175   4.725
 1425SOL    HW2 5175   1.127   6.195   4.568
 1426SOL     OW 5176   1.103   2.077   5.800
 1426SOL    HW1 5177   1.142   1.985   5.789
 1426SOL    HW2 5178   1.009   2.069   5.834
 1427SOL     OW 5179   0.019   6.974   3.089
 1427SOL    HW1 5180   7.007   6.921   3.162
 1427SOL    HW2 5181   0.028   6.917   3.007
 1428SOL     OW 5182   5.622   2.925   0.534
 1428SOL    HW1 5183   5.704   2.955   0.485
 1428SOL    HW2 5184   5.566   2.868   0.473
 1429SOL     OW 5185   5.599   1.960   0.364
 1429SOL    HW1 5186   5.552   1.895   0.424
 1429SOL    HW2 5187   5.583   2.053   0.397
 1430SOL     OW 5188   1.632   4.665   4.266
 1430SOL    HW1 5189   1.719   4.696   4.302
 1430SOL    HW2 5190   1.561   4.675   4.336
 1431SOL     OW 5191   1.904   2.030   1.233
 1431SOL    HW1 5192   1.994   1.988   1.223
 1431SOL    HW2 5193   1.887   2.092   1.157
 1432SOL     OW 5194   3.451   1.504   2.845
 1432SOL    HW1 5195   3.535   1.551   2.870
 1432SOL    HW2 5196   3.372   1.563   2.865
 1433SOL     OW 5197   3.936   1.304   4.161
 1433SOL    HW1 5198   3.967   1.387   4.207
 1433SOL    HW2 5199   3.951   1.226   4.220
 1434SOL     OW 5200   6.868   1.226   5.780
 1434SOL    HW1 5201   6.926   1.237   5.700
 1434SOL    HW2 5202   6.866   1.311   5.832
 1435SOL     OW 5203   5.773   0.778   2.119
 1435SOL    HW1 5204   5.755   0.877   2.116
 1435SOL    HW2 5205   5.857   0.762   2.171
 1436SOL     OW 5206   6.177   3.906   0.495
 1436SOL    HW1 5207   6.126   3.982   0.454
 1436SOL    HW2 5208   6.273   3.911   0.467
 1437SOL     OW 5209   2.317   2.588   3.695
 1437SOL    HW1 5210   2.373   2.555   3.771
 1437SOL    HW2 5211   2.279   2.677   3.718
 1438SOL     OW 5212   3.110   6.811   1.297
 1438SOL    HW1 5213   3.151   6.893   1.256
 1438SOL    HW2 5214   3.037   6.778   1.238
 1439SOL     OW 5215   6.896   5.517   1.207
 1439SOL    HW1 5216   6.800   5.546   1.214
 1439SOL    HW2 5217   6.905   5.451   1.132
 1440SOL     OW 5218   3.239   4.067   0.624
 1440SOL    HW1 5219   3.315   4.020   0.577
 1440SOL    HW2 5220   3.247   4.053   0.723
 1441SOL     OW 5221   5.931   0.488   2.888
 1441SOL    HW1 5222   5.964   0.403   2.846
 1441SOL    HW2 5223   5.959   0.490   2.984
 1442SOL     OW 5224   6.836   5.683   6.780
 1442SOL    HW1 5225   6.784   5.650   6.702
 1442SOL    HW2 5226   6.844   5.610   6.848
 1443SOL     OW 5227   0.694   2.652   2.393
 1443SOL    HW1 5228   0.640   2.580   2.349
 1443SOL    HW2 5229   0.649   2.740   2.380
 1444SOL     OW 5230   5.428   6.229   0.703
 1444SOL    HW1 5231   5.406   6.256   0.797
 1444SOL    HW2 5232   5.350   6.248   0.644
 1445SOL     OW 5233   0.904   2.908   2.348
 1445SOL    HW1 5234   0.817   2.934   2.307
 1445SOL    HW2 5235   0.905   2.809   2.365
 1446SOL     OW 5236   6.133   0.682   6.410
 1446SOL    HW1 5237   6.195   0.686   6.488
 1446SOL    HW2 5238   6.053   0.626   6.433
 1447SOL     OW 5239   5.869   5.772   4.115
 1447SOL    HW1 5240   5.778   5.745   4.146
 1447SOL    HW2 5241   5.923   5.802   4.194
 1448SOL     OW 5242   6.609   3.062   5.320
 1448SOL    HW1 5243   6.602   3.048   5.418
 1448SOL    HW2 5244   6.703   3.041   5.290
 1449SOL     OW 5245   1.575   4.137   5.459
 1449SOL    HW1 5246   1.589   4.109   5.364
 1449SOL    HW2 5247   1.569   4.056   5.517
 1450SOL     OW 5248   1.153   1.917   0.136
 1450SOL    HW1 5249   1.067   1.967   0.137
 1450SOL    HW2 5250   1.208   1.945   0.057
 1451SOL     OW 5251   1.595   6.514   2.328
 1451SOL    HW1 5252   1.547   6.538   2.244
 1451SOL    HW2 5253   1.691   6.542   2.321
 1452SOL     OW 5254   4.340   2.702   5.339
 1452SOL    HW1 5255   4.303   2.662   5.255
 1452SOL    HW2 5256   4.395   2.782   5.315
 1453SOL     OW 5257   0.399   4.092   5.650
 1453SOL    HW1 5258   0.379   4.002   5.689
 1453SOL    HW2 5259   0.335   4.160   5.687
 1454SOL     OW 5260   1.506   1.735   2.186
 1454SOL    HW1 5261   1.551   1.823   2.170
 1454SOL    HW2 5262   1.446   1.714   2.108
 1455SOL     OW 5263   1.732   0.090   2.222
 1455SOL    HW1 5264   1.765   0.048   2.137
 1455SOL    HW2 5265   1.633   0.105   2.215
 1456SOL     OW 5266   6.444   6.748   6.089
 1456SOL    HW1 5267   6.344   6.746   6.096
 1456SOL    HW2 5268   6.483   6.707   6.171
 1457SOL     OW 5269   1.754   5.263   0.200
 1457SOL    HW1 5270   1.819   5.189   0.183
 1457SOL    HW2 5271   1.800   5.351   0.187
 1458SOL     OW 5272   5.665   4.972   5.226
 1458SOL    HW1 5273   5.706   4.888   5.189
 1458SOL    HW2 5274   5.566   4.967   5.217
 1459SOL     OW 5275   4.210   6.691   5.770
 1459SOL    HW1 5276   4.262   6.648   5.697
 1459SOL    HW2 5277   4.255   6.776   5.798
 1460SOL     OW 5278   2.161   6.903   5.164
 1460SOL    HW1 5279   2.113   6.984   5.199
 1460SOL    HW2 5280   2.253   6.900   5.202
 1461SOL     OW 5281   6.894   3.970   3.446
 1461SOL    HW1 5282   6.922   3.985   3.351
 1461SOL    HW2 5283   6.911   4.052   3.499
 1462SOL     OW 5284   1.292   1.039   6.734
 1462SOL    HW1 5285   1.284   0.968   6.663
 1462SOL    HW2 5286   1.388   1.047   6.761
 1463SOL     OW 5287   1.242   4.809   5.807
 1463SOL    HW1 5288   1.254   4.898   5.851
 1463SOL    HW2 5289   1.226   4.822   5.709
 1464SOL     OW 5290   6.742   5.137   2.280
 1464SOL    HW1 5291   6.731   5.235   2.292
 1464SOL    HW2 5292   6.837   5.111   2.300
 1465SOL     OW 5293   1.453   1.522   4.113
 1465SOL    HW1 5294   1.373   1.473   4.077
 1465SOL    HW2 5295   1.444   1.533   4.212
 1466SOL     OW 5296   3.726   1.703   2.024
 1466SOL    HW1 5297   3.655   1.635   2.007
 1466SOL    HW2 5298   3.701   1.789   1.980
 1467SOL     OW 5299   2.051   1.274   4.004
 1467SOL    HW1 5300   2.042   1.358   3.950
 1467SOL    HW2 5301   1.961   1.230   4.012
 1468SOL     OW 5302   2.328   5.920   1.849
 1468SOL    HW1 5303   2.242   5.938   1.897
 1468SOL    HW2 5304   2.309   5.886   1.757
 1469SOL     OW 5305   6.946   6.678   2.553
 1469SOL    HW1 5306   0.004   6.718   2.529
 1469SOL    HW2 5307   6.933   6.683   2.652
 1470SOL     OW 5308   0.176   1.822   2.162
 1470SOL    HW1 5309   0.244   1.753   2.135
 1470SOL    HW2 5310   0.222   1.910   2.171
 1471SOL     OW 5311   0.894   0.268   0.191
 1471SOL    HW1 5312   0.952   0.326   0.135
 1471SOL    HW2 5313   0.899   0.296   0.287
 1472SOL     OW 5314   3.572   5.544   0.340
 1472SOL    HW1 5315   3.636   5.583   0.406
 1472SOL    HW2 5316   3.582   5.445   0.339
 1473SOL     OW 5317   2.370   6.194   5.049
 1473SOL    HW1 5318   2.393   6.098   5.063
 1473SOL    HW2 5319   2.383   6.217   4.952
 1474SOL     OW 5320   4.242   4.573   1.206
 1474SOL    HW1 5321   4.294   4.540   1.284
 1474SOL    HW2 5322   4.228   4.498   1.141
 1475SOL     OW 5323   5.407   0.808   0.324
 1475SOL    HW1 5324   5.383   0.753   0.244
 1475SOL    HW2 5325   5.378   0.760   0.407
 1476SOL     OW 5326   2.357   1.147   1.113
 1476SOL    HW1 5327   2.389   1.187   1.198
 1476SOL    HW2 5328   2.406   1.189   1.036
 1477SOL     OW 5329   3.310   6.818   6.897
 1477SOL    HW1 5330   3.297   6.864   6.808
 1477SOL    HW2 5331   3.268   6.728   6.894
 1478SOL     OW 5332   6.001   5.757   5.237
 1478SOL    HW1 5333   6.067   5.695   5.194
 1478SOL    HW2 5334   6.000   5.741   5.336
 1479SOL     OW 5335   3.230   2.988   1.472
 1479SOL    HW1 5336   3.162   3.050   1.433
 1479SOL    HW2 5337   3.186   2.904   1.503
 1480SOL     OW 5338   2.697   6.979   4.795
 1480SOL    HW1 5339   2.792   7.007   4.785
 1480SOL    HW2 5340   2.681   6.944   4.887
 1481SOL     OW 5341   5.838   3.488   5.380
 1481SOL    HW1 5342   5.772   3.414   5.397
 1481SOL    HW2 5343   5.818   3.530   5.292
 1482SOL     OW 5344   4.602   0.710   1.307
 1482SOL    HW1 5345   4.561   0.801   1.299
 1482SOL    HW2 5346   4.672   0.712   1.378
 1483SOL     OW 5347   5.871   2.238   5.023
 1483SOL    HW1 5348   5.823   2.178   5.087
 1483SOL    HW2 5349   5.942   2.187   4.976
 1484SOL     OW 5350   4.937   4.925   3.873
 1484SOL    HW1 5351   4.966   4.887   3.785
 1484SOL    HW2 5352   4.863   4.869   3.911
 1485SOL     OW 5353   5.426   0.909   4.260
 1485SOL    HW1 5354   5.381   0.832   4.304
 1485SOL    HW2 5355   5.471   0.879   4.176
 1486SOL     OW 5356   5.052   0.485   3.030
 1486SOL    HW1 5357   5.107   0.484   2.947
 1486SOL    HW2 5358   5.088   0.418   3.095
 1487SOL     OW 5359   0.031   1.638   0.174
 1487SOL    HW1 5360   0.047   1.667   0.268
 1487SOL    HW2 5361   6.993   1.565   0.172
 1488SOL     OW 5362   4.704   0.199   3.249
 1488SOL    HW1 5363   4.608   0.179   3.230
 1488SOL    HW2 5364   4.723   0.294   3.228
 1489SOL     OW 5365   4.035   4.605   5.906
 1489SOL    HW1 5366   4.102   4.679   5.917
 1489SOL    HW2 5367   3.956   4.639   5.855
 1490SOL     OW 5368   0.181   3.500   0.688
 1490SOL    HW1 5369   0.151   3.427   0.627
 1490SOL    HW2 5370   0.127   3.497   0.772
 1491SOL     OW 5371   6.553   3.671   3.018
 1491SOL    HW1 5372   6.591   3.650   2.928
 1491SOL    HW2 5373   6.457   3.699   3.007
 1492SOL     OW 5374   6.143   0.339   2.420
 1492SOL    HW1 5375   6.185   0.321   2.331
 1492SOL    HW2 5376   6.045   0.322   2.415
 1493SOL     OW 5377   3.635   0.513   6.189
 1493SOL    HW1 5378   3.609   0.419   6.210
 1493SOL    HW2 5379   3.715   0.538   6.243
 1494SOL     OW 5380   6.070   2.780   6.389
 1494SOL    HW1 5381   6.011   2.838   6.332
 1494SOL    HW2 5382   6.017   2.742   6.464
 1495SOL     OW 5383   6.746   4.326   4.931
 1495SOL    HW1 5384   6.691   4.406   4.953
 1495SOL    HW2 5385   6.823   4.319   4.994
 1496SOL     OW 5386   0.930   0.377   0.437
 1496SOL    HW1 5387   0.952   0.342   0.529
 1496SOL    HW2 5388   0.867   0.454   0.445
 1497SOL     OW 5389   5.124   3.050   2.062
 1497SOL    HW1 5390   5.099   2.994   1.983
 1497SOL    HW2 5391   5.068   3.134   2.063
 1498SOL     OW 5392   2.718   4.213   1.029
 1498SOL    HW1 5393   2.744   4.153   0.953
 1498SOL    HW2 5394   2.770   4.189   1.110
 1499SOL     OW 5395   0.440   3.322   6.148
 1499SOL    HW1 5396   0.435   3.222   6.156
 1499SOL    HW2 5397   0.524   3.347   6.100
 1500SOL     OW 5398   0.557   6.621   0.155
 1500SOL    HW1 5399   0.570   6.613   0.254
 1500SOL    HW2 5400   0.553   6.717   0.130
 1501SOL     OW 5401   5.980   1.802   6.161
 1501SOL    HW1 5402   6.053   1.737   6.138
 1501SOL    HW2 5403   6.004   1.849   6.246
 1502SOL     OW 5404   5.106   1.407   6.542
 1502SOL    HW1 5405   5.014   1.447   6.547
 1502SOL    HW2 5406   5.099   1.307   6.535
 1503SOL     OW 5407   0.785   3.122   2.491
 1503SOL    HW1 5408   0.728   3.093   2.568
 1503SOL    HW2 5409   0.830   3.042   2.451
 1504SOL     OW 5410   0.716   0.128   3.173
 1504SOL    HW1 5411   0.697   0.204   3.234
 1504SOL    HW2 5412   0.711   0.159   3.078
 1505SOL     OW 5413   5.240   6.923   5.722
 1505SOL    HW1 5414   5.188   6.993   5.672
 1505SOL    HW2 5415   5.179   6.877   5.787
 1506SOL     OW 5416   1.106   0.190   6.811
 1506SOL    HW1 5417   1.034   0.138   6.856
 1506SOL    HW2 5418   1.156   0.131   6.748
 1507SOL     OW 5419   0.078   2.100   5.320
 1507SOL    HW1 5420   0.106   2.182   5.371
 1507SOL    HW2 5421   0.126   2.020   5.356
 1508SOL     OW 5422   6.394   1.524   1.289
 1508SOL    HW1 5423   6.431   1.615   1.311
 1508SOL    HW2 5424   6.421   1.459   1.360
 1509SOL     OW 5425   4.753   2.009   4.819
 1509SOL    HW1 5426   4.841   1.989   4.862
 1509SOL    HW2 5427   4.764   2.010   4.720
 1510SOL     OW 5428   5.740   6.979   4.700
 1510SOL    HW1 5429   5.838   6.972   4.717
 1510SOL    HW2 5430   5.717   6.925   4.619
 1511SOL     OW 5431   4.077   3.279   4.233
 1511SOL    HW1 5432   4.114   3.284   4.141
 1511SOL    HW2 5433   4.098   3.364   4.282
 1512SOL     OW 5434   6.482   5.282   1.736
 1512SOL    HW1 5435   6.525   5.322   1.818
 1512SOL    HW2 5436   6.524   5.193   1.716
 1513SOL     OW 5437   3.401   0.329   4.570
 1513SOL    HW1 5438   3.304   0.304   4.562
 1513SOL    HW2 5439   3.408   0.424   4.601
 1514SOL     OW 5440   4.067   2.849   5.969
 1514SOL    HW1 5441   4.043   2.884   5.878
 1514SOL    HW2 5442   4.040   2.754   5.977
 1515SOL     OW 5443   6.134   1.388   2.643
 1515SOL    HW1 5444   6.035   1.402   2.636
 1515SOL    HW2 5445   6.152   1.315   2.709
 1516SOL     OW 5446   5.445   5.263   5.177
 1516SOL    HW1 5447   5.481   5.228   5.264
 1516SOL    HW2 5448   5.364   5.319   5.195
 1517SOL     OW 5449   4.389   6.209   2.729
 1517SOL    HW1 5450   4.300   6.229   2.688
 1517SOL    HW2 5451   4.376   6.149   2.808
 1518SOL     OW 5452   6.802   2.954   0.734
 1518SOL    HW1 5453   6.876   3.011   0.697
 1518SOL    HW2 5454   6.723   3.011   0.755
 1519SOL     OW 5455   6.585   4.628   1.190
 1519SOL    HW1 5456   6.650   4.607   1.116
 1519SOL    HW2 5457   6.612   4.713   1.235
 1520SOL     OW 5458   0.717   4.673   1.658
 1520SOL    HW1 5459   0.744   4.590   1.610
 1520SOL    HW2 5460   0.744   4.667   1.754
 1521SOL     OW 5461   2.075   4.792   6.807
 1521SOL    HW1 5462   2.124   4.878   6.793
 1521SOL    HW2 5463   2.004   4.806   6.876
 1522SOL     OW 5464   6.240   5.408   4.740
 1522SOL    HW1 5465   6.227   5.396   4.839
 1522SOL    HW2 5466   6.172   5.473   4.705
 1523SOL     OW 5467   3.516   6.501   6.503
 1523SOL    HW1 5468   3.434   6.445   6.508
 1523SOL    HW2 5469   3.513   6.572   6.574
 1524SOL     OW 5470   2.736   2.025   2.965
 1524SOL    HW1 5471   2.723   2.121   2.938
 1524SOL    HW2 5472   2.731   2.018   3.064
 1525SOL     OW 5473   5.984   2.968   0.406
 1525SOL    HW1 5474   5.972   2.877   0.445
 1525SOL    HW2 5475   5.902   2.992   0.353
 1526SOL     OW 5476   6.957   0.857   6.672
 1526SOL    HW1 5477   6.972   0.761   6.694
 1526SOL    HW2 5478   0.015   0.899   6.646
 1527SOL     OW 5479   3.374   1.132   4.333
 1527SOL    HW1 5480   3.307   1.090   4.273
 1527SOL    HW2 5481   3.411   1.062   4.396
 1528SOL     OW 5482   4.183   4.701   1.828
 1528SOL    HW1 5483   4.243   4.698   1.908
 1528SOL    HW2 5484   4.190   4.614   1.778
 1529SOL     OW 5485   4.869   0.988   7.009
 1529SOL    HW1 5486   4.898   1.084   7.003
 1529SOL    HW2 5487   4.915   0.935   6.938
 1530SOL     OW 5488   3.145   1.425   1.292
 1530SOL    HW1 5489   3.128   1.372   1.375
 1530SOL    HW2 5490   3.128   1.367   1.212
 1531SOL     OW 5491   4.827   0.629   4.945
 1531SOL    HW1 5492   4.756   0.683   4.899
 1531SOL    HW2 5493   4.799   0.533   4.947
 1532SOL     OW 5494   3.499   4.302   6.129
 1532SOL    HW1 5495   3.402   4.325   6.124
 1532SOL    HW2 5496   3.514   4.211   6.091
 1533SOL     OW 5497   5.525   5.534   0.095
 1533SOL    HW1 5498   5.437   5.565   0.132
 1533SOL    HW2 5499   5.570   5.474   0.162
 1534SOL     OW 5500   3.026   5.945   6.326
 1534SOL    HW1 5501   3.121   5.915   6.322
 1534SOL    HW2 5502   2.968   5.870   6.357
 1535SOL     OW 5503   5.569   5.750   4.595
 1535SOL    HW1 5504   5.639   5.813   4.628
 1535SOL    HW2 5505   5.576   5.663   4.644
 1536SOL     OW 5506   4.031   4.889   6.360
 1536SOL    HW1 5507   3.998   4.951   6.290
 1536SOL    HW2 5508   3.979   4.804   6.358
 1537SOL     OW 5509   4.316   5.956   4.136
 1537SOL    HW1 5510   4.344   5.881   4.195
 1537SOL    HW2 5511   4.392   5.980   4.074
 1538SOL     OW 5512   3.606   6.752   6.648
 1538SOL    HW1 5513   3.704   6.739   6.637
 1538SOL    HW2 5514   3.570   6.804   6.569
 1539SOL     OW 5515   5.127   3.388   2.193
 1539SOL    HW1 5516   5.128   3.477   2.238
 1539SOL    HW2 5517   5.045   3.380   2.137
 1540SOL     OW 5518   0.278   6.831   5.509
 1540SOL    HW1 5519   0.238   6.922   5.520
 1540SOL    HW2 5520   0.260   6.796   5.417
 1541SOL     OW 5521   3.473   3.297   4.031
 1541SOL    HW1 5522   3.478   3.292   4.131
 1541SOL    HW2 5523   3.488   3.392   4.002
 1542SOL     OW 5524   6.837   0.322   2.021
 1542SOL    HW1 5525   6.804   0.229   2.005
 1542SOL    HW2 5526   6.834   0.374   1.935
 1543SOL     OW 5527   3.759   5.220   4.944
 1543SOL    HW1 5528   3.701   5.248   5.020
 1543SOL    HW2 5529   3.708   5.226   4.859
 1544SOL     OW 5530   3.856   4.011   3.788
 1544SOL    HW1 5531   3.771   3.958   3.785
 1544SOL    HW2 5532   3.906   3.998   3.702
 1545SOL     OW 5533   4.569   0.565   2.680
 1545SOL    HW1 5534   4.521   0.630   2.739
 1545SOL    HW2 5535   4.579   0.604   2.589
 1546SOL     OW 5536   5.478   6.232   5.657
 1546SOL    HW1 5537   5.460   6.296   5.582
 1546SOL    HW2 5538   5.552   6.170   5.631
 1547SOL     OW 5539   1.092   3.529   0.862
 1547SOL    HW1 5540   1.068   3.486   0.949
 1547SOL    HW2 5541   1.175   3.584   0.874
 1548SOL     OW 5542   5.040   4.003   6.878
 1548SOL    HW1 5543   5.125   3.952   6.890
 1548SOL    HW2 5544   5.058   4.100   6.893
 1549SOL     OW 5545   3.727   1.190   2.157
 1549SOL    HW1 5546   3.725   1.161   2.062
 1549SOL    HW2 5547   3.763   1.283   2.163
 1550SOL     OW 5548   3.392   3.637   1.377
 1550SOL    HW1 5549   3.454   3.600   1.446
 1550SOL    HW2 5550   3.349   3.561   1.327
 1551SOL     OW 5551   1.887   4.639   6.667
 1551SOL    HW1 5552   1.802   4.677   6.705
 1551SOL    HW2 5553   1.962   4.703   6.683
 1552SOL     OW 5554   1.734   5.585   0.911
 1552SOL    HW1 5555   1.664   5.657   0.906
 1552SOL    HW2 5556   1.695   5.498   0.880
 1553SOL     OW 5557   6.819   1.636   6.387
 1553SOL    HW1 5558   6.740   1.632   6.448
 1553SOL    HW2 5559   6.888   1.698   6.425
 1554SOL     OW 5560   3.337   2.041   3.421
 1554SOL    HW1 5561   3.419   2.048   3.479
 1554SOL    HW2 5562   3.364   2.034   3.325
 1555SOL     OW 5563   5.747   3.388   6.968
 1555SOL    HW1 5564   5.798   3.303   6.960
 1555SOL    HW2 5565   5.654   3.369   7.000
 1556SOL     OW 5566   1.647   1.541   6.278
 1556SOL    HW1 5567   1.668   1.573   6.370
 1556SOL    HW2 5568   1.684   1.605   6.211
 1557SOL     OW 5569   2.282   3.069   5.680
 1557SOL    HW1 5570   2.265   3.019   5.594
 1557SOL    HW2 5571   2.199   3.069   5.735
 1558SOL     OW 5572   6.177   1.007   4.763
 1558SOL    HW1 5573   6.165   0.908   4.767
 1558SOL    HW2 5574   6.275   1.029   4.768
 1559SOL     OW 5575   1.628   2.899   6.624
 1559SOL    HW1 5576   1.657   2.842   6.700
 1559SOL    HW2 5577   1.548   2.953   6.652
 1560SOL     OW 5578   0.095   0.614   5.722
 1560SOL    HW1 5579   0.008   0.581   5.758
 1560SOL    HW2 5580   0.158   0.537   5.711
 1561SOL     OW 5581   5.034   6.095   3.523
 1561SOL    HW1 5582   4.961   6.164   3.532
 1561SOL    HW2 5583   5.121   6.141   3.506
 1562SOL     OW 5584   4.889   6.048   2.749
 1562SOL    HW1 5585   4.985   6.042   2.777
 1562SOL    HW2 5586   4.875   5.995   2.665
 1563SOL     OW 5587   2.861   0.467   5.186
 1563SOL    HW1 5588   2.877   0.426   5.096
 1563SOL    HW2 5589   2.792   0.539   5.178
 1564SOL     OW 5590   1.399   0.822   3.542
 1564SOL    HW1 5591   1.360   0.737   3.578
 1564SOL    HW2 5592   1.462   0.800   3.468
 1565SOL     OW 5593   4.729   4.586   3.158
 1565SOL    HW1 5594   4.663   4.511   3.162
 1565SOL    HW2 5595   4.800   4.565   3.092
 1566SOL     OW 5596   5.735   4.425   2.703
 1566SOL    HW1 5597   5.711   4.476   2.786
 1566SOL    HW2 5598   5.661   4.361   2.682
 1567SOL     OW 5599   6.596   6.191   1.193
 1567SOL    HW1 5600   6.645   6.220   1.275
 1567SOL    HW2 5601   6.658   6.191   1.115
 1568SOL     OW 5602   1.252   6.991   0.042
 1568SOL    HW1 5603   1.178   6.972   0.106
 1568SOL    HW2 5604   1.278   0.057   0.049
 1569SOL     OW 5605   4.370   6.114   3.360
 1569SOL    HW1 5606   4.352   6.032   3.306
 1569SOL    HW2 5607   4.310   6.116   3.439
 1570SOL     OW 5608   1.548   6.795   0.465
 1570SOL    HW1 5609   1.614   6.828   0.398
 1570SOL    HW2 5610   1.526   6.699   0.446
 1571SOL     OW 5611   5.688   2.706   0.864
 1571SOL    HW1 5612   5.718   2.704   0.959
 1571SOL    HW2 5613   5.662   2.614   0.835
 1572SOL     OW 5614   0.318   0.495   1.763
 1572SOL    HW1 5615   0.299   0.417   1.823
 1572SOL    HW2 5616   0.374   0.466   1.686
 1573SOL     OW 5617   5.267   2.048   1.845
 1573SOL    HW1 5618   5.210   2.130   1.847
 1573SOL    HW2 5619   5.280   2.019   1.750
 1574SOL     OW 5620   6.386   1.461   1.854
 1574SOL    HW1 5621   6.447   1.446   1.931
 1574SOL    HW2 5622   6.371   1.559   1.841
 1575SOL     OW 5623   2.957   1.588   0.746
 1575SOL    HW1 5624   2.932   1.508   0.692
 1575SOL    HW2 5625   2.937   1.570   0.843
 1576SOL     OW 5626   6.376   6.614   4.392
 1576SOL    HW1 5627   6.339   6.689   4.337
 1576SOL    HW2 5628   6.361   6.634   4.489
 1577SOL     OW 5629   2.996   1.892   4.381
 1577SOL    HW1 5630   3.001   1.966   4.447
 1577SOL    HW2 5631   3.074   1.831   4.394
 1578SOL     OW 5632   6.186   3.761   5.577
 1578SOL    HW1 5633   6.250   3.742   5.651
 1578SOL    HW2 5634   6.214   3.845   5.530
 1579SOL     OW 5635   6.931   1.577   3.508
 1579SOL    HW1 5636   6.999   1.616   3.570
 1579SOL    HW2 5637   6.846   1.560   3.558
 1580SOL     OW 5638   2.857   3.780   5.199
 1580SOL    HW1 5639   2.906   3.838   5.135
 1580SOL    HW2 5640   2.777   3.828   5.234
 1581SOL     OW 5641   0.399   4.500   4.620
 1581SOL    HW1 5642   0.421   4.451   4.536
 1581SOL    HW2 5643   0.300   4.494   4.637
 1582SOL     OW 5644   1.461   6.534   4.566
 1582SOL    HW1 5645   1.496   6.464   4.504
 1582SOL    HW2 5646   1.468   6.624   4.523
 1583SOL     OW 5647   1.009   2.967   4.463
 1583SOL    HW1 5648   1.032   3.053   4.508
 1583SOL    HW2 5649   0.923   2.977   4.413
 1584SOL     OW 5650   1.678   6.699   4.701
 1584SOL    HW1 5651   1.719   6.736   4.784
 1584SOL    HW2 5652   1.581   6.678   4.719
 1585SOL     OW 5653   5.830   1.694   3.336
 1585SOL    HW1 5654   5.786   1.771   3.290
 1585SOL    HW2 5655   5.895   1.651   3.273
 1586SOL     OW 5656   3.624   4.159   1.882
 1586SOL    HW1 5657   3.591   4.246   1.845
 1586SOL    HW2 5658   3.724   4.155   1.874
 1587SOL     OW 5659   3.060   4.671   6.932
 1587SOL    HW1 5660   2.975   4.623   6.952
 1587SOL    HW2 5661   3.090   4.722   7.014
 1588SOL     OW 5662   4.472   1.766   3.308
 1588SOL    HW1 5663   4.404   1.839   3.316
 1588SOL    HW2 5664   4.426   1.678   3.300
 1589SOL     OW 5665   5.782   4.097   3.503
 1589SOL    HW1 5666   5.846   4.160   3.548
 1589SOL    HW2 5667   5.805   4.088   3.407
 1590SOL     OW 5668   2.226   7.000   5.963
 1590SOL    HW1 5669   2.174   0.055   5.968
 1590SOL    HW2 5670   2.249   6.981   5.867
 1591SOL     OW 5671   1.302   5.221   2.973
 1591SOL    HW1 5672   1.304   5.316   2.942
 1591SOL    HW2 5673   1.280   5.218   3.071
 1592SOL     OW 5674   2.743   4.048   1.665
 1592SOL    HW1 5675   2.810   4.011   1.730
 1592SOL    HW2 5676   2.665   4.086   1.715
 1593SOL     OW 5677   0.857   6.422   3.434
 1593SOL    HW1 5678   0.859   6.356   3.509
 1593SOL    HW2 5679   0.804   6.502   3.461
 1594SOL     OW 5680   0.483   5.142   2.840
 1594SOL    HW1 5681   0.424   5.219   2.815
 1594SOL    HW2 5682   0.521   5.158   2.931
 1595SOL     OW 5683   0.399   4.901   6.203
 1595SOL    HW1 5684   0.417   4.883   6.106
 1595SOL    HW2 5685   0.380   4.998   6.215
 1596SOL     OW 5686   1.375   3.436   5.996
 1596SOL    HW1 5687   1.470   3.419   5.969
 1596SOL    HW2 5688   1.315   3.370   5.949
 1597SOL     OW 5689   3.058   5.483   0.756
 1597SOL    HW1 5690   2.971   5.533   0.756
 1597SOL    HW2 5691   3.059   5.418   0.833
 1598SOL     OW 5692   0.570   4.262   0.386
 1598SOL    HW1 5693   0.662   4.278   0.349
 1598SOL    HW2 5694   0.551   4.164   0.386
 1599SOL     OW 5695   4.647   3.647   5.570
 1599SOL    HW1 5696   4.736   3.605   5.585
 1599SOL    HW2 5697   4.593   3.590   5.508
 1600SOL     OW 5698   5.153   2.005   4.684
 1600SOL    HW1 5699   5.236   1.950   4.688
 1600SOL    HW2 5700   5.074   1.948   4.710
 1601SOL     OW 5701   0.646   5.084   4.962
 1601SOL    HW1 5702   0.690   5.132   4.887
 1601SOL    HW2 5703   0.617   4.993   4.931
 1602SOL     OW 5704   2.110   5.735   4.211
 1602SOL    HW1 5705   2.085   5.771   4.121
 1602SOL    HW2 5706   2.145   5.642   4.201
 1603SOL     OW 5707   1.112   6.294   1.605
 1603SOL    HW1 5708   1.184   6.256   1.663
 1603SOL    HW2 5709   1.024   6.255   1.631
 1604SOL     OW 5710   5.751   4.939   6.667
 1604SOL    HW1 5711   5.686   4.902   6.733
 1604SOL    HW2 5712   5.843   4.903   6.687
 1605SOL     OW 5713   6.721   0.097   1.891
 1605SOL    HW1 5714   6.656   0.143   1.830
 1605SOL    HW2 5715   6.676   0.021   1.937
 1606SOL     OW 5716   4.624   0.668   5.359
 1606SOL    HW1 5717   4.593   0.645   5.451
 1606SOL    HW2 5718   4.587   0.756   5.331
 1607SOL     OW 5719   5.249   2.740   0.894
 1607SOL    HW1 5720   5.177   2.805   0.867
 1607SOL    HW2 5721   5.315   2.787   0.952
 1608SOL     OW 5722   1.507   0.167   5.584
 1608SOL    HW1 5723   1.473   0.258   5.560
 1608SOL    HW2 5724   1.592   0.176   5.636
 1609SOL     OW 5725   4.849   1.465   6.546
 1609SOL    HW1 5726   4.860   1.460   6.446
 1609SOL    HW2 5727   4.759   1.505   6.567
 1610SOL     OW 5728   5.687   3.986   5.236
 1610SOL    HW1 5729   5.702   3.965   5.332
 1610SOL    HW2 5730   5.709   4.082   5.219
 1611SOL     OW 5731   3.897   3.528   1.845
 1611SOL    HW1 5732   3.914   3.464   1.770
 1611SOL    HW2 5733   3.978   3.586   1.858
 1612SOL     OW 5734   2.734   0.741   5.234
 1612SOL    HW1 5735   2.689   0.823   5.200
 1612SOL    HW2 5736   2.715   0.730   5.331
 1613SOL     OW 5737   2.215   5.950   0.777
 1613SOL    HW1 5738   2.192   5.900   0.860
 1613SOL    HW2 5739   2.211   5.889   0.698
 1614SOL     OW 5740   6.713   4.309   0.183
 1614SOL    HW1 5741   6.669   4.376   0.123
 1614SOL    HW2 5742   6.691   4.330   0.278
 1615SOL     OW 5743   6.632   4.720   1.583
 1615SOL    HW1 5744   6.647   4.788   1.655
 1615SOL    HW2 5745   6.615   4.766   1.496
 1616SOL     OW 5746   4.689   1.999   5.913
 1616SOL    HW1 5747   4.669   1.914   5.866
 1616SOL    HW2 5748   4.634   2.073   5.874
 1617SOL     OW 5749   6.017   6.938   1.410
 1617SOL    HW1 5750   5.948   6.994   1.365
 1617SOL    HW2 5751   5.973   6.869   1.468
 1618SOL     OW 5752   0.829   3.809   1.263
 1618SOL    HW1 5753   0.856   3.877   1.195
 1618SOL    HW2 5754   0.828   3.851   1.353
 1619SOL     OW 5755   1.410   2.873   4.484
 1619SOL    HW1 5756   1.394   2.971   4.496
 1619SOL    HW2 5757   1.491   2.845   4.535
 1620SOL     OW 5758   1.984   5.668   0.851
 1620SOL    HW1 5759   1.972   5.694   0.755
 1620SOL    HW2 5760   1.903   5.618   0.882
 1621SOL     OW 5761   0.437   1.031   0.208
 1621SOL    HW1 5762   0.501   1.068   0.140
 1621SOL    HW2 5763   0.390   0.952   0.168
 1622SOL     OW 5764   1.623   2.183   4.640
 1622SOL    HW1 5765   1.573   2.261   4.676
 1622SOL    HW2 5766   1.720   2.204   4.635
 1623SOL     OW 5767   2.490   2.817   6.010
 1623SOL    HW1 5768   2.562   2.879   6.040
 1623SOL    HW2 5769   2.531   2.740   5.960
 1624SOL     OW 5770   2.742   0.645   5.902
 1624SOL    HW1 5771   2.780   0.561   5.864
 1624SOL    HW2 5772   2.782   0.724   5.855
 1625SOL     OW 5773   1.317   5.300   2.417
 1625SOL    HW1 5774   1.284   5.352   2.495
 1625SOL    HW2 5775   1.391   5.350   2.372
 1626SOL     OW 5776   2.470   1.728   6.694
 1626SOL    HW1 5777   2.462   1.746   6.596
 1626SOL    HW2 5778   2.564   1.745   6.724
 1627SOL     OW 5779   6.894   2.169   4.461
 1627SOL    HW1 5780   6.992   2.147   4.455
 1627SOL    HW2 5781   6.870   2.232   4.387
 1628SOL     OW 5782   4.288   4.891   6.564
 1628SOL    HW1 5783   4.216   4.854   6.622
 1628SOL    HW2 5784   4.263   4.879   6.468
 1629SOL     OW 5785   2.736   2.388   3.970
 1629SOL    HW1 5786   2.804   2.316   3.955
 1629SOL    HW2 5787   2.765   2.444   4.048
 1630SOL     OW 5788   0.567   6.273   5.927
 1630SOL    HW1 5789   0.483   6.319   5.900
 1630SOL    HW2 5790   0.642   6.339   5.930
 1631SOL     OW 5791   6.543   0.482   5.891
 1631SOL    HW1 5792   6.580   0.405   5.840
 1631SOL    HW2 5793   6.445   0.490   5.873
 1632SOL     OW 5794   0.052   1.211   6.777
 1632SOL    HW1 5795   0.124   1.257   6.830
 1632SOL    HW2 5796   7.004   1.192   6.836
 1633SOL     OW 5797   5.271   2.543   3.122
 1633SOL    HW1 5798   5.313   2.529   3.212
 1633SOL    HW2 5799   5.311   2.624   3.079
 1634SOL     OW 5800   4.362   5.741   5.638
 1634SOL    HW1 5801   4.425   5.792   5.580
 1634SOL    HW2 5802   4.364   5.778   5.731
 1635SOL     OW 5803   6.408   5.333   4.548
 1635SOL    HW1 5804   6.480   5.272   4.580
 1635SOL    HW2 5805   6.367   5.379   4.626
 1636SOL     OW 5806   2.247   4.282   1.482
 1636SOL    HW1 5807   2.339   4.284   1.520
 1636SOL    HW2 5808   2.196   4.363   1.512
 1637SOL     OW 5809   6.637   1.604   3.014
 1637SOL    HW1 5810   6.721   1.570   3.057
 1637SOL    HW2 5811   6.654   1.693   2.972
 1638SOL     OW 5812   0.889   3.835   3.825
 1638SOL    HW1 5813   0.855   3.791   3.742
 1638SOL    HW2 5814   0.961   3.777   3.866
 1639SOL     OW 5815   5.099   6.384   2.583
 1639SOL    HW1 5816   5.151   6.389   2.498
 1639SOL    HW2 5817   5.080   6.476   2.616
 1640SOL     OW 5818   5.870   1.818   0.295
 1640SOL    HW1 5819   5.849   1.898   0.351
 1640SOL    HW2 5820   5.802   1.746   0.313
 1641SOL     OW 5821   5.900   2.801   3.469
 1641SOL    HW1 5822   5.925   2.737   3.397
 1641SOL    HW2 5823   5.885   2.752   3.554
 1642SOL     OW 5824   6.822   3.354   0.322
 1642SOL    HW1 5825   6.859   3.363   0.230
 1642SOL    HW2 5826   6.724   3.336   0.317
 1643SOL     OW 5827   2.902   6.253   4.309
 1643SOL    HW1 5828   2.821   6.209   4.271
 1643SOL    HW2 5829   2.984   6.218   4.263
 1644SOL     OW 5830   2.165   2.555   1.010
 1644SOL    HW1 5831   2.154   2.458   0.989
 1644SOL    HW2 5832   2.076   2.601   1.006
 1645SOL     OW 5833   3.155   6.269   5.146
 1645SOL    HW1 5834   3.161   6.267   5.046
 1645SOL    HW2 5835   3.067   6.232   5.175
 1646SOL     OW 5836   2.795   5.145   1.243
 1646SOL    HW1 5837   2.759   5.237   1.228
 1646SOL    HW2 5838   2.761   5.083   1.172
 1647SOL     OW 5839   5.589   2.405   4.373
 1647SOL    HW1 5840   5.654   2.471   4.410
 1647SOL    HW2 5841   5.523   2.454   4.315
 1648SOL     OW 5842   5.488   6.348   1.866
 1648SOL    HW1 5843   5.577   6.346   1.912
 1648SOL    HW2 5844   5.497   6.309   1.775
 1649SOL     OW 5845   3.191   0.501   2.989
 1649SOL    HW1 5846   3.240   0.458   2.913
 1649SOL    HW2 5847   3.129   0.571   2.954
 1650SOL     OW 5848   2.996   6.860   4.268
 1650SOL    HW1 5849   3.038   6.805   4.340
 1650SOL    HW2 5850   2.896   6.854   4.275
 1651SOL     OW 5851   0.540   0.805   1.001
 1651SOL    HW1 5852   0.568   0.748   1.077
 1651SOL    HW2 5853   0.508   0.894   1.035
 1652SOL     OW 5854   1.320   1.970   1.339
 1652SOL    HW1 5855   1.258   1.934   1.269
 1652SOL    HW2 5856   1.414   1.965   1.305
 1653SOL     OW 5857   0.447   5.586   1.342
 1653SOL    HW1 5858   0.366   5.617   1.391
 1653SOL    HW2 5859   0.493   5.664   1.300
 1654SOL     OW 5860   0.001   3.120   1.950
 1654SOL    HW1 5861   6.946   3.174   1.957
 1654SOL    HW2 5862   0.079   3.183   1.946
 1655SOL     OW 5863   5.505   4.034   6.104
 1655SOL    HW1 5864   5.571   3.987   6.163
 1655SOL    HW2 5865   5.551   4.108   6.054
 1656SOL     OW 5866   1.896   4.172   3.205
 1656SOL    HW1 5867   1.846   4.249   3.164
 1656SOL    HW2 5868   1.993   4.180   3.182
 1657SOL     OW 5869   0.166   1.466   4.811
 1657SOL    HW1 5870   0.123   1.376   4.803
 1657SOL    HW2 5871   0.100   1.530   4.851
 1658SOL     OW 5872   6.824   0.004   2.777
 1658SOL    HW1 5873   6.825   6.949   2.830
 1658SOL    HW2 5874   6.803   0.081   2.837
 1659SOL     OW 5875   3.684   1.877   6.382
 1659SOL    HW1 5876   3.664   1.872   6.284
 1659SOL    HW2 5877   3.608   1.920   6.430
 1660SOL     OW 5878   0.985   5.336   3.791
 1660SOL    HW1 5879   1.036   5.347   3.705
 1660SOL    HW2 5880   0.900   5.287   3.773
 1661SOL     OW 5881   3.280   1.901   1.698
 1661SOL    HW1 5882   3.255   1.891   1.601
 1661SOL    HW2 5883   3.351   1.970   1.707
 1662SOL     OW 5884   6.138   1.032   3.474
 1662SOL    HW1 5885   6.228   1.016   3.432
 1662SOL    HW2 5886   6.130   1.129   3.500
 1663SOL     OW 5887   2.377   0.477   3.152
 1663SOL    HW1 5888   2.320   0.496   3.232
 1663SOL    HW2 5889   2.332   0.513   3.070
 1664SOL     OW 5890   1.705   0.386   3.977
 1664SOL    HW1 5891   1.775   0.452   3.951
 1664SOL    HW2 5892   1.615   0.428   3.971
 1665SOL     OW 5893   6.932   1.655   3.233
 1665SOL    HW1 5894   6.916   1.564   3.194
 1665SOL    HW2 5895   6.910   1.653   3.331
 1666SOL     OW 5896   6.152   2.642   0.597
 1666SOL    HW1 5897   6.235   2.667   0.548
 1666SOL    HW2 5898   6.176   2.608   0.688
 1667SOL     OW 5899   5.429   6.559   0.546
 1667SOL    HW1 5900   5.429   6.503   0.463
 1667SOL    HW2 5901   5.405   6.653   0.523
 1668SOL     OW 5902   4.786   6.594   5.238
 1668SOL    HW1 5903   4.747   6.625   5.325
 1668SOL    HW2 5904   4.842   6.668   5.199
 1669SOL     OW 5905   6.105   6.614   0.324
 1669SOL    HW1 5906   6.088   6.520   0.354
 1669SOL    HW2 5907   6.181   6.615   0.260
 1670SOL     OW 5908   6.942   5.720   5.876
 1670SOL    HW1 5909   6.941   5.659   5.797
 1670SOL    HW2 5910   0.007   5.734   5.906
 1671SOL     OW 5911   4.117   2.322   1.271
 1671SOL    HW1 5912   4.028   2.367   1.282
 1671SOL    HW2 5913   4.169   2.368   1.200
 1672SOL     OW 5914   2.117   3.922   2.951
 1672SOL    HW1 5915   2.018   3.932   2.952
 1672SOL    HW2 5916   2.154   3.942   3.042
 1673SOL     OW 5917   0.662   2.484   4.744
 1673SOL    HW1 5918   0.682   2.387   4.755
 1673SOL    HW2 5919   0.566   2.501   4.767
 1674SOL     OW 5920   1.689   3.849   1.466
 1674SOL    HW1 5921   1.640   3.907   1.532
 1674SOL    HW2 5922   1.740   3.778   1.515
 1675SOL     OW 5923   4.151   0.125   6.648
 1675SOL    HW1 5924   4.115   0.092   6.561
 1675SOL    HW2 5925   4.212   0.202   6.632
 1676SOL     OW 5926   3.049   1.274   2.788
 1676SOL    HW1 5927   3.110   1.202   2.823
 1676SOL    HW2 5928   3.096   1.325   2.717
 1677SOL     OW 5929   4.677   2.229   5.351
 1677SOL    HW1 5930   4.657   2.276   5.265
 1677SOL    HW2 5931   4.643   2.135   5.346
 1678SOL     OW 5932   5.854   4.869   4.186
 1678SOL    HW1 5933   5.788   4.829   4.121
 1678SOL    HW2 5934   5.806   4.935   4.245
 1679SOL     OW 5935   1.753   3.776   5.599
 1679SOL    HW1 5936   1.848   3.749   5.613
 1679SOL    HW2 5937   1.737   3.792   5.502
 1680SOL     OW 5938   1.049   1.578   4.269
 1680SOL    HW1 5939   1.124   1.587   4.203
 1680SOL    HW2 5940   1.021   1.482   4.274
 1681SOL     OW 5941   6.630   5.613   1.358
 1681SOL    HW1 5942   6.575   5.596   1.440
 1681SOL    HW2 5943   6.574   5.601   1.276
 1682SOL     OW 5944   0.241   2.973   4.935
 1682SOL    HW1 5945   0.226   3.047   4.869
 1682SOL    HW2 5946   0.334   2.937   4.923
 1683SOL     OW 5947   4.272   5.183   0.823
 1683SOL    HW1 5948   4.192   5.165   0.880
 1683SOL    HW2 5949   4.302   5.278   0.835
 1684SOL     OW 5950   1.154   6.422   3.456
 1684SOL    HW1 5951   1.057   6.405   3.438
 1684SOL    HW2 5952   1.204   6.430   3.370
 1685SOL     OW 5953   1.847   1.249   6.555
 1685SOL    HW1 5954   1.785   1.187   6.602
 1685SOL    HW2 5955   1.835   1.241   6.456
 1686SOL     OW 5956   2.114   5.599   5.826
 1686SOL    HW1 5957   2.072   5.529   5.884
 1686SOL    HW2 5958   2.058   5.682   5.828
 1687SOL     OW 5959   1.941   2.981   1.731
 1687SOL    HW1 5960   1.957   3.074   1.696
 1687SOL    HW2 5961   2.016   2.955   1.791
 1688SOL     OW 5962   1.301   1.972   3.528
 1688SOL    HW1 5963   1.281   1.974   3.626
 1688SOL    HW2 5964   1.301   1.878   3.495
 1689SOL     OW 5965   3.307   1.075   1.908
 1689SOL    HW1 5966   3.358   0.998   1.945
 1689SOL    HW2 5967   3.359   1.117   1.834
 1690SOL     OW 5968   1.401   2.464   3.419
 1690SOL    HW1 5969   1.381   2.551   3.374
 1690SOL    HW2 5970   1.357   2.463   3.509
 1691SOL     OW 5971   5.382   3.928   3.373
 1691SOL    HW1 5972   5.445   3.972   3.437
 1691SOL    HW2 5973   5.391   3.969   3.283
 1692SOL     OW 5974   0.065   0.142   1.255
 1692SOL    HW1 5975   6.996   0.156   1.264
 1692SOL    HW2 5976   0.082   0.061   1.199
 1693SOL     OW 5977   1.829   2.981   3.046
 1693SOL    HW1 5978   1.878   3.037   3.113
 1693SOL    HW2 5979   1.854   2.885   3.058
 1694SOL     OW 5980   3.877   6.168   3.961
 1694SOL    HW1 5981   3.824   6.175   3.876
 1694SOL    HW2 5982   3.945   6.241   3.964
 1695SOL     OW 5983   2.574   1.282   4.427
 1695SOL    HW1 5984   2.655   1.310   4.479
 1695SOL    HW2 5985   2.504   1.353   4.433
 1696SOL     OW 5986   5.233   5.631   0.735
 1696SOL    HW1 5987   5.285   5.553   0.700
 1696SOL    HW2 5988   5.192   5.681   0.659
 1697SOL     OW 5989   0.147   6.650   1.205
 1697SOL    HW1 5990   0.232   6.613   1.244
 1697SOL    HW2 5991   0.121   6.597   1.125
 1698SOL     OW 5992   4.550   1.835   1.107
 1698SOL    HW1 5993   4.524   1.740   1.093
 1698SOL    HW2 5994   4.616   1.862   1.038
 1699SOL     OW 5995   2.760   1.858   1.968
 1699SOL    HW1 5996   2.806   1.801   1.900
 1699SOL    HW2 5997   2.807   1.946   1.974
 1700SOL     OW 5998   6.379   2.253   3.500
 1700SOL    HW1 5999   6.316   2.185   3.462
 1700SOL    HW2 6000   6.363   2.262   3.598
 1701SOL     OW 6001   5.221   2.790   4.707
 1701SOL    HW1 6002   5.246   2.699   4.674
 1701SOL    HW2 6003   5.137   2.821   4.663
 1702SOL     OW 6004   6.546   3.523   0.388
 1702SOL    HW1 6005   6.485   3.482   0.321
 1702SOL    HW2 6006   6.535   3.478   0.476
 1703SOL     OW 6007   3.288   4.005   2.727
 1703SOL    HW1 6008   3.362   4.041   2.670
 1703SOL    HW2 6009   3.214   3.971   2.669
 1704SOL     OW 6010   0.382   1.314   0.869
 1704SOL    HW1 6011   0.304   1.252   0.867
 1704SOL    HW2 6012   0.455   1.278   0.811
 1705SOL     OW 6013   3.227   2.141   1.932
 1705SOL    HW1 6014   3.292   2.151   1.857
 1705SOL    HW2 6015   3.277   2.129   2.018
 1706SOL     OW 6016   3.899   6.850   1.300
 1706SOL    HW1 6017   3.984   6.800   1.315
 1706SOL    HW2 6018   3.920   6.942   1.267
 1707SOL     OW 6019   4.073   1.707   2.044
 1707SOL    HW1 6020   4.009   1.781   2.061
 1707SOL    HW2 6021   4.071   1.643   2.121
 1708SOL     OW 6022   5.953   6.214   3.049
 1708SOL    HW1 6023   5.972   6.126   3.004
 1708SOL    HW2 6024   6.037   6.269   3.051
 1709SOL     OW 6025   2.664   6.468   1.673
 1709SOL    HW1 6026   2.675   6.472   1.772
 1709SOL    HW2 6027   2.576   6.426   1.651
 1710SOL     OW 6028   6.681   4.377   4.101
 1710SOL    HW1 6029   6.717   4.376   4.194
 1710SOL    HW2 6030   6.755   4.357   4.036
 1711SOL     OW 6031   1.962   4.505   5.291
 1711SOL    HW1 6032   2.005   4.415   5.279
 1711SOL    HW2 6033   1.866   4.493   5.319
 1712SOL     OW 6034   0.581   3.449   6.349
 1712SOL    HW1 6035   0.496   3.426   6.302
 1712SOL    HW2 6036   0.653   3.467   6.282
 1713SOL     OW 6037   2.868   2.103   1.314
 1713SOL    HW1 6038   2.934   2.031   1.292
 1713SOL    HW2 6039   2.884   2.182   1.254
 1714SOL     OW 6040   3.867   1.582   6.068
 1714SOL    HW1 6041   3.825   1.520   6.133
 1714SOL    HW2 6042   3.798   1.642   6.030
 1715SOL     OW 6043   6.850   3.362   2.917
 1715SOL    HW1 6044   6.886   3.455   2.910
 1715SOL    HW2 6045   6.893   3.305   2.848
 1716SOL     OW 6046   5.971   6.340   1.680
 1716SOL    HW1 6047   5.932   6.326   1.589
 1716SOL    HW2 6048   5.938   6.269   1.742
 1717SOL     OW 6049   2.590   6.463   6.436
 1717SOL    HW1 6050   2.514   6.461   6.501
 1717SOL    HW2 6051   2.584   6.547   6.381
 1718SOL     OW 6052   1.955   2.521   0.639
 1718SOL    HW1 6053   1.918   2.500   0.730
 1718SOL    HW2 6054   1.907   2.466   0.570
 1719SOL     OW 6055   2.787   3.824   1.511
 1719SOL    HW1 6056   2.710   3.768   1.542
 1719SOL    HW2 6057   2.778   3.917   1.546
 1720SOL     OW 6058   6.610   1.747   1.540
 1720SOL    HW1 6059   6.699   1.735   1.496
 1720SOL    HW2 6060   6.621   1.737   1.639
 1721SOL     OW 6061   1.437   6.900   2.158
 1721SOL    HW1 6062   1.476   6.929   2.246
 1721SOL    HW2 6063   1.417   6.802   2.161
 1722SOL     OW 6064   5.238   1.270   3.363
 1722SOL    HW1 6065   5.325   1.318   3.368
 1722SOL    HW2 6066   5.167   1.327   3.405
 1723SOL     OW 6067   6.836   2.084   3.695
 1723SOL    HW1 6068   6.842   2.025   3.614
 1723SOL    HW2 6069   6.924   2.130   3.708
 1724SOL     OW 6070   6.057   1.101   0.955
 1724SOL    HW1 6071   5.980   1.134   0.900
 1724SOL    HW2 6072   6.085   1.173   1.019
 1725SOL     OW 6073   3.444   4.477   0.403
 1725SOL    HW1 6074   3.389   4.456   0.484
 1725SOL    HW2 6075   3.533   4.512   0.432
 1726SOL     OW 6076   0.129   4.479   4.811
 1726SOL    HW1 6077   0.118   4.436   4.721
 1726SOL    HW2 6078   0.201   4.547   4.807
 1727SOL     OW 6079   3.552   3.095   3.879
 1727SOL    HW1 6080   3.509   3.168   3.932
 1727SOL    HW2 6081   3.594   3.029   3.941
 1728SOL     OW 6082   5.051   4.813   4.172
 1728SOL    HW1 6083   4.974   4.869   4.203
 1728SOL    HW2 6084   5.020   4.753   4.097
 1729SOL     OW 6085   2.196   3.981   3.985
 1729SOL    HW1 6086   2.139   3.950   3.909
 1729SOL    HW2 6087   2.214   3.905   4.047
 1730SOL     OW 6088   6.572   0.510   5.094
 1730SOL    HW1 6089   6.645   0.474   5.037
 1730SOL    HW2 6090   6.539   0.596   5.056
 1731SOL     OW 6091   1.192   5.044   2.358
 1731SOL    HW1 6092   1.145   5.040   2.269
 1731SOL    HW2 6093   1.264   5.113   2.355
 1732SOL     OW 6094   2.080   3.984   6.316
 1732SOL    HW1 6095   2.042   4.010   6.227
 1732SOL    HW2 6096   2.064   4.058   6.382
 1733SOL     OW 6097   1.543   3.186   2.113
 1733SOL    HW1 6098   1.611   3.241   2.064
 1733SOL    HW2 6099   1.502   3.240   2.185
 1734SOL     OW 6100   4.702   3.163   1.637
 1734SOL    HW1 6101   4.640   3.143   1.713
 1734SOL    HW2 6102   4.649   3.176   1.553
 1735SOL     OW 6103   5.966   5.532   1.656
 1735SOL    HW1 6104   5.883   5.477   1.645
 1735SOL    HW2 6105   5.941   5.628   1.670
 1736SOL     OW 6106   4.832   2.157   0.061
 1736SOL    HW1 6107   4.931   2.142   0.057
 1736SOL    HW2 6108   4.796   2.163   6.998
 1737SOL     OW 6109   3.176   0.233   3.870
 1737SOL    HW1 6110   3.245   0.222   3.941
 1737SOL    HW2 6111   3.177   0.153   3.810
 1738SOL     OW 6112   2.151   2.818   3.724
 1738SOL    HW1 6113   2.141   2.857   3.632
 1738SOL    HW2 6114   2.132   2.888   3.792
 1739SOL     OW 6115   4.662   2.443   5.162
 1739SOL    HW1 6116   4.674   2.538   5.189
 1739SOL    HW2 6117   4.695   2.430   5.069
 1740SOL     OW 6118   0.233   1.014   6.736
 1740SOL    HW1 6119   0.301   1.029   6.807
 1740SOL    HW2 6120   0.156   1.076   6.749
 1741SOL     OW 6121   2.532   1.251   2.575
 1741SOL    HW1 6122   2.549   1.174   2.636
 1741SOL    HW2 6123   2.511   1.218   2.483
 1742SOL     OW 6124   3.892   5.722   5.760
 1742SOL    HW1 6125   3.940   5.682   5.837
 1742SOL    HW2 6126   3.798   5.690   5.759
 1743SOL     OW 6127   2.318   1.412   2.621
 1743SOL    HW1 6128   2.390   1.343   2.614
 1743SOL    HW2 6129   2.353   1.499   2.586
 1744SOL     OW 6130   1.351   6.882   1.667
 1744SOL    HW1 6131   1.366   6.870   1.765
 1744SOL    HW2 6132   1.436   6.913   1.624
 1745SOL     OW 6133   6.686   1.309   4.653
 1745SOL    HW1 6134   6.662   1.228   4.707
 1745SOL    HW2 6135   6.694   1.283   4.556
 1746SOL     OW 6136   2.557   5.953   5.549
 1746SOL    HW1 6137   2.536   6.051   5.547
 1746SOL    HW2 6138   2.472   5.901   5.548
 1747SOL     OW 6139   5.048   6.697   2.681
 1747SOL    HW1 6140   5.073   6.775   2.625
 1747SOL    HW2 6141   5.075   6.714   2.776
 1748SOL     OW 6142   0.104   0.644   4.070
 1748SOL    HW1 6143   0.192   0.653   4.117
 1748SOL    HW2 6144   0.107   0.563   4.011
 1749SOL     OW 6145   3.488   6.650   5.488
 1749SOL    HW1 6146   3.481   6.560   5.444
 1749SOL    HW2 6147   3.480   6.722   5.418
 1750SOL     OW 6148   5.712   1.399   3.483
 1750SOL    HW1 6149   5.635   1.429   3.426
 1750SOL    HW2 6150   5.751   1.478   3.530
 1751SOL     OW 6151   3.082   5.126   4.613
 1751SOL    HW1 6152   2.993   5.080   4.609
 1751SOL    HW2 6153   3.069   5.221   4.641
 1752SOL     OW 6154   6.859   2.348   1.486
 1752SOL    HW1 6155   6.852   2.257   1.445
 1752SOL    HW2 6156   6.769   2.376   1.520
 1753SOL     OW 6157   0.573   1.383   0.292
 1753SOL    HW1 6158   0.543   1.370   0.387
 1753SOL    HW2 6159   0.496   1.415   0.237
 1754SOL     OW 6160   3.724   3.191   0.975
 1754SOL    HW1 6161   3.705   3.289   0.975
 1754SOL    HW2 6162   3.767   3.165   0.888
 1755SOL     OW 6163   5.703   5.019   2.060
 1755SOL    HW1 6164   5.605   5.035   2.051
 1755SOL    HW2 6165   5.753   5.073   1.992
 1756SOL     OW 6166   5.268   4.284   5.478
 1756SOL    HW1 6167   5.320   4.203   5.450
 1756SOL    HW2 6168   5.251   4.281   5.576
 1757SOL     OW 6169   2.157   6.739   4.680
 1757SOL    HW1 6170   2.217   6.659   4.678
 1757SOL    HW2 6171   2.154   6.780   4.589
 1758SOL     OW 6172   2.854   0.774   3.866
 1758SOL    HW1 6173   2.930   0.755   3.805
 1758SOL    HW2 6174   2.768   0.767   3.816
 1759SOL     OW 6175   0.383   5.510   6.383
 1759SOL    HW1 6176   0.334   5.555   6.308
 1759SOL    HW2 6177   0.367   5.560   6.468
 1760SOL     OW 6178   5.978   1.636   1.318
 1760SOL    HW1 6179   6.027   1.617   1.403
 1760SOL    HW2 6180   5.905   1.703   1.336
 1761SOL     OW 6181   6.824   6.822   0.540
 1761SOL    HW1 6182   6.901   6.876   0.573
 1761SOL    HW2 6183   6.814   6.740   0.597
 1762SOL     OW 6184   6.632   1.701   5.165
 1762SOL    HW1 6185   6.717   1.717   5.115
 1762SOL    HW2 6186   6.564   1.659   5.105
 1763SOL     OW 6187   1.535   3.799   4.338
 1763SOL    HW1 6188   1.531   3.888   4.384
 1763SOL    HW2 6189   1.593   3.737   4.391
 1764SOL     OW 6190   1.914   3.555   2.655
 1764SOL    HW1 6191   1.852   3.487   2.694
 1764SOL    HW2 6192   1.972   3.592   2.728
 1765SOL     OW 6193   3.437   2.069   6.856
 1765SOL    HW1 6194   3.379   2.004   6.904
 1765SOL    HW2 6195   3.426   2.160   6.897
 1766SOL     OW 6196   5.284   3.006   3.913
 1766SOL    HW1 6197   5.352   2.985   3.983
 1766SOL    HW2 6198   5.311   3.089   3.864
 1767SOL     OW 6199   5.393   4.181   2.680
 1767SOL    HW1 6200   5.415   4.266   2.632
 1767SOL    HW2 6201   5.319   4.198   2.745
 1768SOL     OW 6202   4.068   0.675   5.007
 1768SOL    HW1 6203   4.029   0.718   4.926
 1768SOL    HW2 6204   4.099   0.745   5.070
 1769SOL     OW 6205   4.219   2.280   4.112
 1769SOL    HW1 6206   4.195   2.260   4.017
 1769SOL    HW2 6207   4.274   2.364   4.115
 1770SOL     OW 6208   1.669   6.005   5.175
 1770SOL    HW1 6209   1.679   6.049   5.264
 1770SOL    HW2 6210   1.720   6.056   5.106
 1771SOL     OW 6211   3.043   5.350   6.689
 1771SOL    HW1 6212   2.970   5.357   6.756
 1771SOL    HW2 6213   3.122   5.403   6.720
 1772SOL     OW 6214   3.380   6.277   3.742
 1772SOL    HW1 6215   3.379   6.183   3.777
 1772SOL    HW2 6216   3.473   6.304   3.720
 1773SOL     OW 6217   2.092   5.037   5.703
 1773SOL    HW1 6218   2.087   5.123   5.753
 1773SOL    HW2 6219   2.122   5.054   5.609
 1774SOL     OW 6220   4.687   6.088   1.739
 1774SOL    HW1 6221   4.722   6.145   1.665
 1774SOL    HW2 6222   4.762   6.063   1.800
 1775SOL     OW 6223   1.909   4.341   3.492
 1775SOL    HW1 6224   1.824   4.334   3.544
 1775SOL    HW2 6225   1.899   4.296   3.404
 1776SOL     OW 6226   3.037   6.920   3.569
 1776SOL    HW1 6227   3.066   7.016   3.569
 1776SOL    HW2 6228   3.084   6.870   3.496
 1777SOL     OW 6229   3.520   5.366   5.838
 1777SOL    HW1 6230   3.607   5.373   5.789
 1777SOL    HW2 6231   3.482   5.274   5.827
 1778SOL     OW 6232   4.258   3.476   5.475
 1778SOL    HW1 6233   4.169   3.506   5.441
 1778SOL    HW2 6234   4.330   3.508   5.414
 1779SOL     OW 6235   4.265   1.047   4.476
 1779SOL    HW1 6236   4.232   0.977   4.540
 1779SOL    HW2 6237   4.357   1.075   4.502
 1780SOL     OW 6238   3.325   2.904   6.572
 1780SOL    HW1 6239   3.368   2.989   6.539
 1780SOL    HW2 6240   3.226   2.914   6.566
 1781SOL     OW 6241   4.608   5.877   3.906
 1781SOL    HW1 6242   4.648   5.822   3.979
 1781SOL    HW2 6243   4.647   5.969   3.907
 1782SOL     OW 6244   2.917   1.838   2.633
 1782SOL    HW1 6245   2.953   1.931   2.623
 1782SOL    HW2 6246   2.824   1.841   2.668
 1783SOL     OW 6247   1.641   5.207   6.365
 1783SOL    HW1 6248   1.677   5.126   6.411
 1783SOL    HW2 6249   1.555   5.184   6.319
 1784SOL     OW 6250   4.203   1.253   5.929
 1784SOL    HW1 6251   4.240   1.331   5.979
 1784SOL    HW2 6252   4.223   1.264   5.831
 1785SOL     OW 6253   6.265   3.912   3.455
 1785SOL    HW1 6254   6.192   3.895   3.522
 1785SOL    HW2 6255   6.312   3.997   3.478
 1786SOL     OW 6256   1.965   2.492   0.105
 1786SOL    HW1 6257   1.876   2.531   0.130
 1786SOL    HW2 6258   2.017   2.560   0.054
 1787SOL     OW 6259   3.293   1.020   5.220
 1787SOL    HW1 6260   3.226   1.085   5.258
 1787SOL    HW2 6261   3.286   1.019   5.121
 1788SOL     OW 6262   2.925   2.963   6.988
 1788SOL    HW1 6263   2.888   2.972   0.051
 1788SOL    HW2 6264   2.931   2.866   6.964
 1789SOL     OW 6265   6.222   2.045   3.444
 1789SOL    HW1 6266   6.133   2.080   3.472
 1789SOL    HW2 6267   6.218   1.945   3.435
 1790SOL     OW 6268   4.110   5.780   4.148
 1790SOL    HW1 6269   4.026   5.816   4.107
 1790SOL    HW2 6270   4.185   5.845   4.134
 1791SOL     OW 6271   5.800   1.021   3.064
 1791SOL    HW1 6272   5.801   1.108   3.016
 1791SOL    HW2 6273   5.839   1.033   3.156
 1792SOL     OW 6274   6.755   3.132   4.905
 1792SOL    HW1 6275   6.832   3.087   4.860
 1792SOL    HW2 6276   6.788   3.212   4.955
 1793SOL     OW 6277   6.446   6.956   3.292
 1793SOL    HW1 6278   6.461   6.937   3.389
 1793SOL    HW2 6279   6.408   6.874   3.248
 1794SOL     OW 6280   5.384   5.781   5.736
 1794SOL    HW1 6281   5.369   5.737   5.824
 1794SOL    HW2 6282   5.326   5.862   5.728
 1795SOL     OW 6283   1.135   2.132   0.711
 1795SOL    HW1 6284   1.234   2.120   0.715
 1795SOL    HW2 6285   1.106   2.138   0.616
 1796SOL     OW 6286   2.412   0.558   4.455
 1796SOL    HW1 6287   2.392   0.643   4.406
 1796SOL    HW2 6288   2.395   0.571   4.553
 1797SOL     OW 6289   1.405   6.787   0.168
 1797SOL    HW1 6290   1.411   6.712   0.234
 1797SOL    HW2 6291   1.317   6.782   0.120
 1798SOL     OW 6292   5.329   2.562   3.664
 1798SOL    HW1 6293   5.352   2.659   3.664
 1798SOL    HW2 6294   5.293   2.537   3.574
 1799SOL     OW 6295   6.961   2.000   6.136
 1799SOL    HW1 6296   6.942   1.905   6.160
 1799SOL    HW2 6297   0.029   2.011   6.120
 1800SOL     OW 6298   3.952   4.754   1.978
 1800SOL    HW1 6299   3.977   4.700   1.898
 1800SOL    HW2 6300   3.853   4.763   1.983
 1801SOL     OW 6301   0.327   0.705   1.934
 1801SOL    HW1 6302   0.353   0.628   1.876
 1801SOL    HW2 6303   0.407   0.737   1.984
 1802SOL     OW 6304   5.550   5.371   3.398
 1802SOL    HW1 6305   5.506   5.411   3.318
 1802SOL    HW2 6306   5.645   5.403   3.404
 1803SOL     OW 6307   0.751   5.722   6.774
 1803SOL    HW1 6308   0.697   5.645   6.740
 1803SOL    HW2 6309   0.821   5.688   6.837
 1804SOL     OW 6310   2.598   3.873   5.316
 1804SOL    HW1 6311   2.560   3.887   5.408
 1804SOL    HW2 6312   2.533   3.908   5.248
 1805SOL     OW 6313   6.195   3.973   5.775
 1805SOL    HW1 6314   6.193   3.991   5.677
 1805SOL    HW2 6315   6.114   3.919   5.800
 1806SOL     OW 6316   0.200   0.795   0.362
 1806SOL    HW1 6317   0.247   0.769   0.278
 1806SOL    HW2 6318   0.129   0.728   0.383
 1807SOL     OW 6319   5.525   2.648   4.948
 1807SOL    HW1 6320   5.551   2.708   5.023
 1807SOL    HW2 6321   5.427   2.626   4.955
 1808SOL     OW 6322   0.231   4.534   6.282
 1808SOL    HW1 6323   0.190   4.472   6.349
 1808SOL    HW2 6324   0.306   4.487   6.235
 1809SOL     OW 6325   2.050   2.266   4.748
 1809SOL    HW1 6326   2.072   2.361   4.728
 1809SOL    HW2 6327   1.995   2.261   4.831
 1810SOL     OW 6328   3.012   6.861   3.179
 1810SOL    HW1 6329   3.035   6.927   3.107
 1810SOL    HW2 6330   2.942   6.901   3.239
 1811SOL     OW 6331   6.058   5.805   3.600
 1811SOL    HW1 6332   6.039   5.818   3.697
 1811SOL    HW2 6333   6.037   5.889   3.550
 1812SOL     OW 6334   4.448   6.315   5.174
 1812SOL    HW1 6335   4.521   6.316   5.107
 1812SOL    HW2 6336   4.472   6.254   5.249
 1813SOL     OW 6337   6.591   5.260   1.262
 1813SOL    HW1 6338   6.645   5.281   1.343
 1813SOL    HW2 6339   6.567   5.344   1.215
 1814SOL     OW 6340   6.391   0.981   1.227
 1814SOL    HW1 6341   6.395   0.918   1.304
 1814SOL    HW2 6342   6.370   1.073   1.260
 1815SOL     OW 6343   7.018   2.127   2.604
 1815SOL    HW1 6344   6.947   2.057   2.600
 1815SOL    HW2 6345   0.077   2.086   2.584
 1816SOL     OW 6346   2.900   2.930   1.028
 1816SOL    HW1 6347   2.843   2.871   0.971
 1816SOL    HW2 6348   2.942   3.001   0.972
 1817SOL     OW 6349   2.737   6.974   2.657
 1817SOL    HW1 6350   2.801   6.990   2.732
 1817SOL    HW2 6351   2.656   0.001   2.670
 1818SOL     OW 6352   1.615   0.020   2.624
 1818SOL    HW1 6353   1.696   0.073   2.599
 1818SOL    HW2 6354   1.630   7.006   2.713
 1819SOL     OW 6355   1.707   4.407   1.441
 1819SOL    HW1 6356   1.637   4.412   1.511
 1819SOL    HW2 6357   1.707   4.492   1.387
 1820SOL     OW 6358   4.541   1.064   2.437
 1820SOL    HW1 6359   4.486   0.988   2.470
 1820SOL    HW2 6360   4.581   1.113   2.514
 1821SOL     OW 6361   0.708   1.085   2.162
 1821SOL    HW1 6362   0.704   1.144   2.081
 1821SOL    HW2 6363   0.792   1.104   2.212
 1822SOL     OW 6364   2.747   3.191   0.834
 1822SOL    HW1 6365   2.846   3.204   0.840
 1822SOL    HW2 6366   2.712   3.240   0.754
 1823SOL     OW 6367   3.087   5.863   3.099
 1823SOL    HW1 6368   3.091   5.895   3.005
 1823SOL    HW2 6369   3.162   5.799   3.116
 1824SOL     OW 6370   3.141   2.346   0.786
 1824SOL    HW1 6371   3.238   2.346   0.765
 1824SOL    HW2 6372   3.089   2.364   0.703
 1825SOL     OW 6373   1.516   1.155   2.904
 1825SOL    HW1 6374   1.545   1.062   2.930
 1825SOL    HW2 6375   1.514   1.213   2.985
 1826SOL     OW 6376   3.242   0.424   1.201
 1826SOL    HW1 6377   3.285   0.426   1.291
 1826SOL    HW2 6378   3.240   0.516   1.162
 1827SOL     OW 6379   0.032   5.598   2.324
 1827SOL    HW1 6380   0.038   5.625   2.420
 1827SOL    HW2 6381   0.016   5.500   2.317
 1828SOL     OW 6382   0.549   2.623   0.501
 1828SOL    HW1 6383   0.640   2.619   0.542
 1828SOL    HW2 6384   0.555   2.670   0.413
 1829SOL     OW 6385   4.039   0.094   3.420
 1829SOL    HW1 6386   3.946   0.058   3.409
 1829SOL    HW2 6387   4.048   0.178   3.367
 1830SOL     OW 6388   5.551   6.014   4.342
 1830SOL    HW1 6389   5.554   6.072   4.423
 1830SOL    HW2 6390   5.502   5.929   4.363
 1831SOL     OW 6391   5.819   0.063   2.670
 1831SOL    HW1 6392   5.835   0.134   2.602
 1831SOL    HW2 6393   5.740   0.087   2.726
 1832SOL     OW 6394   5.515   1.490   0.714
 1832SOL    HW1 6395   5.519   1.548   0.633
 1832SOL    HW2 6396   5.607   1.476   0.750
 1833SOL     OW 6397   5.719   1.160   5.248
 1833SOL    HW1 6398   5.659   1.114   5.314
 1833SOL    HW2 6399   5.762   1.092   5.189
 1834SOL     OW 6400   2.970   3.711   0.498
 1834SOL    HW1 6401   2.920   3.633   0.536
 1834SOL    HW2 6402   3.062   3.682   0.473
 1835SOL     OW 6403   1.484   4.383   1.617
 1835SOL    HW1 6404   1.447   4.324   1.690
 1835SOL    HW2 6405   1.458   4.478   1.636
 1836SOL     OW 6406   5.768   1.556   0.839
 1836SOL    HW1 6407   5.784   1.506   0.924
 1836SOL    HW2 6408   5.703   1.630   0.855
 1837SOL     OW 6409   0.807   2.342   3.680
 1837SOL    HW1 6410   0.853   2.266   3.727
 1837SOL    HW2 6411   0.847   2.355   3.589
 1838SOL     OW 6412   0.018   2.143   4.165
 1838SOL    HW1 6413   0.078   2.160   4.243
 1838SOL    HW2 6414   6.976   2.213   4.162
 1839SOL     OW 6415   4.399   2.354   5.194
 1839SOL    HW1 6416   4.483   2.404   5.175
 1839SOL    HW2 6417   4.322   2.402   5.152
 1840SOL     OW 6418   3.765   5.759   1.197
 1840SOL    HW1 6419   3.758   5.659   1.204
 1840SOL    HW2 6420   3.682   5.795   1.154
 1841SOL     OW 6421   2.216   2.803   4.296
 1841SOL    HW1 6422   2.230   2.865   4.373
 1841SOL    HW2 6423   2.125   2.762   4.302
 1842SOL     OW 6424   1.244   5.642   0.507
 1842SOL    HW1 6425   1.269   5.736   0.484
 1842SOL    HW2 6426   1.315   5.601   0.564
 1843SOL     OW 6427   0.562   2.079   4.485
 1843SOL    HW1 6428   0.487   2.041   4.431
 1843SOL    HW2 6429   0.529   2.106   4.575
 1844SOL     OW 6430   3.457   0.604   5.523
 1844SOL    HW1 6431   3.432   0.691   5.482
 1844SOL    HW2 6432   3.472   0.536   5.451
 1845SOL     OW 6433   2.393   6.960   5.285
 1845SOL    HW1 6434   2.350   0.017   5.308
 1845SOL    HW2 6435   2.450   6.930   5.362
 1846SOL     OW 6436   3.795   2.027   0.237
 1846SOL    HW1 6437   3.698   2.004   0.232
 1846SOL    HW2 6438   3.822   2.039   0.332
 1847SOL     OW 6439   1.452   1.324   6.973
 1847SOL    HW1 6440   1.530   1.330   6.912
 1847SOL    HW2 6441   1.477   1.272   0.025
 1848SOL     OW 6442   1.289   6.943   1.925
 1848SOL    HW1 6443   1.256   0.007   1.915
 1848SOL    HW2 6444   1.351   6.938   2.003
 1849SOL     OW 6445   3.724   1.887   0.861
 1849SOL    HW1 6446   3.742   1.971   0.911
 1849SOL    HW2 6447   3.776   1.887   0.776
 1850SOL     OW 6448   6.407   2.964   2.507
 1850SOL    HW1 6449   6.414   3.050   2.558
 1850SOL    HW2 6450   6.413   2.887   2.571
 1851SOL     OW 6451   0.358   1.751   1.188
 1851SOL    HW1 6452   0.369   1.654   1.171
 1851SOL    HW2 6453   0.433   1.801   1.144
 1852SOL     OW 6454   5.956   3.717   0.973
 1852SOL    HW1 6455   5.914   3.647   1.030
 1852SOL    HW2 6456   5.932   3.700   0.877
 1853SOL     OW 6457   0.568   2.904   2.346
 1853SOL    HW1 6458   0.485   2.868   2.304
 1853SOL    HW2 6459   0.570   3.003   2.337
 1854SOL     OW 6460   2.889   5.853   3.298
 1854SOL    HW1 6461   2.963   5.842   3.231
 1854SOL    HW2 6462   2.820   5.916   3.262
 1855SOL     OW 6463   4.549   3.960   6.806
 1855SOL    HW1 6464   4.475   3.934   6.745
 1855SOL    HW2 6465   4.512   3.985   6.896
 1856SOL     OW 6466   6.748   3.523   5.275
 1856SOL    HW1 6467   6.670   3.556   5.327
 1856SOL    HW2 6468   6.805   3.600   5.247
 1857SOL     OW 6469   3.471   1.094   6.141
 1857SOL    HW1 6470   3.417   1.025   6.094
 1857SOL    HW2 6471   3.524   1.051   6.214
 1858SOL     OW 6472   5.954   2.635   3.872
 1858SOL    HW1 6473   5.892   2.575   3.923
 1858SOL    HW2 6474   5.986   2.587   3.790
 1859SOL     OW 6475   4.242   1.581   3.248
 1859SOL    HW1 6476   4.184   1.650   3.290
 1859SOL    HW2 6477   4.239   1.497   3.302
 1860SOL     OW 6478   6.404   0.395   3.675
 1860SOL    HW1 6479   6.454   0.358   3.753
 1860SOL    HW2 6480   6.391   0.323   3.607
 1861SOL     OW 6481   4.780   6.674   2.652
 1861SOL    HW1 6482   4.752   6.633   2.738
 1861SOL    HW2 6483   4.879   6.663   2.641
 1862SOL     OW 6484   2.252   0.303   6.416
 1862SOL    HW1 6485   2.159   0.335   6.398
 1862SOL    HW2 6486   2.270   0.305   6.514
 1863SOL     OW 6487   2.341   2.012   0.148
 1863SOL    HW1 6488   2.411   2.020   0.077
 1863SOL    HW2 6489   2.285   1.931   0.130
 1864SOL     OW 6490   1.075   6.627   5.769
 1864SOL    HW1 6491   1.113   6.576   5.692
 1864SOL    HW2 6492   0.975   6.631   5.760
 1865SOL     OW 6493   3.636   6.826   5.629
 1865SOL    HW1 6494   3.588   6.893   5.686
 1865SOL    HW2 6495   3.574   6.751   5.607
 1866SOL     OW 6496   4.236   5.005   3.179
 1866SOL    HW1 6497   4.143   5.001   3.142
 1866SOL    HW2 6498   4.299   5.033   3.106
 1867SOL     OW 6499   1.220   4.685   0.326
 1867SOL    HW1 6500   1.309   4.731   0.326
 1867SOL    HW2 6501   1.197   4.657   0.232
 1868SOL     OW 6502   4.938   3.942   0.646
 1868SOL    HW1 6503   4.890   3.885   0.579
 1868SOL    HW2 6504   4.894   3.931   0.736
 1869SOL     OW 6505   6.544   1.981   5.435
 1869SOL    HW1 6506   6.491   1.973   5.520
 1869SOL    HW2 6507   6.556   2.077   5.411
 1870SOL     OW 6508   1.988   3.249   5.942
 1870SOL    HW1 6509   2.005   3.287   6.033
 1870SOL    HW2 6510   1.891   3.258   5.919
 1871SOL     OW 6511   0.635   0.420   6.744
 1871SOL    HW1 6512   0.712   0.417   6.681
 1871SOL    HW2 6513   0.664   0.385   6.834
 1872SOL     OW 6514   3.610   3.254   6.989
 1872SOL    HW1 6515   3.684   3.195   6.955
 1872SOL    HW2 6516   3.573   3.307   6.913
 1873SOL     OW 6517   4.908   1.408   5.264
 1873SOL    HW1 6518   4.839   1.397   5.335
 1873SOL    HW2 6519   4.998   1.418   5.306
 1874SOL     OW 6520   2.720   0.901   0.933
 1874SOL    HW1 6521   2.642   0.906   0.871
 1874SOL    HW2 6522   2.696   0.844   1.011
 1875SOL     OW 6523   0.416   1.415   0.038
 1875SOL    HW1 6524   0.371   1.407   6.979
 1875SOL    HW2 6525   0.376   1.493   0.088
 1876SOL     OW 6526   3.959   0.249   5.795
 1876SOL    HW1 6527   3.927   0.259   5.889
 1876SOL    HW2 6528   3.972   0.152   5.774
 1877SOL     OW 6529   0.722   0.395   2.496
 1877SOL    HW1 6530   0.703   0.493   2.510
 1877SOL    HW2 6531   0.726   0.349   2.585
 1878SOL     OW 6532   6.475   1.683   3.627
 1878SOL    HW1 6533   6.527   1.712   3.546
 1878SOL    HW2 6534   6.437   1.763   3.672
 1879SOL     OW 6535   1.074   4.335   3.935
 1879SOL    HW1 6536   1.101   4.240   3.953
 1879SOL    HW2 6537   0.978   4.338   3.908
 1880SOL     OW 6538   6.981   1.597   4.952
 1880SOL    HW1 6539   6.903   1.620   4.895
 1880SOL    HW2 6540   7.008   1.676   5.006
 1881SOL     OW 6541   6.225   2.169   3.135
 1881SOL    HW1 6542   6.135   2.198   3.166
 1881SOL    HW2 6543   6.294   2.232   3.172
 1882SOL     OW 6544   1.022   4.150   6.701
 1882SOL    HW1 6545   1.106   4.175   6.751
 1882SOL    HW2 6546   1.046   4.095   6.621
 1883SOL     OW 6547   6.964   2.200   3.097
 1883SOL    HW1 6548   6.975   2.136   3.021
 1883SOL    HW2 6549   6.878   2.181   3.144
 1884SOL     OW 6550   0.150   1.715   0.426
 1884SOL    HW1 6551   0.105   1.700   0.514
 1884SOL    HW2 6552   0.200   1.802   0.429
 1885SOL     OW 6553   1.924   1.846   6.482
 1885SOL    HW1 6554   1.968   1.813   6.399
 1885SOL    HW2 6555   1.907   1.944   6.474
 1886SOL     OW 6556   1.572   0.266   1.726
 1886SOL    HW1 6557   1.563   0.197   1.798
 1886SOL    HW2 6558   1.669   0.290   1.715
 1887SOL     OW 6559   0.642   5.299   5.361
 1887SOL    HW1 6560   0.551   5.264   5.385
 1887SOL    HW2 6561   0.632   5.390   5.321
 1888SOL     OW 6562   3.103   2.599   6.669
 1888SOL    HW1 6563   3.125   2.681   6.616
 1888SOL    HW2 6564   3.104   2.621   6.767
 1889SOL     OW 6565   0.363   3.755   5.224
 1889SOL    HW1 6566   0.339   3.697   5.301
 1889SOL    HW2 6567   0.365   3.851   5.253
 1890SOL     OW 6568   1.375   5.797   4.012
 1890SOL    HW1 6569   1.302   5.782   4.079
 1890SOL    HW2 6570   1.399   5.894   4.010
 1891SOL     OW 6571   4.893   2.747   1.482
 1891SOL    HW1 6572   4.820   2.815   1.475
 1891SOL    HW2 6573   4.854   2.655   1.472
 1892SOL     OW 6574   1.185   0.042   2.263
 1892SOL    HW1 6575   1.216   0.128   2.222
 1892SOL    HW2 6576   1.150   7.011   2.191
 1893SOL     OW 6577   3.346   3.275   1.702
 1893SOL    HW1 6578   3.298   3.363   1.701
 1893SOL    HW2 6579   3.388   3.260   1.612
 1894SOL     OW 6580   3.999   3.118   3.782
 1894SOL    HW1 6581   3.933   3.182   3.742
 1894SOL    HW2 6582   4.057   3.081   3.710
 1895SOL     OW 6583   4.382   0.214   0.870
 1895SOL    HW1 6584   4.356   0.294   0.815
 1895SOL    HW2 6585   4.388   0.134   0.811
 1896SOL     OW 6586   5.809   1.839   1.376
 1896SOL    HW1 6587   5.848   1.931   1.382
 1896SOL    HW2 6588   5.783   1.808   1.467
 1897SOL     OW 6589   2.208   5.334   1.620
 1897SOL    HW1 6590   2.230   5.291   1.533
 1897SOL    HW2 6591   2.249   5.425   1.624
 1898SOL     OW 6592   2.079   5.070   3.938
 1898SOL    HW1 6593   2.091   5.031   4.029
 1898SOL    HW2 6594   2.060   4.997   3.872
 1899SOL     OW 6595   0.059   1.447   0.886
 1899SOL    HW1 6596   0.110   1.506   0.949
 1899SOL    HW2 6597   0.078   1.351   0.907
 1900SOL     OW 6598   2.239   0.561   6.916
 1900SOL    HW1 6599   2.275   0.587   6.826
 1900SOL    HW2 6600   2.258   0.634   6.982
 1901SOL     OW 6601   1.824   2.281   0.945
 1901SOL    HW1 6602   1.923   2.277   0.939
 1901SOL    HW2 6603   1.796   2.374   0.971
 1902SOL     OW 6604   2.281   0.887   4.633
 1902SOL    HW1 6605   2.279   0.977   4.678
 1902SOL    HW2 6606   2.362   0.881   4.575
 1903SOL     OW 6607   0.623   3.019   2.708
 1903SOL    HW1 6608   0.579   2.930   2.720
 1903SOL    HW2 6609   0.622   3.069   2.795
 1904SOL     OW 6610   5.933   5.104   3.462
 1904SOL    HW1 6611   5.942   5.181   3.525
 1904SOL    HW2 6612   5.917   5.020   3.513
 1905SOL     OW 6613   0.598   0.332   3.325
 1905SOL    HW1 6614   0.528   0.369   3.265
 1905SOL    HW2 6615   0.557   0.306   3.412
 1906SOL     OW 6616   3.293   0.485   5.721
 1906SOL    HW1 6617   3.352   0.545   5.667
 1906SOL    HW2 6618   3.282   0.523   5.813
 1907SOL     OW 6619   4.206   2.117   1.576
 1907SOL    HW1 6620   4.167   2.091   1.488
 1907SOL    HW2 6621   4.150   2.078   1.650
 1908SOL     OW 6622   3.735   5.875   6.540
 1908SOL    HW1 6623   3.741   5.952   6.477
 1908SOL    HW2 6624   3.683   5.801   6.498
 1909SOL     OW 6625   0.701   2.826   3.581
 1909SOL    HW1 6626   0.778   2.878   3.619
 1909SOL    HW2 6627   0.615   2.873   3.603
 1910SOL     OW 6628   0.112   5.419   5.821
 1910SOL    HW1 6629   0.049   5.450   5.749
 1910SOL    HW2 6630   0.161   5.338   5.790
 1911SOL     OW 6631   0.053   3.593   4.678
 1911SOL    HW1 6632   0.118   3.613   4.605
 1911SOL    HW2 6633   0.018   3.679   4.716
 1912SOL     OW 6634   2.713   6.039   1.693
 1912SOL    HW1 6635   2.752   6.108   1.632
 1912SOL    HW2 6636   2.616   6.059   1.709
 1913SOL     OW 6637   2.968   0.907   4.913
 1913SOL    HW1 6638   2.948   0.975   4.842
 1913SOL    HW2 6639   3.066   0.903   4.929
 1914SOL     OW 6640   3.449   3.011   0.020
 1914SOL    HW1 6641   3.509   2.963   0.084
 1914SOL    HW2 6642   3.493   3.096   7.021
 1915SOL     OW 6643   4.326   2.728   5.994
 1915SOL    HW1 6644   4.259   2.803   6.001
 1915SOL    HW2 6645   4.345   2.692   6.085
 1916SOL     OW 6646   4.714   6.206   1.054
 1916SOL    HW1 6647   4.788   6.139   1.047
 1916SOL    HW2 6648   4.735   6.286   0.997
 1917SOL     OW 6649   2.105   3.647   0.056
 1917SOL    HW1 6650   2.066   3.733   0.026
 1917SOL    HW2 6651   2.105   3.582   7.009
 1918SOL     OW 6652   0.543   0.820   4.961
 1918SOL    HW1 6653   0.456   0.777   4.938
 1918SOL    HW2 6654   0.559   0.812   5.059
 1919SOL     OW 6655   1.995   1.364   1.784
 1919SOL    HW1 6656   1.971   1.342   1.690
 1919SOL    HW2 6657   1.912   1.384   1.836
 1920SOL     OW 6658   6.345   3.752   3.261
 1920SOL    HW1 6659   6.438   3.722   3.284
 1920SOL    HW2 6660   6.306   3.802   3.338
 1921SOL     OW 6661   1.811   3.046   0.250
 1921SOL    HW1 6662   1.853   3.015   0.164
 1921SOL    HW2 6663   1.775   3.138   0.237
 1922SOL     OW 6664   2.812   3.474   1.877
 1922SOL    HW1 6665   2.856   3.556   1.839
 1922SOL    HW2 6666   2.714   3.477   1.857
 1923SOL     OW 6667   4.145   2.193   6.607
 1923SOL    HW1 6668   4.071   2.174   6.543
 1923SOL    HW2 6669   4.167   2.291   6.605
 1924SOL     OW 6670   4.433   6.985   0.758
 1924SOL    HW1 6671   4.408   0.004   0.674
 1924SOL    HW2 6672   4.513   6.927   0.740
 1925SOL     OW 6673   1.216   5.140   1.545
 1925SOL    HW1 6674   1.230   5.045   1.517
 1925SOL    HW2 6675   1.202   5.144   1.644
 1926SOL     OW 6676   3.405   0.116   2.189
 1926SOL    HW1 6677   3.357   0.034   2.222
 1926SOL    HW2 6678   3.476   0.089   2.124
 1927SOL     OW 6679   2.239   4.054   0.595
 1927SOL    HW1 6680   2.273   4.077   0.686
 1927SOL    HW2 6681   2.209   3.958   0.594
 1928SOL     OW 6682   5.142   4.411   4.561
 1928SOL    HW1 6683   5.103   4.491   4.514
 1928SOL    HW2 6684   5.232   4.390   4.522
 1929SOL     OW 6685   2.223   0.603   1.851
 1929SOL    HW1 6686   2.300   0.656   1.885
 1929SOL    HW2 6687   2.252   0.545   1.775
 1930SOL     OW 6688   5.604   3.308   6.640
 1930SOL    HW1 6689   5.524   3.271   6.687
 1930SOL    HW2 6690   5.674   3.237   6.631
 1931SOL     OW 6691   1.119   2.155   6.772
 1931SOL    HW1 6692   1.112   2.218   6.849
 1931SOL    HW2 6693   1.040   2.094   6.770
 1932SOL     OW 6694   4.760   2.802   3.182
 1932SOL    HW1 6695   4.851   2.764   3.170
 1932SOL    HW2 6696   4.765   2.885   3.238
 1933SOL     OW 6697   1.443   2.481   0.760
 1933SOL    HW1 6698   1.459   2.399   0.814
 1933SOL    HW2 6699   1.460   2.462   0.663
 1934SOL     OW 6700   0.202   0.863   5.291
 1934SOL    HW1 6701   0.119   0.913   5.313
 1934SOL    HW2 6702   0.223   0.872   5.193
 1935SOL     OW 6703   4.266   5.076   3.690
 1935SOL    HW1 6704   4.255   5.078   3.590
 1935SOL    HW2 6705   4.275   5.169   3.724
 1936SOL     OW 6706   4.956   3.632   4.176
 1936SOL    HW1 6707   5.033   3.695   4.172
 1936SOL    HW2 6708   4.905   3.637   4.090
 1937SOL     OW 6709   4.269   6.138   0.222
 1937SOL    HW1 6710   4.298   6.166   0.314
 1937SOL    HW2 6711   4.349   6.117   0.167
 1938SOL     OW 6712   1.341   2.043   1.058
 1938SOL    HW1 6713   1.299   1.982   0.991
 1938SOL    HW2 6714   1.429   2.005   1.087
 1939SOL     OW 6715   0.465   6.167   4.384
 1939SOL    HW1 6716   0.398   6.215   4.327
 1939SOL    HW2 6717   0.536   6.231   4.414
 1940SOL     OW 6718   6.020   4.095   1.198
 1940SOL    HW1 6719   6.102   4.056   1.156
 1940SOL    HW2 6720   5.991   4.038   1.275
 1941SOL     OW 6721   0.937   2.967   3.674
 1941SOL    HW1 6722   0.953   2.915   3.757
 1941SOL    HW2 6723   0.883   3.048   3.695
 1942SOL     OW 6724   5.558   4.024   2.866
 1942SOL    HW1 6725   5.544   3.934   2.824
 1942SOL    HW2 6726   5.535   4.096   2.800
 1943SOL     OW 6727   1.295   1.190   2.558
 1943SOL    HW1 6728   1.386   1.225   2.577
 1943SOL    HW2 6729   1.227   1.258   2.586
 1944SOL     OW 6730   6.481   4.382   6.864
 1944SOL    HW1 6731   6.387   4.416   6.856
 1944SOL    HW2 6732   6.479   4.284   6.885
 1945SOL     OW 6733   3.975   6.280   1.186
 1945SOL    HW1 6734   3.882   6.251   1.162
 1945SOL    HW2 6735   3.994   6.254   1.281
 1946SOL     OW 6736   6.151   6.744   1.642
 1946SOL    HW1 6737   6.176   6.672   1.578
 1946SOL    HW2 6738   6.091   6.706   1.713
 1947SOL     OW 6739   5.927   5.763   4.428
 1947SOL    HW1 6740   5.887   5.854   4.417
 1947SOL    HW2 6741   6.019   5.771   4.466
 1948SOL     OW 6742   5.813   5.007   3.134
 1948SOL    HW1 6743   5.753   5.003   3.054
 1948SOL    HW2 6744   5.764   5.050   3.210
 1949SOL     OW 6745   4.078   3.972   0.491
 1949SOL    HW1 6746   4.114   3.879   0.493
 1949SOL    HW2 6747   4.147   4.036   0.527
 1950SOL     OW 6748   4.088   3.366   3.510
 1950SOL    HW1 6749   4.076   3.417   3.595
 1950SOL    HW2 6750   4.135   3.424   3.443
 1951SOL     OW 6751   6.936   4.425   6.022
 1951SOL    HW1 6752   6.980   4.512   6.043
 1951SOL    HW2 6753   7.006   4.353   6.019
 1952SOL     OW 6754   5.631   4.779   1.198
 1952SOL    HW1 6755   5.534   4.787   1.176
 1952SOL    HW2 6756   5.658   4.855   1.257
 1953SOL     OW 6757   6.920   1.423   6.225
 1953SOL    HW1 6758   6.835   1.419   6.172
 1953SOL    HW2 6759   6.904   1.477   6.308
 1954SOL     OW 6760   5.457   0.103   1.430
 1954SOL    HW1 6761   5.382   0.086   1.366
 1954SOL    HW2 6762   5.526   0.161   1.387
 1955SOL     OW 6763   0.155   0.921   1.323
 1955SOL    HW1 6764   0.125   0.853   1.391
 1955SOL    HW2 6765   0.132   0.889   1.231
 1956SOL     OW 6766   4.675   6.958   2.738
 1956SOL    HW1 6767   4.715   6.871   2.768
 1956SOL    HW2 6768   4.720   6.987   2.653
 1957SOL     OW 6769   5.367   3.684   4.078
 1957SOL    HW1 6770   5.420   3.618   4.132
 1957SOL    HW2 6771   5.282   3.706   4.126
 1958SOL     OW 6772   4.678   1.265   1.684
 1958SOL    HW1 6773   4.661   1.249   1.781
 1958SOL    HW2 6774   4.593   1.295   1.640
 1959SOL     OW 6775   6.666   6.362   3.988
 1959SOL    HW1 6776   6.586   6.331   3.936
 1959SOL    HW2 6777   6.653   6.340   4.085
 1960SOL     OW 6778   0.306   3.268   2.723
 1960SOL    HW1 6779   0.269   3.217   2.645
 1960SOL    HW2 6780   0.255   3.243   2.806
 1961SOL     OW 6781   6.417   4.348   4.423
 1961SOL    HW1 6782   6.412   4.444   4.451
 1961SOL    HW2 6783   6.367   4.336   4.337
 1962SOL     OW 6784   1.039   5.962   2.202
 1962SOL    HW1 6785   1.123   5.911   2.216
 1962SOL    HW2 6786   0.973   5.906   2.152
 1963SOL     OW 6787   0.931   1.813   1.210
 1963SOL    HW1 6788   0.981   1.744   1.262
 1963SOL    HW2 6789   0.833   1.798   1.222
 1964SOL     OW 6790   5.288   4.406   1.814
 1964SOL    HW1 6791   5.266   4.489   1.865
 1964SOL    HW2 6792   5.209   4.380   1.758
 1965SOL     OW 6793   1.560   3.547   4.660
 1965SOL    HW1 6794   1.598   3.611   4.726
 1965SOL    HW2 6795   1.538   3.461   4.705
 1966SOL     OW 6796   1.449   5.111   1.035
 1966SOL    HW1 6797   1.534   5.137   0.990
 1966SOL    HW2 6798   1.469   5.071   1.124
 1967SOL     OW 6799   6.530   2.590   4.290
 1967SOL    HW1 6800   6.475   2.507   4.302
 1967SOL    HW2 6801   6.500   2.639   4.209
 1968SOL     OW 6802   2.538   0.933   5.307
 1968SOL    HW1 6803   2.466   1.000   5.325
 1968SOL    HW2 6804   2.503   0.841   5.326
 1969SOL     OW 6805   3.317   0.453   1.469
 1969SOL    HW1 6806   3.228   0.499   1.466
 1969SOL    HW2 6807   3.350   0.450   1.563
 1970SOL     OW 6808   6.967   6.979   5.637
 1970SOL    HW1 6809   6.963   0.042   5.601
 1970SOL    HW2 6810   6.975   6.914   5.561
 1971SOL     OW 6811   0.691   0.092   5.343
 1971SOL    HW1 6812   0.723   0.112   5.250
 1971SOL    HW2 6813   0.668   0.177   5.390
 1972SOL     OW 6814   5.857   2.641   1.378
 1972SOL    HW1 6815   5.772   2.643   1.432
 1972SOL    HW2 6816   5.889   2.734   1.363
 1973SOL     OW 6817   2.296   3.991   1.873
 1973SOL    HW1 6818   2.351   4.052   1.817
 1973SOL    HW2 6819   2.278   4.034   1.962
 1974SOL     OW 6820   4.751   6.736   4.802
 1974SOL    HW1 6821   4.656   6.752   4.775
 1974SOL    HW2 6822   4.806   6.817   4.781
 1975SOL     OW 6823   1.864   3.127   4.253
 1975SOL    HW1 6824   1.954   3.169   4.269
 1975SOL    HW2 6825   1.875   3.031   4.228
 1976SOL     OW 6826   5.227   6.660   6.278
 1976SOL    HW1 6827   5.188   6.568   6.281
 1976SOL    HW2 6828   5.182   6.717   6.347
 1977SOL     OW 6829   2.287   3.162   6.107
 1977SOL    HW1 6830   2.242   3.120   6.028
 1977SOL    HW2 6831   2.367   3.213   6.076
 1978SOL     OW 6832   1.660   5.960   2.946
 1978SOL    HW1 6833   1.649   6.011   3.032
 1978SOL    HW2 6834   1.571   5.925   2.916
 1979SOL     OW 6835   5.924   4.987   6.981
 1979SOL    HW1 6836   5.891   5.081   6.975
 1979SOL    HW2 6837   5.851   4.928   7.014
 1980SOL     OW 6838   3.503   0.361   2.938
 1980SOL    HW1 6839   3.577   0.351   2.871
 1980SOL    HW2 6840   3.538   0.337   3.029
 1981SOL     OW 6841   5.609   2.899   2.351
 1981SOL    HW1 6842   5.670   2.849   2.413
 1981SOL    HW2 6843   5.523   2.849   2.341
 1982SOL     OW 6844   6.949   3.807   4.197
 1982SOL    HW1 6845   6.927   3.894   4.242
 1982SOL    HW2 6846   6.870   3.778   4.143
 1983SOL     OW 6847   0.708   0.413   1.299
 1983SOL    HW1 6848   0.616   0.397   1.263
 1983SOL    HW2 6849   0.768   0.338   1.270
 1984SOL     OW 6850   5.158   2.548   5.271
 1984SOL    HW1 6851   5.169   2.467   5.329
 1984SOL    HW2 6852   5.077   2.536   5.214
 1985SOL     OW 6853   6.904   5.812   2.011
 1985SOL    HW1 6854   6.815   5.854   1.993
 1985SOL    HW2 6855   6.909   5.724   1.963
 1986SOL     OW 6856   2.699   1.310   6.318
 1986SOL    HW1 6857   2.630   1.237   6.317
 1986SOL    HW2 6858   2.744   1.312   6.407
 1987SOL     OW 6859   1.972   1.635   4.078
 1987SOL    HW1 6860   1.905   1.709   4.076
 1987SOL    HW2 6861   2.003   1.616   3.985
 1988SOL     OW 6862   6.737   1.124   1.441
 1988SOL    HW1 6863   6.738   1.097   1.345
 1988SOL    HW2 6864   6.746   1.224   1.447
 1989SOL     OW 6865   2.528   6.366   4.440
 1989SOL    HW1 6866   2.545   6.268   4.428
 1989SOL    HW2 6867   2.479   6.401   4.359
 1990SOL     OW 6868   3.805   7.004   0.735
 1990SOL    HW1 6869   3.775   0.004   0.826
 1990SOL    HW2 6870   3.854   6.917   0.743
 1991SOL     OW 6871   2.582   4.638   0.182
 1991SOL    HW1 6872   2.550   4.702   0.252
 1991SOL    HW2 6873   2.570   4.678   0.092
 1992SOL     OW 6874   6.895   0.017   0.874
 1992SOL    HW1 6875   6.922   0.016   0.971
 1992SOL    HW2 6876   6.824   6.979   0.858
 1993SOL     OW 6877   2.995   2.059   4.587
 1993SOL    HW1 6878   3.053   2.054   4.669
 1993SOL    HW2 6879   2.909   2.011   4.605
 1994SOL     OW 6880   4.685   2.195   0.853
 1994SOL    HW1 6881   4.769   2.220   0.901
 1994SOL    HW2 6882   4.707   2.164   0.760
 1995SOL     OW 6883   5.751   3.381   4.472
 1995SOL    HW1 6884   5.717   3.341   4.387
 1995SOL    HW2 6885   5.704   3.339   4.550
 1996SOL     OW 6886   2.743   1.309   1.277
 1996SOL    HW1 6887   2.699   1.239   1.334
 1996SOL    HW2 6888   2.759   1.272   1.185
 1997SOL     OW 6889   3.066   1.484   4.133
 1997SOL    HW1 6890   3.104   1.479   4.226
 1997SOL    HW2 6891   3.098   1.568   4.089
 1998SOL     OW 6892   1.260   3.222   0.786
 1998SOL    HW1 6893   1.273   3.320   0.797
 1998SOL    HW2 6894   1.329   3.186   0.724
 1999SOL     OW 6895   0.303   0.774   5.038
 1999SOL    HW1 6896   0.357   0.747   5.118
 1999SOL    HW2 6897   0.216   0.725   5.039
 2000SOL     OW 6898   3.731   3.990   6.125
 2000SOL    HW1 6899   3.642   4.014   6.085
 2000SOL    HW2 6900   3.804   4.013   6.060
 2001SOL     OW 6901   1.517   2.141   0.150
 2001SOL    HW1 6902   1.494   2.127   0.246
 2001SOL    HW2 6903   1.472   2.072   0.094
 2002SOL     OW 6904   1.185   5.819   1.072
 2002SOL    HW1 6905   1.257   5.769   1.120
 2002SOL    HW2 6906   1.156   5.767   0.992
 2003SOL     OW 6907   6.624   5.355   1.948
 2003SOL    HW1 6908   6.607   5.410   2.029
 2003SOL    HW2 6909   6.712   5.309   1.956
 2004SOL     OW 6910   4.592   1.178   3.930
 2004SOL    HW1 6911   4.515   1.116   3.914
 2004SOL    HW2 6912   4.658   1.135   3.991
 2005SOL     OW 6913   6.738   5.510   7.007
 2005SOL    HW1 6914   6.731   5.429   0.035
 2005SOL    HW2 6915   6.773   5.586   0.031
 2006SOL     OW 6916   5.045   6.954   4.115
 2006SOL    HW1 6917   4.972   7.020   4.095
 2006SOL    HW2 6918   5.093   6.983   4.198
 2007SOL     OW 6919   5.538   4.040   1.114
 2007SOL    HW1 6920   5.548   4.119   1.053
 2007SOL    HW2 6921   5.627   3.995   1.125
 2008SOL     OW 6922   2.125   3.516   4.014
 2008SOL    HW1 6923   2.152   3.580   4.085
 2008SOL    HW2 6924   2.151   3.552   3.924
 2009SOL     OW 6925   5.406   5.948   1.894
 2009SOL    HW1 6926   5.367   6.016   1.832
 2009SOL    HW2 6927   5.334   5.909   1.951
 2010SOL     OW 6928   1.754   1.766   1.637
 2010SOL    HW1 6929   1.701   1.834   1.688
 2010SOL    HW2 6930   1.850   1.770   1.666
 2011SOL     OW 6931   6.611   0.187   5.172
 2011SOL    HW1 6932   6.553   0.105   5.176
 2011SOL    HW2 6933   6.587   0.248   5.248
 2012SOL     OW 6934   1.450   3.739   2.137
 2012SOL    HW1 6935   1.538   3.778   2.112
 2012SOL    HW2 6936   1.427   3.665   2.073
 2013SOL     OW 6937   6.993   3.111   3.131
 2013SOL    HW1 6938   6.968   3.129   3.226
 2013SOL    HW2 6939   6.922   3.055   3.089
 2014SOL     OW 6940   2.883   0.428   2.951
 2014SOL    HW1 6941   2.893   0.480   3.036
 2014SOL    HW2 6942   2.940   0.346   2.955
 2015SOL     OW 6943   3.808   0.366   1.016
 2015SOL    HW1 6944   3.882   0.329   0.960
 2015SOL    HW2 6945   3.730   0.303   1.015
 2016SOL     OW 6946   1.454   5.808   5.672
 2016SOL    HW1 6947   1.373   5.769   5.715
 2016SOL    HW2 6948   1.428   5.888   5.618
 2017SOL     OW 6949   3.925   0.424   3.626
 2017SOL    HW1 6950   3.978   0.389   3.549
 2017SOL    HW2 6951   3.954   0.379   3.710
 2018SOL     OW 6952   0.056   2.637   3.840
 2018SOL    HW1 6953   0.152   2.666   3.845
 2018SOL    HW2 6954   7.027   2.718   3.840
 2019SOL     OW 6955   6.441   4.633   6.389
 2019SOL    HW1 6956   6.385   4.575   6.330
 2019SOL    HW2 6957   6.525   4.657   6.342
 2020SOL     OW 6958   1.338   6.224   6.476
 2020SOL    HW1 6959   1.362   6.142   6.527
 2020SOL    HW2 6960   1.396   6.231   6.395
 2021SOL     OW 6961   5.957   0.252   3.453
 2021SOL    HW1 6962   5.881   0.294   3.403
 2021SOL    HW2 6963   6.031   0.231   3.390
 2022SOL     OW 6964   1.653   4.296   4.954
 2022SOL    HW1 6965   1.749   4.294   4.982
 2022SOL    HW2 6966   1.645   4.266   4.859
 2023SOL     OW 6967   7.014   6.866   6.487
 2023SOL    HW1 6968   0.040   6.949   6.476
 2023SOL    HW2 6969   7.000   6.823   6.398
 2024SOL     OW 6970   0.393   5.907   4.396
 2024SOL    HW1 6971   0.310   5.890   4.343
 2024SOL    HW2 6972   0.407   6.006   4.405
 2025SOL     OW 6973   3.210   0.778   3.445
 2025SOL    HW1 6974   3.309   0.790   3.448
 2025SOL    HW2 6975   3.167   0.839   3.512
 2026SOL     OW 6976   6.148   1.600   6.475
 2026SOL    HW1 6977   6.052   1.608   6.450
 2026SOL    HW2 6978   6.191   1.690   6.475
 2027SOL     OW 6979   0.733   5.898   1.653
 2027SOL    HW1 6980   0.767   5.810   1.621
 2027SOL    HW2 6981   0.674   5.939   1.583
 2028SOL     OW 6982   3.746   5.519   2.705
 2028SOL    HW1 6983   3.733   5.449   2.776
 2028SOL    HW2 6984   3.656   5.548   2.671
 2029SOL     OW 6985   6.684   1.706   0.168
 2029SOL    HW1 6986   6.587   1.705   0.191
 2029SOL    HW2 6987   6.699   1.651   0.086
 2030SOL     OW 6988   3.156   6.525   2.911
 2030SOL    HW1 6989   3.157   6.556   3.007
 2030SOL    HW2 6990   3.239   6.557   2.866
 2031SOL     OW 6991   7.013   5.954   2.870
 2031SOL    HW1 6992   6.994   5.918   2.779
 2031SOL    HW2 6993   7.019   6.054   2.866
 2032SOL     OW 6994   3.502   1.694   0.497
 2032SOL    HW1 6995   3.428   1.630   0.479
 2032SOL    HW2 6996   3.589   1.645   0.497
 2033SOL     OW 6997   1.231   1.079   0.400
 2033SOL    HW1 6998   1.234   0.980   0.409
 2033SOL    HW2 6999   1.181   1.104   0.316
 2034SOL     OW 7000   1.536   5.538   5.647
 2034SOL    HW1 7001   1.453   5.490   5.617
 2034SOL    HW2 7002   1.522   5.637   5.639
 2035SOL     OW 7003   6.481   0.469   2.188
 2035SOL    HW1 7004   6.415   0.535   2.223
 2035SOL    HW2 7005   6.437   0.410   2.120
 2036SOL     OW 7006   1.379   3.268   3.246
 2036SOL    HW1 7007   1.438   3.344   3.217
 2036SOL    HW2 7008   1.371   3.201   3.172
 2037SOL     OW 7009   7.012   2.438   6.147
 2037SOL    HW1 7010   6.931   2.465   6.200
 2037SOL    HW2 7011   6.983   2.391   6.064
 2038SOL     OW 7012   2.542   1.216   0.090
 2038SOL    HW1 7013   2.558   1.204   7.021
 2038SOL    HW2 7014   2.618   1.267   0.130
 2039SOL     OW 7015   0.149   5.715   2.094
 2039SOL    HW1 7016   0.080   5.776   2.056
 2039SOL    HW2 7017   0.121   5.686   2.186
 2040SOL     OW 7018   1.981   2.362   6.812
 2040SOL    HW1 7019   2.018   2.366   6.718
 2040SOL    HW2 7020   2.057   2.367   6.877
 2041SOL     OW 7021   1.857   6.792   5.458
 2041SOL    HW1 7022   1.873   6.803   5.557
 2041SOL    HW2 7023   1.782   6.850   5.430
 2042SOL     OW 7024   4.914   0.183   6.080
 2042SOL    HW1 7025   4.910   0.090   6.116
 2042SOL    HW2 7026   4.883   0.248   6.150
 2043SOL     OW 7027   6.412   2.412   1.899
 2043SOL    HW1 7028   6.466   2.372   1.825
 2043SOL    HW2 7029   6.433   2.509   1.907
 2044SOL     OW 7030   5.718   1.036   1.778
 2044SOL    HW1 7031   5.643   1.041   1.845
 2044SOL    HW2 7032   5.698   1.096   1.701
 2045SOL     OW 7033   1.740   5.744   5.156
 2045SOL    HW1 7034   1.717   5.841   5.145
 2045SOL    HW2 7035   1.745   5.723   5.254
 2046SOL     OW 7036   6.804   1.934   5.396
 2046SOL    HW1 7037   6.708   1.948   5.421
 2046SOL    HW2 7038   6.812   1.928   5.296
 2047SOL     OW 7039   6.264   2.064   0.853
 2047SOL    HW1 7040   6.206   2.001   0.905
 2047SOL    HW2 7041   6.341   2.092   0.909
 2048SOL     OW 7042   0.484   1.661   4.493
 2048SOL    HW1 7043   0.570   1.712   4.499
 2048SOL    HW2 7044   0.432   1.693   4.414
 2049SOL     OW 7045   4.618   1.160   4.976
 2049SOL    HW1 7046   4.592   1.222   4.902
 2049SOL    HW2 7047   4.601   1.204   5.064
 2050SOL     OW 7048   6.760   2.059   4.683
 2050SOL    HW1 7049   6.783   2.107   4.767
 2050SOL    HW2 7050   6.804   2.104   4.605
 2051SOL     OW 7051   2.171   6.640   6.606
 2051SOL    HW1 7052   2.225   6.699   6.666
 2051SOL    HW2 7053   2.076   6.669   6.608
 2052SOL     OW 7054   1.559   3.100   0.937
 2052SOL    HW1 7055   1.625   3.085   0.864
 2052SOL    HW2 7056   1.565   3.195   0.969
 2053SOL     OW 7057   0.425   5.486   4.668
 2053SOL    HW1 7058   0.434   5.404   4.611
 2053SOL    HW2 7059   0.515   5.510   4.706
 2054SOL     OW 7060   3.731   2.894   2.324
 2054SOL    HW1 7061   3.779   2.809   2.346
 2054SOL    HW2 7062   3.728   2.906   2.224
 2055SOL     OW 7063   6.950   2.738   5.026
 2055SOL    HW1 7064   6.884   2.812   5.014
 2055SOL    HW2 7065   7.007   2.730   4.944
 2056SOL     OW 7066   4.592   4.586   1.403
 2056SOL    HW1 7067   4.522   4.524   1.438
 2056SOL    HW2 7068   4.589   4.586   1.303
 2057SOL     OW 7069   5.453   2.897   4.093
 2057SOL    HW1 7070   5.382   2.840   4.135
 2057SOL    HW2 7071   5.541   2.852   4.101
 2058SOL     OW 7072   0.449   6.253   2.648
 2058SOL    HW1 7073   0.467   6.272   2.745
 2058SOL    HW2 7074   0.535   6.233   2.602
 2059SOL     OW 7075   2.520   0.372   5.549
 2059SOL    HW1 7076   2.502   0.359   5.451
 2059SOL    HW2 7077   2.610   0.334   5.571
 2060SOL     OW 7078   0.840   3.256   0.393
 2060SOL    HW1 7079   0.863   3.283   0.486
 2060SOL    HW2 7080   0.814   3.338   0.341
 2061SOL     OW 7081   1.950   2.898   2.583
 2061SOL    HW1 7082   1.937   2.933   2.490
 2061SOL    HW2 7083   1.919   2.803   2.588
 2062SOL     OW 7084   6.648   5.133   5.135
 2062SOL    HW1 7085   6.658   5.045   5.089
 2062SOL    HW2 7086   6.607   5.118   5.226
 2063SOL     OW 7087   1.545   6.309   5.425
 2063SOL    HW1 7088   1.474   6.239   5.426
 2063SOL    HW2 7089   1.622   6.279   5.483
 2064SOL     OW 7090   1.149   3.775   3.618
 2064SOL    HW1 7091   1.210   3.722   3.678
 2064SOL    HW2 7092   1.154   3.871   3.642
 2065SOL     OW 7093   5.293   2.803   5.401
 2065SOL    HW1 7094   5.218   2.737   5.401
 2065SOL    HW2 7095   5.273   2.877   5.337
 2066SOL     OW 7096   6.070   3.648   5.378
 2066SOL    HW1 7097   6.112   3.672   5.465
 2066SOL    HW2 7098   5.999   3.579   5.393
 2067SOL     OW 7099   6.381   4.781   2.196
 2067SOL    HW1 7100   6.282   4.782   2.207
 2067SOL    HW2 7101   6.417   4.694   2.229
 2068SOL     OW 7102   3.382   1.515   3.955
 2068SOL    HW1 7103   3.475   1.551   3.970
 2068SOL    HW2 7104   3.316   1.587   3.974
 2069SOL     OW 7105   7.003   1.885   4.130
 2069SOL    HW1 7106   0.061   1.854   4.093
 2069SOL    HW2 7107   7.006   1.984   4.144
 2070SOL     OW 7108   1.608   3.088   1.421
 2070SOL    HW1 7109   1.648   3.009   1.468
 2070SOL    HW2 7110   1.555   3.057   1.343
 2071SOL     OW 7111   6.378   1.348   6.173
 2071SOL    HW1 7112   6.428   1.430   6.198
 2071SOL    HW2 7113   6.387   1.280   6.245
 2072SOL     OW 7114   3.799   4.707   5.447
 2072SOL    HW1 7115   3.733   4.749   5.385
 2072SOL    HW2 7116   3.885   4.689   5.399
 2073SOL     OW 7117   3.775   5.944   6.146
 2073SOL    HW1 7118   3.794   6.035   6.182
 2073SOL    HW2 7119   3.855   5.885   6.161
 2074SOL     OW 7120   1.714   3.300   5.886
 2074SOL    HW1 7121   1.703   3.398   5.895
 2074SOL    HW2 7122   1.658   3.267   5.810
 2075SOL     OW 7123   6.787   2.373   1.942
 2075SOL    HW1 7124   6.792   2.468   1.909
 2075SOL    HW2 7125   6.860   2.320   1.900
 2076SOL     OW 7126   6.036   0.024   4.919
 2076SOL    HW1 7127   6.102   6.982   4.894
 2076SOL    HW2 7128   6.079   0.090   4.980
 2077SOL     OW 7129   0.250   2.616   1.461
 2077SOL    HW1 7130   0.169   2.568   1.427
 2077SOL    HW2 7131   0.222   2.690   1.522
 2078SOL     OW 7132   1.747   5.015   5.811
 2078SOL    HW1 7133   1.828   5.020   5.753
 2078SOL    HW2 7134   1.687   4.942   5.778
 2079SOL     OW 7135   5.166   0.740   2.027
 2079SOL    HW1 7136   5.125   0.660   1.984
 2079SOL    HW2 7137   5.109   0.821   2.007
 2080SOL     OW 7138   2.882   2.264   4.446
 2080SOL    HW1 7139   2.904   2.171   4.477
 2080SOL    HW2 7140   2.884   2.327   4.523
 2081SOL     OW 7141   0.086   6.794   3.489
 2081SOL    HW1 7142   0.106   6.860   3.562
 2081SOL    HW2 7143   0.104   6.701   3.523
 2082SOL     OW 7144   0.730   6.270   2.437
 2082SOL    HW1 7145   0.814   6.218   2.449
 2082SOL    HW2 7146   0.745   6.365   2.464
 2083SOL     OW 7147   0.485   6.297   3.475
 2083SOL    HW1 7148   0.424   6.220   3.455
 2083SOL    HW2 7149   0.482   6.362   3.400
 2084SOL     OW 7150   1.184   1.721   1.145
 2084SOL    HW1 7151   1.132   1.807   1.141
 2084SOL    HW2 7152   1.124   1.644   1.125
 2085SOL     OW 7153   4.795   6.216   0.608
 2085SOL    HW1 7154   4.703   6.235   0.643
 2085SOL    HW2 7155   4.850   6.175   0.681
 2086SOL     OW 7156   3.724   6.924   0.060
 2086SOL    HW1 7157   3.652   6.989   0.036
 2086SOL    HW2 7158   3.720   6.846   7.027
 2087SOL     OW 7159   4.176   2.088   6.876
 2087SOL    HW1 7160   4.105   2.086   6.806
 2087SOL    HW2 7161   4.146   2.037   6.956
 2088SOL     OW 7162   0.638   5.916   6.360
 2088SOL    HW1 7163   0.736   5.895   6.353
 2088SOL    HW2 7164   0.606   5.899   6.453
 2089SOL     OW 7165   3.997   2.707   5.331
 2089SOL    HW1 7166   4.066   2.653   5.282
 2089SOL    HW2 7167   3.972   2.787   5.277
 2090SOL     OW 7168   4.616   3.313   5.512
 2090SOL    HW1 7169   4.651   3.282   5.601
 2090SOL    HW2 7170   4.592   3.235   5.456
 2091SOL     OW 7171   6.496   6.144   1.813
 2091SOL    HW1 7172   6.561   6.195   1.756
 2091SOL    HW2 7173   6.421   6.111   1.755
 2092SOL     OW 7174   4.929   4.111   0.995
 2092SOL    HW1 7175   4.891   4.031   1.042
 2092SOL    HW2 7176   5.017   4.088   0.954
 2093SOL     OW 7177   3.815   2.097   2.201
 2093SOL    HW1 7178   3.770   2.148   2.128
 2093SOL    HW2 7179   3.781   2.128   2.290
 2094SOL     OW 7180   6.037   2.755   0.090
 2094SOL    HW1 7181   6.080   2.829   0.142
 2094SOL    HW2 7182   6.099   2.676   0.087
 2095SOL     OW 7183   5.888   6.392   3.767
 2095SOL    HW1 7184   5.857   6.321   3.704
 2095SOL    HW2 7185   5.887   6.481   3.721
 2096SOL     OW 7186   4.693   6.435   2.452
 2096SOL    HW1 7187   4.757   6.389   2.514
 2096SOL    HW2 7188   4.641   6.504   2.503
 2097SOL     OW 7189   2.414   4.355   6.457
 2097SOL    HW1 7190   2.390   4.425   6.525
 2097SOL    HW2 7191   2.330   4.311   6.425
 2098SOL     OW 7192   4.123   5.959   3.272
 2098SOL    HW1 7193   4.107   5.873   3.224
 2098SOL    HW2 7194   4.041   6.016   3.267
 2099SOL     OW 7195   4.072   1.569   0.511
 2099SOL    HW1 7196   4.151   1.513   0.486
 2099SOL    HW2 7197   4.007   1.514   0.563
 2100SOL     OW 7198   5.143   1.121   0.718
 2100SOL    HW1 7199   5.225   1.166   0.683
 2100SOL    HW2 7200   5.104   1.062   0.648
 2101SOL     OW 7201   0.380   6.044   0.993
 2101SOL    HW1 7202   0.328   6.037   1.078
 2101SOL    HW2 7203   0.470   6.085   1.012
 2102SOL     OW 7204   4.037   3.004   1.568
 2102SOL    HW1 7205   4.053   3.036   1.662
 2102SOL    HW2 7206   3.939   2.994   1.553
 2103SOL     OW 7207   3.156   4.798   0.105
 2103SOL    HW1 7208   3.142   4.874   0.169
 2103SOL    HW2 7209   3.204   4.724   0.152
 2104SOL     OW 7210   2.085   4.501   2.620
 2104SOL    HW1 7211   2.032   4.435   2.674
 2104SOL    HW2 7212   2.104   4.581   2.676
 2105SOL     OW 7213   4.770   4.492   0.547
 2105SOL    HW1 7214   4.803   4.559   0.481
 2105SOL    HW2 7215   4.762   4.535   0.637
 2106SOL     OW 7216   5.357   3.326   1.283
 2106SOL    HW1 7217   5.365   3.422   1.256
 2106SOL    HW2 7218   5.353   3.321   1.383
 2107SOL     OW 7219   5.298   3.523   6.170
 2107SOL    HW1 7220   5.208   3.566   6.167
 2107SOL    HW2 7221   5.335   3.517   6.077
 2108SOL     OW 7222   5.761   6.530   5.816
 2108SOL    HW1 7223   5.859   6.544   5.805
 2108SOL    HW2 7224   5.742   6.433   5.832
 2109SOL     OW 7225   3.337   5.201   2.230
 2109SOL    HW1 7226   3.327   5.102   2.238
 2109SOL    HW2 7227   3.262   5.246   2.278
 2110SOL     OW 7228   4.167   0.965   6.629
 2110SOL    HW1 7229   4.262   0.937   6.617
 2110SOL    HW2 7230   4.163   1.056   6.670
 2111SOL     OW 7231   0.998   2.795   5.977
 2111SOL    HW1 7232   0.908   2.833   5.996
 2111SOL    HW2 7233   1.024   2.731   6.050
 2112SOL     OW 7234   5.967   1.077   6.959
 2112SOL    HW1 7235   5.888   1.137   6.976
 2112SOL    HW2 7236   6.004   1.097   6.868
 2113SOL     OW 7237   1.665   6.806   4.071
 2113SOL    HW1 7238   1.633   6.899   4.087
 2113SOL    HW2 7239   1.622   6.769   3.989
 2114SOL     OW 7240   2.594   2.863   0.091
 2114SOL    HW1 7241   2.692   2.876   0.101
 2114SOL    HW2 7242   2.577   2.791   0.022
 2115SOL     OW 7243   1.104   4.541   2.692
 2115SOL    HW1 7244   1.115   4.479   2.769
 2115SOL    HW2 7245   1.126   4.634   2.720
 2116SOL     OW 7246   1.146   2.492   0.440
 2116SOL    HW1 7247   1.170   2.578   0.395
 2116SOL    HW2 7248   1.228   2.453   0.483
 2117SOL     OW 7249   5.661   2.584   2.452
 2117SOL    HW1 7250   5.718   2.503   2.435
 2117SOL    HW2 7251   5.565   2.562   2.435
 2118SOL     OW 7252   6.861   3.618   2.800
 2118SOL    HW1 7253   6.935   3.597   2.737
 2118SOL    HW2 7254   6.796   3.681   2.756
 2119SOL     OW 7255   2.446   0.575   6.499
 2119SOL    HW1 7256   2.451   0.481   6.465
 2119SOL    HW2 7257   2.511   0.585   6.575
 2120SOL     OW 7258   6.768   2.176   2.114
 2120SOL    HW1 7259   6.744   2.266   2.079
 2120SOL    HW2 7260   6.732   2.165   2.207
 2121SOL     OW 7261   1.828   1.008   5.851
 2121SOL    HW1 7262   1.846   1.099   5.814
 2121SOL    HW2 7263   1.740   0.974   5.816
 2122SOL     OW 7264   5.851   0.292   5.795
 2122SOL    HW1 7265   5.931   0.347   5.817
 2122SOL    HW2 7266   5.803   0.268   5.879
 2123SOL     OW 7267   0.335   6.016   2.581
 2123SOL    HW1 7268   0.415   5.956   2.584
 2123SOL    HW2 7269   0.362   6.109   2.605
 2124SOL     OW 7270   3.425   2.909   5.912
 2124SOL    HW1 7271   3.475   2.913   5.998
 2124SOL    HW2 7272   3.419   2.815   5.881
 2125SOL     OW 7273   1.644   5.799   3.524
 2125SOL    HW1 7274   1.596   5.779   3.438
 2125SOL    HW2 7275   1.725   5.855   3.504
 2126SOL     OW 7276   3.655   3.526   0.687
 2126SOL    HW1 7277   3.676   3.619   0.658
 2126SOL    HW2 7278   3.706   3.461   0.630
 2127SOL     OW 7279   0.092   2.713   6.050
 2127SOL    HW1 7280   0.057   2.621   6.068
 2127SOL    HW2 7281   0.189   2.708   6.025
 2128SOL     OW 7282   6.177   3.968   0.782
 2128SOL    HW1 7283   6.227   3.927   0.706
 2128SOL    HW2 7284   6.080   3.977   0.757
 2129SOL     OW 7285   5.253   3.869   3.729
 2129SOL    HW1 7286   5.254   3.914   3.640
 2129SOL    HW2 7287   5.225   3.774   3.717
 2130SOL     OW 7288   2.434   1.285   1.383
 2130SOL    HW1 7289   2.518   1.234   1.404
 2130SOL    HW2 7290   2.447   1.381   1.404
 2131SOL     OW 7291   5.724   1.877   5.817
 2131SOL    HW1 7292   5.649   1.839   5.763
 2131SOL    HW2 7293   5.811   1.858   5.772
 2132SOL     OW 7294   2.848   1.642   6.536
 2132SOL    HW1 7295   2.853   1.634   6.436
 2132SOL    HW2 7296   2.796   1.564   6.573
 2133SOL     OW 7297   2.330   1.527   2.016
 2133SOL    HW1 7298   2.291   1.507   2.106
 2133SOL    HW2 7299   2.426   1.497   2.014
 2134SOL     OW 7300   0.330   6.844   4.288
 2134SOL    HW1 7301   0.334   6.832   4.387
 2134SOL    HW2 7302   0.383   6.925   4.262
 2135SOL     OW 7303   0.997   1.549   3.749
 2135SOL    HW1 7304   1.085   1.595   3.762
 2135SOL    HW2 7305   1.008   1.451   3.761
 2136SOL     OW 7306   1.088   3.555   5.176
 2136SOL    HW1 7307   1.139   3.598   5.101
 2136SOL    HW2 7308   0.992   3.548   5.151
 2137SOL     OW 7309   1.021   6.160   5.368
 2137SOL    HW1 7310   1.029   6.091   5.440
 2137SOL    HW2 7311   0.925   6.187   5.357
 2138SOL     OW 7312   0.211   2.566   1.093
 2138SOL    HW1 7313   0.131   2.515   1.063
 2138SOL    HW2 7314   0.198   2.663   1.073
 2139SOL     OW 7315   2.620   0.625   4.173
 2139SOL    HW1 7316   2.530   0.610   4.133
 2139SOL    HW2 7317   2.673   0.540   4.169
 2140SOL     OW 7318   2.565   6.360   2.772
 2140SOL    HW1 7319   2.662   6.337   2.761
 2140SOL    HW2 7320   2.509   6.279   2.754
 2141SOL     OW 7321   6.634   2.659   1.211
 2141SOL    HW1 7322   6.580   2.659   1.295
 2141SOL    HW2 7323   6.585   2.608   1.140
 2142SOL     OW 7324   1.672   2.025   3.371
 2142SOL    HW1 7325   1.758   2.074   3.361
 2142SOL    HW2 7326   1.603   2.085   3.412
 2143SOL     OW 7327   4.014   6.523   1.528
 2143SOL    HW1 7328   4.035   6.426   1.514
 2143SOL    HW2 7329   3.919   6.532   1.558
 2144SOL     OW 7330   1.500   0.561   2.923
 2144SOL    HW1 7331   1.581   0.602   2.966
 2144SOL    HW2 7332   1.443   0.634   2.885
 2145SOL     OW 7333   3.184   5.495   3.962
 2145SOL    HW1 7334   3.164   5.463   3.869
 2145SOL    HW2 7335   3.199   5.594   3.961
 2146SOL     OW 7336   2.862   3.700   1.762
 2146SOL    HW1 7337   2.864   3.723   1.665
 2146SOL    HW2 7338   2.909   3.771   1.815
 2147SOL     OW 7339   0.525   1.860   6.996
 2147SOL    HW1 7340   0.618   1.872   6.959
 2147SOL    HW2 7341   0.487   1.949   7.021
 2148SOL     OW 7342   4.916   3.581   3.882
 2148SOL    HW1 7343   4.917   3.482   3.869
 2148SOL    HW2 7344   4.944   3.626   3.798
 2149SOL     OW 7345   4.011   0.563   1.627
 2149SOL    HW1 7346   3.949   0.516   1.689
 2149SOL    HW2 7347   4.054   0.497   1.566
 2150SOL     OW 7348   3.859   1.845   2.832
 2150SOL    HW1 7349   3.900   1.773   2.776
 2150SOL    HW2 7350   3.788   1.805   2.890
 2151SOL     OW 7351   3.429   2.637   5.807
 2151SOL    HW1 7352   3.433   2.583   5.891
 2151SOL    HW2 7353   3.476   2.588   5.734
 2152SOL     OW 7354   5.880   6.815   2.155
 2152SOL    HW1 7355   5.949   6.801   2.084
 2152SOL    HW2 7356   5.843   6.726   2.183
 2153SOL     OW 7357   4.549   1.535   3.798
 2153SOL    HW1 7358   4.636   1.521   3.752
 2153SOL    HW2 7359   4.552   1.494   3.889
 2154SOL     OW 7360   3.033   5.396   4.695
 2154SOL    HW1 7361   3.059   5.488   4.666
 2154SOL    HW2 7362   2.942   5.374   4.661
 2155SOL     OW 7363   2.261   4.843   0.188
 2155SOL    HW1 7364   2.310   4.792   0.118
 2155SOL    HW2 7365   2.304   4.830   0.276
 2156SOL     OW 7366   1.913   0.616   1.492
 2156SOL    HW1 7367   1.835   0.642   1.436
 2156SOL    HW2 7368   1.994   0.604   1.435
 2157SOL     OW 7369   0.091   1.364   5.302
 2157SOL    HW1 7370   0.046   1.351   5.214
 2157SOL    HW2 7371   0.068   1.454   5.338
 2158SOL     OW 7372   3.916   0.061   1.166
 2158SOL    HW1 7373   3.998   0.093   1.118
 2158SOL    HW2 7374   3.871   0.138   1.211
 2159SOL     OW 7375   1.514   6.955   4.855
 2159SOL    HW1 7376   1.594   6.952   4.915
 2159SOL    HW2 7377   1.488   6.863   4.828
 2160SOL     OW 7378   3.827   4.296   1.327
 2160SOL    HW1 7379   3.786   4.328   1.412
 2160SOL    HW2 7380   3.844   4.198   1.332
 2161SOL     OW 7381   4.932   3.543   3.198
 2161SOL    HW1 7382   4.896   3.636   3.197
 2161SOL    HW2 7383   5.032   3.546   3.194
 2162SOL     OW 7384   2.172   0.540   6.626
 2162SOL    HW1 7385   2.157   0.447   6.661
 2162SOL    HW2 7386   2.254   0.541   6.569
 2163SOL     OW 7387   1.755   0.163   0.210
 2163SOL    HW1 7388   1.753   0.246   0.266
 2163SOL    HW2 7389   1.701   0.178   0.126
 2164SOL     OW 7390   2.024   0.793   6.512
 2164SOL    HW1 7391   2.045   0.788   6.415
 2164SOL    HW2 7392   2.045   0.705   6.555
 2165SOL     OW 7393   1.564   0.880   2.951
 2165SOL    HW1 7394   1.604   0.846   2.866
 2165SOL    HW2 7395   1.580   0.813   3.024
 2166SOL     OW 7396   1.137   1.888   5.431
 2166SOL    HW1 7397   1.217   1.844   5.390
 2166SOL    HW2 7398   1.141   1.987   5.415
 2167SOL     OW 7399   2.516   0.897   2.175
 2167SOL    HW1 7400   2.542   0.839   2.252
 2167SOL    HW2 7401   2.462   0.974   2.209
 2168SOL     OW 7402   5.872   3.651   4.434
 2168SOL    HW1 7403   5.815   3.570   4.423
 2168SOL    HW2 7404   5.957   3.640   4.383
 2169SOL     OW 7405   5.612   2.948   5.808
 2169SOL    HW1 7406   5.549   2.887   5.758
 2169SOL    HW2 7407   5.692   2.966   5.751
 2170SOL     OW 7408   4.956   4.721   5.303
 2170SOL    HW1 7409   5.045   4.744   5.262
 2170SOL    HW2 7410   4.971   4.666   5.385
 2171SOL     OW 7411   6.744   3.213   0.012
 2171SOL    HW1 7412   6.764   3.158   6.960
 2171SOL    HW2 7413   6.823   3.270   0.035
 2172SOL     OW 7414   3.248   1.573   0.382
 2172SOL    HW1 7415   3.282   1.480   0.372
 2172SOL    HW2 7416   3.155   1.570   0.419
 2173SOL     OW 7417   4.191   0.363   5.718
 2173SOL    HW1 7418   4.106   0.321   5.752
 2173SOL    HW2 7419   4.255   0.291   5.692
 2174SOL     OW 7420   6.498   4.492   4.719
 2174SOL    HW1 7421   6.490   4.518   4.622
 2174SOL    HW2 7422   6.529   4.571   4.772
 2175SOL     OW 7423   2.666   0.046   3.077
 2175SOL    HW1 7424   2.635   6.986   3.046
 2175SOL    HW2 7425   2.761   0.059   3.050
 2176SOL     OW 7426   1.992   2.429   2.368
 2176SOL    HW1 7427   1.975   2.487   2.288
 2176SOL    HW2 7428   1.906   2.410   2.415
 2177SOL     OW 7429   6.486   1.965   1.398
 2177SOL    HW1 7430   6.521   1.891   1.456
 2177SOL    HW2 7431   6.417   1.929   1.337
 2178SOL     OW 7432   1.201   5.142   0.202
 2178SOL    HW1 7433   1.141   5.067   0.232
 2178SOL    HW2 7434   1.157   5.229   0.219
 2179SOL     OW 7435   1.026   5.666   4.197
 2179SOL    HW1 7436   1.016   5.645   4.100
 2179SOL    HW2 7437   1.123   5.675   4.220
 2180SOL     OW 7438   3.041   3.945   2.619
 2180SOL    HW1 7439   3.003   3.853   2.619
 2180SOL    HW2 7440   2.993   4.002   2.685
 2181SOL     OW 7441   4.937   5.423   5.570
 2181SOL    HW1 7442   4.955   5.509   5.618
 2181SOL    HW2 7443   4.948   5.346   5.633
 2182SOL     OW 7444   6.880   3.627   6.903
 2182SOL    HW1 7445   6.857   3.714   6.860
 2182SOL    HW2 7446   6.890   3.641   7.002
 2183SOL     OW 7447   3.043   2.920   0.378
 2183SOL    HW1 7448   3.033   2.863   0.296
 2183SOL    HW2 7449   3.139   2.941   0.392
 2184SOL     OW 7450   3.579   1.103   6.581
 2184SOL    HW1 7451   3.646   1.139   6.516
 2184SOL    HW2 7452   3.581   1.158   6.664
 2185SOL     OW 7453   1.721   0.549   0.575
 2185SOL    HW1 7454   1.724   0.485   0.652
 2185SOL    HW2 7455   1.688   0.638   0.606
 2186SOL     OW 7456   0.488   4.646   2.805
 2186SOL    HW1 7457   0.469   4.635   2.708
 2186SOL    HW2 7458   0.404   4.670   2.854
 2187SOL     OW 7459   6.179   1.629   1.145
 2187SOL    HW1 7460   6.248   1.594   1.208
 2187SOL    HW2 7461   6.088   1.617   1.184
 2188SOL     OW 7462   5.276   6.593   3.590
 2188SOL    HW1 7463   5.192   6.539   3.581
 2188SOL    HW2 7464   5.355   6.534   3.575
 2189SOL     OW 7465   2.098   0.214   6.013
 2189SOL    HW1 7466   2.155   0.296   6.018
 2189SOL    HW2 7467   2.050   0.202   6.100
 2190SOL     OW 7468   6.475   2.351   1.605
 2190SOL    HW1 7469   6.442   2.440   1.636
 2190SOL    HW2 7470   6.421   2.321   1.526
 2191SOL     OW 7471   3.378   3.058   6.267
 2191SOL    HW1 7472   3.386   3.100   6.358
 2191SOL    HW2 7473   3.283   3.031   6.252
 2192SOL     OW 7474   4.089   6.207   5.266
 2192SOL    HW1 7475   4.017   6.241   5.327
 2192SOL    HW2 7476   4.091   6.108   5.268
 2193SOL     OW 7477   0.892   5.239   5.398
 2193SOL    HW1 7478   0.794   5.256   5.410
 2193SOL    HW2 7479   0.926   5.290   5.319
 2194SOL     OW 7480   2.146   6.332   0.342
 2194SOL    HW1 7481   2.082   6.260   0.313
 2194SOL    HW2 7482   2.180   6.311   0.434
 2195SOL     OW 7483   1.147   5.553   2.514
 2195SOL    HW1 7484   1.119   5.569   2.609
 2195SOL    HW2 7485   1.231   5.604   2.495
 2196SOL     OW 7486   3.503   1.620   5.635
 2196SOL    HW1 7487   3.456   1.538   5.602
 2196SOL    HW2 7488   3.598   1.597   5.656
 2197SOL     OW 7489   5.068   4.375   1.642
 2197SOL    HW1 7490   5.105   4.380   1.549
 2197SOL    HW2 7491   4.994   4.307   1.645
 2198SOL     OW 7492   6.982   4.372   0.018
 2198SOL    HW1 7493   6.927   4.314   6.988
 2198SOL    HW2 7494   6.936   4.459   0.032
 2199SOL     OW 7495   4.603   6.808   0.605
 2199SOL    HW1 7496   4.577   6.816   0.509
 2199SOL    HW2 7497   4.703   6.805   0.612
 2200SOL     OW 7498   4.162   0.870   4.644
 2200SOL    HW1 7499   4.230   0.894   4.714
 2200SOL    HW2 7500   4.071   0.876   4.684
 2201SOL     OW 7501   6.174   3.060   2.342
 2201SOL    HW1 7502   6.257   3.106   2.310
 2201SOL    HW2 7503   6.094   3.108   2.308
 2202SOL     OW 7504   3.677   5.465   4.028
 2202SOL    HW1 7505   3.688   5.558   4.062
 2202SOL    HW2 7506   3.663   5.402   4.105
 2203SOL     OW 7507   3.451   2.070   3.172
 2203SOL    HW1 7508   3.544   2.091   3.142
 2203SOL    HW2 7509   3.387   2.097   3.101
 2204SOL     OW 7510   3.056   1.724   0.207
 2204SOL    HW1 7511   2.960   1.744   0.230
 2204SOL    HW2 7512   3.112   1.733   0.289
 2205SOL     OW 7513   1.781   6.769   0.160
 2205SOL    HW1 7514   1.753   6.815   0.076
 2205SOL    HW2 7515   1.805   6.838   0.229
 2206SOL     OW 7516   3.303   3.574   0.055
 2206SOL    HW1 7517   3.369   3.636   0.012
 2206SOL    HW2 7518   3.210   3.601   0.029
 2207SOL     OW 7519   1.645   4.832   6.351
 2207SOL    HW1 7520   1.565   4.889   6.366
 2207SOL    HW2 7521   1.621   4.735   6.362
 2208SOL     OW 7522   0.223   3.584   2.058
 2208SOL    HW1 7523   0.217   3.518   1.983
 2208SOL    HW2 7524   0.252   3.538   2.142
 2209SOL     OW 7525   1.317   5.260   6.508
 2209SOL    HW1 7526   1.227   5.221   6.528
 2209SOL    HW2 7527   1.388   5.204   6.551
 2210SOL     OW 7528   0.858   5.623   3.509
 2210SOL    HW1 7529   0.801   5.690   3.557
 2210SOL    HW2 7530   0.923   5.671   3.451
 2211SOL     OW 7531   6.377   1.288   5.295
 2211SOL    HW1 7532   6.434   1.215   5.333
 2211SOL    HW2 7533   6.411   1.314   5.205
 2212SOL     OW 7534   1.067   0.419   6.039
 2212SOL    HW1 7535   1.000   0.440   5.968
 2212SOL    HW2 7536   1.063   0.322   6.060
 2213SOL     OW 7537   4.280   2.285   3.613
 2213SOL    HW1 7538   4.333   2.365   3.642
 2213SOL    HW2 7539   4.327   2.240   3.538
 2214SOL     OW 7540   5.277   0.225   4.466
 2214SOL    HW1 7541   5.281   0.131   4.501
 2214SOL    HW2 7542   5.350   0.279   4.507
 2215SOL     OW 7543   6.891   2.110   5.627
 2215SOL    HW1 7544   6.870   2.065   5.540
 2215SOL    HW2 7545   6.982   2.153   5.621
 2216SOL     OW 7546   0.802   6.634   0.739
 2216SOL    HW1 7547   0.791   6.536   0.759
 2216SOL    HW2 7548   0.893   6.650   0.701
 2217SOL     OW 7549   4.779   0.071   1.357
 2217SOL    HW1 7550   4.703   0.109   1.409
 2217SOL    HW2 7551   4.814   7.019   1.404
 2218SOL     OW 7552   1.019   5.529   6.223
 2218SOL    HW1 7553   1.005   5.471   6.303
 2218SOL    HW2 7554   1.091   5.596   6.242
 2219SOL     OW 7555   1.464   4.042   2.967
 2219SOL    HW1 7556   1.399   4.024   2.894
 2219SOL    HW2 7557   1.423   4.105   3.033
 2220SOL     OW 7558   0.409   2.060   5.388
 2220SOL    HW1 7559   0.399   2.148   5.435
 2220SOL    HW2 7560   0.340   1.996   5.422
 2221SOL     OW 7561   6.824   1.877   1.219
 2221SOL    HW1 7562   6.845   1.897   1.314
 2221SOL    HW2 7563   6.760   1.946   1.183
 2222SOL     OW 7564   4.810   6.868   2.315
 2222SOL    HW1 7565   4.841   6.790   2.262
 2222SOL    HW2 7566   4.733   6.911   2.268
 2223SOL     OW 7567   5.877   5.377   4.294
 2223SOL    HW1 7568   5.940   5.323   4.239
 2223SOL    HW2 7569   5.789   5.384   4.247
 2224SOL     OW 7570   2.324   4.866   1.706
 2224SOL    HW1 7571   2.310   4.962   1.731
 2224SOL    HW2 7572   2.421   4.845   1.703
 2225SOL     OW 7573   6.451   5.071   2.276
 2225SOL    HW1 7574   6.551   5.065   2.274
 2225SOL    HW2 7575   6.414   5.053   2.185
 2226SOL     OW 7576   4.037   2.880   1.199
 2226SOL    HW1 7577   4.030   2.785   1.228
 2226SOL    HW2 7578   4.115   2.923   1.245
 2227SOL     OW 7579   6.501   4.030   5.948
 2227SOL    HW1 7580   6.512   4.104   6.015
 2227SOL    HW2 7581   6.419   3.977   5.970
 2228SOL     OW 7582   3.169   4.840   6.083
 2228SOL    HW1 7583   3.257   4.792   6.081
 2228SOL    HW2 7584   3.123   4.821   6.170
 2229SOL     OW 7585   4.560   1.208   3.278
 2229SOL    HW1 7586   4.521   1.191   3.188
 2229SOL    HW2 7587   4.656   1.180   3.279
 2230SOL     OW 7588   0.773   5.716   5.119
 2230SOL    HW1 7589   0.740   5.622   5.124
 2230SOL    HW2 7590   0.839   5.725   5.045
 2231SOL     OW 7591   2.228   0.257   1.928
 2231SOL    HW1 7592   2.194   0.348   1.903
 2231SOL    HW2 7593   2.271   0.214   1.848
 2232SOL     OW 7594   6.764   2.869   2.454
 2232SOL    HW1 7595   6.755   2.893   2.357
 2232SOL    HW2 7596   6.749   2.950   2.510
 2233SOL     OW 7597   3.563   6.364   0.341
 2233SOL    HW1 7598   3.476   6.395   0.302
 2233SOL    HW2 7599   3.603   6.294   0.282
 2234SOL     OW 7600   3.336   1.338   0.644
 2234SOL    HW1 7601   3.313   1.246   0.611
 2234SOL    HW2 7602   3.385   1.387   0.572
 2235SOL     OW 7603   1.014   7.012   0.800
 2235SOL    HW1 7604   0.960   6.937   0.839
 2235SOL    HW2 7605   1.019   7.001   0.701
 2236SOL     OW 7606   0.721   4.570   1.214
 2236SOL    HW1 7607   0.800   4.622   1.180
 2236SOL    HW2 7608   0.751   4.480   1.245
 2237SOL     OW 7609   6.949   3.023   4.773
 2237SOL    HW1 7610   6.943   2.990   4.678
 2237SOL    HW2 7611   0.013   3.051   4.793
 2238SOL     OW 7612   0.420   5.734   1.886
 2238SOL    HW1 7613   0.514   5.750   1.917
 2238SOL    HW2 7614   0.396   5.802   1.817
 2239SOL     OW 7615   3.764   4.930   3.678
 2239SOL    HW1 7616   3.771   4.938   3.777
 2239SOL    HW2 7617   3.669   4.911   3.652
 2240SOL     OW 7618   6.774   5.225   2.986
 2240SOL    HW1 7619   6.704   5.231   2.915
 2240SOL    HW2 7620   6.739   5.175   3.065
 2241SOL     OW 7621   6.827   6.573   1.790
 2241SOL    HW1 7622   6.824   6.542   1.885
 2241SOL    HW2 7623   6.754   6.641   1.775
 2242SOL     OW 7624   4.905   2.214   3.063
 2242SOL    HW1 7625   4.862   2.265   2.989
 2242SOL    HW2 7626   4.984   2.265   3.097
 2243SOL     OW 7627   2.026   5.883   5.084
 2243SOL    HW1 7628   1.996   5.978   5.068
 2243SOL    HW2 7629   1.951   5.821   5.061
 2244SOL     OW 7630   2.407   0.274   4.472
 2244SOL    HW1 7631   2.346   0.250   4.548
 2244SOL    HW2 7632   2.409   0.373   4.460
 2245SOL     OW 7633   0.534   1.643   2.719
 2245SOL    HW1 7634   0.536   1.624   2.621
 2245SOL    HW2 7635   0.520   1.741   2.733
 2246SOL     OW 7636   1.237   3.715   6.307
 2246SOL    HW1 7637   1.148   3.755   6.331
 2246SOL    HW2 7638   1.310   3.776   6.338
 2247SOL     OW 7639   1.958   2.502   6.374
 2247SOL    HW1 7640   1.903   2.584   6.392
 2247SOL    HW2 7641   1.926   2.459   6.289
 2248SOL     OW 7642   4.670   4.184   5.411
 2248SOL    HW1 7643   4.644   4.267   5.461
 2248SOL    HW2 7644   4.759   4.152   5.443
 2249SOL     OW 7645   5.444   6.030   3.325
 2249SOL    HW1 7646   5.378   5.956   3.316
 2249SOL    HW2 7647   5.425   6.100   3.256
 2250SOL     OW 7648   6.407   4.207   0.843
 2250SOL    HW1 7649   6.389   4.238   0.750
 2250SOL    HW2 7650   6.400   4.107   0.847
 2251SOL     OW 7651   5.745   1.233   0.015
 2251SOL    HW1 7652   5.658   1.192   0.044
 2251SOL    HW2 7653   5.786   1.281   0.092
 2252SOL     OW 7654   5.313   2.700   5.092
 2252SOL    HW1 7655   5.267   2.653   5.167
 2252SOL    HW2 7656   5.246   2.752   5.038
 2253SOL     OW 7657   2.547   2.955   6.717
 2253SOL    HW1 7658   2.622   2.890   6.731
 2253SOL    HW2 7659   2.550   3.024   6.789
 2254SOL     OW 7660   2.237   3.563   6.268
 2254SOL    HW1 7661   2.138   3.577   6.276
 2254SOL    HW2 7662   2.270   3.603   6.182
 2255SOL     OW 7663   6.052   2.587   2.052
 2255SOL    HW1 7664   5.976   2.609   2.113
 2255SOL    HW2 7665   6.018   2.581   1.958
 2256SOL     OW 7666   4.138   4.831   2.166
 2256SOL    HW1 7667   4.229   4.790   2.176
 2256SOL    HW2 7668   4.096   4.796   2.082
 2257SOL     OW 7669   1.547   3.992   3.938
 2257SOL    HW1 7670   1.528   3.958   3.846
 2257SOL    HW2 7671   1.646   3.997   3.952
 2258SOL     OW 7672   1.572   5.425   5.065
 2258SOL    HW1 7673   1.521   5.507   5.039
 2258SOL    HW2 7674   1.556   5.405   5.162
 2259SOL     OW 7675   5.302   3.890   6.949
 2259SOL    HW1 7676   5.339   3.899   6.856
 2259SOL    HW2 7677   5.342   3.810   6.993
 2260SOL     OW 7678   5.327   4.954   1.564
 2260SOL    HW1 7679   5.271   4.883   1.520
 2260SOL    HW2 7680   5.368   5.013   1.494
 2261SOL     OW 7681   5.636   6.352   0.601
 2261SOL    HW1 7682   5.556   6.300   0.632
 2261SOL    HW2 7683   5.614   6.398   0.515
 2262SOL     OW 7684   4.918   2.616   3.710
 2262SOL    HW1 7685   4.979   2.672   3.767
 2262SOL    HW2 7686   4.832   2.664   3.695
 2263SOL     OW 7687   1.477   5.383   5.934
 2263SOL    HW1 7688   1.561   5.332   5.950
 2263SOL    HW2 7689   1.492   5.453   5.864
 2264SOL     OW 7690   3.068   3.447   3.476
 2264SOL    HW1 7691   3.055   3.352   3.449
 2264SOL    HW2 7692   3.125   3.494   3.408
 2265SOL     OW 7693   0.220   0.446   2.089
 2265SOL    HW1 7694   0.188   0.388   2.164
 2265SOL    HW2 7695   0.172   0.534   2.091
 2266SOL     OW 7696   6.083   0.523   0.730
 2266SOL    HW1 7697   6.140   0.586   0.783
 2266SOL    HW2 7698   6.038   0.459   0.793
 2267SOL     OW 7699   6.133   2.520   5.314
 2267SOL    HW1 7700   6.139   2.523   5.413
 2267SOL    HW2 7701   6.155   2.428   5.281
 2268SOL     OW 7702   7.022   6.336   0.132
 2268SOL    HW1 7703   7.021   6.401   0.056
 2268SOL    HW2 7704   0.047   6.373   0.207
 2269SOL     OW 7705   6.452   5.572   5.950
 2269SOL    HW1 7706   6.538   5.564   5.900
 2269SOL    HW2 7707   6.433   5.668   5.970
 2270SOL     OW 7708   3.211   3.245   2.085
 2270SOL    HW1 7709   3.115   3.263   2.066
 2270SOL    HW2 7710   3.248   3.184   2.015
 2271SOL     OW 7711   5.895   4.695   1.820
 2271SOL    HW1 7712   5.920   4.650   1.735
 2271SOL    HW2 7713   5.819   4.757   1.804
 2272SOL     OW 7714   5.469   1.983   5.460
 2272SOL    HW1 7715   5.439   2.040   5.536
 2272SOL    HW2 7716   5.458   1.887   5.484
 2273SOL     OW 7717   0.811   1.187   3.468
 2273SOL    HW1 7718   0.822   1.106   3.410
 2273SOL    HW2 7719   0.855   1.266   3.425
 2274SOL     OW 7720   1.348   3.425   4.922
 2274SOL    HW1 7721   1.448   3.416   4.928
 2274SOL    HW2 7722   1.323   3.521   4.934
 2275SOL     OW 7723   5.145   5.774   4.707
 2275SOL    HW1 7724   5.242   5.756   4.694
 2275SOL    HW2 7725   5.133   5.868   4.739
 2276SOL     OW 7726   4.198   4.321   1.052
 2276SOL    HW1 7727   4.172   4.227   1.028
 2276SOL    HW2 7728   4.296   4.333   1.038
 2277SOL     OW 7729   3.296   3.223   6.776
 2277SOL    HW1 7730   3.255   3.181   6.856
 2277SOL    HW2 7731   3.281   3.321   6.777
 2278SOL     OW 7732   5.370   6.072   1.623
 2278SOL    HW1 7733   5.455   6.120   1.646
 2278SOL    HW2 7734   5.310   6.134   1.573
 2279SOL     OW 7735   5.597   2.932   4.890
 2279SOL    HW1 7736   5.601   2.904   4.794
 2279SOL    HW2 7737   5.511   2.980   4.907
 2280SOL     OW 7738   6.237   6.223   5.473
 2280SOL    HW1 7739   6.154   6.279   5.471
 2280SOL    HW2 7740   6.300   6.259   5.542
 2281SOL     OW 7741   3.647   1.939   1.642
 2281SOL    HW1 7742   3.735   1.948   1.596
 2281SOL    HW2 7743   3.579   1.903   1.577
 2282SOL     OW 7744   5.049   5.792   3.409
 2282SOL    HW1 7745   5.084   5.707   3.450
 2282SOL    HW2 7746   4.980   5.832   3.469
 2283SOL     OW 7747   0.171   3.524   3.725
 2283SOL    HW1 7748   0.237   3.468   3.774
 2283SOL    HW2 7749   0.080   3.509   3.764
 2284SOL     OW 7750   2.490   1.979   1.561
 2284SOL    HW1 7751   2.423   2.025   1.618
 2284SOL    HW2 7752   2.575   2.033   1.559
 2285SOL     OW 7753   0.899   3.338   0.645
 2285SOL    HW1 7754   0.806   3.361   0.675
 2285SOL    HW2 7755   0.965   3.393   0.696
 2286SOL     OW 7756   6.119   6.178   4.554
 2286SOL    HW1 7757   6.181   6.111   4.513
 2286SOL    HW2 7758   6.026   6.142   4.554
 2287SOL     OW 7759   2.537   2.590   1.586
 2287SOL    HW1 7760   2.575   2.543   1.507
 2287SOL    HW2 7761   2.606   2.654   1.622
 2288SOL     OW 7762   0.051   6.366   2.588
 2288SOL    HW1 7763   7.009   6.421   2.544
 2288SOL    HW2 7764   0.026   6.349   2.683
 2289SOL     OW 7765   5.881   1.799   2.563
 2289SOL    HW1 7766   5.902   1.756   2.650
 2289SOL    HW2 7767   5.786   1.828   2.562
 2290SOL     OW 7768   3.088   3.927   3.372
 2290SOL    HW1 7769   3.112   3.976   3.289
 2290SOL    HW2 7770   3.166   3.873   3.403
 2291SOL     OW 7771   2.115   2.388   1.338
 2291SOL    HW1 7772   2.153   2.480   1.331
 2291SOL    HW2 7773   2.188   2.320   1.335
 2292SOL     OW 7774   4.321   1.971   2.986
 2292SOL    HW1 7775   4.419   1.976   3.004
 2292SOL    HW2 7776   4.283   2.064   2.983
 2293SOL     OW 7777   5.370   1.249   0.676
 2293SOL    HW1 7778   5.405   1.227   0.585
 2293SOL    HW2 7779   5.421   1.326   0.714
 2294SOL     OW 7780   1.392   2.734   6.623
 2294SOL    HW1 7781   1.488   2.760   6.607
 2294SOL    HW2 7782   1.368   2.656   6.566
 2295SOL     OW 7783   6.986   6.953   2.180
 2295SOL    HW1 7784   0.040   6.994   2.217
 2295SOL    HW2 7785   6.982   6.856   2.205
 2296SOL     OW 7786   2.643   5.478   3.329
 2296SOL    HW1 7787   2.565   5.515   3.278
 2296SOL    HW2 7788   2.620   5.474   3.426
 2297SOL     OW 7789   4.623   5.125   5.533
 2297SOL    HW1 7790   4.530   5.135   5.498
 2297SOL    HW2 7791   4.638   5.030   5.560
 2298SOL     OW 7792   3.665   2.952   4.688
 2298SOL    HW1 7793   3.742   2.968   4.750
 2298SOL    HW2 7794   3.580   2.976   4.734
 2299SOL     OW 7795   5.643   2.992   5.145
 2299SOL    HW1 7796   5.609   2.926   5.211
 2299SOL    HW2 7797   5.640   2.952   5.053
 2300SOL     OW 7798   4.171   6.397   2.908
 2300SOL    HW1 7799   4.165   6.430   2.814
 2300SOL    HW2 7800   4.222   6.462   2.964
 2301SOL     OW 7801   3.400   3.027   4.393
 2301SOL    HW1 7802   3.364   3.016   4.300
 2301SOL    HW2 7803   3.500   3.023   4.391
 2302SOL     OW 7804   4.504   2.021   0.154
 2302SOL    HW1 7805   4.506   2.092   0.224
 2302SOL    HW2 7806   4.591   2.019   0.106
 2303SOL     OW 7807   2.322   2.361   0.740
 2303SOL    HW1 7808   2.383   2.285   0.764
 2303SOL    HW2 7809   2.346   2.396   0.650
 2304SOL     OW 7810   6.189   6.164   2.742
 2304SOL    HW1 7811   6.121   6.224   2.701
 2304SOL    HW2 7812   6.143   6.095   2.798
 2305SOL     OW 7813   1.468   1.175   5.182
 2305SOL    HW1 7814   1.473   1.269   5.147
 2305SOL    HW2 7815   1.560   1.143   5.204
 2306SOL     OW 7816   2.489   4.939   3.384
 2306SOL    HW1 7817   2.583   4.966   3.406
 2306SOL    HW2 7818   2.457   4.872   3.450
 2307SOL     OW 7819   1.211   2.453   5.612
 2307SOL    HW1 7820   1.179   2.485   5.701
 2307SOL    HW2 7821   1.243   2.359   5.619
 2308SOL     OW 7822   2.621   4.633   1.847
 2308SOL    HW1 7823   2.563   4.572   1.900
 2308SOL    HW2 7824   2.711   4.639   1.889
 2309SOL     OW 7825   1.167   6.374   4.178
 2309SOL    HW1 7826   1.105   6.317   4.123
 2309SOL    HW2 7827   1.259   6.370   4.139
 2310SOL     OW 7828   4.287   0.026   1.276
 2310SOL    HW1 7829   4.321   0.115   1.307
 2310SOL    HW2 7830   4.338   7.026   1.195
 2311SOL     OW 7831   2.612   5.905   0.867
 2311SOL    HW1 7832   2.576   5.979   0.925
 2311SOL    HW2 7833   2.672   5.945   0.797
 2312SOL     OW 7834   3.864   5.536   2.478
 2312SOL    HW1 7835   3.818   5.530   2.567
 2312SOL    HW2 7836   3.801   5.507   2.406
 2313SOL     OW 7837   4.972   4.909   2.303
 2313SOL    HW1 7838   4.956   4.873   2.394
 2313SOL    HW2 7839   4.928   4.998   2.294
 2314SOL     OW 7840   3.245   5.822   3.502
 2314SOL    HW1 7841   3.211   5.729   3.484
 2314SOL    HW2 7842   3.340   5.829   3.473
 2315SOL     OW 7843   3.991   3.355   5.944
 2315SOL    HW1 7844   3.933   3.304   5.880
 2315SOL    HW2 7845   4.074   3.303   5.962
 2316SOL     OW 7846   5.594   2.713   3.083
 2316SOL    HW1 7847   5.540   2.676   3.008
 2316SOL    HW2 7848   5.572   2.810   3.096
 2317SOL     OW 7849   2.040   4.557   3.276
 2317SOL    HW1 7850   2.074   4.518   3.361
 2317SOL    HW2 7851   2.096   4.635   3.250
 2318SOL     OW 7852   0.365   1.124   3.265
 2318SOL    HW1 7853   0.453   1.130   3.217
 2318SOL    HW2 7854   0.370   1.179   3.348
 2319SOL     OW 7855   1.535   5.012   4.460
 2319SOL    HW1 7856   1.446   5.018   4.415
 2319SOL    HW2 7857   1.606   5.046   4.399
 2320SOL     OW 7858   0.137   2.832   4.125
 2320SOL    HW1 7859   0.195   2.769   4.074
 2320SOL    HW2 7860   0.041   2.805   4.118
 2321SOL     OW 7861   3.314   6.870   4.849
 2321SOL    HW1 7862   3.239   6.813   4.816
 2321SOL    HW2 7863   3.306   6.883   4.948
 2322SOL     OW 7864   1.484   0.838   5.288
 2322SOL    HW1 7865   1.391   0.865   5.263
 2322SOL    HW2 7866   1.500   0.743   5.258
 2323SOL     OW 7867   4.328   5.879   2.337
 2323SOL    HW1 7868   4.342   5.963   2.388
 2323SOL    HW2 7869   4.416   5.833   2.322
 2324SOL     OW 7870   0.536   5.835   2.548
 2324SOL    HW1 7871   0.618   5.864   2.500
 2324SOL    HW2 7872   0.471   5.795   2.483
 2325SOL     OW 7873   1.159   3.874   1.029
 2325SOL    HW1 7874   1.192   3.800   1.086
 2325SOL    HW2 7875   1.222   3.951   1.034
 2326SOL     OW 7876   1.384   5.268   6.847
 2326SOL    HW1 7877   1.294   5.303   6.825
 2326SOL    HW2 7878   1.409   5.296   6.940
 2327SOL     OW 7879   5.098   2.675   3.501
 2327SOL    HW1 7880   5.054   2.737   3.436
 2327SOL    HW2 7881   5.052   2.682   3.590
 2328SOL     OW 7882   4.658   1.142   2.978
 2328SOL    HW1 7883   4.595   1.219   2.968
 2328SOL    HW2 7884   4.752   1.176   2.983
 2329SOL     OW 7885   1.197   5.953   3.675
 2329SOL    HW1 7886   1.295   5.962   3.659
 2329SOL    HW2 7887   1.181   5.876   3.737
 2330SOL     OW 7888   0.850   4.376   2.822
 2330SOL    HW1 7889   0.947   4.353   2.830
 2330SOL    HW2 7890   0.840   4.475   2.811
 2331SOL     OW 7891   0.595   4.259   5.347
 2331SOL    HW1 7892   0.495   4.268   5.346
 2331SOL    HW2 7893   0.635   4.319   5.277
 2332SOL     OW 7894   5.325   1.974   6.085
 2332SOL    HW1 7895   5.270   1.913   6.142
 2332SOL    HW2 7896   5.413   1.991   6.129
 2333SOL     OW 7897   1.046   5.744   3.329
 2333SOL    HW1 7898   1.035   5.754   3.230
 2333SOL    HW2 7899   1.040   5.834   3.373
 2334SOL     OW 7900   3.131   7.018   6.715
 2334SOL    HW1 7901   3.133   0.030   6.806
 2334SOL    HW2 7902   3.077   6.934   6.718
 2335SOL     OW 7903   4.805   6.882   3.272
 2335SOL    HW1 7904   4.848   6.865   3.361
 2335SOL    HW2 7905   4.710   6.852   3.275
 2336SOL     OW 7906   4.904   1.156   5.629
 2336SOL    HW1 7907   4.833   1.224   5.650
 2336SOL    HW2 7908   4.948   1.126   5.714
 2337SOL     OW 7909   4.951   0.072   3.171
 2337SOL    HW1 7910   4.946   7.002   3.176
 2337SOL    HW2 7911   4.891   0.111   3.241
 2338SOL     OW 7912   0.691   6.877   6.301
 2338SOL    HW1 7913   0.670   6.915   6.211
 2338SOL    HW2 7914   0.613   6.889   6.361
 2339SOL     OW 7915   3.722   4.735   0.044
 2339SOL    HW1 7916   3.706   4.820   0.093
 2339SOL    HW2 7917   3.636   4.702   0.004
 2340SOL     OW 7918   3.452   5.829   4.625
 2340SOL    HW1 7919   3.398   5.783   4.696
 2340SOL    HW2 7920   3.490   5.914   4.662
 2341SOL     OW 7921   5.205   5.374   1.007
 2341SOL    HW1 7922   5.209   5.383   1.107
 2341SOL    HW2 7923   5.258   5.447   0.965
 2342SOL     OW 7924   6.362   0.350   5.060
 2342SOL    HW1 7925   6.452   0.393   5.068
 2342SOL    HW2 7926   6.372   0.257   5.024
 2343SOL     OW 7927   1.177   5.471   0.908
 2343SOL    HW1 7928   1.184   5.393   0.971
 2343SOL    HW2 7929   1.269   5.495   0.875
 2344SOL     OW 7930   1.825   1.899   2.173
 2344SOL    HW1 7931   1.797   1.860   2.085
 2344SOL    HW2 7932   1.777   1.986   2.188
 2345SOL     OW 7933   1.781   0.769   4.508
 2345SOL    HW1 7934   1.846   0.694   4.521
 2345SOL    HW2 7935   1.722   0.749   4.430
 2346SOL     OW 7936   5.612   3.864   5.892
 2346SOL    HW1 7937   5.638   3.882   5.987
 2346SOL    HW2 7938   5.567   3.945   5.854
 2347SOL     OW 7939   1.717   2.533   1.658
 2347SOL    HW1 7940   1.705   2.594   1.736
 2347SOL    HW2 7941   1.814   2.527   1.635
 2348SOL     OW 7942   2.764   6.164   2.504
 2348SOL    HW1 7943   2.679   6.164   2.557
 2348SOL    HW2 7944   2.828   6.097   2.543
 2349SOL     OW 7945   6.492   6.597   6.323
 2349SOL    HW1 7946   6.539   6.518   6.363
 2349SOL    HW2 7947   6.535   6.681   6.356
 2350SOL     OW 7948   2.779   0.317   6.049
 2350SOL    HW1 7949   2.805   0.356   5.961
 2350SOL    HW2 7950   2.808   0.222   6.054
 2351SOL     OW 7951   2.480   5.386   4.146
 2351SOL    HW1 7952   2.538   5.412   4.223
 2351SOL    HW2 7953   2.488   5.454   4.073
 2352SOL     OW 7954   0.625   4.258   3.097
 2352SOL    HW1 7955   0.559   4.295   3.031
 2352SOL    HW2 7956   0.688   4.331   3.126
 2353SOL     OW 7957   2.731   4.693   5.880
 2353SOL    HW1 7958   2.747   4.640   5.797
 2353SOL    HW2 7959   2.818   4.718   5.922
 2354SOL     OW 7960   3.087   1.911   0.621
 2354SOL    HW1 7961   3.117   1.954   0.706
 2354SOL    HW2 7962   3.164   1.905   0.557
 2355SOL     OW 7963   0.660   6.281   0.386
 2355SOL    HW1 7964   0.747   6.233   0.381
 2355SOL    HW2 7965   0.596   6.243   0.319
 2356SOL     OW 7966   2.629   5.111   2.942
 2356SOL    HW1 7967   2.596   5.031   2.992
 2356SOL    HW2 7968   2.591   5.194   2.984
 2357SOL     OW 7969   6.176   4.452   2.227
 2357SOL    HW1 7970   6.148   4.417   2.137
 2357SOL    HW2 7971   6.276   4.447   2.234
 2358SOL     OW 7972   3.404   1.199   5.807
 2358SOL    HW1 7973   3.485   1.243   5.846
 2358SOL    HW2 7974   3.422   1.103   5.790
 2359SOL     OW 7975   1.932   1.470   5.459
 2359SOL    HW1 7976   1.850   1.528   5.464
 2359SOL    HW2 7977   1.905   1.374   5.471
 2360SOL     OW 7978   4.742   4.647   0.778
 2360SOL    HW1 7979   4.700   4.641   0.869
 2360SOL    HW2 7980   4.727   4.739   0.742
 2361SOL     OW 7981   3.295   6.876   2.181
 2361SOL    HW1 7982   3.328   6.856   2.088
 2361SOL    HW2 7983   3.199   6.848   2.188
 2362SOL     OW 7984   4.194   5.494   4.588
 2362SOL    HW1 7985   4.107   5.464   4.627
 2362SOL    HW2 7986   4.212   5.443   4.504
 2363SOL     OW 7987   3.553   3.092   0.624
 2363SOL    HW1 7988   3.473   3.080   0.684
 2363SOL    HW2 7989   3.524   3.084   0.529
 2364SOL     OW 7990   4.479   1.853   1.916
 2364SOL    HW1 7991   4.387   1.885   1.895
 2364SOL    HW2 7992   4.509   1.789   1.844
 2365SOL     OW 7993   5.456   3.571   4.359
 2365SOL    HW1 7994   5.483   3.666   4.376
 2365SOL    HW2 7995   5.535   3.520   4.324
 2366SOL     OW 7996   2.554   4.432   5.220
 2366SOL    HW1 7997   2.592   4.346   5.254
 2366SOL    HW2 7998   2.478   4.414   5.159
 2367SOL     OW 7999   0.890   4.248   6.053
 2367SOL    HW1 8000   0.920   4.181   5.985
 2367SOL    HW2 8001   0.958   4.253   6.127
 2368SOL     OW 8002   5.343   0.253   4.161
 2368SOL    HW1 8003   5.384   0.338   4.193
 2368SOL    HW2 8004   5.389   0.176   4.204
 2369SOL     OW 8005   2.967   1.159   3.427
 2369SOL    HW1 8006   3.014   1.246   3.410
 2369SOL    HW2 8007   2.869   1.175   3.433
 2370SOL     OW 8008   5.376   3.303   1.559
 2370SOL    HW1 8009   5.294   3.352   1.590
 2370SOL    HW2 8010   5.452   3.323   1.620
 2371SOL     OW 8011   0.655   6.791   2.890
 2371SOL    HW1 8012   0.618   6.708   2.848
 2371SOL    HW2 8013   0.617   6.871   2.844
 2372SOL     OW 8014   6.656   1.285   6.133
 2372SOL    HW1 8015   6.643   1.252   6.227
 2372SOL    HW2 8016   6.570   1.322   6.099
 2373SOL     OW 8017   6.356   7.011   6.254
 2373SOL    HW1 8018   6.326   6.919   6.229
 2373SOL    HW2 8019   6.320   0.004   6.345
 2374SOL     OW 8020   6.118   6.490   2.832
 2374SOL    HW1 8021   6.167   6.465   2.748
 2374SOL    HW2 8022   6.138   6.585   2.855
 2375SOL     OW 8023   0.753   0.462   4.394
 2375SOL    HW1 8024   0.738   0.519   4.475
 2375SOL    HW2 8025   0.851   0.456   4.376
 2376SOL     OW 8026   6.460   2.316   3.252
 2376SOL    HW1 8027   6.516   2.243   3.213
 2376SOL    HW2 8028   6.455   2.304   3.351
 2377SOL     OW 8029   4.198   4.852   5.795
 2377SOL    HW1 8030   4.165   4.786   5.727
 2377SOL    HW2 8031   4.150   4.939   5.783
 2378SOL     OW 8032   6.608   1.593   0.712
 2378SOL    HW1 8033   6.618   1.602   0.613
 2378SOL    HW2 8034   6.529   1.533   0.732
 2379SOL     OW 8035   6.889   5.203   0.316
 2379SOL    HW1 8036   6.843   5.146   0.384
 2379SOL    HW2 8037   6.954   5.147   0.264
 2380SOL     OW 8038   4.978   4.216   4.684
 2380SOL    HW1 8039   5.041   4.292   4.668
 2380SOL    HW2 8040   5.027   4.129   4.674
 2381SOL     OW 8041   2.693   5.407   4.944
 2381SOL    HW1 8042   2.684   5.311   4.916
 2381SOL    HW2 8043   2.762   5.414   5.015
 2382SOL     OW 8044   1.476   6.315   2.029
 2382SOL    HW1 8045   1.573   6.288   2.030
 2382SOL    HW2 8046   1.422   6.248   2.080
 2383SOL     OW 8047   4.948   5.605   4.720
 2383SOL    HW1 8048   5.009   5.683   4.712
 2383SOL    HW2 8049   4.860   5.636   4.756
 2384SOL     OW 8050   1.010   1.776   1.622
 2384SOL    HW1 8051   1.087   1.796   1.681
 2384SOL    HW2 8052   1.042   1.764   1.528
 2385SOL     OW 8053   0.578   1.840   1.051
 2385SOL    HW1 8054   0.577   1.940   1.044
 2385SOL    HW2 8055   0.578   1.800   0.959
 2386SOL     OW 8056   3.874   5.700   4.405
 2386SOL    HW1 8057   3.898   5.615   4.357
 2386SOL    HW2 8058   3.957   5.751   4.426
 2387SOL     OW 8059   1.037   1.967   3.398
 2387SOL    HW1 8060   0.996   2.020   3.323
 2387SOL    HW2 8061   1.122   2.011   3.427
 2388SOL     OW 8062   6.869   1.970   6.429
 2388SOL    HW1 8063   6.891   2.067   6.417
 2388SOL    HW2 8064   6.954   1.918   6.440
 2389SOL     OW 8065   5.128   4.601   3.802
 2389SOL    HW1 8066   5.128   4.699   3.818
 2389SOL    HW2 8067   5.040   4.563   3.831
 2390SOL     OW 8068   4.848   3.494   5.688
 2390SOL    HW1 8069   4.774   3.428   5.701
 2390SOL    HW2 8070   4.866   3.542   5.774
 2391SOL     OW 8071   3.051   3.639   6.038
 2391SOL    HW1 8072   3.000   3.650   5.952
 2391SOL    HW2 8073   3.031   3.716   6.098
 2392SOL     OW 8074   3.367   5.727   5.169
 2392SOL    HW1 8075   3.274   5.726   5.206
 2392SOL    HW2 8076   3.432   5.729   5.245
 2393SOL     OW 8077   3.725   5.494   1.311
 2393SOL    HW1 8078   3.648   5.529   1.259
 2393SOL    HW2 8079   3.711   5.397   1.331
 2394SOL     OW 8080   0.467   3.212   3.396
 2394SOL    HW1 8081   0.506   3.304   3.387
 2394SOL    HW2 8082   0.539   3.145   3.379
 2395SOL     OW 8083   0.566   2.976   5.839
 2395SOL    HW1 8084   0.643   3.039   5.826
 2395SOL    HW2 8085   0.601   2.887   5.869
 2396SOL     OW 8086   6.059   1.161   4.937
 2396SOL    HW1 8087   6.110   1.106   4.871
 2396SOL    HW2 8088   6.102   1.154   5.027
 2397SOL     OW 8089   0.767   4.803   5.523
 2397SOL    HW1 8090   0.832   4.829   5.594
 2397SOL    HW2 8091   0.780   4.706   5.500
 2398SOL     OW 8092   2.492   5.588   3.989
 2398SOL    HW1 8093   2.430   5.661   4.018
 2398SOL    HW2 8094   2.556   5.623   3.920
 2399SOL     OW 8095   2.685   2.324   3.565
 2399SOL    HW1 8096   2.649   2.281   3.648
 2399SOL    HW2 8097   2.642   2.414   3.552
 2400SOL     OW 8098   1.595   3.497   0.224
 2400SOL    HW1 8099   1.587   3.562   0.300
 2400SOL    HW2 8100   1.573   3.543   0.139
 2401SOL     OW 8101   3.730   7.002   4.891
 2401SOL    HW1 8102   3.683   0.003   4.974
 2401SOL    HW2 8103   3.793   6.928   4.914
 2402SOL     OW 8104   0.928   2.516   2.555
 2402SOL    HW1 8105   0.981   2.566   2.624
 2402SOL    HW2 8106   0.849   2.571   2.527
 2403SOL     OW 8107   3.642   3.722   2.163
 2403SOL    HW1 8108   3.683   3.800   2.209
 2403SOL    HW2 8109   3.552   3.748   2.128
 2404SOL     OW 8110   6.776   0.862   1.045
 2404SOL    HW1 8111   6.701   0.796   1.042
 2404SOL    HW2 8112   6.745   0.946   1.090
 2405SOL     OW 8113   2.553   4.258   0.430
 2405SOL    HW1 8114   2.527   4.296   0.519
 2405SOL    HW2 8115   2.653   4.247   0.426
 2406SOL     OW 8116   2.027   0.181   4.153
 2406SOL    HW1 8117   2.011   0.251   4.084
 2406SOL    HW2 8118   1.943   0.168   4.206
 2407SOL     OW 8119   3.695   1.643   3.348
 2407SOL    HW1 8120   3.630   1.581   3.305
 2407SOL    HW2 8121   3.695   1.731   3.300
 2408SOL     OW 8122   2.114   6.278   3.784
 2408SOL    HW1 8123   2.135   6.375   3.800
 2408SOL    HW2 8124   2.137   6.254   3.690
 2409SOL     OW 8125   2.327   2.636   0.816
 2409SOL    HW1 8126   2.260   2.615   0.887
 2409SOL    HW2 8127   2.359   2.551   0.773
 2410SOL     OW 8128   6.543   3.303   5.958
 2410SOL    HW1 8129   6.546   3.228   5.892
 2410SOL    HW2 8130   6.510   3.268   6.046
 2411SOL     OW 8131   3.033   3.696   6.850
 2411SOL    HW1 8132   3.035   3.791   6.822
 2411SOL    HW2 8133   3.010   3.690   6.947
 2412SOL     OW 8134   2.588   2.315   6.783
 2412SOL    HW1 8135   2.576   2.405   6.741
 2412SOL    HW2 8136   2.539   2.246   6.729
 2413SOL     OW 8137   6.717   2.575   6.609
 2413SOL    HW1 8138   6.684   2.527   6.691
 2413SOL    HW2 8139   6.817   2.582   6.613
 2414SOL     OW 8140   5.848   2.722   4.251
 2414SOL    HW1 8141   5.793   2.661   4.308
 2414SOL    HW2 8142   5.945   2.697   4.258
 2415SOL     OW 8143   2.582   6.494   0.765
 2415SOL    HW1 8144   2.527   6.476   0.846
 2415SOL    HW2 8145   2.535   6.458   0.684
 2416SOL     OW 8146   0.023   3.403   3.158
 2416SOL    HW1 8147   0.004   3.344   3.079
 2416SOL    HW2 8148   6.974   3.402   3.220
 2417SOL     OW 8149   3.982   2.535   0.503
 2417SOL    HW1 8150   4.066   2.486   0.526
 2417SOL    HW2 8151   3.958   2.597   0.578
 2418SOL     OW 8152   4.854   4.316   5.856
 2418SOL    HW1 8153   4.854   4.313   5.956
 2418SOL    HW2 8154   4.807   4.236   5.820
 2419SOL     OW 8155   1.966   6.683   4.346
 2419SOL    HW1 8156   2.016   6.765   4.374
 2419SOL    HW2 8157   1.929   6.696   4.254
 2420SOL     OW 8158   3.547   5.370   2.340
 2420SOL    HW1 8159   3.522   5.396   2.433
 2420SOL    HW2 8160   3.471   5.318   2.299
 2421SOL     OW 8161   3.144   0.109   4.539
 2421SOL    HW1 8162   3.111   0.191   4.494
 2421SOL    HW2 8163   3.069   0.065   4.588
 2422SOL     OW 8164   3.743   6.624   2.203
 2422SOL    HW1 8165   3.741   6.594   2.107
 2422SOL    HW2 8166   3.835   6.611   2.240
 2423SOL     OW 8167   1.653   5.695   2.045
 2423SOL    HW1 8168   1.572   5.689   2.103
 2423SOL    HW2 8169   1.655   5.785   2.001
 2424SOL     OW 8170   5.294   0.391   6.729
 2424SOL    HW1 8171   5.374   0.369   6.674
 2424SOL    HW2 8172   5.301   0.485   6.763
 2425SOL     OW 8173   4.309   5.261   5.541
 2425SOL    HW1 8174   4.316   5.224   5.448
 2425SOL    HW2 8175   4.298   5.360   5.537
 2426SOL     OW 8176   1.118   5.225   5.572
 2426SOL    HW1 8177   1.083   5.297   5.633
 2426SOL    HW2 8178   1.066   5.226   5.486
 2427SOL     OW 8179   4.798   6.829   6.509
 2427SOL    HW1 8180   4.762   6.900   6.570
 2427SOL    HW2 8181   4.733   6.812   6.436
 2428SOL     OW 8182   0.282   1.607   3.785
 2428SOL    HW1 8183   0.349   1.673   3.750
 2428SOL    HW2 8184   0.325   1.517   3.793
 2429SOL     OW 8185   5.414   5.111   2.357
 2429SOL    HW1 8186   5.329   5.153   2.324
 2429SOL    HW2 8187   5.490   5.175   2.342
 2430SOL     OW 8188   5.809   2.594   0.218
 2430SOL    HW1 8189   5.815   2.622   0.314
 2430SOL    HW2 8190   5.897   2.607   0.173
 2431SOL     OW 8191   6.282   2.060   1.898
 2431SOL    HW1 8192   6.307   2.067   1.801
 2431SOL    HW2 8193   6.214   2.130   1.920
 2432SOL     OW 8194   3.441   5.628   1.959
 2432SOL    HW1 8195   3.376   5.693   1.997
 2432SOL    HW2 8196   3.394   5.540   1.945
 2433SOL     OW 8197   6.779   5.703   0.347
 2433SOL    HW1 8198   6.833   5.706   0.263
 2433SOL    HW2 8199   6.737   5.792   0.363
 2434SOL     OW 8200   3.697   2.093   3.003
 2434SOL    HW1 8201   3.760   2.038   2.949
 2434SOL    HW2 8202   3.626   2.131   2.944
 2435SOL     OW 8203   5.584   0.131   6.505
 2435SOL    HW1 8204   5.498   0.081   6.496
 2435SOL    HW2 8205   5.610   0.136   6.601
 2436SOL     OW 8206   1.196   1.361   1.248
 2436SOL    HW1 8207   1.270   1.309   1.291
 2436SOL    HW2 8208   1.113   1.351   1.303
 2437SOL     OW 8209   6.490   6.210   2.493
 2437SOL    HW1 8210   6.571   6.160   2.463
 2437SOL    HW2 8211   6.430   6.148   2.544
 2438SOL     OW 8212   3.331   2.019   4.401
 2438SOL    HW1 8213   3.289   2.075   4.329
 2438SOL    HW2 8214   3.332   2.070   4.487
 2439SOL     OW 8215   0.308   5.156   6.524
 2439SOL    HW1 8216   0.323   5.156   6.623
 2439SOL    HW2 8217   0.361   5.229   6.482
 2440SOL     OW 8218   3.996   1.138   4.815
 2440SOL    HW1 8219   4.092   1.133   4.787
 2440SOL    HW2 8220   3.938   1.143   4.733
 2441SOL     OW 8221   5.619   0.172   6.810
 2441SOL    HW1 8222   5.682   0.122   6.868
 2441SOL    HW2 8223   5.525   0.153   6.838
 2442SOL     OW 8224   5.075   3.614   1.850
 2442SOL    HW1 8225   5.118   3.548   1.789
 2442SOL    HW2 8226   4.976   3.610   1.839
 2443SOL     OW 8227   2.386   0.768   0.030
 2443SOL    HW1 8228   2.405   0.837   6.990
 2443SOL    HW2 8229   2.471   0.736   0.070
 2444SOL     OW 8230   4.716   5.310   0.568
 2444SOL    HW1 8231   4.692   5.227   0.619
 2444SOL    HW2 8232   4.805   5.344   0.599
 2445SOL     OW 8233   6.970   1.732   1.755
 2445SOL    HW1 8234   6.929   1.689   1.835
 2445SOL    HW2 8235   0.002   1.805   1.784
 2446SOL     OW 8236   1.238   2.893   1.847
 2446SOL    HW1 8237   1.144   2.874   1.877
 2446SOL    HW2 8238   1.291   2.929   1.924
 2447SOL     OW 8239   2.009   1.057   0.596
 2447SOL    HW1 8240   2.010   0.993   0.519
 2447SOL    HW2 8241   2.090   1.040   0.653
 2448SOL     OW 8242   5.967   2.021   4.228
 2448SOL    HW1 8243   5.938   2.084   4.301
 2448SOL    HW2 8244   5.998   2.074   4.149
 2449SOL     OW 8245   1.903   4.415   2.130
 2449SOL    HW1 8246   1.919   4.339   2.067
 2449SOL    HW2 8247   1.822   4.395   2.186
 2450SOL     OW 8248   2.794   5.206   6.703
 2450SOL    HW1 8249   2.796   5.298   6.742
 2450SOL    HW2 8250   2.883   5.162   6.718
 2451SOL     OW 8251   0.663   0.039   4.161
 2451SOL    HW1 8252   0.570   0.076   4.168
 2451SOL    HW2 8253   0.723   0.108   4.121
 2452SOL     OW 8254   2.489   2.621   3.226
 2452SOL    HW1 8255   2.511   2.660   3.137
 2452SOL    HW2 8256   2.413   2.557   3.216
 2453SOL     OW 8257   6.647   1.888   0.837
 2453SOL    HW1 8258   6.734   1.857   0.798
 2453SOL    HW2 8259   6.575   1.821   0.815
 2454SOL     OW 8260   3.242   5.668   0.687
 2454SOL    HW1 8261   3.218   5.758   0.724
 2454SOL    HW2 8262   3.162   5.608   0.690
 2455SOL     OW 8263   2.871   1.230   0.035
 2455SOL    HW1 8264   2.846   1.317   7.022
 2455SOL    HW2 8265   2.865   1.239   0.135
 2456SOL     OW 8266   0.938   3.861   6.722
 2456SOL    HW1 8267   0.945   3.960   6.728
 2456SOL    HW2 8268   0.851   3.830   6.761
 2457SOL     OW 8269   5.561   1.514   5.666
 2457SOL    HW1 8270   5.462   1.510   5.659
 2457SOL    HW2 8271   5.587   1.526   5.762
 2458SOL     OW 8272   0.813   0.573   2.823
 2458SOL    HW1 8273   0.823   0.499   2.889
 2458SOL    HW2 8274   0.878   0.646   2.844
 2459SOL     OW 8275   2.713   5.390   6.407
 2459SOL    HW1 8276   2.742   5.473   6.360
 2459SOL    HW2 8277   2.766   5.380   6.492
 2460SOL     OW 8278   0.775   1.101   6.870
 2460SOL    HW1 8279   0.793   1.140   6.961
 2460SOL    HW2 8280   0.811   1.161   6.800
 2461SOL     OW 8281   4.375   0.171   4.368
 2461SOL    HW1 8282   4.416   0.092   4.322
 2461SOL    HW2 8283   4.327   0.228   4.301
 2462SOL     OW 8284   0.722   4.839   0.461
 2462SOL    HW1 8285   0.748   4.872   0.551
 2462SOL    HW2 8286   0.695   4.742   0.468
 2463SOL     OW 8287   6.676   1.561   0.453
 2463SOL    HW1 8288   6.625   1.646   0.442
 2463SOL    HW2 8289   6.746   1.555   0.381
 2464SOL     OW 8290   0.539   2.636   2.955
 2464SOL    HW1 8291   0.483   2.717   2.934
 2464SOL    HW2 8292   0.587   2.608   2.872
 2465SOL     OW 8293   6.688   5.688   6.361
 2465SOL    HW1 8294   6.611   5.741   6.326
 2465SOL    HW2 8295   6.708   5.612   6.299
 2466SOL     OW 8296   1.740   1.795   1.938
 2466SOL    HW1 8297   1.810   1.759   1.876
 2466SOL    HW2 8298   1.670   1.843   1.886
 2467SOL     OW 8299   4.300   1.956   6.168
 2467SOL    HW1 8300   4.289   1.915   6.077
 2467SOL    HW2 8301   4.219   1.935   6.224
 2468SOL     OW 8302   3.983   0.458   6.526
 2468SOL    HW1 8303   4.076   0.457   6.562
 2468SOL    HW2 8304   3.932   0.380   6.562
 2469SOL     OW 8305   4.412   3.163   5.561
 2469SOL    HW1 8306   4.334   3.152   5.623
 2469SOL    HW2 8307   4.468   3.240   5.591
 2470SOL     OW 8308   4.223   4.407   6.040
 2470SOL    HW1 8309   4.153   4.465   5.999
 2470SOL    HW2 8310   4.204   4.396   6.138
 2471SOL     OW 8311   3.628   0.193   0.822
 2471SOL    HW1 8312   3.572   0.275   0.832
 2471SOL    HW2 8313   3.680   0.197   0.736
 2472SOL     OW 8314   4.451   2.461   3.711
 2472SOL    HW1 8315   4.532   2.498   3.665
 2472SOL    HW2 8316   4.480   2.400   3.785
 2473SOL     OW 8317   1.239   4.748   5.007
 2473SOL    HW1 8318   1.212   4.835   5.047
 2473SOL    HW2 8319   1.164   4.682   5.016
 2474SOL     OW 8320   1.382   5.482   0.692
 2474SOL    HW1 8321   1.468   5.472   0.642
 2474SOL    HW2 8322   1.320   5.408   0.666
 2475SOL     OW 8323   4.490   0.638   0.892
 2475SOL    HW1 8324   4.455   0.728   0.866
 2475SOL    HW2 8325   4.561   0.649   0.963
 2476SOL     OW 8326   5.762   0.720   2.562
 2476SOL    HW1 8327   5.703   0.775   2.620
 2476SOL    HW2 8328   5.758   0.624   2.591
 2477SOL     OW 8329   4.015   0.834   3.514
 2477SOL    HW1 8330   4.093   0.810   3.457
 2477SOL    HW2 8331   4.013   0.774   3.594
 2478SOL     OW 8332   4.524   0.934   2.097
 2478SOL    HW1 8333   4.504   0.865   2.166
 2478SOL    HW2 8334   4.618   0.966   2.108
 2479SOL     OW 8335   1.385   2.430   1.243
 2479SOL    HW1 8336   1.377   2.518   1.196
 2479SOL    HW2 8337   1.394   2.446   1.341
 2480SOL     OW 8338   3.984   2.664   1.359
 2480SOL    HW1 8339   3.890   2.697   1.367
 2480SOL    HW2 8340   4.026   2.660   1.449
 2481SOL     OW 8341   2.663   0.160   1.684
 2481SOL    HW1 8342   2.746   0.214   1.674
 2481SOL    HW2 8343   2.633   0.127   1.594
 2482SOL     OW 8344   5.493   3.820   0.134
 2482SOL    HW1 8345   5.426   3.846   0.204
 2482SOL    HW2 8346   5.573   3.779   0.179
 2483SOL     OW 8347   1.637   1.815   0.198
 2483SOL    HW1 8348   1.587   1.782   0.279
 2483SOL    HW2 8349   1.608   1.763   0.118
 2484SOL     OW 8350   3.344   0.858   0.253
 2484SOL    HW1 8351   3.291   0.780   0.222
 2484SOL    HW2 8352   3.395   0.897   0.176
 2485SOL     OW 8353   4.970   3.311   0.363
 2485SOL    HW1 8354   5.057   3.323   0.412
 2485SOL    HW2 8355   4.983   3.332   0.266
 2486SOL     OW 8356   0.627   5.504   5.647
 2486SOL    HW1 8357   0.528   5.507   5.661
 2486SOL    HW2 8358   0.670   5.575   5.702
 2487SOL     OW 8359   3.979   6.110   0.383
 2487SOL    HW1 8360   4.017   6.178   0.321
 2487SOL    HW2 8361   3.925   6.156   0.454
 2488SOL     OW 8362   0.507   3.224   1.882
 2488SOL    HW1 8363   0.557   3.206   1.798
 2488SOL    HW2 8364   0.571   3.232   1.958
 2489SOL     OW 8365   0.980   6.131   3.200
 2489SOL    HW1 8366   0.907   6.200   3.205
 2489SOL    HW2 8367   1.006   6.104   3.293
 2490SOL     OW 8368   0.828   5.907   1.232
 2490SOL    HW1 8369   0.852   5.977   1.301
 2490SOL    HW2 8370   0.731   5.885   1.240
 2491SOL     OW 8371   3.617   4.527   1.164
 2491SOL    HW1 8372   3.675   4.560   1.090
 2491SOL    HW2 8373   3.547   4.466   1.127
 2492SOL     OW 8374   4.704   3.277   1.150
 2492SOL    HW1 8375   4.631   3.209   1.146
 2492SOL    HW2 8376   4.788   3.235   1.185
 2493SOL     OW 8377   6.840   6.786   1.147
 2493SOL    HW1 8378   6.881   6.778   1.238
 2493SOL    HW2 8379   6.806   6.879   1.134
 2494SOL     OW 8380   5.852   3.853   2.103
 2494SOL    HW1 8381   5.891   3.927   2.157
 2494SOL    HW2 8382   5.814   3.890   2.018
 2495SOL     OW 8383   5.805   5.426   3.387
 2495SOL    HW1 8384   5.890   5.388   3.351
 2495SOL    HW2 8385   5.806   5.526   3.376
 2496SOL     OW 8386   0.359   3.153   6.585
 2496SOL    HW1 8387   0.443   3.204   6.563
 2496SOL    HW2 8388   0.279   3.209   6.562
 2497SOL     OW 8389   0.464   0.397   1.208
 2497SOL    HW1 8390   0.479   0.299   1.196
 2497SOL    HW2 8391   0.392   0.413   1.275
 2498SOL     OW 8392   3.279   2.231   5.512
 2498SOL    HW1 8393   3.343   2.229   5.436
 2498SOL    HW2 8394   3.191   2.266   5.481
 2499SOL     OW 8395   5.964   3.164   2.210
 2499SOL    HW1 8396   5.964   3.089   2.143
 2499SOL    HW2 8397   5.948   3.250   2.162
 2500SOL     OW 8398   3.703   4.004   6.680
 2500SOL    HW1 8399   3.639   4.045   6.744
 2500SOL    HW2 8400   3.654   3.945   6.616
 2501SOL     OW 8401   5.272   5.751   0.040
 2501SOL    HW1 8402   5.247   5.685   0.111
 2501SOL    HW2 8403   5.309   5.702   6.991
 2502SOL     OW 8404   1.727   0.571   4.788
 2502SOL    HW1 8405   1.806   0.633   4.786
 2502SOL    HW2 8406   1.655   0.612   4.845
 2503SOL     OW 8407   2.643   6.545   4.845
 2503SOL    HW1 8408   2.673   6.487   4.768
 2503SOL    HW2 8409   2.719   6.555   4.910
 2504SOL     OW 8410   3.820   5.641   3.301
 2504SOL    HW1 8411   3.830   5.733   3.263
 2504SOL    HW2 8412   3.832   5.644   3.400
 2505SOL     OW 8413   0.379   6.690   2.609
 2505SOL    HW1 8414   0.309   6.726   2.671
 2505SOL    HW2 8415   0.460   6.665   2.662
 2506SOL     OW 8416   6.811   2.878   6.368
 2506SOL    HW1 8417   6.903   2.858   6.334
 2506SOL    HW2 8418   6.750   2.803   6.345
 2507SOL     OW 8419   6.502   3.368   7.021
 2507SOL    HW1 8420   6.458   3.372   0.081
 2507SOL    HW2 8421   6.596   3.334   0.002
 2508SOL     OW 8422   2.748   1.840   3.645
 2508SOL    HW1 8423   2.724   1.874   3.555
 2508SOL    HW2 8424   2.744   1.915   3.712
 2509SOL     OW 8425   6.962   4.754   1.233
 2509SOL    HW1 8426   6.934   4.816   1.306
 2509SOL    HW2 8427   6.973   4.806   1.148
 2510SOL     OW 8428   2.882   4.596   0.929
 2510SOL    HW1 8429   2.927   4.598   1.018
 2510SOL    HW2 8430   2.874   4.501   0.898
 2511SOL     OW 8431   2.655   1.720   3.984
 2511SOL    HW1 8432   2.653   1.745   3.887
 2511SOL    HW2 8433   2.729   1.770   4.029
 2512SOL     OW 8434   4.424   3.790   5.344
 2512SOL    HW1 8435   4.468   3.704   5.320
 2512SOL    HW2 8436   4.474   3.833   5.419
 2513SOL     OW 8437   1.850   5.115   4.557
 2513SOL    HW1 8438   1.781   5.147   4.622
 2513SOL    HW2 8439   1.893   5.193   4.514
 2514SOL     OW 8440   0.621   3.737   5.157
 2514SOL    HW1 8441   0.661   3.823   5.189
 2514SOL    HW2 8442   0.524   3.736   5.178
 2515SOL     OW 8443   2.084   6.389   0.086
 2515SOL    HW1 8444   2.024   6.465   0.111
 2515SOL    HW2 8445   2.155   6.378   0.156
 2516SOL     OW 8446   4.738   1.516   2.625
 2516SOL    HW1 8447   4.683   1.599   2.621
 2516SOL    HW2 8448   4.688   1.440   2.584
 2517SOL     OW 8449   1.420   0.550   6.327
 2517SOL    HW1 8450   1.500   0.608   6.341
 2517SOL    HW2 8451   1.348   0.603   6.282
 2518SOL     OW 8452   1.353   5.655   1.173
 2518SOL    HW1 8453   1.379   5.581   1.111
 2518SOL    HW2 8454   1.424   5.668   1.242
 2519SOL     OW 8455   4.075   0.271   1.794
 2519SOL    HW1 8456   4.150   0.240   1.852
 2519SOL    HW2 8457   4.062   0.370   1.806
 2520SOL     OW 8458   3.251   1.940   1.012
 2520SOL    HW1 8459   3.310   1.906   1.085
 2520SOL    HW2 8460   3.233   1.867   0.946
 2521SOL     OW 8461   3.091   0.553   5.312
 2521SOL    HW1 8462   3.013   0.529   5.255
 2521SOL    HW2 8463   3.080   0.511   5.403
 2522SOL     OW 8464   0.958   1.281   5.460
 2522SOL    HW1 8465   0.873   1.324   5.490
 2522SOL    HW2 8466   0.964   1.286   5.360
 2523SOL     OW 8467   1.176   2.553   0.823
 2523SOL    HW1 8468   1.119   2.473   0.842
 2523SOL    HW2 8469   1.272   2.524   0.819
 2524SOL     OW 8470   0.055   6.748   5.054
 2524SOL    HW1 8471   0.149   6.713   5.060
 2524SOL    HW2 8472   0.056   6.837   5.008
 2525SOL     OW 8473   0.871   2.288   5.467
 2525SOL    HW1 8474   0.874   2.189   5.479
 2525SOL    HW2 8475   0.952   2.318   5.416
 2526SOL     OW 8476   1.568   4.480   6.670
 2526SOL    HW1 8477   1.655   4.432   6.681
 2526SOL    HW2 8478   1.494   4.412   6.662
 2527SOL     OW 8479   6.033   6.608   5.795
 2527SOL    HW1 8480   6.050   6.561   5.709
 2527SOL    HW2 8481   6.104   6.677   5.811
 2528SOL     OW 8482   5.703   4.915   6.409
 2528SOL    HW1 8483   5.746   4.988   6.355
 2528SOL    HW2 8484   5.715   4.934   6.506
 2529SOL     OW 8485   6.752   6.163   6.734
 2529SOL    HW1 8486   6.720   6.070   6.717
 2529SOL    HW2 8487   6.679   6.216   6.777
 2530SOL     OW 8488   2.403   6.241   4.782
 2530SOL    HW1 8489   2.319   6.195   4.752
 2530SOL    HW2 8490   2.481   6.205   4.730
 2531SOL     OW 8491   5.620   6.028   4.713
 2531SOL    HW1 8492   5.532   6.074   4.702
 2531SOL    HW2 8493   5.616   5.966   4.791
 2532SOL     OW 8494   0.325   6.146   0.521
 2532SOL    HW1 8495   0.375   6.232   0.529
 2532SOL    HW2 8496   0.294   6.134   0.426
 2533SOL     OW 8497   4.091   0.000   3.682
 2533SOL    HW1 8498   4.187   7.010   3.702
 2533SOL    HW2 8499   4.083   0.039   3.591
 2534SOL     OW 8500   3.721   1.490   1.796
 2534SOL    HW1 8501   3.802   1.485   1.855
 2534SOL    HW2 8502   3.640   1.464   1.848
 2535SOL     OW 8503   3.495   3.665   5.923
 2535SOL    HW1 8504   3.514   3.756   5.887
 2535SOL    HW2 8505   3.502   3.598   5.850
 2536SOL     OW 8506   1.468   1.373   6.406
 2536SOL    HW1 8507   1.479   1.278   6.376
 2536SOL    HW2 8508   1.536   1.431   6.362
 2537SOL     OW 8509   3.451   0.253   6.345
 2537SOL    HW1 8510   3.396   0.328   6.310
 2537SOL    HW2 8511   3.391   0.178   6.373
 2538SOL     OW 8512   0.613   4.431   3.722
 2538SOL    HW1 8513   0.698   4.388   3.751
 2538SOL    HW2 8514   0.603   4.422   3.623
 2539SOL     OW 8515   5.608   1.122   4.269
 2539SOL    HW1 8516   5.706   1.112   4.285
 2539SOL    HW2 8517   5.568   1.033   4.246
 2540SOL     OW 8518   3.989   2.117   2.816
 2540SOL    HW1 8519   4.037   2.150   2.898
 2540SOL    HW2 8520   3.971   2.019   2.825
 2541SOL     OW 8521   3.653   0.980   4.621
 2541SOL    HW1 8522   3.567   0.949   4.581
 2541SOL    HW2 8523   3.637   1.010   4.715
 2542SOL     OW 8524   3.714   3.409   6.230
 2542SOL    HW1 8525   3.627   3.450   6.204
 2542SOL    HW2 8526   3.789   3.466   6.197
 2543SOL     OW 8527   0.203   0.857   3.843
 2543SOL    HW1 8528   0.111   0.876   3.808
 2543SOL    HW2 8529   0.196   0.811   3.931
 2544SOL     OW 8530   0.659   6.150   0.772
 2544SOL    HW1 8531   0.625   6.094   0.697
 2544SOL    HW2 8532   0.583   6.178   0.831
 2545SOL     OW 8533   1.823   6.902   2.016
 2545SOL    HW1 8534   1.865   6.952   1.941
 2545SOL    HW2 8535   1.809   6.806   1.988
 2546SOL     OW 8536   6.555   1.722   2.218
 2546SOL    HW1 8537   6.631   1.783   2.243
 2546SOL    HW2 8538   6.469   1.774   2.223
 2547SOL     OW 8539   0.191   4.030   0.105
 2547SOL    HW1 8540   0.274   4.070   0.067
 2547SOL    HW2 8541   0.168   4.075   0.191
 2548SOL     OW 8542   1.123   6.783   4.719
 2548SOL    HW1 8543   1.190   6.843   4.676
 2548SOL    HW2 8544   1.170   6.712   4.772
 2549SOL     OW 8545   0.864   0.336   0.978
 2549SOL    HW1 8546   0.769   0.360   0.957
 2549SOL    HW2 8547   0.868   0.284   1.063
 2550SOL     OW 8548   6.866   0.263   7.015
 2550SOL    HW1 8549   6.784   0.312   0.014
 2550SOL    HW2 8550   6.864   0.251   6.916
 2551SOL     OW 8551   3.506   4.818   0.512
 2551SOL    HW1 8552   3.501   4.824   0.612
 2551SOL    HW2 8553   3.414   4.806   0.475
 2552SOL     OW 8554   1.887   6.117   4.391
 2552SOL    HW1 8555   1.929   6.205   4.372
 2552SOL    HW2 8556   1.954   6.057   4.435
 2553SOL     OW 8557   4.236   3.683   5.848
 2553SOL    HW1 8558   4.191   3.733   5.774
 2553SOL    HW2 8559   4.197   3.712   5.936
 2554SOL     OW 8560   2.910   0.419   0.479
 2554SOL    HW1 8561   2.923   0.380   0.388
 2554SOL    HW2 8562   2.899   0.346   0.546
 2555SOL     OW 8563   5.914   0.668   5.098
 2555SOL    HW1 8564   5.905   0.630   5.006
 2555SOL    HW2 8565   5.998   0.633   5.140
 2556SOL     OW 8566   3.997   6.355   0.266
 2556SOL    HW1 8567   4.092   6.386   0.256
 2556SOL    HW2 8568   3.962   6.385   0.355
 2557SOL     OW 8569   2.177   4.061   0.322
 2557SOL    HW1 8570   2.205   4.047   0.417
 2557SOL    HW2 8571   2.210   3.985   0.266
 2558SOL     OW 8572   4.946   1.428   4.999
 2558SOL    HW1 8573   5.000   1.513   4.999
 2558SOL    HW2 8574   4.914   1.409   5.092
 2559SOL     OW 8575   0.918   4.247   5.391
 2559SOL    HW1 8576   0.877   4.175   5.447
 2559SOL    HW2 8577   0.942   4.210   5.301
 2560SOL     OW 8578   5.754   2.511   5.338
 2560SOL    HW1 8579   5.795   2.523   5.248
 2560SOL    HW2 8580   5.782   2.423   5.376
 2561SOL     OW 8581   2.913   5.565   5.511
 2561SOL    HW1 8582   2.919   5.475   5.555
 2561SOL    HW2 8583   2.818   5.585   5.489
 2562SOL     OW 8584   2.572   5.314   1.504
 2562SOL    HW1 8585   2.546   5.374   1.428
 2562SOL    HW2 8586   2.601   5.225   1.468
 2563SOL     OW 8587   3.195   1.749   0.856
 2563SOL    HW1 8588   3.288   1.734   0.824
 2563SOL    HW2 8589   3.134   1.682   0.812
 2564SOL     OW 8590   2.226   5.708   6.837
 2564SOL    HW1 8591   2.163   5.671   6.769
 2564SOL    HW2 8592   2.253   5.801   6.810
 2565SOL     OW 8593   1.044   6.945   6.508
 2565SOL    HW1 8594   1.055   6.865   6.567
 2565SOL    HW2 8595   1.121   7.007   6.521
 2566SOL     OW 8596   2.289   0.460   0.850
 2566SOL    HW1 8597   2.381   0.427   0.832
 2566SOL    HW2 8598   2.239   0.468   0.764
 2567SOL     OW 8599   1.264   0.540   0.764
 2567SOL    HW1 8600   1.225   0.552   0.855
 2567SOL    HW2 8601   1.355   0.498   0.772
 2568SOL     OW 8602   4.155   1.555   6.599
 2568SOL    HW1 8603   4.242   1.579   6.642
 2568SOL    HW2 8604   4.168   1.477   6.539
 2569SOL     OW 8605   3.139   0.279   2.231
 2569SOL    HW1 8606   3.225   0.240   2.200
 2569SOL    HW2 8607   3.145   0.298   2.329
 2570SOL     OW 8608   5.689   6.854   6.272
 2570SOL    HW1 8609   5.743   6.839   6.190
 2570SOL    HW2 8610   5.635   6.938   6.261
 2571SOL     OW 8611   2.179   4.585   4.606
 2571SOL    HW1 8612   2.267   4.538   4.606
 2571SOL    HW2 8613   2.121   4.548   4.679
 2572SOL     OW 8614   2.936   6.002   1.231
 2572SOL    HW1 8615   2.875   5.985   1.309
 2572SOL    HW2 8616   2.892   6.065   1.167
 2573SOL     OW 8617   0.281   1.761   1.720
 2573SOL    HW1 8618   0.278   1.847   1.770
 2573SOL    HW2 8619   0.275   1.780   1.622
 2574SOL     OW 8620   5.954   4.084   0.649
 2574SOL    HW1 8621   5.885   4.068   0.719
 2574SOL    HW2 8622   5.910   4.115   0.565
 2575SOL     OW 8623   5.164   6.253   0.533
 2575SOL    HW1 8624   5.145   6.348   0.557
 2575SOL    HW2 8625   5.166   6.243   0.434
 2576SOL     OW 8626   4.498   6.760   4.745
 2576SOL    HW1 8627   4.504   6.756   4.645
 2576SOL    HW2 8628   4.418   6.814   4.772
 2577SOL     OW 8629   4.031   6.531   2.263
 2577SOL    HW1 8630   3.994   6.517   2.355
 2577SOL    HW2 8631   4.010   6.451   2.206
 2578SOL     OW 8632   4.385   1.655   4.291
 2578SOL    HW1 8633   4.463   1.664   4.229
 2578SOL    HW2 8634   4.305   1.701   4.250
 2579SOL     OW 8635   1.356   6.956   3.458
 2579SOL    HW1 8636   1.374   6.896   3.380
 2579SOL    HW2 8637   1.367   6.904   3.543
 2580SOL     OW 8638   2.754   4.462   6.104
 2580SOL    HW1 8639   2.763   4.542   6.045
 2580SOL    HW2 8640   2.737   4.491   6.198
 2581SOL     OW 8641   2.440   5.080   2.220
 2581SOL    HW1 8642   2.357   5.030   2.245
 2581SOL    HW2 8643   2.457   5.070   2.122
 2582SOL     OW 8644   0.077   4.083   1.061
 2582SOL    HW1 8645   0.146   4.078   0.989
 2582SOL    HW2 8646   0.123   4.102   1.148
 2583SOL     OW 8647   0.836   1.549   6.611
 2583SOL    HW1 8648   0.767   1.561   6.682
 2583SOL    HW2 8649   0.806   1.478   6.547
 2584SOL     OW 8650   4.874   5.548   5.935
 2584SOL    HW1 8651   4.940   5.515   6.002
 2584SOL    HW2 8652   4.919   5.557   5.846
 2585SOL     OW 8653   3.436   3.197   0.953
 2585SOL    HW1 8654   3.426   3.106   0.913
 2585SOL    HW2 8655   3.532   3.226   0.947
 2586SOL     OW 8656   3.293   0.697   5.185
 2586SOL    HW1 8657   3.218   0.650   5.231
 2586SOL    HW2 8658   3.346   0.750   5.252
 2587SOL     OW 8659   5.922   1.101   3.291
 2587SOL    HW1 8660   5.984   1.062   3.358
 2587SOL    HW2 8661   5.835   1.125   3.335
 2588SOL     OW 8662   4.334   1.863   5.915
 2588SOL    HW1 8663   4.385   1.777   5.923
 2588SOL    HW2 8664   4.359   1.907   5.829
 2589SOL     OW 8665   1.475   6.472   5.806
 2589SOL    HW1 8666   1.411   6.531   5.855
 2589SOL    HW2 8667   1.425   6.396   5.764
 2590SOL     OW 8668   4.072   5.097   0.405
 2590SOL    HW1 8669   4.167   5.118   0.430
 2590SOL    HW2 8670   4.071   5.056   0.314
 2591SOL     OW 8671   6.974   4.597   3.413
 2591SOL    HW1 8672   0.032   4.568   3.375
 2591SOL    HW2 8673   6.987   4.681   3.466
 2592SOL     OW 8674   3.526   4.664   6.881
 2592SOL    HW1 8675   3.562   4.575   6.856
 2592SOL    HW2 8676   3.426   4.660   6.885
 2593SOL     OW 8677   3.693   5.713   0.559
 2593SOL    HW1 8678   3.620   5.781   0.548
 2593SOL    HW2 8679   3.777   5.748   0.517
 2594SOL     OW 8680   2.322   3.724   6.051
 2594SOL    HW1 8681   2.313   3.798   5.984
 2594SOL    HW2 8682   2.408   3.736   6.102
 2595SOL     OW 8683   6.909   0.785   3.907
 2595SOL    HW1 8684   6.822   0.834   3.901
 2595SOL    HW2 8685   6.949   0.797   3.998
 2596SOL     OW 8686   2.900   2.246   1.751
 2596SOL    HW1 8687   2.892   2.305   1.831
 2596SOL    HW2 8688   2.923   2.302   1.671
 2597SOL     OW 8689   0.351   5.250   6.137
 2597SOL    HW1 8690   0.332   5.234   6.040
 2597SOL    HW2 8691   0.283   5.313   6.175
 2598SOL     OW 8692   6.816   1.603   2.322
 2598SOL    HW1 8693   6.718   1.620   2.313
 2598SOL    HW2 8694   6.834   1.567   2.414
 2599SOL     OW 8695   1.668   5.836   0.598
 2599SOL    HW1 8696   1.646   5.739   0.597
 2599SOL    HW2 8697   1.674   5.870   0.504
 2600SOL     OW 8698   5.522   2.548   4.692
 2600SOL    HW1 8699   5.532   2.584   4.785
 2600SOL    HW2 8700   5.425   2.540   4.669
 2601SOL     OW 8701   1.471   1.328   0.995
 2601SOL    HW1 8702   1.456   1.267   1.073
 2601SOL    HW2 8703   1.447   1.422   1.021
 2602SOL     OW 8704   1.486   4.805   5.106
 2602SOL    HW1 8705   1.406   4.782   5.051
 2602SOL    HW2 8706   1.552   4.730   5.101
 2603SOL     OW 8707   3.128   1.093   2.981
 2603SOL    HW1 8708   3.111   1.031   2.904
 2603SOL    HW2 8709   3.090   1.052   3.064
 2604SOL     OW 8710   4.942   2.001   2.563
 2604SOL    HW1 8711   4.974   2.095   2.575
 2604SOL    HW2 8712   5.020   1.941   2.544
 2605SOL     OW 8713   1.669   3.168   2.424
 2605SOL    HW1 8714   1.719   3.241   2.377
 2605SOL    HW2 8715   1.675   3.084   2.370
 2606SOL     OW 8716   5.888   5.089   1.870
 2606SOL    HW1 8717   5.984   5.068   1.889
 2606SOL    HW2 8718   5.872   5.084   1.772
 2607SOL     OW 8719   0.616   1.315   1.259
 2607SOL    HW1 8720   0.715   1.300   1.260
 2607SOL    HW2 8721   0.570   1.234   1.294
 2608SOL     OW 8722   4.012   5.410   0.608
 2608SOL    HW1 8723   4.017   5.331   0.546
 2608SOL    HW2 8724   3.918   5.444   0.610
 2609SOL     OW 8725   6.038   1.640   1.993
 2609SOL    HW1 8726   6.106   1.595   2.051
 2609SOL    HW2 8727   5.953   1.651   2.044
 2610SOL     OW 8728   0.681   4.811   4.101
 2610SOL    HW1 8729   0.661   4.839   4.195
 2610SOL    HW2 8730   0.634   4.872   4.038
 2611SOL     OW 8731   4.683   6.512   6.968
 2611SOL    HW1 8732   4.616   6.443   6.938
 2611SOL    HW2 8733   4.764   6.507   6.909
 2612SOL     OW 8734   6.050   6.734   4.452
 2612SOL    HW1 8735   6.013   6.705   4.540
 2612SOL    HW2 8736   5.976   6.739   4.385
 2613SOL     OW 8737   2.268   5.127   6.527
 2613SOL    HW1 8738   2.320   5.199   6.482
 2613SOL    HW2 8739   2.182   5.111   6.478
 2614SOL     OW 8740   6.256   1.534   6.709
 2614SOL    HW1 8741   6.179   1.507   6.767
 2614SOL    HW2 8742   6.222   1.561   6.619
 2615SOL     OW 8743   0.860   3.177   1.011
 2615SOL    HW1 8744   0.918   3.257   0.998
 2615SOL    HW2 8745   0.834   3.139   0.922
 2616SOL     OW 8746   1.399   1.888   5.980
 2616SOL    HW1 8747   1.433   1.974   6.020
 2616SOL    HW2 8748   1.311   1.864   6.022
 2617SOL     OW 8749   4.771   0.844   0.580
 2617SOL    HW1 8750   4.801   0.760   0.626
 2617SOL    HW2 8751   4.771   0.919   0.646
 2618SOL     OW 8752   0.939   6.408   4.706
 2618SOL    HW1 8753   0.955   6.425   4.803
 2618SOL    HW2 8754   0.985   6.324   4.679
 2619SOL     OW 8755   4.549   1.725   1.685
 2619SOL    HW1 8756   4.591   1.647   1.638
 2619SOL    HW2 8757   4.529   1.797   1.619
 2620SOL     OW 8758   6.635   0.297   2.524
 2620SOL    HW1 8759   6.568   0.223   2.521
 2620SOL    HW2 8760   6.677   0.308   2.434
 2621SOL     OW 8761   1.349   4.805   2.455
 2621SOL    HW1 8762   1.299   4.890   2.441
 2621SOL    HW2 8763   1.406   4.787   2.375
 2622SOL     OW 8764   3.314   3.370   5.684
 2622SOL    HW1 8765   3.321   3.277   5.719
 2622SOL    HW2 8766   3.406   3.409   5.675
 2623SOL     OW 8767   0.380   0.512   4.929
 2623SOL    HW1 8768   0.462   0.454   4.926
 2623SOL    HW2 8769   0.359   0.533   5.025
 2624SOL     OW 8770   6.293   2.183   4.461
 2624SOL    HW1 8771   6.357   2.218   4.529
 2624SOL    HW2 8772   6.336   2.107   4.412
 2625SOL     OW 8773   2.235   4.556   5.369
 2625SOL    HW1 8774   2.135   4.560   5.376
 2625SOL    HW2 8775   2.262   4.577   5.275
 2626SOL     OW 8776   6.660   6.926   5.976
 2626SOL    HW1 8777   6.599   6.847   5.988
 2626SOL    HW2 8778   6.714   6.914   5.893
 2627SOL     OW 8779   0.750   0.826   6.200
 2627SOL    HW1 8780   0.659   0.867   6.191
 2627SOL    HW2 8781   0.742   0.728   6.214
 2628SOL     OW 8782   1.754   3.832   4.777
 2628SOL    HW1 8783   1.709   3.835   4.866
 2628SOL    HW2 8784   1.853   3.841   4.789
 2629SOL     OW 8785   4.137   3.366   3.108
 2629SOL    HW1 8786   4.116   3.293   3.043
 2629SOL    HW2 8787   4.234   3.361   3.132
 2630SOL     OW 8788   3.645   1.660   3.952
 2630SOL    HW1 8789   3.671   1.708   4.036
 2630SOL    HW2 8790   3.625   1.726   3.880
 2631SOL     OW 8791   5.724   0.736   6.725
 2631SOL    HW1 8792   5.740   0.744   6.627
 2631SOL    HW2 8793   5.665   0.657   6.744
 2632SOL     OW 8794   6.279   3.481   1.252
 2632SOL    HW1 8795   6.379   3.482   1.251
 2632SOL    HW2 8796   6.246   3.527   1.335
 2633SOL     OW 8797   6.575   2.250   5.281
 2633SOL    HW1 8798   6.656   2.212   5.237
 2633SOL    HW2 8799   6.535   2.321   5.222
 2634SOL     OW 8800   0.715   5.834   3.619
 2634SOL    HW1 8801   0.618   5.857   3.623
 2634SOL    HW2 8802   0.764   5.886   3.689
 2635SOL     OW 8803   6.423   5.676   4.218
 2635SOL    HW1 8804   6.471   5.590   4.237
 2635SOL    HW2 8805   6.325   5.662   4.228
 2636SOL     OW 8806   3.990   1.023   6.959
 2636SOL    HW1 8807   3.945   0.964   7.026
 2636SOL    HW2 8808   3.954   1.003   6.867
 2637SOL     OW 8809   6.384   1.446   3.930
 2637SOL    HW1 8810   6.411   1.531   3.884
 2637SOL    HW2 8811   6.325   1.468   4.008
 2638SOL     OW 8812   0.321   0.072   4.600
 2638SOL    HW1 8813   0.329   0.119   4.512
 2638SOL    HW2 8814   0.360   7.010   4.592
 2639SOL     OW 8815   5.050   5.216   5.396
 2639SOL    HW1 8816   5.004   5.283   5.454
 2639SOL    HW2 8817   4.983   5.168   5.340
 2640SOL     OW 8818   6.837   0.031   4.955
 2640SOL    HW1 8819   6.906   0.094   4.919
 2640SOL    HW2 8820   6.841   0.032   5.055
 2641SOL     OW 8821   4.722   2.277   1.232
 2641SOL    HW1 8822   4.722   2.368   1.273
 2641SOL    HW2 8823   4.628   2.244   1.224
 2642SOL     OW 8824   6.214   0.547   3.509
 2642SOL    HW1 8825   6.285   0.490   3.549
 2642SOL    HW2 8826   6.128   0.496   3.507
 2643SOL     OW 8827   1.530   3.479   4.040
 2643SOL    HW1 8828   1.587   3.430   4.106
 2643SOL    HW2 8829   1.455   3.419   4.011
 2644SOL     OW 8830   4.849   5.450   4.976
 2644SOL    HW1 8831   4.873   5.372   4.918
 2644SOL    HW2 8832   4.777   5.503   4.931
 2645SOL     OW 8833   5.461   4.766   3.633
 2645SOL    HW1 8834   5.429   4.709   3.709
 2645SOL    HW2 8835   5.459   4.713   3.548
 2646SOL     OW 8836   0.519   3.744   6.699
 2646SOL    HW1 8837   0.420   3.729   6.711
 2646SOL    HW2 8838   0.533   3.807   6.622
 2647SOL     OW 8839   5.644   6.717   1.795
 2647SOL    HW1 8840   5.572   6.743   1.861
 2647SOL    HW2 8841   5.603   6.666   1.720
 2648SOL     OW 8842   0.646   6.585   3.967
 2648SOL    HW1 8843   0.611   6.564   4.059
 2648SOL    HW2 8844   0.632   6.683   3.948
 2649SOL     OW 8845   5.140   3.171   1.759
 2649SOL    HW1 8846   5.236   3.149   1.778
 2649SOL    HW2 8847   5.083   3.092   1.781
 2650SOL     OW 8848   2.750   5.627   4.670
 2650SOL    HW1 8849   2.679   5.638   4.739
 2650SOL    HW2 8850   2.742   5.537   4.627
 2651SOL     OW 8851   3.606   1.276   6.834
 2651SOL    HW1 8852   3.516   1.293   6.794
 2651SOL    HW2 8853   3.650   1.364   6.854
 2652SOL     OW 8854   5.059   3.704   5.613
 2652SOL    HW1 8855   4.962   3.682   5.602
 2652SOL    HW2 8856   5.113   3.620   5.610
 2653SOL     OW 8857   3.686   6.185   5.599
 2653SOL    HW1 8858   3.671   6.252   5.672
 2653SOL    HW2 8859   3.609   6.121   5.597
 2654SOL     OW 8860   5.632   6.522   1.030
 2654SOL    HW1 8861   5.674   6.441   0.989
 2654SOL    HW2 8862   5.617   6.591   0.959
 2655SOL     OW 8863   4.636   5.923   3.481
 2655SOL    HW1 8864   4.641   5.954   3.386
 2655SOL    HW2 8865   4.729   5.909   3.516
 2656SOL     OW 8866   3.432   5.309   3.862
 2656SOL    HW1 8867   3.472   5.368   3.933
 2656SOL    HW2 8868   3.346   5.271   3.896
 2657SOL     OW 8869   2.096   3.318   0.567
 2657SOL    HW1 8870   2.171   3.379   0.593
 2657SOL    HW2 8871   2.125   3.223   0.581
 2658SOL     OW 8872   4.933   4.313   0.093
 2658SOL    HW1 8873   4.866   4.358   0.035
 2658SOL    HW2 8874   4.904   4.220   0.112
 2659SOL     OW 8875   4.841   2.954   4.868
 2659SOL    HW1 8876   4.776   2.882   4.891
 2659SOL    HW2 8877   4.815   2.996   4.780
 2660SOL     OW 8878   0.512   1.078   1.070
 2660SOL    HW1 8879   0.443   1.117   1.010
 2660SOL    HW2 8880   0.484   1.089   1.165
 2661SOL     OW 8881   1.548   0.557   1.766
 2661SOL    HW1 8882   1.636   0.601   1.786
 2661SOL    HW2 8883   1.565   0.465   1.729
 2662SOL     OW 8884   2.560   0.793   3.737
 2662SOL    HW1 8885   2.496   0.867   3.713
 2662SOL    HW2 8886   2.602   0.757   3.654
 2663SOL     OW 8887   3.929   6.095   5.635
 2663SOL    HW1 8888   3.907   6.080   5.731
 2663SOL    HW2 8889   3.845   6.114   5.584
 2664SOL     OW 8890   3.809   3.080   5.906
 2664SOL    HW1 8891   3.845   2.990   5.880
 2664SOL    HW2 8892   3.750   3.070   5.986
 2665SOL     OW 8893   2.471   3.565   5.349
 2665SOL    HW1 8894   2.450   3.467   5.348
 2665SOL    HW2 8895   2.570   3.578   5.342
 2666SOL     OW 8896   1.747   3.269   1.940
 2666SOL    HW1 8897   1.814   3.327   1.894
 2666SOL    HW2 8898   1.682   3.233   1.873
 2667SOL     OW 8899   0.647   5.352   3.630
 2667SOL    HW1 8900   0.712   5.312   3.565
 2667SOL    HW2 8901   0.554   5.333   3.600
 2668SOL     OW 8902   5.839   2.971   4.175
 2668SOL    HW1 8903   5.924   3.005   4.133
 2668SOL    HW2 8904   5.849   2.874   4.195
 2669SOL     OW 8905   2.977   5.980   6.603
 2669SOL    HW1 8906   2.936   6.062   6.642
 2669SOL    HW2 8907   2.937   5.961   6.514
 2670SOL     OW 8908   6.218   2.007   5.394
 2670SOL    HW1 8909   6.245   1.920   5.353
 2670SOL    HW2 8910   6.221   1.999   5.494
 2671SOL     OW 8911   4.168   6.163   6.252
 2671SOL    HW1 8912   4.115   6.192   6.173
 2671SOL    HW2 8913   4.148   6.067   6.273
 2672SOL     OW 8914   3.348   0.410   1.727
 2672SOL    HW1 8915   3.365   0.488   1.787
 2672SOL    HW2 8916   3.384   0.327   1.770
 2673SOL     OW 8917   5.444   1.332   2.447
 2673SOL    HW1 8918   5.344   1.336   2.459
 2673SOL    HW2 8919   5.484   1.420   2.472
 2674SOL     OW 8920   1.759   5.029   3.721
 2674SOL    HW1 8921   1.834   4.978   3.763
 2674SOL    HW2 8922   1.694   5.059   3.791
 2675SOL     OW 8923   0.142   6.957   3.721
 2675SOL    HW1 8924   0.068   6.987   3.782
 2675SOL    HW2 8925   0.190   6.880   3.763
 2676SOL     OW 8926   3.026   3.513   2.447
 2676SOL    HW1 8927   2.954   3.456   2.407
 2676SOL    HW2 8928   3.098   3.455   2.485
 2677SOL     OW 8929   3.423   4.482   0.835
 2677SOL    HW1 8930   3.500   4.452   0.779
 2677SOL    HW2 8931   3.429   4.440   0.926
 2678SOL     OW 8932   0.002   2.760   2.035
 2678SOL    HW1 8933   6.992   2.778   2.125
 2678SOL    HW2 8934   6.980   2.809   1.965
 2679SOL     OW 8935   1.944   5.192   2.896
 2679SOL    HW1 8936   1.960   5.172   2.992
 2679SOL    HW2 8937   1.929   5.107   2.845
 2680SOL     OW 8938   0.868   2.542   0.216
 2680SOL    HW1 8939   0.880   2.582   0.307
 2680SOL    HW2 8940   0.908   2.450   0.215
 2681SOL     OW 8941   1.446   2.830   5.186
 2681SOL    HW1 8942   1.489   2.889   5.118
 2681SOL    HW2 8943   1.442   2.737   5.152
 2682SOL     OW 8944   5.059   4.226   2.798
 2682SOL    HW1 8945   4.978   4.167   2.791
 2682SOL    HW2 8946   5.057   4.293   2.723
 2683SOL     OW 8947   1.862   4.325   2.432
 2683SOL    HW1 8948   1.874   4.268   2.514
 2683SOL    HW2 8949   1.950   4.362   2.404
 2684SOL     OW 8950   5.466   6.554   1.656
 2684SOL    HW1 8951   5.462   6.505   1.743
 2684SOL    HW2 8952   5.379   6.601   1.640
 2685SOL     OW 8953   6.819   4.707   4.602
 2685SOL    HW1 8954   6.860   4.675   4.687
 2685SOL    HW2 8955   6.870   4.669   4.524
 2686SOL     OW 8956   0.930   1.378   5.192
 2686SOL    HW1 8957   0.920   1.435   5.110
 2686SOL    HW2 8958   1.021   1.392   5.231
 2687SOL     OW 8959   3.887   6.575   1.252
 2687SOL    HW1 8960   3.928   6.516   1.322
 2687SOL    HW2 8961   3.855   6.660   1.294
 2688SOL     OW 8962   3.365   2.130   0.849
 2688SOL    HW1 8963   3.327   2.060   0.788
 2688SOL    HW2 8964   3.337   2.111   0.943
 2689SOL     OW 8965   0.712   4.154   2.494
 2689SOL    HW1 8966   0.790   4.210   2.520
 2689SOL    HW2 8967   0.717   4.065   2.540
 2690SOL     OW 8968   2.773   3.115   6.572
 2690SOL    HW1 8969   2.845   3.185   6.571
 2690SOL    HW2 8970   2.741   3.101   6.665
 2691SOL     OW 8971   0.370   4.962   4.172
 2691SOL    HW1 8972   0.423   4.993   4.093
 2691SOL    HW2 8973   0.347   5.041   4.229
 2692SOL     OW 8974   2.703   6.053   3.187
 2692SOL    HW1 8975   2.610   6.038   3.220
 2692SOL    HW2 8976   2.728   6.149   3.198
 2693SOL     OW 8977   1.870   5.034   4.187
 2693SOL    HW1 8978   1.839   5.110   4.130
 2693SOL    HW2 8979   1.963   5.052   4.219
 2694SOL     OW 8980   3.933   6.169   3.187
 2694SOL    HW1 8981   3.958   6.258   3.225
 2694SOL    HW2 8982   3.970   6.161   3.095
 2695SOL     OW 8983   6.134   0.133   3.053
 2695SOL    HW1 8984   6.099   0.211   3.106
 2695SOL    HW2 8985   6.136   0.157   2.956
 2696SOL     OW 8986   4.835   3.900   6.246
 2696SOL    HW1 8987   4.756   3.933   6.195
 2696SOL    HW2 8988   4.900   3.975   6.259
 2697SOL     OW 8989   4.457   1.373   1.530
 2697SOL    HW1 8990   4.369   1.359   1.576
 2697SOL    HW2 8991   4.440   1.404   1.436
 2698SOL     OW 8992   1.706   4.905   6.751
 2698SOL    HW1 8993   1.743   4.984   6.799
 2698SOL    HW2 8994   1.690   4.830   6.815
 2699SOL     OW 8995   2.755   5.902   1.435
 2699SOL    HW1 8996   2.690   5.938   1.502
 2699SOL    HW2 8997   2.820   5.842   1.482
 2700SOL     OW 8998   2.380   1.744   0.902
 2700SOL    HW1 8999   2.281   1.754   0.897
 2700SOL    HW2 9000   2.404   1.662   0.953
 2701SOL     OW 9001   5.201   2.494   5.637
 2701SOL    HW1 9002   5.295   2.464   5.648
 2701SOL    HW2 9003   5.153   2.432   5.575
 2702SOL     OW 9004   1.226   1.979   3.851
 2702SOL    HW1 9005   1.191   1.974   3.945
 2702SOL    HW2 9006   1.281   2.063   3.841
 2703SOL     OW 9007   1.542   5.926   0.976
 2703SOL    HW1 9008   1.523   5.959   1.069
 2703SOL    HW2 9009   1.483   5.848   0.956
 2704SOL     OW 9010   6.807   5.644   2.733
 2704SOL    HW1 9011   6.769   5.554   2.709
 2704SOL    HW2 9012   6.902   5.633   2.763
 2705SOL     OW 9013   6.541   1.199   5.815
 2705SOL    HW1 9014   6.454   1.151   5.831
 2705SOL    HW2 9015   6.613   1.132   5.802
 2706SOL     OW 9016   6.194   4.275   4.846
 2706SOL    HW1 9017   6.158   4.325   4.767
 2706SOL    HW2 9018   6.262   4.208   4.814
 2707SOL     OW 9019   3.732   6.133   3.734
 2707SOL    HW1 9020   3.713   6.036   3.744
 2707SOL    HW2 9021   3.727   6.158   3.637
 2708SOL     OW 9022   6.535   2.589   0.217
 2708SOL    HW1 9023   6.635   2.592   0.217
 2708SOL    HW2 9024   6.504   2.495   0.206
 2709SOL     OW 9025   4.867   6.581   6.058
 2709SOL    HW1 9026   4.791   6.564   6.120
 2709SOL    HW2 9027   4.912   6.667   6.081
 2710SOL     OW 9028   1.846   2.947   3.860
 2710SOL    HW1 9029   1.749   2.926   3.860
 2710SOL    HW2 9030   1.859   3.045   3.845
 2711SOL     OW 9031   2.904   1.488   3.408
 2711SOL    HW1 9032   2.991   1.466   3.363
 2711SOL    HW2 9033   2.923   1.525   3.500
 2712SOL     OW 9034   2.970   5.694   1.884
 2712SOL    HW1 9035   3.066   5.702   1.855
 2712SOL    HW2 9036   2.943   5.598   1.882
 2713SOL     OW 9037   4.060   4.235   6.446
 2713SOL    HW1 9038   3.982   4.186   6.408
 2713SOL    HW2 9039   4.057   4.231   6.545
 2714SOL     OW 9040   4.260   3.692   6.874
 2714SOL    HW1 9041   4.239   3.600   6.842
 2714SOL    HW2 9042   4.250   3.696   6.973
 2715SOL     OW 9043   5.333   1.907   1.197
 2715SOL    HW1 9044   5.264   1.970   1.232
 2715SOL    HW2 9045   5.295   1.815   1.192
 2716SOL     OW 9046   4.685   2.719   2.837
 2716SOL    HW1 9047   4.737   2.796   2.874
 2716SOL    HW2 9048   4.647   2.745   2.748
 2717SOL     OW 9049   0.334   6.818   2.084
 2717SOL    HW1 9050   0.265   6.782   2.021
 2717SOL    HW2 9051   0.425   6.795   2.050
 2718SOL     OW 9052   6.950   0.998   5.171
 2718SOL    HW1 9053   6.998   1.049   5.242
 2718SOL    HW2 9054   6.914   0.913   5.210
 2719SOL     OW 9055   1.416   4.145   2.080
 2719SOL    HW1 9056   1.383   4.174   2.170
 2719SOL    HW2 9057   1.483   4.072   2.092
 2720SOL     OW 9058   1.317   6.953   4.583
 2720SOL    HW1 9059   1.362   7.023   4.638
 2720SOL    HW2 9060   1.387   6.891   4.545
 2721SOL     OW 9061   3.316   6.618   1.832
 2721SOL    HW1 9062   3.325   6.707   1.878
 2721SOL    HW2 9063   3.278   6.551   1.896
 2722SOL     OW 9064   5.080   5.653   6.608
 2722SOL    HW1 9065   5.053   5.619   6.518
 2722SOL    HW2 9066   5.122   5.579   6.661
 2723SOL     OW 9067   3.179   6.595   6.835
 2723SOL    HW1 9068   3.226   6.525   6.890
 2723SOL    HW2 9069   3.160   6.558   6.744
 2724SOL     OW 9070   1.198   5.649   6.780
 2724SOL    HW1 9071   1.214   5.748   6.788
 2724SOL    HW2 9072   1.197   5.624   6.683
 2725SOL     OW 9073   5.624   4.281   4.526
 2725SOL    HW1 9074   5.638   4.189   4.561
 2725SOL    HW2 9075   5.660   4.347   4.592
 2726SOL     OW 9076   0.837   2.144   1.753
 2726SOL    HW1 9077   0.792   2.232   1.739
 2726SOL    HW2 9078   0.769   2.071   1.753
 2727SOL     OW 9079   1.812   4.287   3.913
 2727SOL    HW1 9080   1.902   4.318   3.882
 2727SOL    HW2 9081   1.760   4.364   3.950
 2728SOL     OW 9082   5.328   5.698   6.506
 2728SOL    HW1 9083   5.238   5.684   6.548
 2728SOL    HW2 9084   5.335   5.793   6.475
 2729SOL     OW 9085   6.507   6.218   6.839
 2729SOL    HW1 9086   6.455   6.300   6.816
 2729SOL    HW2 9087   6.446   6.139   6.836
 2730SOL     OW 9088   0.963   5.692   1.197
 2730SOL    HW1 9089   1.050   5.725   1.160
 2730SOL    HW2 9090   0.907   5.771   1.224
 2731SOL     OW 9091   2.966   3.481   3.170
 2731SOL    HW1 9092   3.060   3.488   3.203
 2731SOL    HW2 9093   2.921   3.570   3.177
 2732SOL     OW 9094   5.176   2.241   1.571
 2732SOL    HW1 9095   5.157   2.292   1.487
 2732SOL    HW2 9096   5.091   2.206   1.609
 2733SOL     OW 9097   6.668   1.047   5.128
 2733SOL    HW1 9098   6.648   1.128   5.183
 2733SOL    HW2 9099   6.760   1.015   5.147
 2734SOL     OW 9100   3.334   6.123   1.402
 2734SOL    HW1 9101   3.302   6.123   1.308
 2734SOL    HW2 9102   3.259   6.096   1.463
 2735SOL     OW 9103   1.863   2.433   0.389
 2735SOL    HW1 9104   1.840   2.337   0.373
 2735SOL    HW2 9105   1.838   2.487   0.308
 2736SOL     OW 9106   5.682   6.299   4.159
 2736SOL    HW1 9107   5.643   6.223   4.108
 2736SOL    HW2 9108   5.608   6.362   4.187
 2737SOL     OW 9109   3.149   2.523   5.782
 2737SOL    HW1 9110   3.212   2.538   5.859
 2737SOL    HW2 9111   3.087   2.448   5.804
 2738SOL     OW 9112   6.292   6.931   1.950
 2738SOL    HW1 9113   6.207   6.881   1.933
 2738SOL    HW2 9114   6.322   6.975   1.865
 2739SOL     OW 9115   0.782   5.256   1.006
 2739SOL    HW1 9116   0.855   5.188   1.010
 2739SOL    HW2 9117   0.818   5.345   1.031
 2740SOL     OW 9118   0.510   5.233   2.315
 2740SOL    HW1 9119   0.533   5.139   2.290
 2740SOL    HW2 9120   0.584   5.272   2.370
 2741SOL     OW 9121   0.598   1.523   4.852
 2741SOL    HW1 9122   0.506   1.503   4.885
 2741SOL    HW2 9123   0.602   1.615   4.815
 2742SOL     OW 9124   2.610   5.237   1.790
 2742SOL    HW1 9125   2.564   5.149   1.806
 2742SOL    HW2 9126   2.601   5.263   1.694
 2743SOL     OW 9127   6.990   4.865   2.494
 2743SOL    HW1 9128   6.899   4.845   2.530
 2743SOL    HW2 9129   0.015   4.782   2.492
 2744SOL     OW 9130   3.762   3.497   2.071
 2744SOL    HW1 9131   3.722   3.582   2.103
 2744SOL    HW2 9132   3.797   3.509   1.978
 2745SOL     OW 9133   6.675   1.338   5.135
 2745SOL    HW1 9134   6.686   1.379   5.226
 2745SOL    HW2 9135   6.616   1.396   5.079
 2746SOL     OW 9136   0.651   1.429   4.279
 2746SOL    HW1 9137   0.603   1.379   4.351
 2746SOL    HW2 9138   0.718   1.491   4.321
 2747SOL     OW 9139   4.695   5.521   6.860
 2747SOL    HW1 9140   4.599   5.524   6.887
 2747SOL    HW2 9141   4.717   5.431   6.823
 2748SOL     OW 9142   4.620   0.548   1.651
 2748SOL    HW1 9143   4.609   0.485   1.575
 2748SOL    HW2 9144   4.577   0.510   1.733
 2749SOL     OW 9145   1.301   4.215   0.325
 2749SOL    HW1 9146   1.270   4.148   0.257
 2749SOL    HW2 9147   1.239   4.215   0.403
 2750SOL     OW 9148   2.702   4.848   1.679
 2750SOL    HW1 9149   2.741   4.909   1.748
 2750SOL    HW2 9150   2.653   4.774   1.725
 2751SOL     OW 9151   1.580   1.943   1.197
 2751SOL    HW1 9152   1.607   2.035   1.227
 2751SOL    HW2 9153   1.657   1.880   1.212
 2752SOL     OW 9154   4.141   4.485   6.303
 2752SOL    HW1 9155   4.052   4.530   6.307
 2752SOL    HW2 9156   4.145   4.414   6.373
 2753SOL     OW 9157   6.618   6.073   5.243
 2753SOL    HW1 9158   6.522   6.095   5.259
 2753SOL    HW2 9159   6.632   5.974   5.250
 2754SOL     OW 9160   0.839   0.127   6.919
 2754SOL    HW1 9161   0.823   0.207   6.977
 2754SOL    HW2 9162   0.804   0.145   6.828
 2755SOL     OW 9163   3.286   6.945   3.101
 2755SOL    HW1 9164   3.326   7.016   3.159
 2755SOL    HW2 9165   3.320   6.956   3.008
 2756SOL     OW 9166   4.231   6.503   0.251
 2756SOL    HW1 9167   4.197   6.582   0.302
 2756SOL    HW2 9168   4.297   6.453   0.306
 2757SOL     OW 9169   1.930   5.662   0.502
 2757SOL    HW1 9170   1.839   5.704   0.504
 2757SOL    HW2 9171   1.921   5.563   0.516
 2758SOL     OW 9172   5.131   0.454   4.551
 2758SOL    HW1 9173   5.036   0.425   4.546
 2758SOL    HW2 9174   5.189   0.386   4.507
 2759SOL     OW 9175   5.005   6.404   4.204
 2759SOL    HW1 9176   4.988   6.322   4.258
 2759SOL    HW2 9177   4.922   6.429   4.154
 2760SOL     OW 9178   1.201   5.461   1.608
 2760SOL    HW1 9179   1.226   5.501   1.520
 2760SOL    HW2 9180   1.283   5.430   1.655
 2761SOL     OW 9181   1.878   4.751   4.055
 2761SOL    HW1 9182   1.845   4.844   4.068
 2761SOL    HW2 9183   1.851   4.718   3.965
 2762SOL     OW 9184   0.969   0.923   5.269
 2762SOL    HW1 9185   0.947   0.910   5.172
 2762SOL    HW2 9186   0.887   0.955   5.318
 2763SOL     OW 9187   5.770   1.992   3.672
 2763SOL    HW1 9188   5.787   2.043   3.757
 2763SOL    HW2 9189   5.672   1.971   3.665
 2764SOL     OW 9190   6.381   0.632   1.254
 2764SOL    HW1 9191   6.344   0.715   1.294
 2764SOL    HW2 9192   6.400   0.566   1.327
 2765SOL     OW 9193   5.132   0.581   0.778
 2765SOL    HW1 9194   5.033   0.582   0.794
 2765SOL    HW2 9195   5.169   0.491   0.802
 2766SOL     OW 9196   5.313   1.689   0.609
 2766SOL    HW1 9197   5.249   1.731   0.674
 2766SOL    HW2 9198   5.262   1.658   0.528
 2767SOL     OW 9199   6.956   5.192   6.724
 2767SOL    HW1 9200   0.020   5.179   6.755
 2767SOL    HW2 9201   6.955   5.252   6.644
 2768SOL     OW 9202   5.092   0.716   0.098
 2768SOL    HW1 9203   5.184   0.679   0.105
 2768SOL    HW2 9204   5.032   0.650   0.053
 2769SOL     OW 9205   0.001   4.338   3.943
 2769SOL    HW1 9206   6.991   4.429   3.930
 2769SOL    HW2 9207   6.964   4.268   3.917
 2770SOL     OW 9208   1.991   5.438   6.025
 2770SOL    HW1 9209   1.900   5.406   6.052
 2770SOL    HW2 9210   2.050   5.443   6.106
 2771SOL     OW 9211   5.327   1.256   2.199
 2771SOL    HW1 9212   5.266   1.334   2.185
 2771SOL    HW2 9213   5.401   1.283   2.261
 2772SOL     OW 9214   4.325   2.239   0.988
 2772SOL    HW1 9215   4.294   2.334   0.989
 2772SOL    HW2 9216   4.370   2.217   1.075
 2773SOL     OW 9217   5.101   3.151   6.162
 2773SOL    HW1 9218   5.027   3.165   6.227
 2773SOL    HW2 9219   5.099   3.222   6.091
 2774SOL     OW 9220   0.132   3.234   2.919
 2774SOL    HW1 9221   0.160   3.234   3.015
 2774SOL    HW2 9222   0.043   3.188   2.910
 2775SOL     OW 9223   6.950   5.438   0.423
 2775SOL    HW1 9224   6.894   5.505   0.374
 2775SOL    HW2 9225   6.914   5.346   0.406
 2776SOL     OW 9226   4.698   5.514   5.411
 2776SOL    HW1 9227   4.729   5.607   5.390
 2776SOL    HW2 9228   4.765   5.468   5.469
 2777SOL     OW 9229   3.209   1.537   2.051
 2777SOL    HW1 9230   3.233   1.601   1.979
 2777SOL    HW2 9231   3.201   1.586   2.138
 2778SOL     OW 9232   1.780   1.200   5.078
 2778SOL    HW1 9233   1.868   1.194   5.031
 2778SOL    HW2 9234   1.758   1.112   5.120
 2779SOL     OW 9235   4.597   0.217   0.561
 2779SOL    HW1 9236   4.499   0.197   0.563
 2779SOL    HW2 9237   4.615   0.288   0.493
 2780SOL     OW 9238   6.497   5.316   5.646
 2780SOL    HW1 9239   6.550   5.384   5.696
 2780SOL    HW2 9240   6.401   5.342   5.646
 2781SOL     OW 9241   5.979   5.728   2.082
 2781SOL    HW1 9242   6.033   5.781   2.016
 2781SOL    HW2 9243   5.911   5.674   2.033
 2782SOL     OW 9244   2.783   2.746   5.961
 2782SOL    HW1 9245   2.771   2.673   5.894
 2782SOL    HW2 9246   2.745   2.717   6.049
 2783SOL     OW 9247   5.824   3.213   4.947
 2783SOL    HW1 9248   5.837   3.308   4.973
 2783SOL    HW2 9249   5.846   3.153   5.024
 2784SOL     OW 9250   2.843   1.772   1.493
 2784SOL    HW1 9251   2.823   1.702   1.425
 2784SOL    HW2 9252   2.757   1.815   1.523
 2785SOL     OW 9253   5.886   1.346   0.231
 2785SOL    HW1 9254   5.935   1.281   0.290
 2785SOL    HW2 9255   5.952   1.403   0.182
 2786SOL     OW 9256   4.276   6.317   1.518
 2786SOL    HW1 9257   4.294   6.243   1.453
 2786SOL    HW2 9258   4.357   6.376   1.524
 2787SOL     OW 9259   2.129   2.948   6.338
 2787SOL    HW1 9260   2.226   2.962   6.318
 2787SOL    HW2 9261   2.092   3.029   6.384
 2788SOL     OW 9262   1.932   4.086   0.145
 2788SOL    HW1 9263   2.003   4.084   0.215
 2788SOL    HW2 9264   1.844   4.108   0.187
 2789SOL     OW 9265   1.563   2.739   3.579
 2789SOL    HW1 9266   1.578   2.838   3.572
 2789SOL    HW2 9267   1.500   2.711   3.507
 2790SOL     OW 9268   3.126   5.251   2.999
 2790SOL    HW1 9269   3.106   5.270   3.095
 2790SOL    HW2 9270   3.048   5.205   2.957
 2791SOL     OW 9271   1.243   4.719   4.647
 2791SOL    HW1 9272   1.242   4.722   4.747
 2791SOL    HW2 9273   1.167   4.662   4.615
 2792SOL     OW 9274   1.021   6.962   5.153
 2792SOL    HW1 9275   0.944   6.900   5.136
 2792SOL    HW2 9276   1.042   7.013   5.069
 2793SOL     OW 9277   5.002   2.858   2.840
 2793SOL    HW1 9278   5.009   2.759   2.846
 2793SOL    HW2 9279   4.926   2.890   2.897
 2794SOL     OW 9280   6.851   2.598   0.619
 2794SOL    HW1 9281   6.849   2.637   0.711
 2794SOL    HW2 9282   6.946   2.597   0.586
 2795SOL     OW 9283   2.761   3.485   0.883
 2795SOL    HW1 9284   2.769   3.461   0.980
 2795SOL    HW2 9285   2.672   3.530   0.868
 2796SOL     OW 9286   6.989   4.486   2.651
 2796SOL    HW1 9287   7.004   4.410   2.714
 2796SOL    HW2 9288   6.927   4.552   2.693
 2797SOL     OW 9289   4.695   5.524   4.412
 2797SOL    HW1 9290   4.691   5.444   4.472
 2797SOL    HW2 9291   4.662   5.497   4.321
 2798SOL     OW 9292   1.392   4.203   1.817
 2798SOL    HW1 9293   1.412   4.184   1.913
 2798SOL    HW2 9294   1.293   4.197   1.801
 2799SOL     OW 9295   0.496   5.706   0.108
 2799SOL    HW1 9296   0.442   5.672   0.185
 2799SOL    HW2 9297   0.542   5.629   0.063
 2800SOL     OW 9298   4.435   4.304   6.688
 2800SOL    HW1 9299   4.441   4.316   6.589
 2800SOL    HW2 9300   4.462   4.211   6.712
 2801SOL     OW 9301   4.424   5.642   4.549
 2801SOL    HW1 9302   4.343   5.600   4.590
 2801SOL    HW2 9303   4.485   5.571   4.516
 2802SOL     OW 9304   4.939   3.231   6.661
 2802SOL    HW1 9305   4.952   3.319   6.617
 2802SOL    HW2 9306   4.956   3.157   6.595
 2803SOL     OW 9307   2.763   5.979   6.390
 2803SOL    HW1 9308   2.716   5.891   6.394
 2803SOL    HW2 9309   2.773   6.007   6.295
 2804SOL     OW 9310   0.066   4.343   4.594
 2804SOL    HW1 9311   0.093   4.265   4.536
 2804SOL    HW2 9312   7.001   4.332   4.623
 2805SOL     OW 9313   5.107   3.488   1.105
 2805SOL    HW1 9314   5.202   3.479   1.076
 2805SOL    HW2 9315   5.098   3.460   1.200
 2806SOL     OW 9316   6.068   5.054   3.803
 2806SOL    HW1 9317   5.977   5.078   3.837
 2806SOL    HW2 9318   6.098   5.124   3.738
 2807SOL     OW 9319   5.547   5.099   3.920
 2807SOL    HW1 9320   5.492   5.179   3.896
 2807SOL    HW2 9321   5.599   5.070   3.839
 2808SOL     OW 9322   4.491   2.456   2.281
 2808SOL    HW1 9323   4.470   2.453   2.378
 2808SOL    HW2 9324   4.544   2.537   2.260
 2809SOL     OW 9325   6.594   2.943   1.492
 2809SOL    HW1 9326   6.540   3.027   1.495
 2809SOL    HW2 9327   6.547   2.874   1.437
 2810SOL     OW 9328   3.119   6.308   4.466
 2810SOL    HW1 9329   3.097   6.221   4.510
 2810SOL    HW2 9330   3.041   6.338   4.411
 2811SOL     OW 9331   0.837   0.800   3.649
 2811SOL    HW1 9332   0.844   0.782   3.747
 2811SOL    HW2 9333   0.768   0.740   3.609
 2812SOL     OW 9334   6.224   3.638   0.837
 2812SOL    HW1 9335   6.158   3.684   0.896
 2812SOL    HW2 9336   6.213   3.539   0.846
 2813SOL     OW 9337   6.433   6.823   5.770
 2813SOL    HW1 9338   6.334   6.809   5.777
 2813SOL    HW2 9339   6.456   6.915   5.802
 2814SOL     OW 9340   4.430   2.864   0.005
 2814SOL    HW1 9341   4.494   2.807   6.983
 2814SOL    HW2 9342   4.341   2.819   0.009
 2815SOL     OW 9343   0.031   1.789   5.122
 2815SOL    HW1 9344   0.121   1.800   5.078
 2815SOL    HW2 9345   7.009   1.874   5.114
 2816SOL     OW 9346   6.942   6.184   4.073
 2816SOL    HW1 9347   6.919   6.227   4.161
 2816SOL    HW2 9348   6.860   6.145   4.033
 2817SOL     OW 9349   2.101   0.274   1.347
 2817SOL    HW1 9350   2.044   0.218   1.408
 2817SOL    HW2 9351   2.054   0.360   1.328
 2818SOL     OW 9352   6.873   5.849   6.467
 2818SOL    HW1 9353   6.806   5.787   6.427
 2818SOL    HW2 9354   6.964   5.827   6.430
 2819SOL     OW 9355   0.132   1.662   1.026
 2819SOL    HW1 9356   0.056   1.728   1.026
 2819SOL    HW2 9357   0.206   1.696   1.083
 2820SOL     OW 9358   1.030   1.883   2.877
 2820SOL    HW1 9359   1.087   1.802   2.892
 2820SOL    HW2 9360   1.086   1.956   2.837
 2821SOL     OW 9361   3.917   3.752   6.963
 2821SOL    HW1 9362   3.925   3.785   6.869
 2821SOL    HW2 9363   3.993   3.787   7.017
 2822SOL     OW 9364   4.162   2.535   0.119
 2822SOL    HW1 9365   4.096   2.487   0.176
 2822SOL    HW2 9366   4.176   2.485   0.034
 2823SOL     OW 9367   2.570   6.363   1.203
 2823SOL    HW1 9368   2.532   6.390   1.114
 2823SOL    HW2 9369   2.615   6.442   1.244
 2824SOL     OW 9370   2.345   1.447   4.378
 2824SOL    HW1 9371   2.291   1.518   4.334
 2824SOL    HW2 9372   2.311   1.357   4.351
 2825SOL     OW 9373   0.005   0.114   0.280
 2825SOL    HW1 9374   7.011   0.138   0.374
 2825SOL    HW2 9375   7.019   0.193   0.221
 2826SOL     OW 9376   5.333   2.294   6.449
 2826SOL    HW1 9377   5.236   2.292   6.423
 2826SOL    HW2 9378   5.341   2.276   6.547
 2827SOL     OW 9379   5.793   1.084   5.616
 2827SOL    HW1 9380   5.748   0.995   5.608
 2827SOL    HW2 9381   5.800   1.108   5.713
 2828SOL     OW 9382   3.205   1.002   6.886
 2828SOL    HW1 9383   3.197   0.921   6.944
 2828SOL    HW2 9384   3.294   1.001   6.839
 2829SOL     OW 9385   3.182   4.139   6.057
 2829SOL    HW1 9386   3.252   4.076   6.023
 2829SOL    HW2 9387   3.169   4.124   6.155
 2830SOL     OW 9388   0.503   3.470   6.623
 2830SOL    HW1 9389   0.521   3.565   6.647
 2830SOL    HW2 9390   0.552   3.447   6.539
 2831SOL     OW 9391   6.979   6.162   3.695
 2831SOL    HW1 9392   0.041   6.200   3.710
 2831SOL    HW2 9393   6.928   6.221   3.633
 2832SOL     OW 9394   0.211   1.124   1.702
 2832SOL    HW1 9395   0.213   1.024   1.704
 2832SOL    HW2 9396   0.153   1.155   1.626
 2833SOL     OW 9397   5.189   2.525   2.167
 2833SOL    HW1 9398   5.166   2.613   2.126
 2833SOL    HW2 9399   5.271   2.489   2.123
 2834SOL     OW 9400   2.870   0.045   6.158
 2834SOL    HW1 9401   2.965   0.059   6.186
 2834SOL    HW2 9402   2.865   6.996   6.096
 2835SOL     OW 9403   0.062   0.748   2.173
 2835SOL    HW1 9404   7.027   0.748   2.097
 2835SOL    HW2 9405   0.013   0.767   2.258
 2836SOL     OW 9406   6.888   0.046   1.642
 2836SOL    HW1 9407   6.913   0.134   1.601
 2836SOL    HW2 9408   6.789   0.035   1.641
 2837SOL     OW 9409   5.995   3.553   3.226
 2837SOL    HW1 9410   6.075   3.495   3.208
 2837SOL    HW2 9411   5.993   3.628   3.161
 2838SOL     OW 9412   1.585   4.021   1.664
 2838SOL    HW1 9413   1.541   3.933   1.683
 2838SOL    HW2 9414   1.568   4.083   1.740
 2839SOL     OW 9415   5.440   1.044   1.844
 2839SOL    HW1 9416   5.433   0.977   1.918
 2839SOL    HW2 9417   5.422   0.998   1.757
 2840SOL     OW 9418   0.617   0.649   4.149
 2840SOL    HW1 9419   0.548   0.643   4.078
 2840SOL    HW2 9420   0.585   0.709   4.222
 2841SOL     OW 9421   0.015   0.849   5.629
 2841SOL    HW1 9422   0.026   0.763   5.679
 2841SOL    HW2 9423   0.008   0.925   5.694
 2842SOL     OW 9424   0.138   2.106   4.425
 2842SOL    HW1 9425   0.230   2.138   4.449
 2842SOL    HW2 9426   0.144   2.012   4.391
 2843SOL     OW 9427   3.252   1.799   3.329
 2843SOL    HW1 9428   3.287   1.876   3.382
 2843SOL    HW2 9429   3.169   1.825   3.281
 2844SOL     OW 9430   1.636   4.651   0.495
 2844SOL    HW1 9431   1.712   4.658   0.558
 2844SOL    HW2 9432   1.551   4.640   0.546
 2845SOL     OW 9433   1.086   3.060   0.632
 2845SOL    HW1 9434   0.993   3.085   0.659
 2845SOL    HW2 9435   1.151   3.104   0.693
 2846SOL     OW 9436   4.589   1.512   6.576
 2846SOL    HW1 9437   4.552   1.605   6.572
 2846SOL    HW2 9438   4.547   1.463   6.653
 2847SOL     OW 9439   5.195   3.578   3.138
 2847SOL    HW1 9440   5.148   3.580   3.050
 2847SOL    HW2 9441   5.272   3.515   3.133
 2848SOL     OW 9442   0.772   4.577   6.366
 2848SOL    HW1 9443   0.713   4.497   6.351
 2848SOL    HW2 9444   0.866   4.553   6.345
 2849SOL     OW 9445   3.769   6.948   1.534
 2849SOL    HW1 9446   3.804   6.890   1.460
 2849SOL    HW2 9447   3.845   6.986   1.586
 2850SOL     OW 9448   3.340   6.858   2.452
 2850SOL    HW1 9449   3.321   6.845   2.354
 2850SOL    HW2 9450   3.388   6.945   2.464
 2851SOL     OW 9451   0.421   3.655   5.916
 2851SOL    HW1 9452   0.368   3.665   6.001
 2851SOL    HW2 9453   0.423   3.559   5.889
 2852SOL     OW 9454   5.509   4.540   0.330
 2852SOL    HW1 9455   5.450   4.500   0.399
 2852SOL    HW2 9456   5.532   4.634   0.356
 2853SOL     OW 9457   2.591   2.129   0.539
 2853SOL    HW1 9458   2.600   2.071   0.620
 2853SOL    HW2 9459   2.514   2.097   0.484
 2854SOL     OW 9460   3.223   1.776   4.460
 2854SOL    HW1 9461   3.217   1.760   4.559
 2854SOL    HW2 9462   3.274   1.861   4.444
 2855SOL     OW 9463   2.288   1.122   6.147
 2855SOL    HW1 9464   2.319   1.215   6.126
 2855SOL    HW2 9465   2.364   1.058   6.131
 2856SOL     OW 9466   2.256   2.671   6.033
 2856SOL    HW1 9467   2.175   2.727   6.045
 2856SOL    HW2 9468   2.334   2.729   6.009
 2857SOL     OW 9469   3.408   1.769   2.094
 2857SOL    HW1 9470   3.371   1.811   2.011
 2857SOL    HW2 9471   3.334   1.749   2.158
 2858SOL     OW 9472   6.188   3.443   1.704
 2858SOL    HW1 9473   6.107   3.464   1.759
 2858SOL    HW2 9474   6.267   3.493   1.741
 2859SOL     OW 9475   5.123   2.150   0.545
 2859SOL    HW1 9476   5.039   2.131   0.595
 2859SOL    HW2 9477   5.114   2.237   0.497
 2860SOL     OW 9478   3.453   1.854   1.194
 2860SOL    HW1 9479   3.474   1.830   1.288
 2860SOL    HW2 9480   3.486   1.782   1.133
 2861SOL     OW 9481   4.543   5.409   5.731
 2861SOL    HW1 9482   4.494   5.338   5.782
 2861SOL    HW2 9483   4.516   5.406   5.635
 2862SOL     OW 9484   5.114   1.974   3.097
 2862SOL    HW1 9485   5.024   2.017   3.093
 2862SOL    HW2 9486   5.144   1.952   3.004
 2863SOL     OW 9487   5.732   1.180   6.760
 2863SOL    HW1 9488   5.728   1.205   6.857
 2863SOL    HW2 9489   5.814   1.220   6.719
 2864SOL     OW 9490   3.855   0.762   1.384
 2864SOL    HW1 9491   3.869   0.671   1.344
 2864SOL    HW2 9492   3.835   0.752   1.482
 2865SOL     OW 9493   4.992   3.954   5.747
 2865SOL    HW1 9494   5.042   3.887   5.692
 2865SOL    HW2 9495   5.003   3.932   5.844
 2866SOL     OW 9496   6.479   6.003   0.253
 2866SOL    HW1 9497   6.530   6.068   0.197
 2866SOL    HW2 9498   6.499   6.019   0.350
 2867SOL     OW 9499   5.886   4.035   2.320
 2867SOL    HW1 9500   5.942   4.116   2.337
 2867SOL    HW2 9501   5.795   4.049   2.357
 2868SOL     OW 9502   0.535   2.961   5.209
 2868SOL    HW1 9503   0.545   2.887   5.143
 2868SOL    HW2 9504   0.442   2.960   5.246
 2869SOL     OW 9505   6.157   1.147   3.141
 2869SOL    HW1 9506   6.058   1.138   3.155
 2869SOL    HW2 9507   6.187   1.236   3.175
 2870SOL     OW 9508   6.964   1.307   4.466
 2870SOL    HW1 9509   6.983   1.402   4.493
 2870SOL    HW2 9510   6.979   1.246   4.544
 2871SOL     OW 9511   1.644   1.435   0.131
 2871SOL    HW1 9512   1.741   1.442   0.107
 2871SOL    HW2 9513   1.590   1.495   0.071
 2872SOL     OW 9514   2.430   1.922   3.660
 2872SOL    HW1 9515   2.509   1.878   3.617
 2872SOL    HW2 9516   2.351   1.915   3.600
 2873SOL     OW 9517   1.226   5.220   3.241
 2873SOL    HW1 9518   1.186   5.306   3.273
 2873SOL    HW2 9519   1.247   5.162   3.320
 2874SOL     OW 9520   4.361   5.424   2.915
 2874SOL    HW1 9521   4.440   5.365   2.902
 2874SOL    HW2 9522   4.333   5.421   3.011
 2875SOL     OW 9523   4.891   6.130   6.965
 2875SOL    HW1 9524   4.846   6.153   6.878
 2875SOL    HW2 9525   4.934   6.041   6.957
 2876SOL     OW 9526   0.828   6.883   1.805
 2876SOL    HW1 9527   0.906   6.830   1.838
 2876SOL    HW2 9528   0.774   6.828   1.742
 2877SOL     OW 9529   3.641   2.731   5.248
 2877SOL    HW1 9530   3.636   2.711   5.150
 2877SOL    HW2 9531   3.681   2.653   5.296
 2878SOL     OW 9532   3.579   4.996   4.592
 2878SOL    HW1 9533   3.530   4.978   4.507
 2878SOL    HW2 9534   3.608   5.092   4.595
 2879SOL     OW 9535   5.377   5.215   0.124
 2879SOL    HW1 9536   5.473   5.190   0.130
 2879SOL    HW2 9537   5.322   5.133   0.105
 2880SOL     OW 9538   5.906   6.664   0.640
 2880SOL    HW1 9539   5.952   6.576   0.630
 2880SOL    HW2 9540   5.912   6.694   0.735
 2881SOL     OW 9541   6.049   6.338   1.325
 2881SOL    HW1 9542   6.109   6.269   1.284
 2881SOL    HW2 9543   5.978   6.363   1.259
 2882SOL     OW 9544   0.633   3.501   2.140
 2882SOL    HW1 9545   0.686   3.524   2.222
 2882SOL    HW2 9546   0.535   3.501   2.163
 2883SOL     OW 9547   5.391   6.762   4.152
 2883SOL    HW1 9548   5.301   6.727   4.128
 2883SOL    HW2 9549   5.433   6.804   4.072
 2884SOL     OW 9550   0.731   5.556   2.731
 2884SOL    HW1 9551   0.787   5.555   2.647
 2884SOL    HW2 9552   0.647   5.505   2.715
 2885SOL     OW 9553   0.211   3.015   2.143
 2885SOL    HW1 9554   0.117   2.982   2.133
 2885SOL    HW2 9555   0.269   2.939   2.172
 2886SOL     OW 9556   2.024   3.881   6.989
 2886SOL    HW1 9557   2.040   3.936   6.907
 2886SOL    HW2 9558   1.993   3.940   0.034
 2887SOL     OW 9559   1.761   0.076   4.959
 2887SOL    HW1 9560   1.755   0.140   4.882
 2887SOL    HW2 9561   1.778   7.013   4.924
 2888SOL     OW 9562   0.696   5.290   6.498
 2888SOL    HW1 9563   0.684   5.269   6.401
 2888SOL    HW2 9564   0.704   5.205   6.550
 2889SOL     OW 9565   1.607   0.810   2.691
 2889SOL    HW1 9566   1.666   0.787   2.614
 2889SOL    HW2 9567   1.522   0.757   2.684
 2890SOL     OW 9568   2.883   0.224   0.715
 2890SOL    HW1 9569   2.936   0.147   0.678
 2890SOL    HW2 9570   2.814   0.188   0.778
 2891SOL     OW 9571   2.499   4.417   3.783
 2891SOL    HW1 9572   2.568   4.346   3.795
 2891SOL    HW2 9573   2.453   4.404   3.695
 2892SOL     OW 9574   5.741   3.694   0.269
 2892SOL    HW1 9575   5.755   3.666   0.364
 2892SOL    HW2 9576   5.808   3.649   0.210
 2893SOL     OW 9577   0.817   6.606   5.024
 2893SOL    HW1 9578   0.806   6.651   5.113
 2893SOL    HW2 9579   0.728   6.573   4.993
 2894SOL     OW 9580   2.941   2.667   6.925
 2894SOL    HW1 9581   3.027   2.650   6.972
 2894SOL    HW2 9582   2.882   2.587   6.933
 2895SOL     OW 9583   4.016   3.008   6.542
 2895SOL    HW1 9584   3.943   3.043   6.483
 2895SOL    HW2 9585   4.045   2.919   6.509
 2896SOL     OW 9586   2.970   5.198   6.299
 2896SOL    HW1 9587   2.940   5.293   6.303
 2896SOL    HW2 9588   3.000   5.169   6.390
 2897SOL     OW 9589   3.023   5.967   3.499
 2897SOL    HW1 9590   3.106   5.911   3.509
 2897SOL    HW2 9591   2.964   5.926   3.429
 2898SOL     OW 9592   4.560   5.384   3.408
 2898SOL    HW1 9593   4.614   5.343   3.481
 2898SOL    HW2 9594   4.474   5.419   3.446
 2899SOL     OW 9595   0.534   2.096   0.311
 2899SOL    HW1 9596   0.463   2.033   0.342
 2899SOL    HW2 9597   0.492   2.180   0.279
 2900SOL     OW 9598   1.470   5.023   5.591
 2900SOL    HW1 9599   1.396   4.976   5.541
 2900SOL    HW2 9600   1.441   5.040   5.685
 2901SOL     OW 9601   1.412   0.530   2.613
 2901SOL    HW1 9602   1.360   0.609   2.644
 2901SOL    HW2 9603   1.393   0.451   2.673
 2902SOL     OW 9604   5.546   5.916   1.122
 2902SOL    HW1 9605   5.494   5.873   1.047
 2902SOL    HW2 9606   5.627   5.961   1.084
 2903SOL     OW 9607   3.315   0.127   1.539
 2903SOL    HW1 9608   3.385   0.085   1.482
 2903SOL    HW2 9609   3.346   0.218   1.569
 2904SOL     OW 9610   2.182   3.286   5.418
 2904SOL    HW1 9611   2.281   3.271   5.405
 2904SOL    HW2 9612   2.168   3.349   5.494
 2905SOL     OW 9613   0.698   2.357   3.385
 2905SOL    HW1 9614   0.779   2.392   3.337
 2905SOL    HW2 9615   0.628   2.330   3.318
 2906SOL     OW 9616   5.205   5.514   2.968
 2906SOL    HW1 9617   5.304   5.519   2.983
 2906SOL    HW2 9618   5.179   5.577   2.894
 2907SOL     OW 9619   6.991   0.945   4.157
 2907SOL    HW1 9620   0.059   0.944   4.138
 2907SOL    HW2 9621   6.958   1.039   4.160
 2908SOL     OW 9622   4.127   6.899   4.078
 2908SOL    HW1 9623   4.226   6.883   4.074
 2908SOL    HW2 9624   4.108   6.984   4.126
 2909SOL     OW 9625   0.543   6.171   3.197
 2909SOL    HW1 9626   0.453   6.138   3.168
 2909SOL    HW2 9627   0.591   6.098   3.246
 2910SOL     OW 9628   4.380   6.478   4.576
 2910SOL    HW1 9629   4.374   6.380   4.557
 2910SOL    HW2 9630   4.303   6.526   4.535
 2911SOL     OW 9631   2.182   5.130   3.557
 2911SOL    HW1 9632   2.087   5.159   3.548
 2911SOL    HW2 9633   2.242   5.199   3.515
 2912SOL     OW 9634   3.929   6.158   6.888
 2912SOL    HW1 9635   4.005   6.103   6.921
 2912SOL    HW2 9636   3.883   6.202   6.965
 2913SOL     OW 9637   1.858   5.047   2.174
 2913SOL    HW1 9638   1.814   5.041   2.264
 2913SOL    HW2 9639   1.934   5.112   2.179
 2914SOL     OW 9640   5.745   5.565   5.934
 2914SOL    HW1 9641   5.796   5.493   5.981
 2914SOL    HW2 9642   5.794   5.652   5.943
 2915SOL     OW 9643   4.640   1.484   5.152
 2915SOL    HW1 9644   4.726   1.442   5.177
 2915SOL    HW2 9645   4.565   1.420   5.168
 2916SOL     OW 9646   6.361   5.312   5.940
 2916SOL    HW1 9647   6.298   5.322   6.017
 2916SOL    HW2 9648   6.385   5.402   5.905
 2917SOL     OW 9649   4.471   0.464   1.861
 2917SOL    HW1 9650   4.482   0.410   1.944
 2917SOL    HW2 9651   4.424   0.549   1.881
 2918SOL     OW 9652   0.546   3.481   3.008
 2918SOL    HW1 9653   0.529   3.397   2.956
 2918SOL    HW2 9654   0.597   3.546   2.950
 2919SOL     OW 9655   6.334   0.925   0.141
 2919SOL    HW1 9656   6.419   0.925   0.087
 2919SOL    HW2 9657   6.353   0.965   0.231
 2920SOL     OW 9658   3.302   2.105   2.361
 2920SOL    HW1 9659   3.347   2.123   2.274
 2920SOL    HW2 9660   3.203   2.118   2.351
 2921SOL     OW 9661   0.377   0.755   3.071
 2921SOL    HW1 9662   0.438   0.740   2.993
 2921SOL    HW2 9663   0.432   0.769   3.154
 2922SOL     OW 9664   5.828   6.508   6.876
 2922SOL    HW1 9665   5.859   6.442   6.943
 2922SOL    HW2 9666   5.769   6.576   6.920
 2923SOL     OW 9667   0.039   4.872   1.927
 2923SOL    HW1 9668   0.003   4.786   1.964
 2923SOL    HW2 9669   0.022   4.876   1.829
 2924SOL     OW 9670   6.879   2.175   6.695
 2924SOL    HW1 9671   6.780   2.167   6.702
 2924SOL    HW2 9672   6.904   2.200   6.601
 2925SOL     OW 9673   5.275   0.986   3.356
 2925SOL    HW1 9674   5.354   0.971   3.416
 2925SOL    HW2 9675   5.246   1.082   3.363
 2926SOL     OW 9676   6.953   1.339   5.044
 2926SOL    HW1 9677   6.857   1.328   5.069
 2926SOL    HW2 9678   6.970   1.435   5.022
 2927SOL     OW 9679   2.285   1.850   2.150
 2927SOL    HW1 9680   2.336   1.784   2.095
 2927SOL    HW2 9681   2.303   1.943   2.117
 2928SOL     OW 9682   6.526   2.326   6.157
 2928SOL    HW1 9683   6.494   2.235   6.130
 2928SOL    HW2 9684   6.461   2.395   6.124
 2929SOL     OW 9685   0.589   1.049   5.660
 2929SOL    HW1 9686   0.589   1.141   5.698
 2929SOL    HW2 9687   0.588   0.982   5.735
 2930SOL     OW 9688   4.691   6.417   5.037
 2930SOL    HW1 9689   4.631   6.474   4.982
 2930SOL    HW2 9690   4.734   6.472   5.108
 2931SOL     OW 9691   5.781   6.465   6.624
 2931SOL    HW1 9692   5.856   6.411   6.588
 2931SOL    HW2 9693   5.799   6.488   6.720
 2932SOL     OW 9694   1.581   4.769   2.226
 2932SOL    HW1 9695   1.661   4.772   2.165
 2932SOL    HW2 9696   1.522   4.692   2.200
 2933SOL     OW 9697   5.575   3.223   2.859
 2933SOL    HW1 9698   5.629   3.139   2.853
 2933SOL    HW2 9699   5.633   3.301   2.832
 2934SOL     OW 9700   3.956   1.197   0.152
 2934SOL    HW1 9701   3.979   1.168   0.059
 2934SOL    HW2 9702   3.857   1.200   0.163
 2935SOL     OW 9703   6.069   3.063   1.662
 2935SOL    HW1 9704   6.004   3.112   1.718
 2935SOL    HW2 9705   6.043   2.966   1.658
 2936SOL     OW 9706   5.099   5.548   1.806
 2936SOL    HW1 9707   5.190   5.531   1.845
 2936SOL    HW2 9708   5.030   5.528   1.876
 2937SOL     OW 9709   3.910   4.791   0.861
 2937SOL    HW1 9710   3.991   4.772   0.806
 2937SOL    HW2 9711   3.903   4.890   0.875
 2938SOL     OW 9712   4.938   4.654   5.969
 2938SOL    HW1 9713   4.938   4.588   5.893
 2938SOL    HW2 9714   4.878   4.622   6.041
 2939SOL     OW 9715   0.538   6.964   4.464
 2939SOL    HW1 9716   0.554   0.031   4.443
 2939SOL    HW2 9717   0.625   6.919   4.482
 2940SOL     OW 9718   6.182   6.870   5.832
 2940SOL    HW1 9719   6.233   6.948   5.870
 2940SOL    HW2 9720   6.091   6.899   5.805
 2941SOL     OW 9721   2.067   2.462   5.045
 2941SOL    HW1 9722   2.121   2.498   4.969
 2941SOL    HW2 9723   1.998   2.400   5.010
 2942SOL     OW 9724   2.169   1.194   1.931
 2942SOL    HW1 9725   2.103   1.247   1.878
 2942SOL    HW2 9726   2.136   1.184   2.025
 2943SOL     OW 9727   5.840   3.937   3.014
 2943SOL    HW1 9728   5.855   3.847   2.974
 2943SOL    HW2 9729   5.743   3.959   3.013
 2944SOL     OW 9730   2.533   5.682   5.125
 2944SOL    HW1 9731   2.601   5.726   5.184
 2944SOL    HW2 9732   2.522   5.586   5.153
 2945SOL     OW 9733   4.021   3.170   3.337
 2945SOL    HW1 9734   4.059   3.224   3.412
 2945SOL    HW2 9735   4.085   3.171   3.260
 2946SOL     OW 9736   6.877   5.512   6.266
 2946SOL    HW1 9737   6.904   5.602   6.231
 2946SOL    HW2 9738   6.940   5.442   6.232
 2947SOL     OW 9739   1.120   4.688   0.576
 2947SOL    HW1 9740   1.150   4.677   0.482
 2947SOL    HW2 9741   1.035   4.740   0.578
 2948SOL     OW 9742   6.584   3.740   5.697
 2948SOL    HW1 9743   6.678   3.709   5.688
 2948SOL    HW2 9744   6.573   3.829   5.652
 2949SOL     OW 9745   2.024   6.193   1.097
 2949SOL    HW1 9746   1.971   6.254   1.037
 2949SOL    HW2 9747   2.105   6.161   1.048
 2950SOL     OW 9748   5.202   3.796   4.490
 2950SOL    HW1 9749   5.184   3.889   4.525
 2950SOL    HW2 9750   5.120   3.740   4.501
 2951SOL     OW 9751   6.704   2.295   0.493
 2951SOL    HW1 9752   6.647   2.275   0.572
 2951SOL    HW2 9753   6.713   2.212   0.437
 2952SOL     OW 9754   0.946   5.741   4.903
 2952SOL    HW1 9755   1.004   5.690   4.841
 2952SOL    HW2 9756   0.965   5.839   4.893
 2953SOL     OW 9757   4.681   2.657   2.243
 2953SOL    HW1 9758   4.698   2.716   2.164
 2953SOL    HW2 9759   4.679   2.712   2.326
 2954SOL     OW 9760   0.932   5.432   1.474
 2954SOL    HW1 9761   1.009   5.435   1.538
 2954SOL    HW2 9762   0.913   5.338   1.448
 2955SOL     OW 9763   0.597   3.681   0.724
 2955SOL    HW1 9764   0.681   3.705   0.772
 2955SOL    HW2 9765   0.565   3.760   0.671
 2956SOL     OW 9766   6.196   6.365   3.076
 2956SOL    HW1 9767   6.146   6.424   3.013
 2956SOL    HW2 9768   6.225   6.419   3.155
 2957SOL     OW 9769   6.471   3.188   1.478
 2957SOL    HW1 9770   6.487   3.272   1.425
 2957SOL    HW2 9771   6.386   3.196   1.530
 2958SOL     OW 9772   2.691   4.678   4.688
 2958SOL    HW1 9773   2.630   4.608   4.652
 2958SOL    HW2 9774   2.739   4.642   4.768
 2959SOL     OW 9775   4.391   4.442   0.269
 2959SOL    HW1 9776   4.367   4.390   0.351
 2959SOL    HW2 9777   4.476   4.407   0.231
 2960SOL     OW 9778   3.052   0.440   6.534
 2960SOL    HW1 9779   2.961   0.402   6.520
 2960SOL    HW2 9780   3.052   0.537   6.510
 2961SOL     OW 9781   5.228   2.780   4.250
 2961SOL    HW1 9782   5.261   2.858   4.304
 2961SOL    HW2 9783   5.138   2.801   4.214
 2962SOL     OW 9784   4.417   0.940   3.859
 2962SOL    HW1 9785   4.360   0.965   3.781
 2962SOL    HW2 9786   4.465   0.854   3.840
 2963SOL     OW 9787   1.793   1.490   5.948
 2963SOL    HW1 9788   1.781   1.552   6.026
 2963SOL    HW2 9789   1.797   1.544   5.864
 2964SOL     OW 9790   1.165   6.758   1.526
 2964SOL    HW1 9791   1.177   6.748   1.428
 2964SOL    HW2 9792   1.240   6.814   1.563
 2965SOL     OW 9793   6.912   0.929   4.837
 2965SOL    HW1 9794   6.923   0.969   4.928
 2965SOL    HW2 9795   6.958   0.840   4.834
 2966SOL     OW 9796   6.468   4.548   4.019
 2966SOL    HW1 9797   6.469   4.582   3.925
 2966SOL    HW2 9798   6.537   4.476   4.029
 2967SOL     OW 9799   6.034   2.259   4.479
 2967SOL    HW1 9800   6.131   2.249   4.456
 2967SOL    HW2 9801   6.023   2.258   4.578
 2968SOL     OW 9802   0.892   3.902   5.426
 2968SOL    HW1 9803   0.989   3.878   5.423
 2968SOL    HW2 9804   0.846   3.843   5.492
 2969SOL     OW 9805   5.978   1.267   4.318
 2969SOL    HW1 9806   5.918   1.192   4.289
 2969SOL    HW2 9807   5.926   1.352   4.319
 2970SOL     OW 9808   1.002   4.231   0.008
 2970SOL    HW1 9809   0.912   4.192   7.023
 2970SOL    HW2 9810   0.994   4.327   0.034
 2971SOL     OW 9811   4.941   2.625   5.072
 2971SOL    HW1 9812   4.977   2.695   5.012
 2971SOL    HW2 9813   4.898   2.667   5.152
 2972SOL     OW 9814   6.478   5.115   6.254
 2972SOL    HW1 9815   6.422   5.046   6.207
 2972SOL    HW2 9816   6.540   5.158   6.188
 2973SOL     OW 9817   5.282   1.288   4.496
 2973SOL    HW1 9818   5.223   1.296   4.416
 2973SOL    HW2 9819   5.253   1.354   4.565
 2974SOL     OW 9820   0.338   3.746   2.982
 2974SOL    HW1 9821   0.242   3.746   2.955
 2974SOL    HW2 9822   0.363   3.836   3.018
 2975SOL     OW 9823   0.673   1.924   5.350
 2975SOL    HW1 9824   0.583   1.969   5.352
 2975SOL    HW2 9825   0.663   1.832   5.313
 2976SOL     OW 9826   4.112   1.261   2.482
 2976SOL    HW1 9827   4.143   1.220   2.568
 2976SOL    HW2 9828   4.012   1.270   2.483
 2977SOL     OW 9829   1.782   0.129   4.268
 2977SOL    HW1 9830   1.737   0.087   4.189
 2977SOL    HW2 9831   1.786   0.063   4.343
 2978SOL     OW 9832   4.161   4.411   6.779
 2978SOL    HW1 9833   4.162   4.320   6.737
 2978SOL    HW2 9834   4.234   4.467   6.740
 2979SOL     OW 9835   4.476   6.851   4.158
 2979SOL    HW1 9836   4.559   6.800   4.179
 2979SOL    HW2 9837   4.496   6.921   4.089
 2980SOL     OW 9838   1.850   5.960   3.809
 2980SOL    HW1 9839   1.784   6.034   3.822
 2980SOL    HW2 9840   1.803   5.872   3.821
 2981SOL     OW 9841   0.887   0.266   5.627
 2981SOL    HW1 9842   0.874   0.361   5.598
 2981SOL    HW2 9843   0.974   0.232   5.592
 2982SOL     OW 9844   4.973   6.294   3.094
 2982SOL    HW1 9845   4.889   6.347   3.101
 2982SOL    HW2 9846   4.953   6.197   3.103
 2983SOL     OW 9847   0.639   1.146   4.179
 2983SOL    HW1 9848   0.601   1.114   4.092
 2983SOL    HW2 9849   0.644   1.246   4.178
 2984SOL     OW 9850   4.845   5.610   1.600
 2984SOL    HW1 9851   4.892   5.680   1.654
 2984SOL    HW2 9852   4.914   5.549   1.559
 2985SOL     OW 9853   0.690   2.394   5.308
 2985SOL    HW1 9854   0.758   2.358   5.372
 2985SOL    HW2 9855   0.722   2.378   5.214
 2986SOL     OW 9856   2.005   3.902   6.653
 2986SOL    HW1 9857   2.081   3.838   6.649
 2986SOL    HW2 9858   1.940   3.882   6.580
 2987SOL     OW 9859   4.628   0.815   3.498
 2987SOL    HW1 9860   4.706   0.836   3.556
 2987SOL    HW2 9861   4.591   0.725   3.523
 2988SOL     OW 9862   0.033   0.203   3.102
 2988SOL    HW1 9863   0.015   0.247   3.014
 2988SOL    HW2 9864   0.038   0.104   3.088
 2989SOL     OW 9865   6.508   5.967   0.858
 2989SOL    HW1 9866   6.507   5.915   0.944
 2989SOL    HW2 9867   6.579   5.930   0.798
 2990SOL     OW 9868   4.423   1.407   3.384
 2990SOL    HW1 9869   4.486   1.340   3.345
 2990SOL    HW2 9870   4.414   1.390   3.483
 2991SOL     OW 9871   6.866   4.102   0.295
 2991SOL    HW1 9872   6.960   4.131   0.310
 2991SOL    HW2 9873   6.818   4.171   0.240
 2992SOL     OW 9874   2.402   5.268   5.729
 2992SOL    HW1 9875   2.344   5.223   5.796
 2992SOL    HW2 9876   2.355   5.270   5.641
 2993SOL     OW 9877   0.970   4.961   1.754
 2993SOL    HW1 9878   0.931   4.961   1.663
 2993SOL    HW2 9879   1.041   5.031   1.760
 2994SOL     OW 9880   4.114   0.617   0.667
 2994SOL    HW1 9881   4.066   0.637   0.751
 2994SOL    HW2 9882   4.054   0.567   0.605
 2995SOL     OW 9883   0.604   3.223   6.936
 2995SOL    HW1 9884   0.671   3.153   6.959
 2995SOL    HW2 9885   0.651   3.307   6.910
 2996SOL     OW 9886   2.490   5.888   3.786
 2996SOL    HW1 9887   2.467   5.878   3.883
 2996SOL    HW2 9888   2.429   5.955   3.744
 2997SOL     OW 9889   4.811   6.707   2.059
 2997SOL    HW1 9890   4.785   6.622   2.013
 2997SOL    HW2 9891   4.831   6.777   1.992
 2998SOL     OW 9892   5.218   6.587   5.182
 2998SOL    HW1 9893   5.146   6.535   5.228
 2998SOL    HW2 9894   5.299   6.591   5.242
 2999SOL     OW 9895   3.475   5.499   3.602
 2999SOL    HW1 9896   3.445   5.473   3.693
 2999SOL    HW2 9897   3.534   5.427   3.564
 3000SOL     OW 9898   1.324   3.840   6.782
 3000SOL    HW1 9899   1.423   3.851   6.797
 3000SOL    HW2 9900   1.274   3.884   6.857
 3001SOL     OW 9901   5.379   6.979   6.621
 3001SOL    HW1 9902   5.357   7.018   6.532
 3001SOL    HW2 9903   5.410   6.885   6.610
 3002SOL     OW 9904   4.535   0.298   5.425
 3002SOL    HW1 9905   4.513   0.381   5.475
 3002SOL    HW2 9906   4.629   0.304   5.389
 3003SOL     OW 9907   2.546   6.677   6.658
 3003SOL    HW1 9908   2.474   6.608   6.650
 3003SOL    HW2 9909   2.571   6.711   6.568
 3004SOL     OW 9910   0.410   5.016   3.628
 3004SOL    HW1 9911   0.374   4.969   3.547
 3004SOL    HW2 9912   0.509   5.004   3.633
 3005SOL     OW 9913   3.460   2.387   0.580
 3005SOL    HW1 9914   3.480   2.297   0.617
 3005SOL    HW2 9915   3.539   2.420   0.528
 3006SOL     OW 9916   5.953   1.959   0.054
 3006SOL    HW1 9917   5.989   1.869   0.029
 3006SOL    HW2 9918   5.899   1.950   0.138
 3007SOL     OW 9919   6.156   5.078   2.186
 3007SOL    HW1 9920   6.178   5.085   2.088
 3007SOL    HW2 9921   6.111   4.991   2.204
 3008SOL     OW 9922   3.852   0.651   6.365
 3008SOL    HW1 9923   3.915   0.729   6.371
 3008SOL    HW2 9924   3.890   0.574   6.417
 3009SOL     OW 9925   0.659   6.550   2.725
 3009SOL    HW1 9926   0.692   6.541   2.631
 3009SOL    HW2 9927   0.636   6.460   2.761
 3010SOL     OW 9928   3.695   5.853   3.168
 3010SOL    HW1 9929   3.681   5.935   3.224
 3010SOL    HW2 9930   3.610   5.802   3.163
 3011SOL     OW 9931   5.529   1.104   0.104
 3011SOL    HW1 9932   5.451   1.166   0.093
 3011SOL    HW2 9933   5.526   1.064   0.196
 3012SOL     OW 9934   1.684   3.828   5.343
 3012SOL    HW1 9935   1.649   3.744   5.302
 3012SOL    HW2 9936   1.748   3.872   5.280
 3013SOL     OW 9937   5.650   5.656   4.237
 3013SOL    HW1 9938   5.568   5.685   4.287
 3013SOL    HW2 9939   5.647   5.557   4.221
 3014SOL     OW 9940   5.115   2.740   3.895
 3014SOL    HW1 9941   5.091   2.795   3.975
 3014SOL    HW2 9942   5.214   2.744   3.880
 3015SOL     OW 9943   3.311   2.110   0.269
 3015SOL    HW1 9944   3.280   2.178   0.336
 3015SOL    HW2 9945   3.342   2.157   0.186
 3016SOL     OW 9946   2.459   6.369   3.921
 3016SOL    HW1 9947   2.539   6.416   3.959
 3016SOL    HW2 9948   2.480   6.338   3.828
 3017SOL     OW 9949   1.001   5.387   1.789
 3017SOL    HW1 9950   0.950   5.468   1.817
 3017SOL    HW2 9951   1.076   5.415   1.729
 3018SOL     OW 9952   3.241   6.922   5.638
 3018SOL    HW1 9953   3.241   6.836   5.690
 3018SOL    HW2 9954   3.275   6.905   5.546
 3019SOL     OW 9955   2.096   6.800   0.789
 3019SOL    HW1 9956   2.019   6.856   0.820
 3019SOL    HW2 9957   2.182   6.850   0.805
 3020SOL     OW 9958   3.309   4.225   1.633
 3020SOL    HW1 9959   3.209   4.233   1.633
 3020SOL    HW2 9960   3.335   4.135   1.600
 3021SOL     OW 9961   2.106   1.409   0.258
 3021SOL    HW1 9962   2.036   1.338   0.264
 3021SOL    HW2 9963   2.162   1.394   0.176
 3022SOL     OW 9964   4.087   5.779   3.002
 3022SOL    HW1 9965   4.157   5.761   2.933
 3022SOL    HW2 9966   4.008   5.822   2.959
 3023SOL     OW 9967   3.869   6.541   2.498
 3023SOL    HW1 9968   3.803   6.615   2.492
 3023SOL    HW2 9969   3.845   6.481   2.574
 3024SOL     OW 9970   4.206   0.286   6.206
 3024SOL    HW1 9971   4.197   0.347   6.127
 3024SOL    HW2 9972   4.226   0.339   6.288
 3025SOL     OW 9973   3.540   2.489   0.235
 3025SOL    HW1 9974   3.546   2.398   0.194
 3025SOL    HW2 9975   3.555   2.558   0.165
 3026SOL     OW 9976   1.729   2.162   0.717
 3026SOL    HW1 9977   1.747   2.234   0.783
 3026SOL    HW2 9978   1.815   2.126   0.682
 3027SOL     OW 9979   4.174   0.737   1.794
 3027SOL    HW1 9980   4.180   0.678   1.874
 3027SOL    HW2 9981   4.119   0.692   1.724
 3028SOL     OW 9982   1.263   4.281   6.478
 3028SOL    HW1 9983   1.287   4.247   6.387
 3028SOL    HW2 9984   1.335   4.258   6.542
 3029SOL     OW 9985   0.404   4.690   5.049
 3029SOL    HW1 9986   0.426   4.646   5.136
 3029SOL    HW2 9987   0.328   4.754   5.062
 3030SOL     OW 9988   0.545   2.441   6.033
 3030SOL    HW1 9989   0.453   2.408   6.051
 3030SOL    HW2 9990   0.569   2.427   5.937
 3031SOL     OW 9991   0.194   3.769   0.841
 3031SOL    HW1 9992   0.141   3.716   0.908
 3031SOL    HW2 9993   0.193   3.721   0.753
 3032SOL     OW 9994   4.957   0.003   0.962
 3032SOL    HW1 9995   4.904   0.083   0.934
 3032SOL    HW2 9996   5.052   0.030   0.976
 3033SOL     OW 9997   0.738   2.536   1.190
 3033SOL    HW1 9998   0.711   2.468   1.122
 3033SOL    HW2 9999   0.827   2.574   1.165
 3034SOL     OW10000   2.231   6.113   4.004
 3034SOL    HW110001   2.251   6.164   3.920
 3034SOL    HW210002   2.216   6.178   4.079
 3035SOL     OW10003   6.848   2.845   0.397
 3035SOL    HW110004   6.928   2.888   0.440
 3035SOL    HW210005   6.802   2.911   0.338
 3036SOL     OW10006   1.461   3.074   6.733
 3036SOL    HW110007   1.496   3.140   6.667
 3036SOL    HW210008   1.527   3.064   6.808
 3037SOL     OW10009   6.183   5.760   4.501
 3037SOL    HW110010   6.225   5.824   4.437
 3037SOL    HW210011   6.195   5.793   4.595
 3038SOL     OW10012   5.832   6.962   6.529
 3038SOL    HW110013   5.886   6.951   6.445
 3038SOL    HW210014   5.736   6.978   6.505
 3039SOL     OW10015   6.631   3.883   2.569
 3039SOL    HW110016   6.645   3.820   2.493
 3039SOL    HW210017   6.565   3.843   2.634
 3040SOL     OW10018   5.060   3.758   6.150
 3040SOL    HW110019   5.144   3.808   6.168
 3040SOL    HW210020   4.988   3.789   6.213
 3041SOL     OW10021   2.145   2.719   5.510
 3041SOL    HW110022   2.210   2.788   5.480
 3041SOL    HW210023   2.195   2.641   5.548
 3042SOL     OW10024   5.814   6.925   1.830
 3042SOL    HW110025   5.750   6.859   1.791
 3042SOL    HW210026   5.764   7.000   1.872
 3043SOL     OW10027   0.513   5.394   1.066
 3043SOL    HW110028   0.573   5.368   0.990
 3043SOL    HW210029   0.567   5.436   1.139
 3044SOL     OW10030   2.964   4.837   5.890
 3044SOL    HW110031   2.896   4.904   5.917
 3044SOL    HW210032   3.031   4.827   5.964
 3045SOL     OW10033   5.034   0.557   2.674
 3045SOL    HW110034   4.959   0.491   2.683
 3045SOL    HW210035   5.040   0.587   2.579
 3046SOL     OW10036   2.202   2.182   5.900
 3046SOL    HW110037   2.157   2.111   5.847
 3046SOL    HW210038   2.294   2.198   5.863
 3047SOL     OW10039   5.228   5.943   2.700
 3047SOL    HW110040   5.182   5.876   2.759
 3047SOL    HW210041   5.204   6.036   2.729
 3048SOL     OW10042   3.761   2.949   1.556
 3048SOL    HW110043   3.688   2.888   1.587
 3048SOL    HW210044   3.744   2.978   1.462
 3049SOL     OW10045   1.589   5.943   1.258
 3049SOL    HW110046   1.575   5.858   1.308
 3049SOL    HW210047   1.687   5.961   1.249
 3050SOL     OW10048   3.477   0.921   3.712
 3050SOL    HW110049   3.548   0.863   3.671
 3050SOL    HW210050   3.435   0.977   3.641
 3051SOL     OW10051   2.663   3.446   6.879
 3051SOL    HW110052   2.622   3.470   6.967
 3051SOL    HW210053   2.720   3.365   6.889
 3052SOL     OW10054   4.024   0.492   2.185
 3052SOL    HW110055   4.032   0.555   2.262
 3052SOL    HW210056   3.987   0.405   2.217
 3053SOL     OW10057   6.562   0.479   6.754
 3053SOL    HW110058   6.651   0.507   6.718
 3053SOL    HW210059   6.524   0.406   6.696
 3054SOL     OW10060   0.654   2.795   1.269
 3054SOL    HW110061   0.603   2.814   1.185
 3054SOL    HW210062   0.682   2.699   1.270
 3055SOL     OW10063   4.719   6.897   3.665
 3055SOL    HW110064   4.710   6.800   3.645
 3055SOL    HW210065   4.728   6.949   3.580
 3056SOL     OW10066   6.896   0.493   6.091
 3056SOL    HW110067   6.927   0.517   5.999
 3056SOL    HW210068   6.854   0.402   6.089
 3057SOL     OW10069   4.446   5.666   2.715
 3057SOL    HW110070   4.442   5.636   2.810
 3057SOL    HW210071   4.438   5.587   2.654
 3058SOL     OW10072   0.030   5.335   1.375
 3058SOL    HW110073   0.127   5.326   1.396
 3058SOL    HW210074   0.018   5.398   1.299
 3059SOL     OW10075   1.987   2.344   5.314
 3059SOL    HW110076   1.978   2.374   5.220
 3059SOL    HW210077   2.021   2.250   5.316
 3060SOL     OW10078   0.577   6.019   0.551
 3060SOL    HW110079   0.645   5.988   0.485
 3060SOL    HW210080   0.490   6.036   0.504
 3061SOL     OW10081   6.463   0.726   4.955
 3061SOL    HW110082   6.482   0.695   4.862
 3061SOL    HW210083   6.421   0.817   4.952
 3062SOL     OW10084   1.603   0.208   7.027
 3062SOL    HW110085   1.610   0.245   6.934
 3062SOL    HW210086   1.509   0.221   0.030
 3063SOL     OW10087   2.999   5.270   1.607
 3063SOL    HW110088   2.909   5.311   1.595
 3063SOL    HW210089   3.022   5.216   1.526
 3064SOL     OW10090   5.896   3.557   4.033
 3064SOL    HW110091   5.916   3.617   3.955
 3064SOL    HW210092   5.879   3.464   4.000
 3065SOL     OW10093   1.825   0.961   6.596
 3065SOL    HW110094   1.807   0.952   6.694
 3065SOL    HW210095   1.907   0.908   6.572
 3066SOL     OW10096   5.431   4.574   0.885
 3066SOL    HW110097   5.503   4.549   0.821
 3066SOL    HW210098   5.408   4.496   0.943
 3067SOL     OW10099   3.618   1.977   4.377
 3067SOL    HW110100   3.624   1.914   4.455
 3067SOL    HW210101   3.525   2.013   4.371
 3068SOL     OW10102   5.659   5.991   0.746
 3068SOL    HW110103   5.747   6.026   0.714
 3068SOL    HW210104   5.590   6.064   0.739
 3069SOL     OW10105   6.560   6.166   2.096
 3069SOL    HW110106   6.556   6.160   1.996
 3069SOL    HW210107   6.490   6.230   2.129
 3070SOL     OW10108   1.704   1.215   2.701
 3070SOL    HW110109   1.626   1.202   2.762
 3070SOL    HW210110   1.781   1.160   2.733
 3071SOL     OW10111   5.847   6.534   3.404
 3071SOL    HW110112   5.781   6.538   3.330
 3071SOL    HW210113   5.813   6.584   3.483
 3072SOL     OW10114   0.567   6.710   0.614
 3072SOL    HW110115   0.544   6.808   0.608
 3072SOL    HW210116   0.652   6.699   0.665
 3073SOL     OW10117   0.716   3.157   5.261
 3073SOL    HW110118   0.776   3.171   5.182
 3073SOL    HW210119   0.644   3.091   5.238
 3074SOL     OW10120   5.963   2.840   0.747
 3074SOL    HW110121   5.884   2.792   0.709
 3074SOL    HW210122   6.047   2.806   0.704
 3075SOL     OW10123   2.001   6.240   1.371
 3075SOL    HW110124   2.039   6.230   1.279
 3075SOL    HW210125   1.972   6.335   1.385
 3076SOL     OW10126   6.525   1.320   4.305
 3076SOL    HW110127   6.593   1.252   4.334
 3076SOL    HW210128   6.448   1.319   4.368
 3077SOL     OW10129   4.987   5.151   2.984
 3077SOL    HW110130   5.056   5.079   2.994
 3077SOL    HW210131   4.987   5.184   2.890
 3078SOL     OW10132   2.120   3.427   1.216
 3078SOL    HW110133   2.023   3.438   1.237
 3078SOL    HW210134   2.172   3.427   1.302
 3079SOL     OW10135   1.888   2.548   4.438
 3079SOL    HW110136   1.917   2.580   4.348
 3079SOL    HW210137   1.871   2.627   4.497
 3080SOL     OW10138   5.428   4.531   3.090
 3080SOL    HW110139   5.388   4.460   3.150
 3080SOL    HW210140   5.382   4.618   3.108
 3081SOL     OW10141   0.502   4.125   6.206
 3081SOL    HW110142   0.462   4.035   6.195
 3081SOL    HW210143   0.589   4.130   6.157
 3082SOL     OW10144   3.672   6.125   3.278
 3082SOL    HW110145   3.768   6.131   3.249
 3082SOL    HW210146   3.660   6.178   3.363
 3083SOL     OW10147   3.883   6.435   3.629
 3083SOL    HW110148   3.951   6.481   3.686
 3083SOL    HW210149   3.805   6.496   3.616
 3084SOL     OW10150   4.645   4.792   4.396
 3084SOL    HW110151   4.703   4.762   4.471
 3084SOL    HW210152   4.610   4.712   4.347
 3085SOL     OW10153   0.831   4.953   2.336
 3085SOL    HW110154   0.793   4.867   2.371
 3085SOL    HW210155   0.916   4.935   2.287
 3086SOL     OW10156   4.201   1.664   1.552
 3086SOL    HW110157   4.197   1.713   1.640
 3086SOL    HW210158   4.191   1.566   1.568
 3087SOL     OW10159   0.604   5.259   3.882
 3087SOL    HW110160   0.626   5.301   3.794
 3087SOL    HW210161   0.539   5.317   3.931
 3088SOL     OW10162   2.479   5.174   5.373
 3088SOL    HW110163   2.558   5.156   5.432
 3088SOL    HW210164   2.473   5.102   5.304
 3089SOL     OW10165   0.855   2.690   0.525
 3089SOL    HW110166   0.839   2.684   0.623
 3089SOL    HW210167   0.936   2.745   0.506
 3090SOL     OW10168   2.044   2.039   1.886
 3090SOL    HW110169   1.958   2.083   1.863
 3090SOL    HW210170   2.065   2.053   1.983
 3091SOL     OW10171   2.434   6.224   0.126
 3091SOL    HW110172   2.368   6.149   0.128
 3091SOL    HW210173   2.526   6.187   0.143
 3092SOL     OW10174   4.633   0.213   6.934
 3092SOL    HW110175   4.697   0.218   7.011
 3092SOL    HW210176   4.609   0.118   6.917
 3093SOL     OW10177   4.965   4.913   5.959
 3093SOL    HW110178   4.929   4.946   5.872
 3093SOL    HW210179   4.947   4.815   5.967
 3094SOL     OW10180   3.569   6.703   4.687
 3094SOL    HW110181   3.536   6.714   4.593
 3094SOL    HW210182   3.499   6.658   4.742
 3095SOL     OW10183   2.731   4.978   3.989
 3095SOL    HW110184   2.803   5.041   4.019
 3095SOL    HW210185   2.747   4.887   4.026
 3096SOL     OW10186   0.580   0.205   4.425
 3096SOL    HW110187   0.536   0.269   4.361
 3096SOL    HW210188   0.668   0.244   4.454
 3097SOL     OW10189   0.733   2.146   1.325
 3097SOL    HW110190   0.676   2.208   1.272
 3097SOL    HW210191   0.830   2.162   1.304
 3098SOL     OW10192   2.502   3.592   0.900
 3098SOL    HW110193   2.406   3.562   0.895
 3098SOL    HW210194   2.521   3.626   0.992
 3099SOL     OW10195   6.968   5.813   4.935
 3099SOL    HW110196   7.005   5.896   4.975
 3099SOL    HW210197   0.004   5.772   4.873
 3100SOL     OW10198   6.639   0.086   4.510
 3100SOL    HW110199   6.566   0.025   4.481
 3100SOL    HW210200   6.652   0.158   4.442
 3101SOL     OW10201   5.091   6.188   5.464
 3101SOL    HW110202   5.095   6.272   5.410
 3101SOL    HW210203   5.037   6.120   5.415
 3102SOL     OW10204   0.860   4.960   2.764
 3102SOL    HW110205   0.765   4.946   2.736
 3102SOL    HW210206   0.894   5.046   2.726
 3103SOL     OW10207   3.116   1.268   1.497
 3103SOL    HW110208   3.077   1.182   1.465
 3103SOL    HW210209   3.058   1.306   1.569
 3104SOL     OW10210   6.260   6.909   4.646
 3104SOL    HW110211   6.163   6.914   4.620
 3104SOL    HW210212   6.283   6.815   4.670
 3105SOL     OW10213   6.725   5.118   2.694
 3105SOL    HW110214   6.626   5.126   2.689
 3105SOL    HW210215   6.752   5.024   2.673
 3106SOL     OW10216   6.852   1.439   3.103
 3106SOL    HW110217   6.928   1.405   3.048
 3106SOL    HW210218   6.791   1.363   3.125
 3107SOL     OW10219   3.583   0.559   4.197
 3107SOL    HW110220   3.493   0.597   4.179
 3107SOL    HW210221   3.574   0.472   4.245
 3108SOL     OW10222   1.446   0.327   4.260
 3108SOL    HW110223   1.421   0.230   4.259
 3108SOL    HW210224   1.540   0.336   4.293
 3109SOL     OW10225   5.812   5.804   2.729
 3109SOL    HW110226   5.734   5.860   2.756
 3109SOL    HW210227   5.857   5.768   2.811
 3110SOL     OW10228   0.760   2.061   3.743
 3110SOL    HW110229   0.713   2.086   3.658
 3110SOL    HW210230   0.839   2.004   3.722
 3111SOL     OW10231   6.691   6.021   4.050
 3111SOL    HW110232   6.684   5.994   4.146
 3111SOL    HW210233   6.600   6.040   4.014
 3112SOL     OW10234   5.037   2.749   6.409
 3112SOL    HW110235   5.115   2.693   6.438
 3112SOL    HW210236   5.011   2.722   6.316
 3113SOL     OW10237   1.678   7.001   4.483
 3113SOL    HW110238   1.750   6.962   4.540
 3113SOL    HW210239   1.621   0.032   4.538
 3114SOL     OW10240   4.753   3.047   0.024
 3114SOL    HW110241   4.725   2.985   0.097
 3114SOL    HW210242   4.672   3.086   7.009
 3115SOL     OW10243   5.137   3.587   0.027
 3115SOL    HW110244   5.058   3.639   7.022
 3115SOL    HW210245   5.131   3.581   0.126
 3116SOL     OW10246   0.223   3.744   0.089
 3116SOL    HW110247   0.238   3.749   0.188
 3116SOL    HW210248   0.146   3.803   0.064
 3117SOL     OW10249   4.527   3.515   5.345
 3117SOL    HW110250   4.547   3.446   5.414
 3117SOL    HW210251   4.606   3.526   5.284
 3118SOL     OW10252   0.497   4.886   6.788
 3118SOL    HW110253   0.489   4.985   6.774
 3118SOL    HW210254   0.518   4.867   6.884
 3119SOL     OW10255   1.928   4.031   5.985
 3119SOL    HW110256   1.904   4.053   5.890
 3119SOL    HW210257   2.013   4.079   6.009
 3120SOL     OW10258   2.266   6.559   4.407
 3120SOL    HW110259   2.201   6.518   4.471
 3120SOL    HW210260   2.319   6.488   4.362
 3121SOL     OW10261   0.587   1.959   2.649
 3121SOL    HW110262   0.654   1.931   2.718
 3121SOL    HW210263   0.621   2.040   2.601
 3122SOL     OW10264   2.922   5.778   6.081
 3122SOL    HW110265   3.020   5.791   6.094
 3122SOL    HW210266   2.881   5.864   6.050
 3123SOL     OW10267   3.151   6.288   3.581
 3123SOL    HW110268   3.231   6.297   3.640
 3123SOL    HW210269   3.068   6.293   3.637
 3124SOL     OW10270   4.043   7.017   4.739
 3124SOL    HW110271   3.986   6.957   4.795
 3124SOL    HW210272   4.003   0.078   4.734
 3125SOL     OW10273   6.112   2.049   6.277
 3125SOL    HW110274   6.206   2.074   6.300
 3125SOL    HW210275   6.077   2.112   6.208
 3126SOL     OW10276   5.029   4.315   6.693
 3126SOL    HW110277   5.114   4.322   6.744
 3126SOL    HW210278   5.044   4.262   6.609
 3127SOL     OW10279   0.659   2.456   3.105
 3127SOL    HW110280   0.600   2.518   3.054
 3127SOL    HW210281   0.607   2.372   3.127
 3128SOL     OW10282   2.225   7.017   6.715
 3128SOL    HW110283   2.239   6.953   6.640
 3128SOL    HW210284   2.237   6.970   6.803
 3129SOL     OW10285   1.147   4.502   6.593
 3129SOL    HW110286   1.185   4.410   6.593
 3129SOL    HW210287   1.126   4.530   6.499
 3130SOL     OW10288   2.286   4.302   2.541
 3130SOL    HW110289   2.228   4.357   2.481
 3130SOL    HW210290   2.236   4.222   2.573
 3131SOL     OW10291   0.822   2.927   1.458
 3131SOL    HW110292   0.834   2.860   1.385
 3131SOL    HW210293   0.724   2.934   1.481
 3132SOL     OW10294   5.022   5.621   5.736
 3132SOL    HW110295   5.115   5.625   5.773
 3132SOL    HW210296   5.002   5.706   5.687
 3133SOL     OW10297   2.477   2.466   3.900
 3133SOL    HW110298   2.476   2.397   3.828
 3133SOL    HW210299   2.571   2.487   3.926
 3134SOL     OW10300   5.326   4.155   1.738
 3134SOL    HW110301   5.255   4.093   1.772
 3134SOL    HW210302   5.319   4.243   1.785
 3135SOL     OW10303   4.475   1.705   5.102
 3135SOL    HW110304   4.514   1.750   5.021
 3135SOL    HW210305   4.511   1.612   5.108
 3136SOL     OW10306   6.373   6.546   5.879
 3136SOL    HW110307   6.403   6.641   5.895
 3136SOL    HW210308   6.353   6.502   5.967
 3137SOL     OW10309   5.313   0.529   3.599
 3137SOL    HW110310   5.380   0.455   3.599
 3137SOL    HW210311   5.361   0.617   3.598
 3138SOL     OW10312   6.531   1.883   4.019
 3138SOL    HW110313   6.582   1.896   4.104
 3138SOL    HW210314   6.595   1.884   3.942
 3139SOL     OW10315   4.817   0.021   6.312
 3139SOL    HW110316   4.737   6.996   6.337
 3139SOL    HW210317   4.833   0.090   6.383
 3140SOL     OW10318   6.318   6.466   6.128
 3140SOL    HW110319   6.221   6.487   6.136
 3140SOL    HW210320   6.366   6.498   6.210
 3141SOL     OW10321   0.698   6.996   6.033
 3141SOL    HW110322   0.780   6.939   6.032
 3141SOL    HW210323   0.715   0.051   5.984
 3142SOL     OW10324   5.021   6.289   0.916
 3142SOL    HW110325   4.965   6.214   0.881
 3142SOL    HW210326   4.984   6.376   0.883
 3143SOL     OW10327   6.808   2.535   0.062
 3143SOL    HW110328   6.862   2.475   0.002
 3143SOL    HW210329   6.807   2.497   0.154
 3144SOL     OW10330   2.815   3.775   0.937
 3144SOL    HW110331   2.800   3.688   0.890
 3144SOL    HW210332   2.910   3.779   0.969
 3145SOL     OW10333   2.268   5.469   2.730
 3145SOL    HW110334   2.252   5.412   2.649
 3145SOL    HW210335   2.354   5.518   2.719
 3146SOL     OW10336   1.262   6.772   3.193
 3146SOL    HW110337   1.170   6.732   3.195
 3146SOL    HW210338   1.326   6.707   3.150
 3147SOL     OW10339   4.260   5.542   6.427
 3147SOL    HW110340   4.323   5.549   6.504
 3147SOL    HW210341   4.311   5.526   6.343
 3148SOL     OW10342   4.271   5.477   4.284
 3148SOL    HW110343   4.264   5.466   4.185
 3148SOL    HW210344   4.266   5.387   4.328
 3149SOL     OW10345   3.305   0.312   5.251
 3149SOL    HW110346   3.210   0.344   5.245
 3149SOL    HW210347   3.365   0.378   5.206
 3150SOL     OW10348   5.413   5.727   4.375
 3150SOL    HW110349   5.320   5.689   4.382
 3150SOL    HW210350   5.450   5.741   4.466
 3151SOL     OW10351   4.549   1.445   6.847
 3151SOL    HW110352   4.615   1.375   6.818
 3151SOL    HW210353   4.506   1.415   6.933
 3152SOL     OW10354   1.566   5.155   1.702
 3152SOL    HW110355   1.537   5.067   1.663
 3152SOL    HW210356   1.653   5.182   1.661
 3153SOL     OW10357   6.498   4.492   2.235
 3153SOL    HW110358   6.579   4.490   2.177
 3153SOL    HW210359   6.523   4.467   2.328
 3154SOL     OW10360   6.145   1.782   0.321
 3154SOL    HW110361   6.158   1.684   0.333
 3154SOL    HW210362   6.050   1.801   0.297
 3155SOL     OW10363   0.098   5.013   1.386
 3155SOL    HW110364   0.158   4.949   1.337
 3155SOL    HW210365   0.153   5.073   1.443
 3156SOL     OW10366   3.784   3.463   3.833
 3156SOL    HW110367   3.751   3.372   3.808
 3156SOL    HW210368   3.805   3.465   3.931
 3157SOL     OW10369   2.040   3.142   4.818
 3157SOL    HW110370   2.077   3.137   4.725
 3157SOL    HW210371   2.116   3.144   4.883
 3158SOL     OW10372   4.576   0.423   1.307
 3158SOL    HW110373   4.538   0.411   1.215
 3158SOL    HW210374   4.590   0.520   1.324
 3159SOL     OW10375   4.986   6.562   6.928
 3159SOL    HW110376   5.020   6.548   6.835
 3159SOL    HW210377   5.025   6.646   6.965
 3160SOL     OW10378   5.968   5.415   6.049
 3160SOL    HW110379   6.021   5.342   6.092
 3160SOL    HW210380   5.975   5.498   6.103
 3161SOL     OW10381   1.250   1.260   2.278
 3161SOL    HW110382   1.281   1.207   2.357
 3161SOL    HW210383   1.305   1.235   2.198
 3162SOL     OW10384   0.306   5.194   0.182
 3162SOL    HW110385   0.287   5.100   0.211
 3162SOL    HW210386   0.397   5.221   0.213
 3163SOL     OW10387   3.477   2.776   6.210
 3163SOL    HW110388   3.424   2.861   6.213
 3163SOL    HW210389   3.415   2.699   6.220
 3164SOL     OW10390   4.469   3.828   1.559
 3164SOL    HW110391   4.450   3.902   1.494
 3164SOL    HW210392   4.386   3.807   1.610
 3165SOL     OW10393   1.677   6.401   1.674
 3165SOL    HW110394   1.731   6.317   1.669
 3165SOL    HW210395   1.588   6.386   1.631
 3166SOL     OW10396   4.502   2.591   6.477
 3166SOL    HW110397   4.601   2.602   6.486
 3166SOL    HW210398   4.456   2.647   6.546
 3167SOL     OW10399   6.692   4.975   2.002
 3167SOL    HW110400   6.633   4.895   1.990
 3167SOL    HW210401   6.697   4.998   2.100
 3168SOL     OW10402   5.064   2.753   0.377
 3168SOL    HW110403   5.061   2.785   0.282
 3168SOL    HW210404   5.025   2.661   0.381
 3169SOL     OW10405   0.714   3.392   6.086
 3169SOL    HW110406   0.792   3.428   6.138
 3169SOL    HW210407   0.729   3.409   5.989
 3170SOL     OW10408   3.923   0.054   0.261
 3170SOL    HW110409   3.880   0.027   0.174
 3170SOL    HW210410   3.851   0.074   0.328
 3171SOL     OW10411   6.738   6.438   1.476
 3171SOL    HW110412   6.754   6.502   1.551
 3171SOL    HW210413   6.685   6.360   1.510
 3172SOL     OW10414   0.046   6.243   4.855
 3172SOL    HW110415   0.047   6.332   4.901
 3172SOL    HW210416   0.120   6.241   4.787
 3173SOL     OW10417   2.848   0.892   1.523
 3173SOL    HW110418   2.837   0.908   1.621
 3173SOL    HW210419   2.825   0.797   1.502
 3174SOL     OW10420   2.571   2.926   6.444
 3174SOL    HW110421   2.517   3.010   6.445
 3174SOL    HW210422   2.616   2.915   6.532
 3175SOL     OW10423   0.632   6.587   6.612
 3175SOL    HW110424   0.635   6.539   6.699
 3175SOL    HW210425   0.680   6.674   6.620
 3176SOL     OW10426   1.904   4.855   5.592
 3176SOL    HW110427   1.978   4.922   5.596
 3176SOL    HW210428   1.853   4.866   5.507
 3177SOL     OW10429   5.857   5.482   5.616
 3177SOL    HW110430   5.858   5.429   5.700
 3177SOL    HW210431   5.925   5.555   5.621
 3178SOL     OW10432   6.682   3.699   1.787
 3178SOL    HW110433   6.709   3.789   1.751
 3178SOL    HW210434   6.748   3.670   1.856
 3179SOL     OW10435   2.147   2.198   2.112
 3179SOL    HW110436   2.092   2.178   2.193
 3179SOL    HW210437   2.140   2.295   2.090
 3180SOL     OW10438   4.089   0.786   6.199
 3180SOL    HW110439   4.028   0.741   6.134
 3180SOL    HW210440   4.123   0.871   6.159
 3181SOL     OW10441   0.644   0.658   3.489
 3181SOL    HW110442   0.594   0.718   3.425
 3181SOL    HW210443   0.579   0.601   3.539
 3182SOL     OW10444   0.761   0.570   5.277
 3182SOL    HW110445   0.748   0.543   5.373
 3182SOL    HW210446   0.851   0.540   5.246
 3183SOL     OW10447   4.021   4.620   1.446
 3183SOL    HW110448   3.928   4.590   1.424
 3183SOL    HW210449   4.050   4.689   1.379
 3184SOL     OW10450   2.737   1.818   2.245
 3184SOL    HW110451   2.732   1.830   2.146
 3184SOL    HW210452   2.738   1.907   2.290
 3185SOL     OW10453   6.701   0.570   5.522
 3185SOL    HW110454   6.770   0.544   5.590
 3185SOL    HW210455   6.657   0.488   5.486
 3186SOL     OW10456   3.383   1.189   3.324
 3186SOL    HW110457   3.414   1.165   3.416
 3186SOL    HW210458   3.296   1.238   3.330
 3187SOL     OW10459   3.827   4.282   6.788
 3187SOL    HW110460   3.813   4.214   6.716
 3187SOL    HW210461   3.743   4.291   6.842
 3188SOL     OW10462   3.842   5.915   2.935
 3188SOL    HW110463   3.874   6.010   2.934
 3188SOL    HW210464   3.793   5.897   3.020
 3189SOL     OW10465   2.378   1.489   3.202
 3189SOL    HW110466   2.429   1.519   3.282
 3189SOL    HW210467   2.437   1.433   3.144
 3190SOL     OW10468   1.057   6.629   1.002
 3190SOL    HW110469   1.081   6.601   0.909
 3190SOL    HW210470   1.020   6.551   1.052
 3191SOL     OW10471   3.542   0.505   1.282
 3191SOL    HW110472   3.535   0.595   1.238
 3191SOL    HW210473   3.460   0.488   1.336
 3192SOL     OW10474   0.642   2.109   0.995
 3192SOL    HW110475   0.594   2.161   1.066
 3192SOL    HW210476   0.730   2.079   1.030
 3193SOL     OW10477   4.538   2.349   5.789
 3193SOL    HW110478   4.509   2.380   5.698
 3193SOL    HW210479   4.462   2.303   5.835
 3194SOL     OW10480   1.207   3.028   6.847
 3194SOL    HW110481   1.214   2.933   6.876
 3194SOL    HW210482   1.294   3.059   6.810
 3195SOL     OW10483   1.664   2.414   3.424
 3195SOL    HW110484   1.713   2.493   3.461
 3195SOL    HW210485   1.567   2.436   3.416
 3196SOL     OW10486   6.691   0.305   4.934
 3196SOL    HW110487   6.661   0.255   5.015
 3196SOL    HW210488   6.723   0.241   4.865
 3197SOL     OW10489   1.382   5.770   2.591
 3197SOL    HW110490   1.327   5.841   2.635
 3197SOL    HW210491   1.465   5.811   2.554
 3198SOL     OW10492   6.867   1.741   6.794
 3198SOL    HW110493   6.791   1.766   6.734
 3198SOL    HW210494   6.907   1.824   6.833
 3199SOL     OW10495   4.779   2.328   1.777
 3199SOL    HW110496   4.747   2.361   1.866
 3199SOL    HW210497   4.702   2.325   1.713
 3200SOL     OW10498   6.993   2.991   1.120
 3200SOL    HW110499   0.052   3.001   1.077
 3200SOL    HW210500   6.985   2.900   1.160
 3201SOL     OW10501   5.145   3.398   3.906
 3201SOL    HW110502   5.191   3.420   3.820
 3201SOL    HW210503   5.088   3.476   3.933
 3202SOL     OW10504   1.648   4.338   2.260
 3202SOL    HW110505   1.719   4.340   2.331
 3202SOL    HW210506   1.619   4.243   2.245
 3203SOL     OW10507   6.261   0.903   0.998
 3203SOL    HW110508   6.221   0.992   0.978
 3203SOL    HW210509   6.305   0.906   1.088
 3204SOL     OW10510   5.762   5.420   1.371
 3204SOL    HW110511   5.738   5.434   1.468
 3204SOL    HW210512   5.811   5.334   1.361
 3205SOL     OW10513   7.012   4.720   6.729
 3205SOL    HW110514   6.994   4.725   6.631
 3205SOL    HW210515   0.050   4.649   6.747
 3206SOL     OW10516   0.200   0.069   5.471
 3206SOL    HW110517   0.117   0.117   5.501
 3206SOL    HW210518   0.230   0.106   5.383
 3207SOL     OW10519   0.714   1.402   5.509
 3207SOL    HW110520   0.651   1.360   5.574
 3207SOL    HW210521   0.776   1.463   5.558
 3208SOL     OW10522   4.469   5.915   4.998
 3208SOL    HW110523   4.429   5.911   5.090
 3208SOL    HW210524   4.504   6.007   4.980
 3209SOL     OW10525   3.258   6.564   3.840
 3209SOL    HW110526   3.350   6.540   3.810
 3209SOL    HW210527   3.231   6.651   3.798
 3210SOL     OW10528   0.423   3.466   2.598
 3210SOL    HW110529   0.357   3.409   2.646
 3210SOL    HW210530   0.428   3.556   2.642
 3211SOL     OW10531   2.291   4.078   0.895
 3211SOL    HW110532   2.204   4.033   0.915
 3211SOL    HW210533   2.320   4.131   0.975
 3212SOL     OW10534   4.387   1.890   6.578
 3212SOL    HW110535   4.303   1.868   6.527
 3212SOL    HW210536   4.392   1.833   6.660
 3213SOL     OW10537   6.233   5.247   2.844
 3213SOL    HW110538   6.235   5.279   2.938
 3213SOL    HW210539   6.208   5.150   2.842
 3214SOL     OW10540   4.581   6.235   0.162
 3214SOL    HW110541   4.549   6.239   0.068
 3214SOL    HW210542   4.636   6.316   0.182
 3215SOL     OW10543   6.474   2.890   0.864
 3215SOL    HW110544   6.548   2.914   0.926
 3215SOL    HW210545   6.403   2.840   0.914
 3216SOL     OW10546   5.843   5.888   3.200
 3216SOL    HW110547   5.809   5.909   3.109
 3216SOL    HW210548   5.933   5.932   3.213
 3217SOL     OW10549   1.517   4.542   3.271
 3217SOL    HW110550   1.608   4.571   3.301
 3217SOL    HW210551   1.459   4.622   3.261
 3218SOL     OW10552   4.032   6.840   3.381
 3218SOL    HW110553   4.005   6.924   3.429
 3218SOL    HW210554   3.966   6.820   3.309
 3219SOL     OW10555   6.795   0.416   3.178
 3219SOL    HW110556   6.775   0.481   3.251
 3219SOL    HW210557   6.777   0.459   3.089
 3220SOL     OW10558   6.903   4.609   4.919
 3220SOL    HW110559   6.819   4.634   4.966
 3220SOL    HW210560   6.951   4.538   4.972
 3221SOL     OW10561   2.709   5.791   2.731
 3221SOL    HW110562   2.638   5.725   2.757
 3221SOL    HW210563   2.744   5.767   2.640
 3222SOL     OW10564   4.877   1.792   2.978
 3222SOL    HW110565   4.834   1.738   3.050
 3222SOL    HW210566   4.972   1.812   3.004
 3223SOL     OW10567   3.066   5.079   6.729
 3223SOL    HW110568   3.078   5.174   6.701
 3223SOL    HW210569   3.154   5.031   6.725
 3224SOL     OW10570   4.545   5.288   6.467
 3224SOL    HW110571   4.529   5.237   6.552
 3224SOL    HW210572   4.611   5.238   6.410
 3225SOL     OW10573   4.643   3.096   6.441
 3225SOL    HW110574   4.643   3.133   6.534
 3225SOL    HW210575   4.550   3.090   6.407
 3226SOL     OW10576   2.259   0.796   4.286
 3226SOL    HW110577   2.296   0.846   4.208
 3226SOL    HW210578   2.313   0.817   4.368
 3227SOL     OW10579   3.160   2.179   6.745
 3227SOL    HW110580   3.239   2.239   6.758
 3227SOL    HW210581   3.148   2.161   6.647
 3228SOL     OW10582   6.063   3.058   4.013
 3228SOL    HW110583   6.156   3.022   4.002
 3228SOL    HW210584   6.044   3.124   3.940
 3229SOL     OW10585   3.526   2.258   6.030
 3229SOL    HW110586   3.496   2.270   5.936
 3229SOL    HW210587   3.621   2.288   6.040
 3230SOL     OW10588   0.243   1.555   3.330
 3230SOL    HW110589   0.288   1.597   3.251
 3230SOL    HW210590   0.227   1.625   3.400
 3231SOL     OW10591   4.928   6.018   1.224
 3231SOL    HW110592   4.924   5.920   1.201
 3231SOL    HW210593   4.955   6.028   1.319
 3232SOL     OW10594   4.123   4.878   4.991
 3232SOL    HW110595   4.083   4.833   5.071
 3232SOL    HW210596   4.067   4.957   4.966
 3233SOL     OW10597   0.832   4.332   1.308
 3233SOL    HW110598   0.915   4.275   1.314
 3233SOL    HW210599   0.774   4.298   1.234
 3234SOL     OW10600   0.075   2.493   0.341
 3234SOL    HW110601   7.008   2.509   0.324
 3234SOL    HW210602   0.116   2.575   0.380
 3235SOL     OW10603   5.869   6.423   2.700
 3235SOL    HW110604   5.779   6.445   2.737
 3235SOL    HW210605   5.938   6.434   2.771
 3236SOL     OW10606   1.680   2.978   1.785
 3236SOL    HW110607   1.777   2.988   1.763
 3236SOL    HW210608   1.669   2.957   1.882
 3237SOL     OW10609   5.072   6.855   4.678
 3237SOL    HW110610   5.035   6.875   4.769
 3237SOL    HW210611   5.008   6.797   4.628
 3238SOL     OW10612   0.613   5.959   0.078
 3238SOL    HW110613   0.577   5.868   0.096
 3238SOL    HW210614   0.629   5.971   7.010
 3239SOL     OW10615   6.240   0.742   6.796
 3239SOL    HW110616   6.267   0.714   6.704
 3239SOL    HW210617   6.151   0.788   6.792
 3240SOL     OW10618   0.306   6.766   4.559
 3240SOL    HW110619   0.233   6.743   4.623
 3240SOL    HW210620   0.394   6.766   4.607
 3241SOL     OW10621   4.769   1.170   4.170
 3241SOL    HW110622   4.743   1.248   4.227
 3241SOL    HW210623   4.831   1.110   4.222
 3242SOL     OW10624   3.829   5.656   0.079
 3242SOL    HW110625   3.780   5.594   0.018
 3242SOL    HW210626   3.918   5.679   0.039
 3243SOL     OW10627   4.942   5.210   6.927
 3243SOL    HW110628   4.866   5.212   6.863
 3243SOL    HW210629   4.922   5.146   7.001
 3244SOL     OW10630   4.648   5.919   5.968
 3244SOL    HW110631   4.727   5.880   6.014
 3244SOL    HW210632   4.607   5.989   6.026
 3245SOL     OW10633   4.089   3.364   6.328
 3245SOL    HW110634   4.174   3.342   6.281
 3245SOL    HW210635   4.024   3.288   6.316
 3246SOL     OW10636   5.499   0.241   2.501
 3246SOL    HW110637   5.582   0.288   2.471
 3246SOL    HW210638   5.418   0.294   2.474
 3247SOL     OW10639   0.290   3.763   3.599
 3247SOL    HW110640   0.276   3.666   3.620
 3247SOL    HW210641   0.388   3.783   3.600
 3248SOL     OW10642   6.326   3.803   2.130
 3248SOL    HW110643   6.252   3.802   2.062
 3248SOL    HW210644   6.313   3.881   2.192
 3249SOL     OW10645   3.427   4.579   5.361
 3249SOL    HW110646   3.462   4.649   5.424
 3249SOL    HW210647   3.363   4.621   5.297
 3250SOL     OW10648   5.417   6.911   2.595
 3250SOL    HW110649   5.458   6.975   2.529
 3250SOL    HW210650   5.341   6.956   2.642
 3251SOL     OW10651   3.872   1.451   2.986
 3251SOL    HW110652   3.870   1.400   3.072
 3251SOL    HW210653   3.966   1.476   2.964
 3252SOL     OW10654   3.400   1.134   2.923
 3252SOL    HW110655   3.395   1.175   2.832
 3252SOL    HW210656   3.308   1.108   2.953
 3253SOL     OW10657   4.617   2.870   1.456
 3253SOL    HW110658   4.576   2.781   1.440
 3253SOL    HW210659   4.591   2.933   1.382
 3254SOL     OW10660   3.778   4.959   3.953
 3254SOL    HW110661   3.745   5.050   3.979
 3254SOL    HW210662   3.833   4.920   4.027
 3255SOL     OW10663   4.823   5.647   0.579
 3255SOL    HW110664   4.799   5.618   0.487
 3255SOL    HW210665   4.852   5.568   0.633
 3256SOL     OW10666   5.600   6.562   5.570
 3256SOL    HW110667   5.609   6.495   5.496
 3256SOL    HW210668   5.640   6.524   5.653
 3257SOL     OW10669   1.540   1.983   0.699
 3257SOL    HW110670   1.597   2.062   0.722
 3257SOL    HW210671   1.511   1.937   0.783
 3258SOL     OW10672   5.153   6.575   1.621
 3258SOL    HW110673   5.118   6.604   1.710
 3258SOL    HW210674   5.148   6.651   1.556
 3259SOL     OW10675   4.113   5.855   4.439
 3259SOL    HW110676   4.137   5.827   4.346
 3259SOL    HW210677   4.196   5.878   4.489
 3260SOL     OW10678   1.820   1.254   0.548
 3260SOL    HW110679   1.759   1.262   0.627
 3260SOL    HW210680   1.891   1.187   0.567
 3261SOL     OW10681   3.954   0.238   0.789
 3261SOL    HW110682   3.906   0.150   0.789
 3261SOL    HW210683   4.009   0.245   0.872
 3262SOL     OW10684   3.247   1.616   3.572
 3262SOL    HW110685   3.154   1.595   3.602
 3262SOL    HW210686   3.249   1.707   3.531
 3263SOL     OW10687   4.348   6.825   3.119
 3263SOL    HW110688   4.426   6.839   3.058
 3263SOL    HW210689   4.264   6.850   3.071
 3264SOL     OW10690   6.912   5.674   0.110
 3264SOL    HW110691   6.930   5.758   0.058
 3264SOL    HW210692   6.998   5.631   0.135
 3265SOL     OW10693   3.727   2.192   6.495
 3265SOL    HW110694   3.794   2.137   6.446
 3265SOL    HW210695   3.701   2.146   6.580
 3266SOL     OW10696   6.688   3.012   0.160
 3266SOL    HW110697   6.707   2.922   0.120
 3266SOL    HW210698   6.700   3.082   0.090
 3267SOL     OW10699   3.309   2.245   1.243
 3267SOL    HW110700   3.248   2.262   1.321
 3267SOL    HW210701   3.254   2.234   1.161
 3268SOL     OW10702   1.523   4.331   0.480
 3268SOL    HW110703   1.611   4.350   0.436
 3268SOL    HW210704   1.464   4.282   0.417
 3269SOL     OW10705   4.767   4.732   1.536
 3269SOL    HW110706   4.804   4.689   1.619
 3269SOL    HW210707   4.702   4.669   1.493
 3270SOL     OW10708   0.380   5.300   3.628
 3270SOL    HW110709   0.298   5.326   3.679
 3270SOL    HW210710   0.403   5.205   3.648
 3271SOL     OW10711   5.780   2.351   2.385
 3271SOL    HW110712   5.740   2.295   2.458
 3271SOL    HW210713   5.726   2.341   2.302
 3272SOL     OW10714   3.610   0.422   0.124
 3272SOL    HW110715   3.587   0.336   0.079
 3272SOL    HW210716   3.705   0.418   0.157
 3273SOL     OW10717   1.103   6.225   2.088
 3273SOL    HW110718   1.152   6.186   2.010
 3273SOL    HW210719   1.103   6.159   2.163
 3274SOL     OW10720   2.976   2.023   5.713
 3274SOL    HW110721   2.977   2.120   5.687
 3274SOL    HW210722   2.987   1.967   5.631
 3275SOL     OW10723   1.944   0.330   6.649
 3275SOL    HW110724   1.947   0.239   6.607
 3275SOL    HW210725   1.914   0.323   6.744
 3276SOL     OW10726   3.424   5.247   6.943
 3276SOL    HW110727   3.521   5.226   6.927
 3276SOL    HW210728   3.378   5.166   6.980
 3277SOL     OW10729   6.993   6.773   6.241
 3277SOL    HW110730   6.957   6.684   6.210
 3277SOL    HW210731   6.996   6.836   6.164
 3278SOL     OW10732   0.716   1.015   5.335
 3278SOL    HW110733   0.619   1.034   5.350
 3278SOL    HW210734   0.762   1.098   5.303
 3279SOL     OW10735   0.220   0.077   0.861
 3279SOL    HW110736   0.246   0.169   0.833
 3279SOL    HW210737   0.288   0.012   0.827
 3280SOL     OW10738   2.967   4.959   6.513
 3280SOL    HW110739   2.915   4.881   6.548
 3280SOL    HW210740   3.009   5.008   6.589
 3281SOL     OW10741   2.181   5.158   0.373
 3281SOL    HW110742   2.193   5.061   0.395
 3281SOL    HW210743   2.084   5.182   0.378
 3282SOL     OW10744   2.640   5.886   4.723
 3282SOL    HW110745   2.543   5.865   4.715
 3282SOL    HW210746   2.694   5.804   4.707
 3283SOL     OW10747   3.172   1.428   3.339
 3283SOL    HW110748   3.214   1.507   3.384
 3283SOL    HW210749   3.222   1.409   3.254
 3284SOL     OW10750   0.543   6.198   6.648
 3284SOL    HW110751   0.448   6.226   6.637
 3284SOL    HW210752   0.601   6.252   6.588
 3285SOL     OW10753   0.091   2.998   2.658
 3285SOL    HW110754   0.021   3.068   2.666
 3285SOL    HW210755   0.055   2.911   2.691
 3286SOL     OW10756   3.920   3.279   4.444
 3286SOL    HW110757   3.898   3.196   4.494
 3286SOL    HW210758   3.985   3.259   4.372
 3287SOL     OW10759   1.905   5.535   0.130
 3287SOL    HW110760   1.983   5.473   0.119
 3287SOL    HW210761   1.875   5.567   0.040
 3288SOL     OW10762   0.935   6.241   6.670
 3288SOL    HW110763   0.900   6.263   6.761
 3288SOL    HW210764   0.981   6.152   6.672
 3289SOL     OW10765   0.914   5.765   5.349
 3289SOL    HW110766   0.861   5.739   5.269
 3289SOL    HW210767   0.857   5.754   5.431
 3290SOL     OW10768   0.242   5.930   1.201
 3290SOL    HW110769   0.162   5.874   1.181
 3290SOL    HW210770   0.213   6.017   1.242
 3291SOL     OW10771   1.779   6.303   6.336
 3291SOL    HW110772   1.828   6.277   6.419
 3291SOL    HW210773   1.845   6.316   6.262
 3292SOL     OW10774   0.096   0.600   6.496
 3292SOL    HW110775   0.106   0.635   6.402
 3292SOL    HW210776   0.185   0.566   6.528
 3293SOL     OW10777   0.078   1.181   3.193
 3293SOL    HW110778   0.041   1.233   3.270
 3293SOL    HW210779   0.163   1.136   3.221
 3294SOL     OW10780   6.500   0.363   6.251
 3294SOL    HW110781   6.563   0.335   6.323
 3294SOL    HW210782   6.544   0.351   6.162
 3295SOL     OW10783   2.498   2.171   0.835
 3295SOL    HW110784   2.592   2.205   0.827
 3295SOL    HW210785   2.491   2.084   0.786
 3296SOL     OW10786   2.220   0.570   2.453
 3296SOL    HW110787   2.310   0.536   2.426
 3296SOL    HW210788   2.185   0.631   2.381
 3297SOL     OW10789   3.034   2.349   5.365
 3297SOL    HW110790   3.119   2.347   5.311
 3297SOL    HW210791   2.981   2.266   5.347
 3298SOL     OW10792   6.726   3.371   3.167
 3298SOL    HW110793   6.771   3.307   3.229
 3298SOL    HW210794   6.762   3.359   3.074
 3299SOL     OW10795   1.299   0.114   4.871
 3299SOL    HW110796   1.363   0.188   4.851
 3299SOL    HW210797   1.351   0.032   4.896
 3300SOL     OW10798   6.281   6.899   5.003
 3300SOL    HW110799   6.332   6.911   5.088
 3300SOL    HW210800   6.222   6.818   5.010
 3301SOL     OW10801   0.959   4.189   3.538
 3301SOL    HW110802   1.012   4.124   3.592
 3301SOL    HW210803   0.940   4.151   3.448
 3302SOL     OW10804   1.347   5.377   4.157
 3302SOL    HW110805   1.324   5.434   4.078
 3302SOL    HW210806   1.350   5.434   4.240
 3303SOL     OW10807   3.315   2.976   3.233
 3303SOL    HW110808   3.231   2.996   3.183
 3303SOL    HW210809   3.292   2.948   3.326
 3304SOL     OW10810   1.118   5.614   3.668
 3304SOL    HW110811   1.194   5.631   3.606
 3304SOL    HW210812   1.033   5.609   3.615
 3305SOL     OW10813   1.616   0.976   2.083
 3305SOL    HW110814   1.627   0.923   1.999
 3305SOL    HW210815   1.701   0.975   2.135
 3306SOL     OW10816   2.238   4.115   3.455
 3306SOL    HW110817   2.275   4.202   3.488
 3306SOL    HW210818   2.166   4.083   3.517
 3307SOL     OW10819   0.023   5.865   0.278
 3307SOL    HW110820   6.970   5.880   0.332
 3307SOL    HW210821   0.004   5.883   0.182
 3308SOL     OW10822   4.336   6.320   0.422
 3308SOL    HW110823   4.276   6.374   0.480
 3308SOL    HW210824   4.432   6.341   0.443
 3309SOL     OW10825   1.579   5.291   3.611
 3309SOL    HW110826   1.629   5.340   3.682
 3309SOL    HW210827   1.530   5.358   3.554
 3310SOL     OW10828   0.432   3.981   3.108
 3310SOL    HW110829   0.520   4.022   3.081
 3310SOL    HW210830   0.384   4.042   3.170
 3311SOL     OW10831   3.741   6.046   1.269
 3311SOL    HW110832   3.713   6.097   1.188
 3311SOL    HW210833   3.721   5.949   1.256
 3312SOL     OW10834   2.921   4.162   5.983
 3312SOL    HW110835   2.910   4.225   5.906
 3312SOL    HW210836   3.019   4.151   6.002
 3313SOL     OW10837   1.173   5.518   3.380
 3313SOL    HW110838   1.086   5.476   3.406
 3313SOL    HW210839   1.156   5.606   3.337
 3314SOL     OW10840   1.748   3.230   5.154
 3314SOL    HW110841   1.833   3.274   5.182
 3314SOL    HW210842   1.689   3.217   5.233
 3315SOL     OW10843   6.767   2.614   4.058
 3315SOL    HW110844   6.738   2.605   4.153
 3315SOL    HW210845   6.688   2.603   3.998
 3316SOL     OW10846   4.454   2.357   6.134
 3316SOL    HW110847   4.438   2.286   6.066
 3316SOL    HW210848   4.492   2.316   6.217
 3317SOL     OW10849   4.481   2.904   1.686
 3317SOL    HW110850   4.523   2.948   1.765
 3317SOL    HW210851   4.541   2.913   1.607
 3318SOL     OW10852   2.658   5.944   6.067
 3318SOL    HW110853   2.653   5.901   5.976
 3318SOL    HW210854   2.599   5.894   6.130
 3319SOL     OW10855   0.726   6.619   4.353
 3319SOL    HW110856   0.750   6.580   4.263
 3319SOL    HW210857   0.634   6.589   4.378
 3320SOL     OW10858   5.785   1.653   5.561
 3320SOL    HW110859   5.705   1.609   5.601
 3320SOL    HW210860   5.859   1.586   5.553
 3321SOL     OW10861   3.404   3.198   2.689
 3321SOL    HW110862   3.373   3.103   2.684
 3321SOL    HW210863   3.354   3.247   2.759
 3322SOL     OW10864   4.226   1.859   0.421
 3322SOL    HW110865   4.145   1.801   0.436
 3322SOL    HW210866   4.236   1.877   0.324
 3323SOL     OW10867   2.103   4.229   6.453
 3323SOL    HW110868   2.038   4.275   6.391
 3323SOL    HW210869   2.075   4.246   6.548
 3324SOL     OW10870   1.081   3.938   0.563
 3324SOL    HW110871   1.071   3.882   0.482
 3324SOL    HW210872   1.072   3.881   0.645
 3325SOL     OW10873   1.461   2.778   0.352
 3325SOL    HW110874   1.424   2.783   0.445
 3325SOL    HW210875   1.559   2.761   0.356
 3326SOL     OW10876   5.915   2.102   1.364
 3326SOL    HW110877   5.973   2.078   1.442
 3326SOL    HW210878   5.970   2.109   1.281
 3327SOL     OW10879   2.641   6.637   2.187
 3327SOL    HW110880   2.663   6.732   2.210
 3327SOL    HW210881   2.579   6.635   2.108
 3328SOL     OW10882   4.773   0.738   1.924
 3328SOL    HW110883   4.728   0.812   1.874
 3328SOL    HW210884   4.730   0.727   2.013
 3329SOL     OW10885   3.948   0.810   5.388
 3329SOL    HW110886   4.030   0.860   5.415
 3329SOL    HW210887   3.973   0.719   5.356
 3330SOL     OW10888   5.657   6.967   2.136
 3330SOL    HW110889   5.697   0.021   2.100
 3330SOL    HW210890   5.730   6.903   2.159
 3331SOL     OW10891   1.824   3.560   3.024
 3331SOL    HW110892   1.906   3.583   3.076
 3331SOL    HW210893   1.789   3.641   2.978
 3332SOL     OW10894   4.634   5.116   7.028
 3332SOL    HW110895   4.535   5.123   7.017
 3332SOL    HW210896   4.657   5.027   0.037
 3333SOL     OW10897   3.408   3.194   1.455
 3333SOL    HW110898   3.477   3.165   1.389
 3333SOL    HW210899   3.358   3.113   1.487
 3334SOL     OW10900   1.925   2.634   2.613
 3334SOL    HW110901   1.880   2.574   2.680
 3334SOL    HW210902   1.871   2.635   2.529
 3335SOL     OW10903   3.441   4.272   5.818
 3335SOL    HW110904   3.384   4.333   5.872
 3335SOL    HW210905   3.436   4.298   5.722
 3336SOL     OW10906   3.036   7.004   4.028
 3336SOL    HW110907   3.030   6.933   4.098
 3336SOL    HW210908   3.023   0.064   4.071
 3337SOL     OW10909   3.262   3.727   2.501
 3337SOL    HW110910   3.184   3.789   2.503
 3337SOL    HW210911   3.232   3.635   2.477
 3338SOL     OW10912   1.449   1.474   1.423
 3338SOL    HW110913   1.542   1.491   1.455
 3338SOL    HW210914   1.450   1.450   1.326
 3339SOL     OW10915   2.280   0.129   5.468
 3339SOL    HW110916   2.326   0.217   5.455
 3339SOL    HW210917   2.325   0.079   5.542
 3340SOL     OW10918   4.587   1.166   3.663
 3340SOL    HW110919   4.584   1.193   3.759
 3340SOL    HW210920   4.497   1.133   3.634
 3341SOL     OW10921   2.614   4.606   2.293
 3341SOL    HW110922   2.707   4.574   2.275
 3341SOL    HW210923   2.558   4.593   2.212
 3342SOL     OW10924   6.032   0.360   3.175
 3342SOL    HW110925   6.062   0.453   3.197
 3342SOL    HW210926   5.932   0.358   3.173
 3343SOL     OW10927   5.267   5.482   6.750
 3343SOL    HW110928   5.271   5.405   6.685
 3343SOL    HW210929   5.302   5.452   6.839
 3344SOL     OW10930   7.019   2.529   1.641
 3344SOL    HW110931   0.006   2.470   1.720
 3344SOL    HW210932   0.012   2.480   1.557
 3345SOL     OW10933   0.493   4.329   1.066
 3345SOL    HW110934   0.588   4.322   1.098
 3345SOL    HW210935   0.489   4.304   0.969
 3346SOL     OW10936   2.945   0.739   6.602
 3346SOL    HW110937   2.848   0.758   6.589
 3346SOL    HW210938   2.994   0.753   6.516
 3347SOL     OW10939   0.957   3.092   6.297
 3347SOL    HW110940   0.948   3.185   6.261
 3347SOL    HW210941   0.981   3.096   6.394
 3348SOL     OW10942   3.676   3.640   6.727
 3348SOL    HW110943   3.765   3.603   6.754
 3348SOL    HW210944   3.689   3.719   6.667
 3349SOL     OW10945   2.324   4.830   4.157
 3349SOL    HW110946   2.246   4.769   4.169
 3349SOL    HW210947   2.408   4.777   4.152
 3350SOL     OW10948   0.360   4.000   5.349
 3350SOL    HW110949   0.356   4.001   5.449
 3350SOL    HW210950   0.290   4.062   5.313
 3351SOL     OW10951   5.414   0.414   0.849
 3351SOL    HW110952   5.399   0.441   0.944
 3351SOL    HW210953   5.342   0.350   0.821
 3352SOL     OW10954   5.343   2.366   0.185
 3352SOL    HW110955   5.439   2.357   0.211
 3352SOL    HW210956   5.300   2.437   0.241
 3353SOL     OW10957   2.263   0.904   1.570
 3353SOL    HW110958   2.269   1.003   1.558
 3353SOL    HW210959   2.325   0.875   1.642
 3354SOL     OW10960   4.059   3.254   5.685
 3354SOL    HW110961   4.139   3.313   5.695
 3354SOL    HW210962   3.997   3.294   5.617
 3355SOL     OW10963   2.009   1.497   5.154
 3355SOL    HW110964   2.030   1.408   5.114
 3355SOL    HW210965   2.011   1.490   5.254
 3356SOL     OW10966   1.246   6.672   6.084
 3356SOL    HW110967   1.276   6.705   5.995
 3356SOL    HW210968   1.324   6.670   6.147
 3357SOL     OW10969   2.886   3.334   2.294
 3357SOL    HW110970   2.793   3.369   2.305
 3357SOL    HW210971   2.920   3.358   2.203
 3358SOL     OW10972   5.683   1.507   2.624
 3358SOL    HW110973   5.763   1.561   2.651
 3358SOL    HW210974   5.685   1.419   2.670
 3359SOL     OW10975   0.204   5.832   4.221
 3359SOL    HW110976   0.181   5.883   4.138
 3359SOL    HW210977   0.201   5.734   4.203
 3360SOL     OW10978   6.965   2.684   5.704
 3360SOL    HW110979   6.955   2.745   5.625
 3360SOL    HW210980   6.875   2.671   5.747
 3361SOL     OW10981   0.316   0.637   4.284
 3361SOL    HW110982   0.356   0.622   4.193
 3361SOL    HW210983   0.341   0.729   4.316
 3362SOL     OW10984   3.730   1.997   4.011
 3362SOL    HW110985   3.715   1.927   4.081
 3362SOL    HW210986   3.810   2.052   4.035
 3363SOL     OW10987   6.335   2.746   1.048
 3363SOL    HW110988   6.291   2.836   1.053
 3363SOL    HW210989   6.326   2.699   1.136
 3364SOL     OW10990   1.865   4.414   3.093
 3364SOL    HW110991   1.932   4.384   3.025
 3364SOL    HW210992   1.911   4.465   3.165
 3365SOL     OW10993   2.129   3.440   4.916
 3365SOL    HW110994   2.174   3.355   4.944
 3365SOL    HW210995   2.129   3.505   4.992
 3366SOL     OW10996   0.007   3.339   4.782
 3366SOL    HW110997   0.047   3.424   4.747
 3366SOL    HW210998   6.997   3.356   4.872
 3367SOL     OW10999   3.532   3.287   4.300
 3367SOL    HW111000   3.627   3.266   4.277
 3367SOL    HW211001   3.523   3.298   4.399
 3368SOL     OW11002   1.891   6.197   6.563
 3368SOL    HW111003   1.820   6.163   6.625
 3368SOL    HW211004   1.962   6.244   6.616
 3369SOL     OW11005   4.192   1.731   1.279
 3369SOL    HW111006   4.233   1.709   1.368
 3369SOL    HW211007   4.229   1.671   1.209
 3370SOL     OW11008   6.981   5.653   1.807
 3370SOL    HW111009   7.012   5.731   1.753
 3370SOL    HW211010   0.030   5.601   1.839
 3371SOL     OW11011   2.099   3.445   2.920
 3371SOL    HW111012   2.105   3.396   2.833
 3371SOL    HW211013   2.126   3.383   2.994
 3372SOL     OW11014   6.704   2.918   1.110
 3372SOL    HW111015   6.794   2.959   1.091
 3372SOL    HW211016   6.714   2.846   1.178
 3373SOL     OW11017   6.959   1.343   1.727
 3373SOL    HW111018   0.007   1.401   1.706
 3373SOL    HW211019   6.975   1.294   1.813
 3374SOL     OW11020   0.593   6.855   3.248
 3374SOL    HW111021   0.678   6.863   3.197
 3374SOL    HW211022   0.550   6.945   3.257
 3375SOL     OW11023   6.737   5.123   6.904
 3375SOL    HW111024   6.780   5.167   6.825
 3375SOL    HW211025   6.741   5.185   6.982
 3376SOL     OW11026   2.451   3.657   5.618
 3376SOL    HW111027   2.395   3.739   5.609
 3376SOL    HW211028   2.454   3.609   5.531
 3377SOL     OW11029   6.284   4.813   3.603
 3377SOL    HW111030   6.243   4.904   3.616
 3377SOL    HW211031   6.375   4.823   3.563
 3378SOL     OW11032   1.380   6.864   6.831
 3378SOL    HW111033   1.444   6.911   6.770
 3378SOL    HW211034   1.377   6.911   6.919
 3379SOL     OW11035   1.122   3.469   4.547
 3379SOL    HW111036   1.043   3.488   4.489
 3379SOL    HW211037   1.198   3.528   4.521
 3380SOL     OW11038   3.658   4.407   5.939
 3380SOL    HW111039   3.588   4.372   6.001
 3380SOL    HW211040   3.614   4.454   5.862
 3381SOL     OW11041   1.211   2.985   1.228
 3381SOL    HW111042   1.121   2.959   1.194
 3381SOL    HW211043   1.206   3.001   1.326
 3382SOL     OW11044   7.005   2.441   1.036
 3382SOL    HW111045   6.950   2.464   0.955
 3382SOL    HW211046   6.968   2.358   1.079
 3383SOL     OW11047   3.687   4.893   0.281
 3383SOL    HW111048   3.638   4.980   0.271
 3383SOL    HW211049   3.641   4.836   0.348
 3384SOL     OW11050   3.269   4.346   0.590
 3384SOL    HW111051   3.278   4.247   0.598
 3384SOL    HW211052   3.215   4.381   0.667
 3385SOL     OW11053   0.201   2.386   3.885
 3385SOL    HW111054   0.147   2.458   3.843
 3385SOL    HW211055   0.293   2.420   3.904
 3386SOL     OW11056   6.667   4.781   6.732
 3386SOL    HW111057   6.727   4.829   6.668
 3386SOL    HW211058   6.671   4.683   6.715
 3387SOL     OW11059   5.806   0.750   3.004
 3387SOL    HW111060   5.861   0.705   2.933
 3387SOL    HW211061   5.859   0.825   3.043
 3388SOL     OW11062   5.070   4.103   1.439
 3388SOL    HW111063   5.145   4.074   1.381
 3388SOL    HW211064   5.007   4.161   1.387
 3389SOL     OW11065   6.032   6.322   0.349
 3389SOL    HW111066   5.952   6.363   0.304
 3389SOL    HW211067   6.018   6.224   0.361
 3390SOL     OW11068   3.853   6.777   5.852
 3390SOL    HW111069   3.824   6.700   5.910
 3390SOL    HW211070   3.797   6.779   5.769
 3391SOL     OW11071   5.777   3.067   3.248
 3391SOL    HW111072   5.794   3.130   3.324
 3391SOL    HW211073   5.723   2.990   3.281
 3392SOL     OW11074   4.209   0.110   4.955
 3392SOL    HW111075   4.154   0.061   4.888
 3392SOL    HW211076   4.303   0.118   4.921
 3393SOL     OW11077   4.772   0.153   0.811
 3393SOL    HW111078   4.675   0.158   0.786
 3393SOL    HW211079   4.827   0.189   0.735
 3394SOL     OW11080   3.614   5.460   1.032
 3394SOL    HW111081   3.546   5.421   0.971
 3394SOL    HW211082   3.692   5.398   1.040
 3395SOL     OW11083   4.120   0.387   3.409
 3395SOL    HW111084   4.201   0.444   3.397
 3395SOL    HW211085   4.052   0.413   3.341
 3396SOL     OW11086   5.525   1.907   3.680
 3396SOL    HW111087   5.458   1.850   3.632
 3396SOL    HW211088   5.492   1.928   3.772
 3397SOL     OW11089   2.713   5.672   6.588
 3397SOL    HW111090   2.669   5.727   6.660
 3397SOL    HW211091   2.649   5.602   6.557
 3398SOL     OW11092   0.204   1.865   5.433
 3398SOL    HW111093   0.126   1.845   5.493
 3398SOL    HW211094   0.221   1.787   5.373
 3399SOL     OW11095   0.677   4.738   3.190
 3399SOL    HW111096   0.755   4.769   3.135
 3399SOL    HW211097   0.698   4.648   3.229
 3400SOL     OW11098   5.570   2.732   5.243
 3400SOL    HW111099   5.603   2.656   5.298
 3400SOL    HW211100   5.471   2.726   5.234
 3401SOL     OW11101   6.508   3.809   6.285
 3401SOL    HW111102   6.480   3.765   6.371
 3401SOL    HW211103   6.499   3.744   6.210
 3402SOL     OW11104   6.517   4.999   1.153
 3402SOL    HW111105   6.542   5.092   1.182
 3402SOL    HW211106   6.424   5.000   1.115
 3403SOL     OW11107   4.685   6.545   5.843
 3403SOL    HW111108   4.764   6.577   5.896
 3403SOL    HW211109   4.620   6.620   5.832
 3404SOL     OW11110   4.852   3.173   5.934
 3404SOL    HW111111   4.925   3.239   5.951
 3404SOL    HW211112   4.832   3.124   6.019
 3405SOL     OW11113   4.781   6.324   5.703
 3405SOL    HW111114   4.736   6.400   5.750
 3405SOL    HW211115   4.877   6.320   5.730
 3406SOL     OW11116   2.209   3.931   2.327
 3406SOL    HW111117   2.158   3.911   2.411
 3406SOL    HW211118   2.215   3.848   2.271
 3407SOL     OW11119   2.122   3.684   1.007
 3407SOL    HW111120   2.131   3.591   0.970
 3407SOL    HW211121   2.071   3.681   1.093
 3408SOL     OW11122   4.817   2.355   3.685
 3408SOL    HW111123   4.809   2.319   3.779
 3408SOL    HW211124   4.857   2.446   3.688
 3409SOL     OW11125   4.304   0.455   0.759
 3409SOL    HW111126   4.227   0.513   0.732
 3409SOL    HW211127   4.379   0.512   0.792
 3410SOL     OW11128   5.526   7.020   2.360
 3410SOL    HW111129   5.580   7.010   2.277
 3410SOL    HW211130   5.549   0.077   2.404
 3411SOL     OW11131   6.611   1.367   1.060
 3411SOL    HW111132   6.600   1.458   1.101
 3411SOL    HW211133   6.683   1.370   0.991
 3412SOL     OW11134   5.157   3.420   1.640
 3412SOL    HW111135   5.104   3.427   1.555
 3412SOL    HW211136   5.142   3.330   1.681
 3413SOL     OW11137   6.976   1.996   6.875
 3413SOL    HW111138   6.918   1.995   6.956
 3413SOL    HW211139   6.934   2.053   6.804
 3414SOL     OW11140   4.344   2.712   0.665
 3414SOL    HW111141   4.299   2.664   0.589
 3414SOL    HW211142   4.418   2.768   0.630
 3415SOL     OW11143   2.333   2.536   4.308
 3415SOL    HW111144   2.316   2.633   4.322
 3415SOL    HW211145   2.420   2.511   4.351
 3416SOL     OW11146   6.293   0.018   0.213
 3416SOL    HW111147   6.384   7.025   0.249
 3416SOL    HW211148   6.243   0.072   0.280
 3417SOL     OW11149   0.251   0.178   3.304
 3417SOL    HW111150   0.238   0.265   3.352
 3417SOL    HW211151   0.192   0.175   3.224
 3418SOL     OW11152   4.597   4.949   2.622
 3418SOL    HW111153   4.613   4.980   2.716
 3418SOL    HW211154   4.523   5.003   2.581
 3419SOL     OW11155   3.308   5.377   6.472
 3419SOL    HW111156   3.329   5.285   6.438
 3419SOL    HW211157   3.286   5.372   6.570
 3420SOL     OW11158   4.689   2.833   3.855
 3420SOL    HW111159   4.666   2.780   3.773
 3420SOL    HW211160   4.756   2.904   3.832
 3421SOL     OW11161   5.667   1.914   3.259
 3421SOL    HW111162   5.654   2.013   3.259
 3421SOL    HW211163   5.610   1.873   3.188
 3422SOL     OW11164   2.053   0.177   0.752
 3422SOL    HW111165   1.965   0.175   0.705
 3422SOL    HW211166   2.126   0.153   0.688
 3423SOL     OW11167   1.169   4.110   5.714
 3423SOL    HW111168   1.207   4.104   5.622
 3423SOL    HW211169   1.195   4.030   5.767
 3424SOL     OW11170   4.751   6.695   1.300
 3424SOL    HW111171   4.778   6.764   1.367
 3424SOL    HW211172   4.814   6.617   1.307
 3425SOL     OW11173   5.797   3.920   1.068
 3425SOL    HW111174   5.837   3.839   1.025
 3425SOL    HW211175   5.870   3.981   1.099
 3426SOL     OW11176   5.823   3.590   0.510
 3426SOL    HW111177   5.800   3.501   0.550
 3426SOL    HW211178   5.916   3.615   0.536
 3427SOL     OW11179   1.205   2.255   1.106
 3427SOL    HW111180   1.267   2.331   1.127
 3427SOL    HW211181   1.255   2.169   1.107
 3428SOL     OW11182   4.938   5.862   5.615
 3428SOL    HW111183   4.902   5.854   5.522
 3428SOL    HW211184   4.865   5.894   5.676
 3429SOL     OW11185   0.324   0.614   0.934
 3429SOL    HW111186   0.271   0.598   1.017
 3429SOL    HW211187   0.397   0.680   0.953
 3430SOL     OW11188   2.680   5.069   5.497
 3430SOL    HW111189   2.625   5.043   5.577
 3430SOL    HW211190   2.775   5.042   5.512
 3431SOL     OW11191   2.821   6.034   2.814
 3431SOL    HW111192   2.778   5.955   2.771
 3431SOL    HW211193   2.904   6.005   2.861
 3432SOL     OW11194   2.410   4.439   0.273
 3432SOL    HW111195   2.468   4.519   0.255
 3432SOL    HW211196   2.464   4.369   0.320
 3433SOL     OW11197   2.310   1.179   6.417
 3433SOL    HW111198   2.223   1.159   6.463
 3433SOL    HW211199   2.305   1.147   6.322
 3434SOL     OW11200   3.078   2.099   1.635
 3434SOL    HW111201   2.995   2.143   1.667
 3434SOL    HW211202   3.132   2.068   1.714
 3435SOL     OW11203   2.237   0.394   0.117
 3435SOL    HW111204   2.164   0.439   0.169
 3435SOL    HW211205   2.232   0.421   0.021
 3436SOL     OW11206   4.435   5.315   0.139
 3436SOL    HW111207   4.353   5.258   0.150
 3436SOL    HW211208   4.496   5.301   0.217
 3437SOL     OW11209   1.173   6.428   5.985
 3437SOL    HW111210   1.184   6.525   6.007
 3437SOL    HW211211   1.261   6.382   5.991
 3438SOL     OW11212   0.910   3.959   1.044
 3438SOL    HW111213   0.996   3.910   1.032
 3438SOL    HW211214   0.904   4.033   0.977
 3439SOL     OW11215   2.357   5.840   2.641
 3439SOL    HW111216   2.363   5.790   2.728
 3439SOL    HW211217   2.386   5.780   2.567
 3440SOL     OW11218   3.859   3.012   4.519
 3440SOL    HW111219   3.783   2.987   4.580
 3440SOL    HW211220   3.835   2.988   4.425
 3441SOL     OW11221   5.058   5.247   5.773
 3441SOL    HW111222   4.989   5.254   5.845
 3441SOL    HW211223   5.145   5.221   5.814
 3442SOL     OW11224   3.232   3.540   1.731
 3442SOL    HW111225   3.166   3.593   1.677
 3442SOL    HW211226   3.221   3.561   1.828
 3443SOL     OW11227   2.937   5.958   2.530
 3443SOL    HW111228   3.005   5.978   2.459
 3443SOL    HW211229   2.977   5.898   2.599
 3444SOL     OW11230   5.525   4.526   1.733
 3444SOL    HW111231   5.497   4.490   1.644
 3444SOL    HW211232   5.470   4.484   1.804
 3445SOL     OW11233   6.669   4.833   3.747
 3445SOL    HW111234   6.636   4.914   3.795
 3445SOL    HW211235   6.623   4.752   3.782
 3446SOL     OW11236   5.725   0.420   1.495
 3446SOL    HW111237   5.688   0.492   1.553
 3446SOL    HW211238   5.812   0.387   1.534
 3447SOL     OW11239   5.062   0.349   0.129
 3447SOL    HW111240   5.097   0.407   0.203
 3447SOL    HW211241   5.040   0.407   0.050
 3448SOL     OW11242   1.462   6.361   4.962
 3448SOL    HW111243   1.481   6.445   5.014
 3448SOL    HW211244   1.482   6.281   5.019
 3449SOL     OW11245   6.296   5.102   5.023
 3449SOL    HW111246   6.218   5.164   5.034
 3449SOL    HW211247   6.381   5.154   5.035
 3450SOL     OW11248   1.278   0.426   6.717
 3450SOL    HW111249   1.199   0.368   6.733
 3450SOL    HW211250   1.360   0.382   6.756
 3451SOL     OW11251   1.763   6.390   0.261
 3451SOL    HW111252   1.809   6.470   0.222
 3451SOL    HW211253   1.806   6.307   0.226
 3452SOL     OW11254   5.410   0.696   5.215
 3452SOL    HW111255   5.376   0.604   5.195
 3452SOL    HW211256   5.355   0.737   5.287
 3453SOL     OW11257   5.062   6.284   5.740
 3453SOL    HW111258   5.156   6.305   5.767
 3453SOL    HW211259   5.060   6.259   5.644
 3454SOL     OW11260   1.301   2.163   3.161
 3454SOL    HW111261   1.347   2.170   3.250
 3454SOL    HW211262   1.338   2.232   3.099
 3455SOL     OW11263   1.904   3.181   5.467
 3455SOL    HW111264   2.002   3.197   5.468
 3455SOL    HW211265   1.857   3.252   5.518
 3456SOL     OW11266   4.687   4.413   2.468
 3456SOL    HW111267   4.732   4.500   2.446
 3456SOL    HW211268   4.737   4.338   2.426
 3457SOL     OW11269   3.906   5.505   4.826
 3457SOL    HW111270   3.914   5.439   4.751
 3457SOL    HW211271   3.810   5.525   4.842
 3458SOL     OW11272   4.411   1.358   2.476
 3458SOL    HW111273   4.314   1.333   2.476
 3458SOL    HW211274   4.462   1.290   2.529
 3459SOL     OW11275   3.971   1.016   2.775
 3459SOL    HW111276   3.885   1.050   2.813
 3459SOL    HW211277   4.030   1.093   2.751
 3460SOL     OW11278   3.818   1.664   5.626
 3460SOL    HW111279   3.841   1.762   5.627
 3460SOL    HW211280   3.889   1.613   5.674
 3461SOL     OW11281   5.347   4.902   0.128
 3461SOL    HW111282   5.335   4.804   0.136
 3461SOL    HW211283   5.436   4.928   0.167
 3462SOL     OW11284   2.262   3.273   6.564
 3462SOL    HW111285   2.195   3.336   6.525
 3462SOL    HW211286   2.338   3.325   6.603
 3463SOL     OW11287   6.730   3.912   1.614
 3463SOL    HW111288   6.695   3.898   1.522
 3463SOL    HW211289   6.782   3.998   1.617
 3464SOL     OW11290   0.074   4.946   6.049
 3464SOL    HW111291   7.004   4.944   6.050
 3464SOL    HW211292   0.107   5.006   6.122
 3465SOL     OW11293   1.764   0.701   1.736
 3465SOL    HW111294   1.792   0.790   1.772
 3465SOL    HW211295   1.845   0.651   1.704
 3466SOL     OW11296   6.843   4.492   5.477
 3466SOL    HW111297   6.879   4.440   5.554
 3466SOL    HW211298   6.782   4.434   5.423
 3467SOL     OW11299   2.342   2.275   6.358
 3467SOL    HW111300   2.264   2.229   6.314
 3467SOL    HW211301   2.321   2.373   6.369
 3468SOL     OW11302   2.972   6.005   3.753
 3468SOL    HW111303   3.048   6.033   3.812
 3468SOL    HW211304   3.009   5.977   3.664
 3469SOL     OW11305   6.676   2.376   3.688
 3469SOL    HW111306   6.748   2.418   3.633
 3469SOL    HW211307   6.687   2.276   3.687
 3470SOL     OW11308   0.215   5.667   1.471
 3470SOL    HW111309   0.147   5.723   1.424
 3470SOL    HW211310   0.179   5.637   1.559
 3471SOL     OW11311   4.210   5.964   4.834
 3471SOL    HW111312   4.302   5.937   4.862
 3471SOL    HW211313   4.166   5.888   4.786
 3472SOL     OW11314   2.679   0.504   4.431
 3472SOL    HW111315   2.723   0.593   4.440
 3472SOL    HW211316   2.587   0.508   4.471
 3473SOL     OW11317   6.187   1.204   6.023
 3473SOL    HW111318   6.240   1.141   5.966
 3473SOL    HW211319   6.247   1.274   6.059
 3474SOL     OW11320   3.556   5.225   1.989
 3474SOL    HW111321   3.607   5.201   1.906
 3474SOL    HW211322   3.509   5.144   2.024
 3475SOL     OW11323   1.207   6.145   3.875
 3475SOL    HW111324   1.196   6.101   3.786
 3475SOL    HW211325   1.128   6.125   3.933
 3476SOL     OW11326   4.569   0.865   4.540
 3476SOL    HW111327   4.652   0.861   4.484
 3476SOL    HW211328   4.497   0.810   4.496
 3477SOL     OW11329   4.116   5.991   1.309
 3477SOL    HW111330   4.198   6.038   1.340
 3477SOL    HW211331   4.055   5.975   1.387
 3478SOL     OW11332   3.397   5.565   6.261
 3478SOL    HW111333   3.359   5.507   6.334
 3478SOL    HW211334   3.399   5.513   6.176
 3479SOL     OW11335   0.627   0.270   1.924
 3479SOL    HW111336   0.582   0.337   1.983
 3479SOL    HW211337   0.721   0.256   1.954
 3480SOL     OW11338   6.662   1.475   3.685
 3480SOL    HW111339   6.604   1.552   3.658
 3480SOL    HW211340   6.698   1.491   3.777
 3481SOL     OW11341   2.648   7.011   6.320
 3481SOL    HW111342   2.606   0.058   6.368
 3481SOL    HW211343   2.709   0.016   6.249
 3482SOL     OW11344   6.383   2.187   1.260
 3482SOL    HW111345   6.433   2.117   1.310
 3482SOL    HW211346   6.420   2.195   1.168
 3483SOL     OW11347   2.346   0.265   1.270
 3483SOL    HW111348   2.254   0.274   1.309
 3483SOL    HW211349   2.367   0.346   1.215
 3484SOL     OW11350   2.932   3.274   3.727
 3484SOL    HW111351   2.840   3.248   3.700
 3484SOL    HW211352   2.940   3.273   3.826
 3485SOL     OW11353   1.618   2.421   5.287
 3485SOL    HW111354   1.527   2.379   5.295
 3485SOL    HW211355   1.609   2.513   5.250
 3486SOL     OW11356   4.651   1.774   1.395
 3486SOL    HW111357   4.633   1.803   1.301
 3486SOL    HW211358   4.710   1.694   1.395
 3487SOL     OW11359   6.255   1.969   6.023
 3487SOL    HW111360   6.183   1.951   6.089
 3487SOL    HW211361   6.239   1.916   5.940
 3488SOL     OW11362   6.056   3.554   4.242
 3488SOL    HW111363   6.114   3.476   4.263
 3488SOL    HW211364   6.015   3.541   4.152
 3489SOL     OW11365   3.629   6.935   1.131
 3489SOL    HW111366   3.611   6.913   1.227
 3489SOL    HW211367   3.717   6.982   1.123
 3490SOL     OW11368   5.387   3.912   0.371
 3490SOL    HW111369   5.450   3.896   0.447
 3490SOL    HW211370   5.413   3.996   0.324
 3491SOL     OW11371   0.287   2.930   5.627
 3491SOL    HW111372   0.311   2.988   5.705
 3491SOL    HW211373   0.210   2.872   5.652
 3492SOL     OW11374   0.397   5.455   6.785
 3492SOL    HW111375   0.429   5.367   6.750
 3492SOL    HW211376   0.330   5.441   6.857
 3493SOL     OW11377   5.936   5.195   1.317
 3493SOL    HW111378   5.994   5.210   1.397
 3493SOL    HW211379   5.982   5.134   1.252
 3494SOL     OW11380   3.488   6.891   1.627
 3494SOL    HW111381   3.573   6.937   1.602
 3494SOL    HW211382   3.438   6.865   1.544
 3495SOL     OW11383   4.494   5.096   1.790
 3495SOL    HW111384   4.407   5.131   1.753
 3495SOL    HW211385   4.527   5.022   1.732
 3496SOL     OW11386   1.714   3.209   0.706
 3496SOL    HW111387   1.759   3.275   0.766
 3496SOL    HW211388   1.765   3.201   0.620
 3497SOL     OW11389   4.126   1.074   3.218
 3497SOL    HW111390   4.169   0.984   3.214
 3497SOL    HW211391   4.030   1.065   3.242
 3498SOL     OW11392   2.509   1.254   0.937
 3498SOL    HW111393   2.594   1.232   0.984
 3498SOL    HW211394   2.524   1.330   0.873
 3499SOL     OW11395   0.277   3.329   4.425
 3499SOL    HW111396   0.315   3.242   4.459
 3499SOL    HW211397   0.267   3.324   4.326
 3500SOL     OW11398   6.486   4.008   6.661
 3500SOL    HW111399   6.569   4.062   6.667
 3500SOL    HW211400   6.409   4.060   6.697
 3501SOL     OW11401   2.053   4.556   4.880
 3501SOL    HW111402   1.974   4.597   4.835
 3501SOL    HW211403   2.104   4.626   4.930
 3502SOL     OW11404   0.372   1.904   1.483
 3502SOL    HW111405   0.407   1.852   1.406
 3502SOL    HW211406   0.448   1.947   1.532
 3503SOL     OW11407   4.441   5.522   5.488
 3503SOL    HW111408   4.415   5.594   5.552
 3503SOL    HW211409   4.539   5.527   5.470
 3504SOL     OW11410   2.744   3.580   1.291
 3504SOL    HW111411   2.656   3.534   1.278
 3504SOL    HW211412   2.731   3.679   1.283
 3505SOL     OW11413   5.433   5.900   5.443
 3505SOL    HW111414   5.508   5.964   5.459
 3505SOL    HW211415   5.412   5.852   5.528
 3506SOL     OW11416   3.935   5.229   3.611
 3506SOL    HW111417   3.972   5.136   3.613
 3506SOL    HW211418   3.875   5.242   3.690
 3507SOL     OW11419   1.194   0.675   6.738
 3507SOL    HW111420   1.096   0.658   6.753
 3507SOL    HW211421   1.243   0.588   6.739
 3508SOL     OW11422   5.740   3.283   0.280
 3508SOL    HW111423   5.812   3.339   0.240
 3508SOL    HW211424   5.651   3.311   0.243
 3509SOL     OW11425   6.397   5.941   6.655
 3509SOL    HW111426   6.348   5.995   6.586
 3509SOL    HW211427   6.487   5.916   6.620
 3510SOL     OW11428   2.449   2.424   1.799
 3510SOL    HW111429   2.491   2.462   1.717
 3510SOL    HW211430   2.520   2.401   1.866
 3511SOL     OW11431   0.097   2.694   6.890
 3511SOL    HW111432   0.082   2.644   6.976
 3511SOL    HW211433   0.189   2.676   6.856
 3512SOL     OW11434   2.566   3.451   0.335
 3512SOL    HW111435   2.648   3.403   0.367
 3512SOL    HW211436   2.587   3.498   0.249
 3513SOL     OW11437   7.018   4.279   1.255
 3513SOL    HW111438   0.064   4.312   1.311
 3513SOL    HW211439   0.010   4.293   1.158
 3514SOL     OW11440   0.962   6.398   1.146
 3514SOL    HW111441   1.033   6.371   1.211
 3514SOL    HW211442   0.932   6.318   1.094
 3515SOL     OW11443   3.091   6.015   2.850
 3515SOL    HW111444   3.112   6.105   2.813
 3515SOL    HW211445   3.127   5.944   2.789
 3516SOL     OW11446   3.380   1.318   0.336
 3516SOL    HW111447   3.410   1.262   0.258
 3516SOL    HW211448   3.460   1.356   0.382
 3517SOL     OW11449   0.901   1.258   6.673
 3517SOL    HW111450   0.835   1.289   6.604
 3517SOL    HW211451   0.993   1.282   6.642
 3518SOL     OW11452   5.024   3.401   6.462
 3518SOL    HW111453   5.117   3.391   6.426
 3518SOL    HW211454   4.960   3.413   6.386
 3519SOL     OW11455   1.589   6.976   6.387
 3519SOL    HW111456   1.603   0.018   6.319
 3519SOL    HW211457   1.506   6.924   6.365
 3520SOL     OW11458   4.124   5.023   1.045
 3520SOL    HW111459   4.193   4.951   1.042
 3520SOL    HW211460   4.141   5.082   1.124
 3521SOL     OW11461   5.546   2.176   1.779
 3521SOL    HW111462   5.614   2.130   1.721
 3521SOL    HW211463   5.460   2.185   1.728
 3522SOL     OW11464   3.306   5.362   1.965
 3522SOL    HW111465   3.284   5.353   2.062
 3522SOL    HW211466   3.401   5.335   1.949
 3523SOL     OW11467   2.973   4.834   4.609
 3523SOL    HW111468   2.874   4.833   4.601
 3523SOL    HW211469   2.999   4.847   4.705
 3524SOL     OW11470   2.521   0.222   0.586
 3524SOL    HW111471   2.599   0.188   0.533
 3524SOL    HW211472   2.553   0.259   0.673
 3525SOL     OW11473   0.705   2.996   2.022
 3525SOL    HW111474   0.690   3.075   2.081
 3525SOL    HW211475   0.705   3.025   1.927
 3526SOL     OW11476   1.144   0.531   2.834
 3526SOL    HW111477   1.094   0.505   2.751
 3526SOL    HW211478   1.124   0.466   2.907
 3527SOL     OW11479   5.630   2.938   6.374
 3527SOL    HW111480   5.638   2.910   6.470
 3527SOL    HW211481   5.549   2.896   6.334
 3528SOL     OW11482   0.115   6.499   3.512
 3528SOL    HW111483   0.015   6.499   3.521
 3528SOL    HW211484   0.139   6.489   3.416
 3529SOL     OW11485   4.361   6.911   5.146
 3529SOL    HW111486   4.404   6.830   5.107
 3529SOL    HW211487   4.430   6.971   5.186
 3530SOL     OW11488   3.056   5.531   2.394
 3530SOL    HW111489   3.027   5.458   2.332
 3530SOL    HW211490   2.986   5.544   2.464
 3531SOL     OW11491   5.989   4.628   0.798
 3531SOL    HW111492   5.994   4.531   0.819
 3531SOL    HW211493   5.943   4.676   0.873
 3532SOL     OW11494   2.655   0.493   6.708
 3532SOL    HW111495   2.721   0.480   6.633
 3532SOL    HW211496   2.655   0.589   6.736
 3533SOL     OW11497   0.978   1.688   3.321
 3533SOL    HW111498   0.956   1.692   3.223
 3533SOL    HW211499   1.007   1.779   3.352
 3534SOL     OW11500   5.353   1.685   4.958
 3534SOL    HW111501   5.415   1.741   5.014
 3534SOL    HW211502   5.398   1.600   4.932
 3535SOL     OW11503   5.614   5.085   6.071
 3535SOL    HW111504   5.582   5.168   6.026
 3535SOL    HW211505   5.680   5.109   6.142
 3536SOL     OW11506   2.160   3.305   3.146
 3536SOL    HW111507   2.181   3.210   3.121
 3536SOL    HW211508   2.172   3.317   3.244
 3537SOL     OW11509   2.480   5.703   0.502
 3537SOL    HW111510   2.537   5.626   0.529
 3537SOL    HW211511   2.511   5.738   0.413
 3538SOL     OW11512   2.634   0.438   3.262
 3538SOL    HW111513   2.548   0.437   3.210
 3538SOL    HW211514   2.615   0.415   3.358
 3539SOL     OW11515   5.334   5.125   6.813
 3539SOL    HW111516   5.409   5.173   6.858
 3539SOL    HW211517   5.325   5.157   6.719
 3540SOL     OW11518   2.657   3.294   6.362
 3540SOL    HW111519   2.674   3.228   6.435
 3540SOL    HW211520   2.620   3.246   6.282
 3541SOL     OW11521   2.805   2.246   0.767
 3541SOL    HW111522   2.809   2.204   0.677
 3541SOL    HW211523   2.891   2.293   0.786
 3542SOL     OW11524   5.543   2.322   6.274
 3542SOL    HW111525   5.530   2.394   6.206
 3542SOL    HW211526   5.462   2.314   6.331
 3543SOL     OW11527   2.305   2.792   2.951
 3543SOL    HW111528   2.383   2.730   2.946
 3543SOL    HW211529   2.225   2.750   2.907
 3544SOL     OW11530   2.369   4.698   5.941
 3544SOL    HW111531   2.463   4.673   5.917
 3544SOL    HW211532   2.310   4.686   5.861
 3545SOL     OW11533   3.447   6.890   0.965
 3545SOL    HW111534   3.455   6.935   0.876
 3545SOL    HW211535   3.515   6.928   1.028
 3546SOL     OW11536   6.679   3.644   3.542
 3546SOL    HW111537   6.668   3.637   3.443
 3546SOL    HW211538   6.597   3.686   3.582
 3547SOL     OW11539   0.321   3.597   5.475
 3547SOL    HW111540   0.298   3.561   5.565
 3547SOL    HW211541   0.372   3.528   5.423
 3548SOL     OW11542   5.395   1.150   5.605
 3548SOL    HW111543   5.459   1.194   5.542
 3548SOL    HW211544   5.336   1.219   5.647
 3549SOL     OW11545   3.054   5.259   0.298
 3549SOL    HW111546   3.132   5.322   0.293
 3549SOL    HW211547   3.025   5.235   0.205
 3550SOL     OW11548   5.098   1.698   5.264
 3550SOL    HW111549   5.132   1.614   5.221
 3550SOL    HW211550   5.116   1.775   5.204
 3551SOL     OW11551   3.925   2.427   5.400
 3551SOL    HW111552   3.978   2.364   5.342
 3551SOL    HW211553   3.936   2.520   5.365
 3552SOL     OW11554   0.067   5.960   2.572
 3552SOL    HW111555   0.042   6.049   2.532
 3552SOL    HW211556   0.166   5.958   2.588
 3553SOL     OW11557   3.434   5.227   6.175
 3553SOL    HW111558   3.359   5.216   6.240
 3553SOL    HW211559   3.521   5.213   6.222
 3554SOL     OW11560   4.378   3.440   1.633
 3554SOL    HW111561   4.362   3.401   1.723
 3554SOL    HW211562   4.298   3.426   1.575
 3555SOL     OW11563   1.752   2.502   3.882
 3555SOL    HW111564   1.808   2.581   3.858
 3555SOL    HW211565   1.794   2.452   3.957
 3556SOL     OW11566   4.278   0.744   5.374
 3556SOL    HW111567   4.217   0.665   5.378
 3556SOL    HW211568   4.318   0.751   5.282
 3557SOL     OW11569   6.953   1.332   2.153
 3557SOL    HW111570   6.993   1.423   2.137
 3557SOL    HW211571   6.961   1.278   2.070
 3558SOL     OW11572   3.490   6.991   0.675
 3558SOL    HW111573   3.569   0.020   0.693
 3558SOL    HW211574   3.518   6.912   0.620
 3559SOL     OW11575   3.955   6.545   4.244
 3559SOL    HW111576   3.900   6.466   4.217
 3559SOL    HW211577   3.894   6.619   4.273
 3560SOL     OW11578   1.033   5.430   5.235
 3560SOL    HW111579   1.110   5.394   5.182
 3560SOL    HW211580   1.065   5.504   5.295
 3561SOL     OW11581   4.738   4.438   5.502
 3561SOL    HW111582   4.760   4.458   5.598
 3561SOL    HW211583   4.822   4.414   5.453
 3562SOL     OW11584   2.602   1.219   5.150
 3562SOL    HW111585   2.663   1.155   5.103
 3562SOL    HW211586   2.625   1.222   5.247
 3563SOL     OW11587   5.737   2.068   5.204
 3563SOL    HW111588   5.723   1.981   5.252
 3563SOL    HW211589   5.658   2.086   5.145
 3564SOL     OW11590   0.483   4.358   2.896
 3564SOL    HW111591   0.512   4.302   2.818
 3564SOL    HW211592   0.494   4.455   2.874
 3565SOL     OW11593   3.152   5.589   3.453
 3565SOL    HW111594   3.207   5.518   3.409
 3565SOL    HW211595   3.064   5.598   3.405
 3566SOL     OW11596   6.229   0.983   5.526
 3566SOL    HW111597   6.176   0.993   5.442
 3566SOL    HW211598   6.322   1.015   5.511
 3567SOL     OW11599   0.319   4.443   6.624
 3567SOL    HW111600   0.376   4.365   6.650
 3567SOL    HW211601   0.369   4.528   6.637
 3568SOL     OW11602   6.455   3.597   6.084
 3568SOL    HW111603   6.381   3.559   6.139
 3568SOL    HW211604   6.522   3.526   6.063
 3569SOL     OW11605   2.561   2.342   5.362
 3569SOL    HW111606   2.575   2.402   5.283
 3569SOL    HW211607   2.634   2.275   5.367
 3570SOL     OW11608   5.915   0.994   3.996
 3570SOL    HW111609   5.883   0.955   3.909
 3570SOL    HW211610   5.969   1.076   3.978
 3571SOL     OW11611   6.396   5.810   6.344
 3571SOL    HW111612   6.337   5.886   6.370
 3571SOL    HW211613   6.376   5.732   6.403
 3572SOL     OW11614   5.856   3.339   3.828
 3572SOL    HW111615   5.829   3.409   3.761
 3572SOL    HW211616   5.950   3.312   3.811
 3573SOL     OW11617   1.446   4.193   3.452
 3573SOL    HW111618   1.432   4.215   3.355
 3573SOL    HW211619   1.440   4.094   3.464
 3574SOL     OW11620   0.326   4.882   0.459
 3574SOL    HW111621   0.269   4.920   0.386
 3574SOL    HW211622   0.304   4.785   0.470
 3575SOL     OW11623   6.569   5.233   3.549
 3575SOL    HW111624   6.594   5.279   3.634
 3575SOL    HW211625   6.559   5.301   3.476
 3576SOL     OW11626   0.495   1.440   6.338
 3576SOL    HW111627   0.492   1.358   6.281
 3576SOL    HW211628   0.410   1.449   6.390
 3577SOL     OW11629   0.582   2.247   6.618
 3577SOL    HW111630   0.669   2.204   6.592
 3577SOL    HW211631   0.571   2.333   6.567
 3578SOL     OW11632   3.085   4.108   6.493
 3578SOL    HW111633   3.168   4.162   6.480
 3578SOL    HW211634   3.035   4.103   6.406
 3579SOL     OW11635   6.896   3.328   5.396
 3579SOL    HW111636   6.829   3.397   5.370
 3579SOL    HW211637   6.987   3.369   5.398
 3580SOL     OW11638   5.765   1.972   1.729
 3580SOL    HW111639   5.841   1.967   1.794
 3580SOL    HW211640   5.692   1.911   1.760
 3581SOL     OW11641   6.704   0.355   2.273
 3581SOL    HW111642   6.613   0.389   2.247
 3581SOL    HW211643   6.752   0.324   2.191
 3582SOL     OW11644   0.820   0.755   5.760
 3582SOL    HW111645   0.867   0.798   5.837
 3582SOL    HW211646   0.736   0.805   5.740
 3583SOL     OW11647   0.881   4.559   7.004
 3583SOL    HW111648   0.930   4.496   6.943
 3583SOL    HW211649   0.791   4.579   6.965
 3584SOL     OW11650   5.978   6.332   6.208
 3584SOL    HW111651   6.068   6.341   6.249
 3584SOL    HW211652   5.909   6.369   6.270
 3585SOL     OW11653   3.498   4.950   4.850
 3585SOL    HW111654   3.530   4.947   4.756
 3585SOL    HW211655   3.398   4.942   4.853
 3586SOL     OW11656   6.155   3.105   5.540
 3586SOL    HW111657   6.168   3.105   5.639
 3586SOL    HW211658   6.112   3.019   5.511
 3587SOL     OW11659   2.995   6.701   0.535
 3587SOL    HW111660   2.937   6.664   0.607
 3587SOL    HW211661   2.941   6.717   0.453
 3588SOL     OW11662   1.776   2.307   5.823
 3588SOL    HW111663   1.723   2.345   5.748
 3588SOL    HW211664   1.841   2.376   5.857
 3589SOL     OW11665   3.403   0.926   4.540
 3589SOL    HW111666   3.306   0.948   4.529
 3589SOL    HW211667   3.414   0.828   4.553
 3590SOL     OW11668   1.425   5.001   6.280
 3590SOL    HW111669   1.395   5.092   6.252
 3590SOL    HW211670   1.398   4.935   6.210
 3591SOL     OW11671   5.448   3.141   5.953
 3591SOL    HW111672   5.499   3.061   5.920
 3591SOL    HW211673   5.434   3.205   5.878
 3592SOL     OW11674   5.174   3.295   2.710
 3592SOL    HW111675   5.266   3.294   2.750
 3592SOL    HW211676   5.166   3.221   2.644
 3593SOL     OW11677   1.921   6.746   4.075
 3593SOL    HW111678   1.831   6.775   4.108
 3593SOL    HW211679   1.986   6.822   4.083
 3594SOL     OW11680   2.292   1.336   3.672
 3594SOL    HW111681   2.362   1.272   3.704
 3594SOL    HW211682   2.233   1.291   3.606
 3595SOL     OW11683   2.355   6.673   5.345
 3595SOL    HW111684   2.301   6.734   5.404
 3595SOL    HW211685   2.340   6.699   5.250
 3596SOL     OW11686   6.674   0.945   2.878
 3596SOL    HW111687   6.750   0.891   2.914
 3596SOL    HW211688   6.667   0.930   2.779
 3597SOL     OW11689   3.673   6.407   4.505
 3597SOL    HW111690   3.709   6.352   4.429
 3597SOL    HW211691   3.746   6.466   4.541
 3598SOL     OW11692   1.108   0.176   5.497
 3598SOL    HW111693   1.177   0.236   5.540
 3598SOL    HW211694   1.138   0.152   5.405
 3599SOL     OW11695   0.140   2.104   5.741
 3599SOL    HW111696   0.137   2.179   5.675
 3599SOL    HW211697   0.236   2.079   5.760
 3600SOL     OW11698   6.250   3.189   1.274
 3600SOL    HW111699   6.265   3.282   1.241
 3600SOL    HW211700   6.241   3.190   1.374
 3601SOL     OW11701   0.290   3.939   0.458
 3601SOL    HW111702   0.260   3.967   0.549
 3601SOL    HW211703   0.274   3.842   0.445
 3602SOL     OW11704   1.704   0.837   0.371
 3602SOL    HW111705   1.655   0.789   0.298
 3602SOL    HW211706   1.802   0.839   0.350
 3603SOL     OW11707   3.875   4.888   4.293
 3603SOL    HW111708   3.921   4.890   4.382
 3603SOL    HW211709   3.943   4.903   4.221
 3604SOL     OW11710   0.019   2.805   2.864
 3604SOL    HW111711   0.079   2.819   2.942
 3604SOL    HW211712   6.961   2.769   2.895
 3605SOL     OW11713   6.255   4.523   6.197
 3605SOL    HW111714   6.188   4.449   6.189
 3605SOL    HW211715   6.215   4.598   6.248
 3606SOL     OW11716   6.794   4.924   6.178
 3606SOL    HW111717   6.814   5.015   6.216
 3606SOL    HW211718   6.721   4.932   6.111
 3607SOL     OW11719   5.357   0.520   0.447
 3607SOL    HW111720   5.262   0.507   0.475
 3607SOL    HW211721   5.413   0.536   0.529
 3608SOL     OW11722   0.152   1.492   1.674
 3608SOL    HW111723   0.216   1.446   1.612
 3608SOL    HW211724   0.190   1.581   1.700
 3609SOL     OW11725   6.596   1.022   4.258
 3609SOL    HW111726   6.581   1.082   4.179
 3609SOL    HW211727   6.588   0.926   4.230
 3610SOL     OW11728   0.870   6.745   4.788
 3610SOL    HW111729   0.869   6.672   4.856
 3610SOL    HW211730   0.965   6.775   4.774
 3611SOL     OW11731   3.707   5.267   5.381
 3611SOL    HW111732   3.656   5.181   5.378
 3611SOL    HW211733   3.704   5.311   5.291
 3612SOL     OW11734   1.162   6.400   6.591
 3612SOL    HW111735   1.098   6.334   6.632
 3612SOL    HW211736   1.239   6.350   6.550
 3613SOL     OW11737   4.981   5.198   0.766
 3613SOL    HW111738   4.993   5.155   0.677
 3613SOL    HW211739   5.059   5.175   0.825
 3614SOL     OW11740   3.558   3.226   2.999
 3614SOL    HW111741   3.578   3.202   2.904
 3614SOL    HW211742   3.624   3.182   3.059
 3615SOL     OW11743   6.118   4.999   6.016
 3615SOL    HW111744   6.053   4.924   6.020
 3615SOL    HW211745   6.113   5.043   5.926
 3616SOL     OW11746   6.612   2.146   6.692
 3616SOL    HW111747   6.549   2.131   6.768
 3616SOL    HW211748   6.579   2.222   6.636
 3617SOL     OW11749   5.645   1.713   6.427
 3617SOL    HW111750   5.585   1.687   6.352
 3617SOL    HW211751   5.607   1.792   6.474
 3618SOL     OW11752   1.484   1.996   5.745
 3618SOL    HW111753   1.445   1.971   5.834
 3618SOL    HW211754   1.584   1.994   5.751
 3619SOL     OW11755   5.808   2.144   3.915
 3619SOL    HW111756   5.774   2.069   3.971
 3619SOL    HW211757   5.890   2.183   3.956
 3620SOL     OW11758   5.507   6.931   5.581
 3620SOL    HW111759   5.577   6.889   5.638
 3620SOL    HW211760   5.419   6.930   5.629
 3621SOL     OW11761   3.134   3.006   5.762
 3621SOL    HW111762   3.226   2.970   5.776
 3621SOL    HW211763   3.116   3.015   5.665
 3622SOL     OW11764   0.716   1.195   2.948
 3622SOL    HW111765   0.667   1.221   3.031
 3622SOL    HW211766   0.721   1.274   2.886
 3623SOL     OW11767   6.237   5.248   4.062
 3623SOL    HW111768   6.270   5.275   4.152
 3623SOL    HW211769   6.274   5.158   4.039
 3624SOL     OW11770   2.286   6.140   2.922
 3624SOL    HW111771   2.248   6.232   2.931
 3624SOL    HW211772   2.358   6.127   2.990
 3625SOL     OW11773   6.429   3.194   6.172
 3625SOL    HW111774   6.438   3.102   6.209
 3625SOL    HW211775   6.335   3.227   6.186
 3626SOL     OW11776   2.298   3.759   5.276
 3626SOL    HW111777   2.345   3.838   5.238
 3626SOL    HW211778   2.365   3.688   5.298
 3627SOL     OW11779   4.042   3.502   3.756
 3627SOL    HW111780   4.051   3.592   3.713
 3627SOL    HW211781   3.945   3.476   3.759
 3628SOL     OW11782   1.951   6.597   2.011
 3628SOL    HW111783   1.919   6.509   1.975
 3628SOL    HW211784   1.921   6.607   2.106
 3629SOL     OW11785   6.815   1.926   5.061
 3629SOL    HW111786   6.826   1.901   4.965
 3629SOL    HW211787   6.782   2.020   5.068
 3630SOL     OW11788   6.028   2.521   4.358
 3630SOL    HW111789   6.074   2.583   4.422
 3630SOL    HW211790   6.020   2.431   4.400
 3631SOL     OW11791   2.210   0.197   4.660
 3631SOL    HW111792   2.255   0.126   4.715
 3631SOL    HW211793   2.178   0.270   4.720
 3632SOL     OW11794   5.127   1.303   0.920
 3632SOL    HW111795   5.164   1.390   0.889
 3632SOL    HW211796   5.107   1.245   0.841
 3633SOL     OW11797   2.894   2.337   5.992
 3633SOL    HW111798   2.992   2.353   6.005
 3633SOL    HW211799   2.874   2.328   5.894
 3634SOL     OW11800   0.779   6.267   4.226
 3634SOL    HW111801   0.830   6.216   4.295
 3634SOL    HW211802   0.714   6.328   4.272
 3635SOL     OW11803   3.693   0.875   5.475
 3635SOL    HW111804   3.785   0.876   5.437
 3635SOL    HW211805   3.661   0.969   5.489
 3636SOL     OW11806   6.753   5.990   6.207
 3636SOL    HW111807   6.824   6.057   6.230
 3636SOL    HW211808   6.677   5.999   6.272
 3637SOL     OW11809   6.061   1.925   0.976
 3637SOL    HW111810   5.971   1.909   1.016
 3637SOL    HW211811   6.058   1.904   0.878
 3638SOL     OW11812   6.771   4.644   4.221
 3638SOL    HW111813   6.672   4.643   4.211
 3638SOL    HW211814   6.814   4.591   4.148
 3639SOL     OW11815   3.669   3.872   1.091
 3639SOL    HW111816   3.697   3.968   1.089
 3639SOL    HW211817   3.621   3.849   1.007
 3640SOL     OW11818   3.350   6.129   6.750
 3640SOL    HW111819   3.407   6.062   6.796
 3640SOL    HW211820   3.315   6.090   6.665
 3641SOL     OW11821   3.741   2.002   4.781
 3641SOL    HW111822   3.642   1.993   4.784
 3641SOL    HW211823   3.781   1.922   4.736
 3642SOL     OW11824   5.176   1.319   5.726
 3642SOL    HW111825   5.128   1.402   5.755
 3642SOL    HW211826   5.126   1.277   5.650
 3643SOL     OW11827   3.005   5.658   4.606
 3643SOL    HW111828   2.910   5.633   4.628
 3643SOL    HW211829   3.020   5.753   4.630
 3644SOL     OW11830   6.561   1.043   1.624
 3644SOL    HW111831   6.544   1.117   1.690
 3644SOL    HW211832   6.617   1.078   1.549
 3645SOL     OW11833   5.392   1.556   4.295
 3645SOL    HW111834   5.442   1.472   4.319
 3645SOL    HW211835   5.317   1.570   4.359
 3646SOL     OW11836   6.800   4.814   5.748
 3646SOL    HW111837   6.733   4.740   5.750
 3646SOL    HW211838   6.892   4.774   5.746
 3647SOL     OW11839   1.594   3.422   0.562
 3647SOL    HW111840   1.638   3.351   0.616
 3647SOL    HW211841   1.659   3.497   0.546
 3648SOL     OW11842   3.683   5.121   2.838
 3648SOL    HW111843   3.780   5.146   2.839
 3648SOL    HW211844   3.635   5.168   2.911
 3649SOL     OW11845   4.526   3.056   1.183
 3649SOL    HW111846   4.493   2.966   1.158
 3649SOL    HW211847   4.457   3.102   1.240
 3650SOL     OW11848   6.698   5.618   0.937
 3650SOL    HW111849   6.762   5.542   0.951
 3650SOL    HW211850   6.749   5.703   0.929
 3651SOL     OW11851   1.223   5.947   2.714
 3651SOL    HW111852   1.259   6.015   2.651
 3651SOL    HW211853   1.143   5.984   2.762
 3652SOL     OW11854   4.811   6.251   3.513
 3652SOL    HW111855   4.753   6.259   3.594
 3652SOL    HW211856   4.753   6.256   3.431
 3653SOL     OW11857   6.372   0.940   2.850
 3653SOL    HW111858   6.471   0.922   2.854
 3653SOL    HW211859   6.326   0.863   2.807
 3654SOL     OW11860   2.152   6.234   6.891
 3654SOL    HW111861   2.130   6.137   6.896
 3654SOL    HW211862   2.104   6.284   6.963
 3655SOL     OW11863   1.313   6.954   3.744
 3655SOL    HW111864   1.240   7.009   3.703
 3655SOL    HW211865   1.279   6.911   3.828
 3656SOL     OW11866   1.458   2.808   1.341
 3656SOL    HW111867   1.491   2.874   1.274
 3656SOL    HW211868   1.389   2.749   1.299
 3657SOL     OW11869   4.444   5.754   6.233
 3657SOL    HW111870   4.433   5.662   6.269
 3657SOL    HW211871   4.374   5.771   6.163
 3658SOL     OW11872   1.539   5.788   4.527
 3658SOL    HW111873   1.522   5.831   4.439
 3658SOL    HW211874   1.603   5.711   4.515
 3659SOL     OW11875   2.973   4.035   6.266
 3659SOL    HW111876   2.968   3.958   6.202
 3659SOL    HW211877   2.881   4.058   6.297
 3660SOL     OW11878   5.201   6.065   2.181
 3660SOL    HW111879   5.247   5.985   2.219
 3660SOL    HW211880   5.102   6.049   2.180
 3661SOL     OW11881   4.971   2.311   6.794
 3661SOL    HW111882   4.990   2.382   6.726
 3661SOL    HW211883   5.035   2.320   6.870
 3662SOL     OW11884   3.246   0.391   4.183
 3662SOL    HW111885   3.299   0.467   4.145
 3662SOL    HW211886   3.300   0.307   4.179
 3663SOL     OW11887   1.590   1.320   0.748
 3663SOL    HW111888   1.541   1.310   0.662
 3663SOL    HW211889   1.531   1.293   0.824
 3664SOL     OW11890   5.258   1.629   1.159
 3664SOL    HW111891   5.229   1.550   1.213
 3664SOL    HW211892   5.262   1.603   1.062
 3665SOL     OW11893   0.620   6.001   5.868
 3665SOL    HW111894   0.633   6.099   5.884
 3665SOL    HW211895   0.522   5.979   5.870
 3666SOL     OW11896   2.133   4.467   3.563
 3666SOL    HW111897   2.174   4.418   3.640
 3666SOL    HW211898   2.042   4.431   3.545
 3667SOL     OW11899   6.361   7.004   0.609
 3667SOL    HW111900   6.266   6.976   0.626
 3667SOL    HW211901   6.362   0.059   0.557
 3668SOL     OW11902   1.819   0.375   1.617
 3668SOL    HW111903   1.848   0.401   1.709
 3668SOL    HW211904   1.829   0.453   1.555
 3669SOL     OW11905   5.758   1.458   4.288
 3669SOL    HW111906   5.685   1.421   4.345
 3669SOL    HW211907   5.779   1.552   4.317
 3670SOL     OW11908   2.339   5.325   0.717
 3670SOL    HW111909   2.430   5.344   0.754
 3670SOL    HW211910   2.347   5.305   0.619
 3671SOL     OW11911   6.078   0.632   3.260
 3671SOL    HW111912   6.132   0.659   3.340
 3671SOL    HW211913   6.075   0.707   3.194
 3672SOL     OW11914   5.837   1.515   1.136
 3672SOL    HW111915   5.886   1.538   1.220
 3672SOL    HW211916   5.746   1.480   1.159
 3673SOL     OW11917   3.753   0.874   6.020
 3673SOL    HW111918   3.656   0.853   6.032
 3673SOL    HW211919   3.790   0.823   5.943
 3674SOL     OW11920   0.613   0.286   5.542
 3674SOL    HW111921   0.548   0.357   5.571
 3674SOL    HW211922   0.699   0.299   5.590
 3675SOL     OW11923   1.730   2.714   5.286
 3675SOL    HW111924   1.667   2.766   5.343
 3675SOL    HW211925   1.790   2.659   5.344
 3676SOL     OW11926   4.188   5.230   4.435
 3676SOL    HW111927   4.088   5.237   4.439
 3676SOL    HW211928   4.218   5.148   4.483
 3677SOL     OW11929   0.982   6.076   2.786
 3677SOL    HW111930   0.919   6.060   2.862
 3677SOL    HW211931   0.996   6.174   2.774
 3678SOL     OW11932   0.662   3.349   4.162
 3678SOL    HW111933   0.586   3.401   4.202
 3678SOL    HW211934   0.721   3.411   4.110
 3679SOL     OW11935   0.923   1.029   2.827
 3679SOL    HW111936   0.883   1.017   2.736
 3679SOL    HW211937   0.859   1.080   2.885
 3680SOL     OW11938   6.681   3.127   4.256
 3680SOL    HW111939   6.702   3.048   4.198
 3680SOL    HW211940   6.640   3.096   4.341
 3681SOL     OW11941   0.543   0.838   5.846
 3681SOL    HW111942   0.552   0.816   5.943
 3681SOL    HW211943   0.455   0.805   5.812
 3682SOL     OW11944   6.010   2.585   5.922
 3682SOL    HW111945   6.032   2.649   5.848
 3682SOL    HW211946   6.046   2.619   6.008
 3683SOL     OW11947   6.759   0.536   4.771
 3683SOL    HW111948   6.850   0.567   4.799
 3683SOL    HW211949   6.741   0.445   4.810
 3684SOL     OW11950   1.356   2.885   0.864
 3684SOL    HW111951   1.266   2.926   0.885
 3684SOL    HW211952   1.423   2.958   0.854
 3685SOL     OW11953   6.056   6.437   5.479
 3685SOL    HW111954   6.126   6.472   5.418
 3685SOL    HW211955   5.982   6.504   5.487
 3686SOL     OW11956   6.711   5.011   3.533
 3686SOL    HW111957   6.705   4.939   3.603
 3686SOL    HW211958   6.634   5.073   3.543
 3687SOL     OW11959   3.112   5.913   5.848
 3687SOL    HW111960   3.071   5.895   5.759
 3687SOL    HW211961   3.157   5.830   5.881
 3688SOL     OW11962   1.228   3.832   0.145
 3688SOL    HW111963   1.181   3.883   0.218
 3688SOL    HW211964   1.160   3.791   0.084
 3689SOL     OW11965   1.058   0.700   5.395
 3689SOL    HW111966   1.024   0.770   5.332
 3689SOL    HW211967   1.061   0.612   5.348
 3690SOL     OW11968   4.382   0.468   6.415
 3690SOL    HW111969   4.349   0.558   6.388
 3690SOL    HW211970   4.449   0.435   6.349
 3691SOL     OW11971   2.062   3.130   6.700
 3691SOL    HW111972   2.013   3.116   6.614
 3691SOL    HW211973   2.143   3.187   6.684
 3692SOL     OW11974   0.957   5.942   4.548
 3692SOL    HW111975   0.907   5.890   4.617
 3692SOL    HW211976   1.010   6.014   4.593
 3693SOL     OW11977   1.883   3.097   2.798
 3693SOL    HW111978   1.873   3.046   2.883
 3693SOL    HW211979   1.879   3.034   2.721
 3694SOL     OW11980   1.009   5.074   3.084
 3694SOL    HW111981   1.091   5.131   3.093
 3694SOL    HW211982   0.932   5.130   3.053
 3695SOL     OW11983   0.353   2.460   2.544
 3695SOL    HW111984   0.313   2.442   2.634
 3695SOL    HW211985   0.405   2.546   2.547
 3696SOL     OW11986   3.983   5.799   5.358
 3696SOL    HW111987   4.030   5.849   5.430
 3696SOL    HW211988   3.979   5.855   5.276
 3697SOL     OW11989   6.794   5.985   3.759
 3697SOL    HW111990   6.742   6.028   3.833
 3697SOL    HW211991   6.875   6.041   3.739
 3698SOL     OW11992   3.382   6.573   4.886
 3698SOL    HW111993   3.288   6.606   4.895
 3698SOL    HW211994   3.385   6.475   4.905
 3699SOL     OW11995   6.619   3.613   3.259
 3699SOL    HW111996   6.684   3.540   3.240
 3699SOL    HW211997   6.591   3.656   3.172
 3700SOL     OW11998   5.685   0.612   3.616
 3700SOL    HW111999   5.671   0.668   3.698
 3700SOL    HW212000   5.682   0.671   3.535
 3701SOL     OW12001   0.607   0.961   3.609
 3701SOL    HW112002   0.700   0.928   3.625
 3701SOL    HW212003   0.601   1.058   3.631
 3702SOL     OW12004   4.512   7.002   1.885
 3702SOL    HW112005   4.431   7.000   1.826
 3702SOL    HW212006   4.590   0.006   1.833
 3703SOL     OW12007   4.085   3.772   6.133
 3703SOL    HW112008   4.015   3.826   6.086
 3703SOL    HW212009   4.161   3.831   6.158
 3704SOL     OW12010   3.203   1.246   2.109
 3704SOL    HW112011   3.242   1.192   2.035
 3704SOL    HW212012   3.153   1.324   2.071
 3705SOL     OW12013   5.067   6.653   3.802
 3705SOL    HW112014   5.130   6.641   3.725
 3705SOL    HW212015   5.062   6.750   3.825
 3706SOL     OW12016   1.013   2.441   4.746
 3706SOL    HW112017   0.959   2.405   4.670
 3706SOL    HW212018   1.103   2.468   4.713
 3707SOL     OW12019   5.349   3.055   4.889
 3707SOL    HW112020   5.302   2.977   4.848
 3707SOL    HW212021   5.292   3.136   4.881
 3708SOL     OW12022   6.240   0.347   6.456
 3708SOL    HW112023   6.141   0.365   6.449
 3708SOL    HW212024   6.289   0.434   6.453
 3709SOL     OW12025   3.843   0.961   6.711
 3709SOL    HW112026   3.757   1.011   6.704
 3709SOL    HW212027   3.879   0.942   6.620
 3710SOL     OW12028   6.775   5.994   0.425
 3710SOL    HW112029   6.826   6.045   0.356
 3710SOL    HW212030   6.707   6.054   0.469
 3711SOL     OW12031   0.012   6.076   2.159
 3711SOL    HW112032   6.972   6.031   2.215
 3711SOL    HW212033   0.099   6.076   2.207
 3712SOL     OW12034   6.741   5.935   0.005
 3712SOL    HW112035   6.665   5.876   0.031
 3712SOL    HW212036   6.785   5.899   6.953
 3713SOL     OW12037   1.813   6.464   4.833
 3713SOL    HW112038   1.818   6.547   4.778
 3713SOL    HW212039   1.774   6.485   4.922
 3714SOL     OW12040   5.179   6.116   4.759
 3714SOL    HW112041   5.168   6.073   4.849
 3714SOL    HW212042   5.270   6.157   4.753
 3715SOL     OW12043   5.535   4.473   4.766
 3715SOL    HW112044   5.439   4.448   4.777
 3715SOL    HW212045   5.582   4.462   4.854
 3716SOL     OW12046   0.495   6.420   4.213
 3716SOL    HW112047   0.409   6.371   4.194
 3716SOL    HW212048   0.484   6.476   4.295
 3717SOL     OW12049   6.390   5.519   0.549
 3717SOL    HW112050   6.446   5.485   0.625
 3717SOL    HW212051   6.339   5.599   0.578
 3718SOL     OW12052   2.255   6.311   6.202
 3718SOL    HW112053   2.162   6.338   6.226
 3718SOL    HW212054   2.256   6.269   6.111
 3719SOL     OW12055   5.167   4.197   1.174
 3719SOL    HW112056   5.190   4.104   1.148
 3719SOL    HW212057   5.202   4.260   1.105
 3720SOL     OW12058   5.806   1.913   6.687
 3720SOL    HW112059   5.718   1.947   6.653
 3720SOL    HW212060   5.843   1.978   6.754
 3721SOL     OW12061   5.330   4.638   0.151
 3721SOL    HW112062   5.238   4.632   0.189
 3721SOL    HW212063   5.395   4.593   0.213
 3722SOL     OW12064   0.251   6.477   2.165
 3722SOL    HW112065   0.274   6.488   2.261
 3722SOL    HW212066   0.155   6.449   2.157
 3723SOL     OW12067   5.807   6.551   1.971
 3723SOL    HW112068   5.768   6.458   1.973
 3723SOL    HW212069   5.737   6.616   1.941
 3724SOL     OW12070   2.225   5.044   6.803
 3724SOL    HW112071   2.286   5.097   6.861
 3724SOL    HW212072   2.236   5.073   6.708
 3725SOL     OW12073   5.397   6.128   6.600
 3725SOL    HW112074   5.457   6.197   6.640
 3725SOL    HW212075   5.399   6.045   6.656
 3726SOL     OW12076   6.527   4.105   1.371
 3726SOL    HW112077   6.429   4.096   1.354
 3726SOL    HW212078   6.551   4.202   1.375
 3727SOL     OW12079   0.204   3.077   6.233
 3727SOL    HW112080   0.292   3.033   6.213
 3727SOL    HW212081   0.133   3.008   6.242
 3728SOL     OW12082   1.215   3.247   0.460
 3728SOL    HW112083   1.183   3.338   0.489
 3728SOL    HW212084   1.156   3.177   0.501
 3729SOL     OW12085   0.925   2.216   4.050
 3729SOL    HW112086   1.004   2.156   4.061
 3729SOL    HW212087   0.928   2.289   4.118
 3730SOL     OW12088   3.104   5.827   0.035
 3730SOL    HW112089   3.122   5.909   0.088
 3730SOL    HW212090   3.104   5.849   6.967
 3731SOL     OW12091   4.812   0.473   0.471
 3731SOL    HW112092   4.785   0.502   0.562
 3731SOL    HW212093   4.766   0.529   0.402
 3732SOL     OW12094   2.048   2.841   6.075
 3732SOL    HW112095   1.954   2.849   6.044
 3732SOL    HW212096   2.058   2.884   6.165
 3733SOL     OW12097   2.025   4.116   1.521
 3733SOL    HW112098   2.109   4.142   1.473
 3733SOL    HW212099   1.948   4.120   1.459
 3734SOL     OW12100   4.108   1.354   1.867
 3734SOL    HW112101   4.066   1.410   1.938
 3734SOL    HW212102   4.207   1.357   1.876
 3735SOL     OW12103   0.834   1.698   3.085
 3735SOL    HW112104   0.809   1.601   3.072
 3735SOL    HW212105   0.887   1.729   3.006
 3736SOL     OW12106   0.611   3.291   0.972
 3736SOL    HW112107   0.622   3.389   0.985
 3736SOL    HW212108   0.676   3.241   1.029
 3737SOL     OW12109   4.664   0.148   2.954
 3737SOL    HW112110   4.696   0.061   2.916
 3737SOL    HW212111   4.708   0.163   3.042
 3738SOL     OW12112   6.331   6.299   3.519
 3738SOL    HW112113   6.308   6.328   3.427
 3738SOL    HW212114   6.364   6.377   3.572
 3739SOL     OW12115   1.499   4.326   2.547
 3739SOL    HW112116   1.540   4.412   2.518
 3739SOL    HW212117   1.451   4.339   2.633
 3740SOL     OW12118   4.853   0.920   6.683
 3740SOL    HW112119   4.763   0.898   6.720
 3740SOL    HW212120   4.924   0.891   6.748
 3741SOL     OW12121   4.697   3.505   1.339
 3741SOL    HW112122   4.763   3.579   1.330
 3741SOL    HW212123   4.706   3.443   1.260
 3742SOL     OW12124   2.657   2.137   5.620
 3742SOL    HW112125   2.678   2.060   5.680
 3742SOL    HW212126   2.640   2.103   5.527
 3743SOL     OW12127   5.591   4.797   0.846
 3743SOL    HW112128   5.681   4.779   0.886
 3743SOL    HW212129   5.526   4.729   0.880
 3744SOL     OW12130   0.697   5.956   3.326
 3744SOL    HW112131   0.716   5.892   3.401
 3744SOL    HW212132   0.708   5.909   3.239
 3745SOL     OW12133   2.693   5.422   2.846
 3745SOL    HW112134   2.691   5.346   2.781
 3745SOL    HW212135   2.713   5.387   2.937
 3746SOL     OW12136   4.133   1.396   1.600
 3746SOL    HW112137   4.118   1.358   1.692
 3746SOL    HW212138   4.070   1.352   1.536
 3747SOL     OW12139   2.888   6.588   6.044
 3747SOL    HW112140   2.848   6.675   6.072
 3747SOL    HW212141   2.986   6.587   6.067
 3748SOL     OW12142   5.375   0.567   1.460
 3748SOL    HW112143   5.340   0.629   1.530
 3748SOL    HW212144   5.358   0.473   1.487
 3749SOL     OW12145   1.549   6.487   4.143
 3749SOL    HW112146   1.481   6.558   4.163
 3749SOL    HW212147   1.559   6.428   4.223
 3750SOL     OW12148   1.704   3.979   0.493
 3750SOL    HW112149   1.768   3.925   0.439
 3750SOL    HW212150   1.677   3.927   0.575
 3751SOL     OW12151   6.978   3.813   3.013
 3751SOL    HW112152   6.947   3.752   2.940
 3751SOL    HW212153   7.008   3.759   3.091
 3752SOL     OW12154   4.974   0.794   5.726
 3752SOL    HW112155   5.059   0.839   5.701
 3752SOL    HW212156   4.898   0.834   5.674
 3753SOL     OW12157   5.967   0.403   4.929
 3753SOL    HW112158   6.013   0.418   4.841
 3753SOL    HW212159   6.027   0.350   4.989
 3754SOL     OW12160   1.891   0.653   2.304
 3754SOL    HW112161   1.963   0.707   2.261
 3754SOL    HW212162   1.890   0.562   2.263
 3755SOL     OW12163   3.196   4.950   4.811
 3755SOL    HW112164   3.178   5.017   4.883
 3755SOL    HW212165   3.169   4.987   4.723
 3756SOL     OW12166   3.370   5.697   6.896
 3756SOL    HW112167   3.404   5.676   6.988
 3756SOL    HW212168   3.304   5.772   6.901
 3757SOL     OW12169   6.912   5.136   1.975
 3757SOL    HW112170   7.005   5.105   1.998
 3757SOL    HW212171   6.850   5.058   1.975
 3758SOL     OW12172   2.150   1.160   4.449
 3758SOL    HW112173   2.123   1.073   4.406
 3758SOL    HW212174   2.200   1.141   4.533
 3759SOL     OW12175   4.673   0.795   4.819
 3759SOL    HW112176   4.660   0.777   4.722
 3759SOL    HW212177   4.743   0.866   4.831
 3760SOL     OW12178   0.437   0.492   3.556
 3760SOL    HW112179   0.435   0.394   3.536
 3760SOL    HW212180   0.351   0.533   3.526
 3761SOL     OW12181   5.948   1.304   4.671
 3761SOL    HW112182   6.010   1.336   4.599
 3761SOL    HW212183   5.986   1.220   4.711
 3762SOL     OW12184   1.257   3.761   2.324
 3762SOL    HW112185   1.339   3.773   2.268
 3762SOL    HW212186   1.277   3.792   2.418
 3763SOL     OW12187   6.693   3.868   0.351
 3763SOL    HW112188   6.715   3.819   0.435
 3763SOL    HW212189   6.752   3.948   0.342
 3764SOL     OW12190   2.007   0.460   2.829
 3764SOL    HW112191   2.027   0.362   2.819
 3764SOL    HW212192   1.909   0.474   2.817
 3765SOL     OW12193   6.069   2.036   1.590
 3765SOL    HW112194   6.030   2.059   1.680
 3765SOL    HW212195   6.168   2.028   1.598
 3766SOL     OW12196   1.990   2.677   4.220
 3766SOL    HW112197   1.928   2.753   4.201
 3766SOL    HW212198   2.016   2.633   4.133
 3767SOL     OW12199   3.409   3.908   6.312
 3767SOL    HW112200   3.344   3.836   6.289
 3767SOL    HW212201   3.501   3.879   6.288
 3768SOL     OW12202   2.088   0.690   4.670
 3768SOL    HW112203   2.031   0.752   4.724
 3768SOL    HW212204   2.178   0.732   4.658
 3769SOL     OW12205   5.548   5.511   4.818
 3769SOL    HW112206   5.507   5.548   4.901
 3769SOL    HW212207   5.564   5.413   4.829
 3770SOL     OW12208   1.068   1.146   0.174
 3770SOL    HW112209   1.040   1.241   0.158
 3770SOL    HW212210   1.107   1.109   0.090
 3771SOL     OW12211   6.338   4.514   0.608
 3771SOL    HW112212   6.346   4.425   0.563
 3771SOL    HW212213   6.321   4.501   0.705
 3772SOL     OW12214   1.434   6.244   0.022
 3772SOL    HW112215   1.481   6.321   0.064
 3772SOL    HW212216   1.336   6.248   0.043
 3773SOL     OW12217   5.219   4.234   5.761
 3773SOL    HW112218   5.121   4.251   5.749
 3773SOL    HW212219   5.255   4.296   5.830
 3774SOL     OW12220   6.119   4.728   1.997
 3774SOL    HW112221   6.049   4.721   1.926
 3774SOL    HW212222   6.078   4.764   2.081
 3775SOL     OW12223   3.321   5.081   3.378
 3775SOL    HW112224   3.388   5.073   3.452
 3775SOL    HW212225   3.239   5.029   3.402
 3776SOL     OW12226   3.689   2.691   6.607
 3776SOL    HW112227   3.733   2.607   6.574
 3776SOL    HW212228   3.595   2.670   6.634
 3777SOL     OW12229   2.622   5.956   3.539
 3777SOL    HW112230   2.691   6.003   3.594
 3777SOL    HW212231   2.570   5.893   3.597
 3778SOL     OW12232   2.101   6.427   4.713
 3778SOL    HW112233   2.072   6.477   4.794
 3778SOL    HW212234   2.044   6.346   4.702
 3779SOL     OW12235   0.465   5.011   0.715
 3779SOL    HW112236   0.406   5.044   0.788
 3779SOL    HW212237   0.408   4.977   0.640
 3780SOL     OW12238   6.760   2.532   2.553
 3780SOL    HW112239   6.780   2.510   2.458
 3780SOL    HW212240   6.670   2.575   2.559
 3781SOL     OW12241   0.890   6.418   5.417
 3781SOL    HW112242   0.840   6.335   5.394
 3781SOL    HW212243   0.839   6.498   5.385
 3782SOL     OW12244   4.305   6.317   2.334
 3782SOL    HW112245   4.216   6.316   2.289
 3782SOL    HW212246   4.358   6.395   2.302
 3783SOL     OW12247   5.253   4.503   5.328
 3783SOL    HW112248   5.248   4.417   5.377
 3783SOL    HW212249   5.349   4.522   5.304
 3784SOL     OW12250   5.368   2.785   2.323
 3784SOL    HW112251   5.308   2.768   2.401
 3784SOL    HW212252   5.355   2.713   2.254
 3785SOL     OW12253   0.340   3.212   5.491
 3785SOL    HW112254   0.302   3.140   5.433
 3785SOL    HW212255   0.384   3.281   5.433
 3786SOL     OW12256   2.357   2.304   3.393
 3786SOL    HW112257   2.434   2.361   3.423
 3786SOL    HW212258   2.288   2.301   3.465
 3787SOL     OW12259   4.275   0.246   3.049
 3787SOL    HW112260   4.344   0.272   2.982
 3787SOL    HW212261   4.201   0.314   3.049
 3788SOL     OW12262   6.830   3.882   4.670
 3788SOL    HW112263   6.775   3.898   4.588
 3788SOL    HW212264   6.772   3.847   4.743
 3789SOL     OW12265   0.813   3.289   3.010
 3789SOL    HW112266   0.857   3.225   3.073
 3789SOL    HW212267   0.717   3.264   2.999
 3790SOL     OW12268   1.197   5.910   6.842
 3790SOL    HW112269   1.124   5.963   6.799
 3790SOL    HW212270   1.232   5.960   6.921
 3791SOL     OW12271   5.497   1.422   6.347
 3791SOL    HW112272   5.477   1.457   6.438
 3791SOL    HW212273   5.520   1.498   6.286
 3792SOL     OW12274   0.957   1.308   4.427
 3792SOL    HW112275   0.877   1.247   4.421
 3792SOL    HW212276   1.034   1.267   4.378
 3793SOL     OW12277   5.798   6.048   1.051
 3793SOL    HW112278   5.801   6.076   0.955
 3793SOL    HW212279   5.793   6.130   1.108
 3794SOL     OW12280   2.224   3.164   0.898
 3794SOL    HW112281   2.314   3.173   0.943
 3794SOL    HW212282   2.237   3.131   0.805
 3795SOL     OW12283   2.997   5.875   0.904
 3795SOL    HW112284   2.933   5.855   0.830
 3795SOL    HW212285   2.991   5.804   0.973
 3796SOL     OW12286   4.081   2.065   1.328
 3796SOL    HW112287   4.071   2.162   1.307
 3796SOL    HW212288   4.145   2.023   1.263
 3797SOL     OW12289   1.053   4.164   2.450
 3797SOL    HW112290   1.019   4.109   2.373
 3797SOL    HW212291   0.987   4.236   2.470
 3798SOL     OW12292   2.426   6.998   2.603
 3798SOL    HW112293   2.455   0.013   2.687
 3798SOL    HW212294   2.332   6.966   2.614
 3799SOL     OW12295   6.822   2.386   3.276
 3799SOL    HW112296   6.775   2.424   3.355
 3799SOL    HW212297   6.775   2.416   3.192
 3800SOL     OW12298   4.758   1.926   2.763
 3800SOL    HW112299   4.823   1.881   2.824
 3800SOL    HW212300   4.808   1.971   2.689
 3801SOL     OW12301   5.262   6.890   2.296
 3801SOL    HW112302   5.346   6.907   2.348
 3801SOL    HW212303   5.234   6.974   2.249
 3802SOL     OW12304   0.665   2.199   2.551
 3802SOL    HW112305   0.664   2.265   2.626
 3802SOL    HW212306   0.686   2.247   2.466
 3803SOL     OW12307   3.784   3.731   3.821
 3803SOL    HW112308   3.736   3.779   3.895
 3803SOL    HW212309   3.768   3.633   3.829
 3804SOL     OW12310   3.058   1.388   4.650
 3804SOL    HW112311   3.106   1.403   4.564
 3804SOL    HW212312   3.112   1.425   4.726
 3805SOL     OW12313   2.703   2.481   0.860
 3805SOL    HW112314   2.718   2.383   0.872
 3805SOL    HW212315   2.691   2.502   0.763
 3806SOL     OW12316   4.102   3.923   6.500
 3806SOL    HW112317   4.107   4.020   6.476
 3806SOL    HW212318   4.087   3.869   6.417
 3807SOL     OW12319   1.317   5.205   4.621
 3807SOL    HW112320   1.314   5.131   4.554
 3807SOL    HW212321   1.278   5.173   4.707
 3808SOL     OW12322   4.714   0.450   5.779
 3808SOL    HW112323   4.715   0.539   5.823
 3808SOL    HW212324   4.800   0.436   5.730
 3809SOL     OW12325   6.324   1.744   1.583
 3809SOL    HW112326   6.423   1.738   1.569
 3809SOL    HW212327   6.305   1.781   1.673
 3810SOL     OW12328   6.867   2.888   3.404
 3810SOL    HW112329   6.907   2.806   3.444
 3810SOL    HW212330   6.839   2.951   3.477
 3811SOL     OW12331   0.011   6.273   4.469
 3811SOL    HW112332   0.010   6.175   4.449
 3811SOL    HW212333   6.961   6.297   4.524
 3812SOL     OW12334   3.003   5.466   6.385
 3812SOL    HW112335   3.008   5.408   6.467
 3812SOL    HW212336   3.095   5.484   6.351
 3813SOL     OW12337   6.229   3.983   1.039
 3813SOL    HW112338   6.259   3.892   1.067
 3813SOL    HW212339   6.207   3.982   0.941
 3814SOL     OW12340   0.290   6.956   3.953
 3814SOL    HW112341   0.212   6.896   3.970
 3814SOL    HW212342   0.302   7.018   4.031
 3815SOL     OW12343   5.351   3.134   0.399
 3815SOL    HW112344   5.370   3.071   0.324
 3815SOL    HW212345   5.394   3.101   0.483
 3816SOL     OW12346   0.654   5.971   5.239
 3816SOL    HW112347   0.579   5.956   5.176
 3816SOL    HW212348   0.722   5.898   5.228
 3817SOL     OW12349   4.908   3.467   2.585
 3817SOL    HW112350   4.857   3.542   2.625
 3817SOL    HW212351   5.004   3.493   2.575
 3818SOL     OW12352   0.510   0.695   1.408
 3818SOL    HW112353   0.478   0.608   1.445
 3818SOL    HW212354   0.572   0.677   1.331
 3819SOL     OW12355   6.608   4.247   2.866
 3819SOL    HW112356   6.510   4.235   2.883
 3819SOL    HW212357   6.651   4.157   2.858
 3820SOL     OW12358   5.334   6.718   3.355
 3820SOL    HW112359   5.309   6.653   3.427
 3820SOL    HW212360   5.433   6.730   3.353
 3821SOL     OW12361   0.634   0.647   0.804
 3821SOL    HW112362   0.601   0.560   0.840
 3821SOL    HW212363   0.583   0.722   0.847
 3822SOL     OW12364   3.125   7.002   0.163
 3822SOL    HW112365   3.206   6.943   0.166
 3822SOL    HW212366   3.124   0.032   0.243
 3823SOL     OW12367   4.487   4.401   6.409
 3823SOL    HW112368   4.481   4.500   6.419
 3823SOL    HW212369   4.581   4.371   6.420
 3824SOL     OW12370   1.041   2.322   0.901
 3824SOL    HW112371   1.065   2.257   0.828
 3824SOL    HW212372   1.096   2.302   0.982
 3825SOL     OW12373   0.743   4.229   1.055
 3825SOL    HW112374   0.750   4.139   1.013
 3825SOL    HW212375   0.807   4.292   1.010
 3826SOL     OW12376   0.034   3.707   2.379
 3826SOL    HW112377   0.101   3.726   2.450
 3826SOL    HW212378   0.062   3.753   2.294
 3827SOL     OW12379   0.663   0.789   1.821
 3827SOL    HW112380   0.743   0.810   1.766
 3827SOL    HW212381   0.586   0.846   1.791
 3828SOL     OW12382   3.676   3.944   4.693
 3828SOL    HW112383   3.664   4.042   4.677
 3828SOL    HW212384   3.683   3.926   4.791
 3829SOL     OW12385   0.468   4.796   1.916
 3829SOL    HW112386   0.412   4.839   1.846
 3829SOL    HW212387   0.561   4.785   1.882
 3830SOL     OW12388   0.396   0.747   5.473
 3830SOL    HW112389   0.341   0.811   5.420
 3830SOL    HW212390   0.480   0.726   5.423
 3831SOL     OW12391   4.205   2.222   2.987
 3831SOL    HW112392   4.186   2.259   3.078
 3831SOL    HW212393   4.252   2.290   2.932
 3832SOL     OW12394   6.809   0.613   2.255
 3832SOL    HW112395   6.785   0.516   2.244
 3832SOL    HW212396   6.871   0.640   2.181
 3833SOL     OW12397   1.957   0.071   6.608
 3833SOL    HW112398   2.053   0.046   6.620
 3833SOL    HW212399   1.920   0.023   6.527
 3834SOL     OW12400   3.951   4.453   1.121
 3834SOL    HW112401   4.018   4.390   1.080
 3834SOL    HW212402   3.899   4.405   1.191
 3835SOL     OW12403   4.013   5.966   5.164
 3835SOL    HW112404   4.027   5.930   5.072
 3835SOL    HW212405   3.949   6.043   5.160
 3836SOL     OW12406   0.374   4.510   5.702
 3836SOL    HW112407   0.466   4.474   5.692
 3836SOL    HW212408   0.311   4.437   5.728
 3837SOL     OW12409   4.255   5.566   5.113
 3837SOL    HW112410   4.219   5.473   5.111
 3837SOL    HW212411   4.181   5.631   5.130
 3838SOL     OW12412   1.355   1.598   3.175
 3838SOL    HW112413   1.415   1.666   3.217
 3838SOL    HW212414   1.304   1.551   3.247
 3839SOL     OW12415   3.953   0.754   2.680
 3839SOL    HW112416   3.858   0.732   2.702
 3839SOL    HW212417   3.974   0.847   2.710
 3840SOL     OW12418   2.721   1.925   5.752
 3840SOL    HW112419   2.820   1.933   5.753
 3840SOL    HW212420   2.690   1.884   5.838
 3841SOL     OW12421   1.304   4.122   4.507
 3841SOL    HW112422   1.398   4.088   4.504
 3841SOL    HW212423   1.247   4.057   4.559
 3842SOL     OW12424   2.209   2.993   4.061
 3842SOL    HW112425   2.305   3.022   4.066
 3842SOL    HW212426   2.191   2.924   4.131
 3843SOL     OW12427   5.726   3.653   0.763
 3843SOL    HW112428   5.713   3.640   0.665
 3843SOL    HW212429   5.679   3.581   0.813
 3844SOL     OW12430   1.217   4.166   6.912
 3844SOL    HW112431   1.136   4.198   6.962
 3844SOL    HW212432   1.281   4.124   6.977
 3845SOL     OW12433   2.456   5.931   0.007
 3845SOL    HW112434   2.517   5.970   6.968
 3845SOL    HW212435   2.368   5.979   0.005
 3846SOL     OW12436   0.675   3.640   4.374
 3846SOL    HW112437   0.745   3.622   4.305
 3846SOL    HW212438   0.710   3.705   4.441
 3847SOL     OW12439   4.956   2.408   4.556
 3847SOL    HW112440   4.864   2.370   4.559
 3847SOL    HW212441   4.951   2.508   4.558
 3848SOL     OW12442   5.034   3.890   2.623
 3848SOL    HW112443   5.000   3.814   2.678
 3848SOL    HW212444   4.958   3.947   2.593
 3849SOL     OW12445   0.721   0.352   6.148
 3849SOL    HW112446   0.769   0.327   6.232
 3849SOL    HW212447   0.765   0.432   6.108
 3850SOL     OW12448   3.436   2.837   1.344
 3850SOL    HW112449   3.414   2.755   1.292
 3850SOL    HW212450   3.352   2.876   1.382
 3851SOL     OW12451   0.040   4.921   3.426
 3851SOL    HW112452   0.000   5.008   3.395
 3851SOL    HW212453   7.022   4.890   3.509
 3852SOL     OW12454   3.333   6.259   4.231
 3852SOL    HW112455   3.322   6.335   4.294
 3852SOL    HW212456   3.416   6.272   4.177
 3853SOL     OW12457   1.377   2.757   3.373
 3853SOL    HW112458   1.402   2.853   3.363
 3853SOL    HW212459   1.279   2.751   3.394
 3854SOL     OW12460   1.195   2.781   3.027
 3854SOL    HW112461   1.147   2.848   2.971
 3854SOL    HW212462   1.211   2.698   2.974
 3855SOL     OW12463   3.953   6.225   6.597
 3855SOL    HW112464   3.989   6.134   6.619
 3855SOL    HW212465   3.938   6.276   6.681
 3856SOL     OW12466   0.418   1.454   5.949
 3856SOL    HW112467   0.320   1.439   5.936
 3856SOL    HW212468   0.433   1.547   5.981
 3857SOL     OW12469   1.606   6.492   6.299
 3857SOL    HW112470   1.660   6.411   6.322
 3857SOL    HW212471   1.551   6.519   6.378
 3858SOL     OW12472   3.378   1.352   6.129
 3858SOL    HW112473   3.413   1.265   6.094
 3858SOL    HW212474   3.338   1.404   6.053
 3859SOL     OW12475   6.309   0.934   1.911
 3859SOL    HW112476   6.228   0.876   1.904
 3859SOL    HW212477   6.313   0.996   1.833
 3860SOL     OW12478   1.618   1.191   4.624
 3860SOL    HW112479   1.584   1.285   4.624
 3860SOL    HW212480   1.602   1.150   4.534
 3861SOL     OW12481   4.692   6.362   3.103
 3861SOL    HW112482   4.645   6.313   3.177
 3861SOL    HW212483   4.642   6.350   3.017
 3862SOL     OW12484   0.480   0.264   4.746
 3862SOL    HW112485   0.472   0.345   4.687
 3862SOL    HW212486   0.420   0.192   4.712
 3863SOL     OW12487   6.025   1.704   0.020
 3863SOL    HW112488   6.115   1.746   0.015
 3863SOL    HW212489   6.033   1.611   0.056
 3864SOL     OW12490   2.197   0.676   5.232
 3864SOL    HW112491   2.259   0.728   5.291
 3864SOL    HW212492   2.145   0.611   5.288
 3865SOL     OW12493   4.291   1.209   1.188
 3865SOL    HW112494   4.254   1.123   1.222
 3865SOL    HW212495   4.378   1.229   1.233
 3866SOL     OW12496   4.211   0.799   6.899
 3866SOL    HW112497   4.164   0.729   6.953
 3866SOL    HW212498   4.148   0.874   6.879
 3867SOL     OW12499   1.180   4.335   3.315
 3867SOL    HW112500   1.147   4.425   3.344
 3867SOL    HW212501   1.223   4.289   3.392
 3868SOL     OW12502   3.643   0.203   6.919
 3868SOL    HW112503   3.590   0.121   6.899
 3868SOL    HW212504   3.734   0.195   6.879
 3869SOL     OW12505   6.711   3.059   3.954
 3869SOL    HW112506   6.625   3.011   3.937
 3869SOL    HW212507   6.710   3.148   3.907
 3870SOL     OW12508   6.808   6.315   1.005
 3870SOL    HW112509   6.793   6.411   1.030
 3870SOL    HW212510   6.883   6.310   0.940
 3871SOL     OW12511   3.521   0.780   3.154
 3871SOL    HW112512   3.491   0.761   3.247
 3871SOL    HW212513   3.513   0.879   3.136
 3872SOL     OW12514   3.108   3.546   4.052
 3872SOL    HW112515   3.087   3.642   4.034
 3872SOL    HW212516   3.030   3.489   4.025
 3873SOL     OW12517   5.893   4.307   1.037
 3873SOL    HW112518   5.937   4.375   1.095
 3873SOL    HW212519   5.925   4.215   1.063
 3874SOL     OW12520   4.118   0.268   0.308
 3874SOL    HW112521   4.083   0.177   0.285
 3874SOL    HW212522   4.137   0.273   0.406
 3875SOL     OW12523   2.213   2.851   3.275
 3875SOL    HW112524   2.313   2.845   3.274
 3875SOL    HW212525   2.183   2.912   3.201
 3876SOL     OW12526   3.720   5.451   0.664
 3876SOL    HW112527   3.726   5.471   0.762
 3876SOL    HW212528   3.698   5.535   0.614
 3877SOL     OW12529   6.203   2.375   1.312
 3877SOL    HW112530   6.271   2.303   1.300
 3877SOL    HW212531   6.144   2.351   1.390
 3878SOL     OW12532   4.506   6.711   4.469
 3878SOL    HW112533   4.569   6.720   4.392
 3878SOL    HW212534   4.493   6.614   4.490
 3879SOL     OW12535   6.208   5.445   0.847
 3879SOL    HW112536   6.218   5.480   0.940
 3879SOL    HW212537   6.195   5.521   0.784
 3880SOL     OW12538   5.238   4.061   4.584
 3880SOL    HW112539   5.250   4.139   4.524
 3880SOL    HW212540   5.325   4.040   4.630
 3881SOL     OW12541   1.452   3.527   1.419
 3881SOL    HW112542   1.395   3.560   1.494
 3881SOL    HW212543   1.548   3.529   1.448
 3882SOL     OW12544   0.798   1.180   5.980
 3882SOL    HW112545   0.737   1.241   5.930
 3882SOL    HW212546   0.844   1.118   5.917
 3883SOL     OW12547   3.889   1.534   2.184
 3883SOL    HW112548   3.840   1.522   2.270
 3883SOL    HW212549   3.828   1.577   2.117
 3884SOL     OW12550   0.715   5.716   2.236
 3884SOL    HW112551   0.616   5.720   2.229
 3884SOL    HW212552   0.751   5.806   2.258
 3885SOL     OW12553   6.906   5.478   3.029
 3885SOL    HW112554   6.845   5.554   3.050
 3885SOL    HW212555   6.854   5.399   2.997
 3886SOL     OW12556   4.802   6.050   5.310
 3886SOL    HW112557   4.714   6.083   5.346
 3886SOL    HW212558   4.817   6.088   5.219
 3887SOL     OW12559   1.026   0.396   6.979
 3887SOL    HW112560   1.101   0.457   7.004
 3887SOL    HW212561   1.063   0.305   6.958
 3888SOL     OW12562   6.410   0.114   4.950
 3888SOL    HW112563   6.351   0.035   4.968
 3888SOL    HW212564   6.476   0.090   4.878
 3889SOL     OW12565   7.003   3.664   0.432
 3889SOL    HW112566   6.989   3.568   0.453
 3889SOL    HW212567   6.924   3.717   0.462
 3890SOL     OW12568   6.638   4.498   3.381
 3890SOL    HW112569   6.565   4.435   3.409
 3890SOL    HW212570   6.725   4.449   3.378
 3891SOL     OW12571   5.641   4.013   4.565
 3891SOL    HW112572   5.586   3.975   4.491
 3891SOL    HW212573   5.719   3.954   4.584
 3892SOL     OW12574   0.194   2.099   1.510
 3892SOL    HW112575   0.204   2.146   1.423
 3892SOL    HW212576   0.253   2.018   1.511
 3893SOL     OW12577   4.164   3.424   6.863
 3893SOL    HW112578   4.167   3.358   6.787
 3893SOL    HW212579   4.078   3.475   6.859
 3894SOL     OW12580   4.524   0.990   0.174
 3894SOL    HW112581   4.611   0.947   0.197
 3894SOL    HW212582   4.453   0.959   0.237
 3895SOL     OW12583   1.305   0.636   5.495
 3895SOL    HW112584   1.216   0.676   5.473
 3895SOL    HW212585   1.375   0.708   5.493
 3896SOL     OW12586   0.286   1.174   5.715
 3896SOL    HW112587   0.225   1.107   5.758
 3896SOL    HW212588   0.362   1.127   5.672
 3897SOL     OW12589   4.129   5.457   2.403
 3897SOL    HW112590   4.053   5.458   2.468
 3897SOL    HW212591   4.097   5.424   2.314
 3898SOL     OW12592   2.834   3.248   5.902
 3898SOL    HW112593   2.930   3.259   5.928
 3898SOL    HW212594   2.821   3.160   5.858
 3899SOL     OW12595   4.454   6.565   5.257
 3899SOL    HW112596   4.468   6.476   5.213
 3899SOL    HW212597   4.531   6.625   5.238
 3900SOL     OW12598   4.909   3.207   3.542
 3900SOL    HW112599   4.881   3.144   3.470
 3900SOL    HW212600   4.888   3.300   3.515
 3901SOL     OW12601   3.062   0.410   5.564
 3901SOL    HW112602   3.122   0.446   5.636
 3901SOL    HW212603   3.046   0.312   5.580
 3902SOL     OW12604   6.235   2.836   2.042
 3902SOL    HW112605   6.266   2.744   2.020
 3902SOL    HW212606   6.294   2.875   2.113
 3903SOL     OW12607   3.897   5.809   0.410
 3903SOL    HW112608   3.921   5.906   0.405
 3903SOL    HW212609   3.966   5.755   0.362
 3904SOL     OW12610   2.735   1.173   5.973
 3904SOL    HW112611   2.732   1.252   6.034
 3904SOL    HW212612   2.741   1.203   5.878
 3905SOL     OW12613   0.168   0.445   6.949
 3905SOL    HW112614   0.245   0.419   6.891
 3905SOL    HW212615   0.132   0.364   6.995
 3906SOL     OW12616   5.673   6.003   5.561
 3906SOL    HW112617   5.685   5.932   5.631
 3906SOL    HW212618   5.744   5.993   5.491
 3907SOL     OW12619   5.707   0.795   3.409
 3907SOL    HW112620   5.805   0.777   3.416
 3907SOL    HW212621   5.692   0.894   3.412
 3908SOL     OW12622   0.991   2.280   0.502
 3908SOL    HW112623   1.040   2.367   0.491
 3908SOL    HW212624   0.897   2.299   0.532
 3909SOL     OW12625   6.489   5.733   5.655
 3909SOL    HW112626   6.466   5.694   5.566
 3909SOL    HW212627   6.552   5.810   5.643
 3910SOL     OW12628   4.002   3.478   2.894
 3910SOL    HW112629   3.905   3.455   2.908
 3910SOL    HW212630   4.045   3.499   2.981
 3911SOL     OW12631   5.027   1.576   5.766
 3911SOL    HW112632   5.005   1.648   5.831
 3911SOL    HW212633   5.006   1.607   5.673
 3912SOL     OW12634   5.109   1.231   5.455
 3912SOL    HW112635   5.013   1.211   5.475
 3912SOL    HW212636   5.149   1.156   5.403
 3913SOL     OW12637   2.557   6.728   6.360
 3913SOL    HW112638   2.563   6.828   6.360
 3913SOL    HW212639   2.474   6.700   6.312
 3914SOL     OW12640   3.140   0.766   0.680
 3914SOL    HW112641   3.083   0.748   0.760
 3914SOL    HW212642   3.127   0.694   0.612
 3915SOL     OW12643   4.907   5.252   1.825
 3915SOL    HW112644   4.823   5.294   1.792
 3915SOL    HW212645   4.970   5.239   1.748
 3916SOL     OW12646   1.238   0.453   4.428
 3916SOL    HW112647   1.294   0.390   4.374
 3916SOL    HW212648   1.297   0.502   4.493
 3917SOL     OW12649   6.240   5.999   0.071
 3917SOL    HW112650   6.274   6.050   0.150
 3917SOL    HW212651   6.142   5.980   0.082
 3918SOL     OW12652   5.076   5.806   1.496
 3918SOL    HW112653   5.135   5.860   1.436
 3918SOL    HW212654   5.025   5.739   1.442
 3919SOL     OW12655   3.035   6.596   6.583
 3919SOL    HW112656   2.985   6.665   6.636
 3919SOL    HW212657   2.970   6.532   6.541
 3920SOL     OW12658   3.388   2.968   0.801
 3920SOL    HW112659   3.316   2.927   0.746
 3920SOL    HW212660   3.421   2.901   0.868
 3921SOL     OW12661   0.110   3.606   1.797
 3921SOL    HW112662   0.108   3.513   1.759
 3921SOL    HW212663   0.204   3.631   1.820
 3922SOL     OW12664   6.705   3.058   1.983
 3922SOL    HW112665   6.616   3.065   1.937
 3922SOL    HW212666   6.753   3.146   1.975
 3923SOL     OW12667   6.549   0.966   6.944
 3923SOL    HW112668   6.523   0.871   6.933
 3923SOL    HW212669   6.641   0.980   6.908
 3924SOL     OW12670   0.639   4.700   3.511
 3924SOL    HW112671   0.691   4.645   3.447
 3924SOL    HW212672   0.547   4.662   3.520
 3925SOL     OW12673   3.228   5.249   1.048
 3925SOL    HW112674   3.231   5.254   1.147
 3925SOL    HW212675   3.136   5.271   1.015
 3926SOL     OW12676   6.893   6.045   3.257
 3926SOL    HW112677   6.824   5.982   3.295
 3926SOL    HW212678   6.983   6.003   3.262
 3927SOL     OW12679   6.749   2.559   3.477
 3927SOL    HW112680   6.835   2.609   3.487
 3927SOL    HW212681   6.674   2.624   3.462
 3928SOL     OW12682   3.490   6.121   6.038
 3928SOL    HW112683   3.476   6.147   6.133
 3928SOL    HW212684   3.497   6.022   6.031
 3929SOL     OW12685   0.067   0.653   5.110
 3929SOL    HW112686   0.021   0.566   5.124
 3929SOL    HW212687   0.058   0.710   5.192
 3930SOL     OW12688   2.397   1.884   3.909
 3930SOL    HW112689   2.392   1.906   3.812
 3930SOL    HW212690   2.387   1.785   3.921
 3931SOL     OW12691   1.811   0.994   1.823
 3931SOL    HW112692   1.898   1.000   1.773
 3931SOL    HW212693   1.740   1.043   1.772
 3932SOL     OW12694   1.794   4.909   3.459
 3932SOL    HW112695   1.788   4.927   3.557
 3932SOL    HW212696   1.764   4.815   3.440
 3933SOL     OW12697   2.561   6.076   6.808
 3933SOL    HW112698   2.588   6.158   6.858
 3933SOL    HW212699   2.591   6.082   6.713
 3934SOL     OW12700   6.646   1.055   0.478
 3934SOL    HW112701   6.640   1.149   0.442
 3934SOL    HW212702   6.709   1.053   0.555
 3935SOL     OW12703   2.631   6.609   0.102
 3935SOL    HW112704   2.638   6.706   0.122
 3935SOL    HW212705   2.717   6.576   0.063
 3936SOL     OW12706   0.382   4.732   5.534
 3936SOL    HW112707   0.289   4.768   5.526
 3936SOL    HW212708   0.380   4.644   5.581
 3937SOL     OW12709   6.848   1.865   3.510
 3937SOL    HW112710   6.763   1.819   3.485
 3937SOL    HW212711   6.897   1.811   3.578
 3938SOL     OW12712   0.449   2.475   4.017
 3938SOL    HW112713   0.538   2.449   3.979
 3938SOL    HW212714   0.447   2.450   4.114
 3939SOL     OW12715   2.279   2.214   2.748
 3939SOL    HW112716   2.256   2.210   2.650
 3939SOL    HW212717   2.223   2.147   2.797
 3940SOL     OW12718   4.798   5.481   1.252
 3940SOL    HW112719   4.821   5.416   1.179
 3940SOL    HW212720   4.772   5.430   1.334
 3941SOL     OW12721   4.810   2.939   6.112
 3941SOL    HW112722   4.885   2.960   6.176
 3941SOL    HW212723   4.800   2.840   6.104
 3942SOL     OW12724   0.362   0.086   6.839
 3942SOL    HW112725   0.345   0.066   6.935
 3942SOL    HW212726   0.324   0.012   6.783
 3943SOL     OW12727   0.081   3.663   3.211
 3943SOL    HW112728   0.068   3.684   3.308
 3943SOL    HW212729   0.052   3.569   3.193
 3944SOL     OW12730   4.697   2.740   4.965
 3944SOL    HW112731   4.615   2.758   5.019
 3944SOL    HW212732   4.765   2.694   5.022
 3945SOL     OW12733   0.019   1.566   0.634
 3945SOL    HW112734   0.033   1.511   0.717
 3945SOL    HW212735   6.951   1.575   0.616
 3946SOL     OW12736   5.612   5.602   5.575
 3946SOL    HW112737   5.576   5.581   5.483
 3946SOL    HW212738   5.705   5.566   5.583
 3947SOL     OW12739   5.802   5.771   0.810
 3947SOL    HW112740   5.743   5.851   0.815
 3947SOL    HW212741   5.832   5.757   0.715
 3948SOL     OW12742   1.298   5.938   1.933
 3948SOL    HW112743   1.246   5.902   2.011
 3948SOL    HW212744   1.262   5.900   1.849
 3949SOL     OW12745   4.775   0.479   3.232
 3949SOL    HW112746   4.848   0.532   3.189
 3949SOL    HW212747   4.691   0.486   3.178
 3950SOL     OW12748   1.799   4.144   1.358
 3950SOL    HW112749   1.739   4.064   1.363
 3950SOL    HW212750   1.750   4.225   1.390
 3951SOL     OW12751   5.602   6.636   0.754
 3951SOL    HW112752   5.537   6.601   0.686
 3951SOL    HW212753   5.695   6.620   0.721
 3952SOL     OW12754   6.295   3.053   2.931
 3952SOL    HW112755   6.274   3.139   2.976
 3952SOL    HW212756   6.211   3.013   2.894
 3953SOL     OW12757   3.921   4.778   1.647
 3953SOL    HW112758   3.999   4.841   1.655
 3953SOL    HW212759   3.923   4.732   1.558
 3954SOL     OW12760   4.364   5.011   5.081
 3954SOL    HW112761   4.299   4.975   5.014
 3954SOL    HW212762   4.400   5.098   5.049
 3955SOL     OW12763   3.127   5.904   6.822
 3955SOL    HW112764   3.072   5.921   6.740
 3955SOL    HW212765   3.218   5.943   6.809
 3956SOL     OW12766   6.942   0.821   3.636
 3956SOL    HW112767   6.951   0.804   3.734
 3956SOL    HW212768   6.846   0.835   3.613
 3957SOL     OW12769   4.593   6.089   4.130
 3957SOL    HW112770   4.540   6.174   4.126
 3957SOL    HW212771   4.676   6.099   4.075
 3958SOL     OW12772   5.756   1.437   4.790
 3958SOL    HW112773   5.674   1.379   4.793
 3958SOL    HW212774   5.832   1.384   4.753
 3959SOL     OW12775   4.208   6.741   0.710
 3959SOL    HW112776   4.246   6.823   0.754
 3959SOL    HW212777   4.116   6.762   0.675
 3960SOL     OW12778   4.696   1.690   0.011
 3960SOL    HW112779   4.657   1.752   6.972
 3960SOL    HW212780   4.630   1.618   0.033
 3961SOL     OW12781   5.363   2.047   2.358
 3961SOL    HW112782   5.289   2.109   2.383
 3961SOL    HW212783   5.437   2.099   2.316
 3962SOL     OW12784   2.642   3.856   0.243
 3962SOL    HW112785   2.682   3.935   0.197
 3962SOL    HW212786   2.648   3.868   0.342
 3963SOL     OW12787   4.730   4.809   3.997
 3963SOL    HW112788   4.726   4.903   4.030
 3963SOL    HW212789   4.637   4.777   3.976
 3964SOL     OW12790   4.464   4.942   4.071
 3964SOL    HW112791   4.488   4.946   3.974
 3964SOL    HW212792   4.474   4.848   4.105
 3965SOL     OW12793   4.959   2.886   5.486
 3965SOL    HW112794   4.990   2.979   5.506
 3965SOL    HW212795   4.887   2.889   5.417
 3966SOL     OW12796   5.146   6.049   6.769
 3966SOL    HW112797   5.075   5.995   6.724
 3966SOL    HW212798   5.143   6.143   6.734
 3967SOL     OW12799   2.141   3.462   2.484
 3967SOL    HW112800   2.077   3.537   2.498
 3967SOL    HW212801   2.130   3.394   2.557
 3968SOL     OW12802   4.915   0.395   1.522
 3968SOL    HW112803   4.938   0.351   1.435
 3968SOL    HW212804   4.835   0.350   1.562
 3969SOL     OW12805   1.646   4.070   2.282
 3969SOL    HW112806   1.743   4.067   2.305
 3969SOL    HW212807   1.592   4.062   2.366
 3970SOL     OW12808   6.369   6.533   3.996
 3970SOL    HW112809   6.415   6.454   4.037
 3970SOL    HW212810   6.432   6.609   3.991
 3971SOL     OW12811   3.058   5.478   2.771
 3971SOL    HW112812   3.008   5.440   2.693
 3971SOL    HW212813   3.141   5.426   2.786
 3972SOL     OW12814   1.381   4.131   0.757
 3972SOL    HW112815   1.405   4.042   0.718
 3972SOL    HW212816   1.461   4.190   0.756
 3973SOL     OW12817   1.662   5.374   6.792
 3973SOL    HW112818   1.719   5.300   6.826
 3973SOL    HW212819   1.566   5.347   6.796
 3974SOL     OW12820   1.663   0.415   4.567
 3974SOL    HW112821   1.656   0.489   4.635
 3974SOL    HW212822   1.727   0.442   4.496
 3975SOL     OW12823   5.600   1.314   5.497
 3975SOL    HW112824   5.622   1.399   5.544
 3975SOL    HW212825   5.679   1.253   5.499
 3976SOL     OW12826   1.710   5.780   1.623
 3976SOL    HW112827   1.798   5.817   1.653
 3976SOL    HW212828   1.671   5.839   1.553
 3977SOL     OW12829   2.621   3.838   5.838
 3977SOL    HW112830   2.712   3.878   5.826
 3977SOL    HW212831   2.612   3.758   5.778
 3978SOL     OW12832   5.954   4.881   4.531
 3978SOL    HW112833   5.941   4.977   4.506
 3978SOL    HW212834   6.052   4.859   4.529
 3979SOL     OW12835   3.013   0.171   1.036
 3979SOL    HW112836   3.058   0.082   1.043
 3979SOL    HW212837   3.083   0.243   1.032
 3980SOL     OW12838   5.523   6.110   0.344
 3980SOL    HW112839   5.444   6.123   0.284
 3980SOL    HW212840   5.499   6.044   0.416
 3981SOL     OW12841   2.851   0.680   0.363
 3981SOL    HW112842   2.889   0.671   0.271
 3981SOL    HW212843   2.872   0.597   0.416
 3982SOL     OW12844   2.332   0.208   3.427
 3982SOL    HW112845   2.254   0.170   3.478
 3982SOL    HW212846   2.383   0.270   3.486
 3983SOL     OW12847   5.399   4.621   3.886
 3983SOL    HW112848   5.301   4.606   3.874
 3983SOL    HW212849   5.423   4.608   3.983
 3984SOL     OW12850   6.652   1.217   3.145
 3984SOL    HW112851   6.731   1.156   3.142
 3984SOL    HW212852   6.569   1.164   3.124
 3985SOL     OW12853   3.007   4.607   6.515
 3985SOL    HW112854   3.040   4.618   6.422
 3985SOL    HW212855   2.926   4.664   6.529
 3986SOL     OW12856   5.281   2.191   2.860
 3986SOL    HW112857   5.211   2.213   2.928
 3986SOL    HW212858   5.372   2.197   2.902
 3987SOL     OW12859   3.658   5.287   3.532
 3987SOL    HW112860   3.757   5.292   3.545
 3987SOL    HW212861   3.625   5.196   3.557
 3988SOL     OW12862   3.540   4.096   6.892
 3988SOL    HW112863   3.466   4.153   6.858
 3988SOL    HW212864   3.526   4.078   6.990
 3989SOL     OW12865   6.420   2.882   6.888
 3989SOL    HW112866   6.511   2.874   6.849
 3989SOL    HW212867   6.413   2.822   6.968
 3990SOL     OW12868   4.373   2.051   2.564
 3990SOL    HW112869   4.328   2.138   2.581
 3990SOL    HW212870   4.392   2.042   2.466
 3991SOL     OW12871   5.804   1.271   2.710
 3991SOL    HW112872   5.823   1.268   2.808
 3991SOL    HW212873   5.871   1.215   2.661
 3992SOL     OW12874   3.084   1.902   6.804
 3992SOL    HW112875   3.109   1.845   6.726
 3992SOL    HW212876   3.126   1.992   6.794
 3993SOL     OW12877   1.209   1.685   2.941
 3993SOL    HW112878   1.253   1.650   3.024
 3993SOL    HW212879   1.275   1.683   2.865
 3994SOL     OW12880   2.014   0.243   5.743
 3994SOL    HW112881   2.054   0.223   5.832
 3994SOL    HW212882   2.086   0.275   5.680
 3995SOL     OW12883   2.654   3.552   6.069
 3995SOL    HW112884   2.591   3.478   6.048
 3995SOL    HW212885   2.732   3.517   6.121
 3996SOL     OW12886   1.077   0.276   4.615
 3996SOL    HW112887   1.057   0.179   4.606
 3996SOL    HW212888   1.138   0.305   4.541
 3997SOL     OW12889   4.930   1.746   3.998
 3997SOL    HW112890   5.010   1.791   4.038
 3997SOL    HW212891   4.857   1.814   3.984
 3998SOL     OW12892   4.083   1.472   3.652
 3998SOL    HW112893   4.049   1.378   3.652
 3998SOL    HW212894   4.053   1.518   3.735
 3999SOL     OW12895   5.821   3.956   3.987
 3999SOL    HW112896   5.887   4.018   3.944
 3999SOL    HW212897   5.856   3.927   4.076
 4000SOL     OW12898   3.352   6.123   3.412
 4000SOL    HW112899   3.310   6.118   3.322
 4000SOL    HW212900   3.282   6.147   3.480
 4001SOL     OW12901   1.937   2.192   3.805
 4001SOL    HW112902   1.966   2.186   3.709
 4001SOL    HW212903   1.978   2.272   3.847
 4002SOL     OW12904   3.505   4.361   0.118
 4002SOL    HW112905   3.468   4.409   0.198
 4002SOL    HW212906   3.475   4.266   0.120
 4003SOL     OW12907   3.459   6.754   4.426
 4003SOL    HW112908   3.399   6.834   4.426
 4003SOL    HW212909   3.521   6.758   4.348
 4004SOL     OW12910   4.855   2.081   4.087
 4004SOL    HW112911   4.928   2.082   4.018
 4004SOL    HW212912   4.777   2.029   4.052
 4005SOL     OW12913   5.168   4.925   6.943
 4005SOL    HW112914   5.187   4.999   6.878
 4005SOL    HW212915   5.227   4.936   7.023
 4006SOL     OW12916   4.547   5.218   2.873
 4006SOL    HW112917   4.569   5.205   2.970
 4006SOL    HW212918   4.632   5.225   2.820
 4007SOL     OW12919   0.356   2.529   0.859
 4007SOL    HW112920   0.320   2.547   0.950
 4007SOL    HW212921   0.319   2.597   0.795
 4008SOL     OW12922   3.063   1.866   3.724
 4008SOL    HW112923   3.114   1.951   3.706
 4008SOL    HW212924   2.976   1.869   3.675
 4009SOL     OW12925   4.159   3.421   1.486
 4009SOL    HW112926   4.153   3.499   1.424
 4009SOL    HW212927   4.132   3.338   1.439
 4010SOL     OW12928   2.489   3.281   0.958
 4010SOL    HW112929   2.523   3.188   0.945
 4010SOL    HW212930   2.489   3.329   0.870
 4011SOL     OW12931   0.706   1.293   1.980
 4011SOL    HW112932   0.638   1.349   1.934
 4011SOL    HW212933   0.798   1.326   1.957
 4012SOL     OW12934   5.405   4.863   1.837
 4012SOL    HW112935   5.367   4.901   1.752
 4012SOL    HW212936   5.433   4.938   1.897
 4013SOL     OW12937   2.894   1.721   5.536
 4013SOL    HW112938   2.862   1.632   5.503
 4013SOL    HW212939   2.929   1.711   5.629
 4014SOL     OW12940   5.423   6.616   2.595
 4014SOL    HW112941   5.350   6.587   2.533
 4014SOL    HW212942   5.422   6.716   2.603
 4015SOL     OW12943   5.041   4.762   6.474
 4015SOL    HW112944   5.051   4.784   6.571
 4015SOL    HW212945   5.073   4.839   6.419
 4016SOL     OW12946   2.936   5.574   5.877
 4016SOL    HW112947   2.973   5.487   5.909
 4016SOL    HW212948   2.975   5.649   5.931
 4017SOL     OW12949   0.210   5.820   0.456
 4017SOL    HW112950   0.169   5.817   0.365
 4017SOL    HW212951   0.227   5.915   0.483
 4018SOL     OW12952   4.422   6.109   2.466
 4018SOL    HW112953   4.371   6.183   2.422
 4018SOL    HW212954   4.437   6.131   2.562
 4019SOL     OW12955   5.604   3.784   2.764
 4019SOL    HW112956   5.522   3.764   2.710
 4019SOL    HW212957   5.685   3.750   2.716
 4020SOL     OW12958   4.359   1.462   5.530
 4020SOL    HW112959   4.359   1.375   5.579
 4020SOL    HW212960   4.420   1.526   5.576
 4021SOL     OW12961   3.854   5.022   6.124
 4021SOL    HW112962   3.796   5.014   6.043
 4021SOL    HW212963   3.948   4.998   6.101
 4022SOL     OW12964   4.728   1.141   6.414
 4022SOL    HW112965   4.802   1.193   6.372
 4022SOL    HW212966   4.745   1.130   6.512
 4023SOL     OW12967   6.128   1.519   4.367
 4023SOL    HW112968   6.197   1.522   4.440
 4023SOL    HW212969   6.122   1.426   4.331
 4024SOL     OW12970   3.169   6.506   3.431
 4024SOL    HW112971   3.161   6.425   3.489
 4024SOL    HW212972   3.133   6.586   3.479
 4025SOL     OW12973   0.346   4.373   3.131
 4025SOL    HW112974   0.401   4.348   3.051
 4025SOL    HW212975   0.407   4.398   3.207
 4026SOL     OW12976   5.234   6.186   4.160
 4026SOL    HW112977   5.221   6.283   4.142
 4026SOL    HW212978   5.329   6.161   4.139
 4027SOL     OW12979   3.742   4.372   1.586
 4027SOL    HW112980   3.668   4.383   1.651
 4027SOL    HW212981   3.762   4.461   1.544
 4028SOL     OW12982   1.569   2.817   4.186
 4028SOL    HW112983   1.545   2.743   4.122
 4028SOL    HW212984   1.529   2.798   4.275
 4029SOL     OW12985   2.648   4.285   5.921
 4029SOL    HW112986   2.682   4.332   6.003
 4029SOL    HW212987   2.615   4.194   5.947
 4030SOL     OW12988   0.693   2.109   5.711
 4030SOL    HW112989   0.740   2.146   5.791
 4030SOL    HW212990   0.759   2.059   5.654
 4031SOL     OW12991   5.074   5.645   3.795
 4031SOL    HW112992   5.054   5.631   3.698
 4031SOL    HW212993   5.171   5.627   3.813
 4032SOL     OW12994   6.406   6.848   3.807
 4032SOL    HW112995   6.486   6.789   3.817
 4032SOL    HW212996   6.341   6.828   3.881
 4033SOL     OW12997   3.259   2.943   4.140
 4033SOL    HW112998   3.178   2.892   4.170
 4033SOL    HW212999   3.232   3.037   4.119
 4034SOL     OW13000   5.902   1.580   4.591
 4034SOL    HW113001   5.909   1.675   4.622
 4034SOL    HW213002   5.829   1.534   4.641
 4035SOL     OW13003   0.298   4.397   0.456
 4035SOL    HW113004   0.397   4.395   0.443
 4035SOL    HW213005   0.277   4.420   0.551
 4036SOL     OW13006   5.863   6.123   2.687
 4036SOL    HW113007   5.799   6.196   2.709
 4036SOL    HW213008   5.817   6.053   2.633
 4037SOL     OW13009   1.351   3.150   6.230
 4037SOL    HW113010   1.319   3.199   6.311
 4037SOL    HW213011   1.283   3.081   6.205
 4038SOL     OW13012   5.028   4.768   2.769
 4038SOL    HW113013   4.969   4.790   2.847
 4038SOL    HW213014   5.086   4.689   2.793
 4039SOL     OW13015   5.015   5.922   0.289
 4039SOL    HW113016   5.016   5.919   0.189
 4039SOL    HW213017   4.972   6.007   0.319
 4040SOL     OW13018   2.817   0.160   1.332
 4040SOL    HW113019   2.765   0.075   1.323
 4040SOL    HW213020   2.880   0.152   1.409
 4041SOL     OW13021   0.987   6.159   2.415
 4041SOL    HW113022   1.067   6.191   2.465
 4041SOL    HW213023   1.014   6.090   2.348
 4042SOL     OW13024   6.235   5.571   2.439
 4042SOL    HW113025   6.151   5.521   2.419
 4042SOL    HW213026   6.305   5.507   2.471
 4043SOL     OW13027   5.161   1.903   2.840
 4043SOL    HW113028   5.177   1.840   2.764
 4043SOL    HW213029   5.174   1.997   2.809
 4044SOL     OW13030   5.649   0.352   3.512
 4044SOL    HW113031   5.715   0.362   3.438
 4044SOL    HW213032   5.648   0.436   3.567
 4045SOL     OW13033   2.899   4.401   6.662
 4045SOL    HW113034   2.964   4.449   6.603
 4045SOL    HW213035   2.817   4.380   6.610
 4046SOL     OW13036   1.086   1.776   2.052
 4046SOL    HW113037   1.012   1.733   2.105
 4046SOL    HW213038   1.047   1.828   1.976
 4047SOL     OW13039   2.835   3.434   1.499
 4047SOL    HW113040   2.806   3.503   1.433
 4047SOL    HW213041   2.757   3.377   1.524
 4048SOL     OW13042   5.605   0.652   1.153
 4048SOL    HW113043   5.686   0.648   1.212
 4048SOL    HW213044   5.596   0.745   1.117
 4049SOL     OW13045   6.045   6.571   6.060
 4049SOL    HW113046   6.011   6.484   6.094
 4049SOL    HW213047   6.023   6.580   5.963
 4050SOL     OW13048   1.523   6.463   0.177
 4050SOL    HW113049   1.461   6.507   0.242
 4050SOL    HW213050   1.604   6.429   0.225
 4051SOL     OW13051   3.168   4.471   0.801
 4051SOL    HW113052   3.157   4.428   0.891
 4051SOL    HW213053   3.263   4.499   0.789
 4052SOL     OW13054   0.647   0.614   0.457
 4052SOL    HW113055   0.623   0.702   0.416
 4052SOL    HW213056   0.564   0.569   0.491
 4053SOL     OW13057   2.961   4.858   3.810
 4053SOL    HW113058   3.052   4.852   3.771
 4053SOL    HW213059   2.965   4.903   3.899
 4054SOL     OW13060   2.643   2.699   0.348
 4054SOL    HW113061   2.657   2.774   0.412
 4054SOL    HW213062   2.545   2.680   0.339
 4055SOL     OW13063   2.593   2.254   6.228
 4055SOL    HW113064   2.580   2.311   6.146
 4055SOL    HW213065   2.506   2.247   6.277
 4056SOL     OW13066   3.960   3.388   0.083
 4056SOL    HW113067   4.015   3.458   0.128
 4056SOL    HW213068   3.864   3.414   0.085
 4057SOL     OW13069   4.991   3.308   0.086
 4057SOL    HW113070   5.022   3.395   0.048
 4057SOL    HW213071   4.981   3.241   0.012
 4058SOL     OW13072   2.494   1.355   4.838
 4058SOL    HW113073   2.537   1.410   4.910
 4058SOL    HW213074   2.470   1.414   4.761
 4059SOL     OW13075   1.875   2.355   4.084
 4059SOL    HW113076   1.871   2.320   4.178
 4059SOL    HW213077   1.946   2.306   4.034
 4060SOL     OW13078   4.055   4.957   4.067
 4060SOL    HW113079   4.073   4.911   3.980
 4060SOL    HW213080   4.070   5.055   4.056
 4061SOL     OW13081   3.526   4.366   1.752
 4061SOL    HW113082   3.530   4.458   1.789
 4061SOL    HW213083   3.444   4.357   1.694
 4062SOL     OW13084   3.348   1.167   2.357
 4062SOL    HW113085   3.296   1.160   2.271
 4062SOL    HW213086   3.285   1.170   2.434
 4063SOL     OW13087   3.280   6.120   5.857
 4063SOL    HW113088   3.349   6.128   5.929
 4063SOL    HW213089   3.203   6.066   5.892
 4064SOL     OW13090   1.019   0.456   2.587
 4064SOL    HW113091   0.941   0.403   2.553
 4064SOL    HW213092   0.992   0.551   2.600
 4065SOL     OW13093   0.421   6.684   0.928
 4065SOL    HW113094   0.402   6.589   0.955
 4065SOL    HW213095   0.402   6.745   1.005
 4066SOL     OW13096   5.589   4.135   1.843
 4066SOL    HW113097   5.492   4.130   1.816
 4066SOL    HW213098   5.640   4.185   1.774
 4067SOL     OW13099   5.433   1.827   3.073
 4067SOL    HW113100   5.371   1.862   3.142
 4067SOL    HW213101   5.430   1.887   2.992
 4068SOL     OW13102   4.937   0.850   5.254
 4068SOL    HW113103   5.016   0.810   5.301
 4068SOL    HW213104   4.968   0.910   5.180
 4069SOL     OW13105   5.445   5.043   0.865
 4069SOL    HW113106   5.519   4.975   0.865
 4069SOL    HW213107   5.484   5.135   0.863
 4070SOL     OW13108   2.205   4.046   2.684
 4070SOL    HW113109   2.179   4.035   2.780
 4070SOL    HW213110   2.265   3.970   2.657
 4071SOL     OW13111   1.602   0.735   4.964
 4071SOL    HW113112   1.595   0.688   5.052
 4071SOL    HW213113   1.517   0.786   4.947
 4072SOL     OW13114   1.498   6.792   4.467
 4072SOL    HW113115   1.471   6.773   4.373
 4072SOL    HW213116   1.590   6.831   4.468
 4073SOL     OW13117   2.730   5.557   6.180
 4073SOL    HW113118   2.664   5.623   6.215
 4073SOL    HW213119   2.814   5.604   6.153
 4074SOL     OW13120   0.541   2.110   1.660
 4074SOL    HW113121   0.607   2.110   1.585
 4074SOL    HW213122   0.480   2.189   1.651
 4075SOL     OW13123   3.975   1.613   2.677
 4075SOL    HW113124   4.044   1.649   2.741
 4075SOL    HW213125   3.988   1.654   2.587
 4076SOL     OW13126   2.132   3.579   5.165
 4076SOL    HW113127   2.121   3.499   5.224
 4076SOL    HW213128   2.194   3.644   5.209
 4077SOL     OW13129   3.420   0.192   0.382
 4077SOL    HW113130   3.413   0.238   0.471
 4077SOL    HW213131   3.378   0.101   0.389
 4078SOL     OW13132   6.238   4.056   1.375
 4078SOL    HW113133   6.269   3.962   1.390
 4078SOL    HW213134   6.141   4.063   1.396
 4079SOL     OW13135   1.078   1.094   3.572
 4079SOL    HW113136   1.118   1.016   3.620
 4079SOL    HW213137   1.011   1.061   3.505
 4080SOL     OW13138   3.286   3.393   1.304
 4080SOL    HW113139   3.335   3.318   1.349
 4080SOL    HW213140   3.289   3.379   1.205
 4081SOL     OW13141   2.148   1.595   5.589
 4081SOL    HW113142   2.077   1.563   5.526
 4081SOL    HW213143   2.197   1.672   5.547
 4082SOL     OW13144   0.746   2.763   5.539
 4082SOL    HW113145   0.652   2.753   5.571
 4082SOL    HW213146   0.809   2.739   5.613
 4083SOL     OW13147   5.920   4.307   3.590
 4083SOL    HW113148   5.852   4.377   3.612
 4083SOL    HW213149   6.010   4.334   3.624
 4084SOL     OW13150   4.628   2.041   2.992
 4084SOL    HW113151   4.696   2.110   3.017
 4084SOL    HW213152   4.659   1.991   2.912
 4085SOL     OW13153   3.206   5.731   1.700
 4085SOL    HW113154   3.209   5.826   1.667
 4085SOL    HW213155   3.283   5.681   1.661
 4086SOL     OW13156   6.505   5.509   6.218
 4086SOL    HW113157   6.460   5.514   6.307
 4086SOL    HW213158   6.437   5.514   6.146
 4087SOL     OW13159   2.317   6.699   2.352
 4087SOL    HW113160   2.295   6.604   2.374
 4087SOL    HW213161   2.413   6.717   2.371
 4088SOL     OW13162   6.742   1.098   5.454
 4088SOL    HW113163   6.796   1.021   5.421
 4088SOL    HW213164   6.801   1.177   5.471
 4089SOL     OW13165   0.120   6.679   3.807
 4089SOL    HW113166   0.185   6.661   3.733
 4089SOL    HW213167   0.159   6.647   3.894
 4090SOL     OW13168   2.068   6.577   4.968
 4090SOL    HW113169   2.071   6.479   4.989
 4090SOL    HW213170   1.979   6.599   4.928
 4091SOL     OW13171   1.688   5.221   1.291
 4091SOL    HW113172   1.701   5.311   1.248
 4091SOL    HW213173   1.598   5.219   1.335
 4092SOL     OW13174   4.908   3.262   4.614
 4092SOL    HW113175   4.914   3.333   4.685
 4092SOL    HW213176   4.916   3.306   4.524
 4093SOL     OW13177   5.696   5.271   3.109
 4093SOL    HW113178   5.686   5.215   3.192
 4093SOL    HW213179   5.627   5.243   3.042
 4094SOL     OW13180   0.121   5.434   6.862
 4094SOL    HW113181   0.075   5.412   6.776
 4094SOL    HW213182   0.083   5.378   6.936
 4095SOL     OW13183   0.214   4.492   0.223
 4095SOL    HW113184   0.131   4.547   0.221
 4095SOL    HW213185   0.225   4.450   0.313
 4096SOL     OW13186   1.853   1.497   6.953
 4096SOL    HW113187   1.798   1.540   6.881
 4096SOL    HW213188   1.901   1.567   7.005
 4097SOL     OW13189   0.210   4.167   5.154
 4097SOL    HW113190   0.122   4.147   5.112
 4097SOL    HW213191   0.284   4.132   5.095
 4098SOL     OW13192   2.163   5.046   2.529
 4098SOL    HW113193   2.230   5.048   2.604
 4098SOL    HW213194   2.114   5.133   2.526
 4099SOL     OW13195   4.310   3.908   6.243
 4099SOL    HW113196   4.335   4.005   6.251
 4099SOL    HW213197   4.375   3.853   6.296
 4100SOL     OW13198   1.075   0.546   3.933
 4100SOL    HW113199   1.005   0.545   4.005
 4100SOL    HW213200   1.130   0.463   3.940
 4101SOL     OW13201   6.183   0.262   0.347
 4101SOL    HW113202   6.245   0.341   0.347
 4101SOL    HW213203   6.111   0.276   0.414
 4102SOL     OW13204   1.942   0.367   6.957
 4102SOL    HW113205   1.853   0.389   6.998
 4102SOL    HW213206   1.995   0.451   6.944
 4103SOL     OW13207   0.986   6.973   2.067
 4103SOL    HW113208   0.972   6.875   2.053
 4103SOL    HW213209   0.952   7.023   1.987
 4104SOL     OW13210   0.292   6.064   2.875
 4104SOL    HW113211   0.269   6.031   2.783
 4104SOL    HW213212   0.279   6.163   2.878
 4105SOL     OW13213   4.548   1.229   1.291
 4105SOL    HW113214   4.619   1.292   1.262
 4105SOL    HW213215   4.557   1.212   1.389
 4106SOL     OW13216   6.996   1.741   3.723
 4106SOL    HW113217   6.974   1.680   3.800
 4106SOL    HW213218   0.035   1.807   3.752
 4107SOL     OW13219   0.192   6.020   6.589
 4107SOL    HW113220   0.141   6.081   6.649
 4107SOL    HW213221   0.133   5.989   6.515
 4108SOL     OW13222   0.241   5.217   4.024
 4108SOL    HW113223   0.310   5.287   4.039
 4108SOL    HW213224   0.205   5.187   4.112
 4109SOL     OW13225   6.224   5.682   3.417
 4109SOL    HW113226   6.181   5.725   3.497
 4109SOL    HW213227   6.153   5.648   3.356
 4110SOL     OW13228   4.827   3.543   6.947
 4110SOL    HW113229   4.823   3.535   6.848
 4110SOL    HW213230   4.741   3.509   6.987
 4111SOL     OW13231   6.705   4.046   5.311
 4111SOL    HW113232   6.777   4.001   5.364
 4111SOL    HW213233   6.615   4.015   5.342
 4112SOL     OW13234   4.596   6.838   5.018
 4112SOL    HW113235   4.661   6.891   5.071
 4112SOL    HW213236   4.644   6.788   4.946
 4113SOL     OW13237   4.595   4.547   4.871
 4113SOL    HW113238   4.514   4.563   4.927
 4113SOL    HW213239   4.613   4.448   4.867
 4114SOL     OW13240   6.269   1.475   3.519
 4114SOL    HW113241   6.334   1.546   3.544
 4114SOL    HW213242   6.263   1.407   3.592
 4115SOL     OW13243   2.913   5.320   3.637
 4115SOL    HW113244   2.821   5.319   3.678
 4115SOL    HW213245   2.911   5.373   3.553
 4116SOL     OW13246   5.845   2.665   3.061
 4116SOL    HW113247   5.746   2.672   3.077
 4116SOL    HW213248   5.863   2.605   2.984
 4117SOL     OW13249   1.560   2.433   2.417
 4117SOL    HW113250   1.637   2.370   2.410
 4117SOL    HW213251   1.499   2.420   2.339
 4118SOL     OW13252   6.939   6.112   6.490
 4118SOL    HW113253   6.989   6.138   6.572
 4118SOL    HW213254   6.915   6.015   6.494
 4119SOL     OW13255   2.380   0.799   3.289
 4119SOL    HW113256   2.304   0.831   3.231
 4119SOL    HW213257   2.466   0.809   3.238
 4120SOL     OW13258   2.112   1.203   6.617
 4120SOL    HW113259   2.128   1.252   6.702
 4120SOL    HW213260   2.018   1.218   6.587
 4121SOL     OW13261   0.201   6.810   2.797
 4121SOL    HW113262   0.192   6.900   2.756
 4121SOL    HW213263   0.110   6.770   2.809
 4122SOL     OW13264   0.130   5.821   4.718
 4122SOL    HW113265   0.141   5.919   4.733
 4122SOL    HW213266   0.146   5.799   4.622
 4123SOL     OW13267   4.003   4.917   3.065
 4123SOL    HW113268   3.981   4.870   3.150
 4123SOL    HW213269   3.968   4.864   2.988
 4124SOL     OW13270   6.669   6.379   0.762
 4124SOL    HW113271   6.722   6.316   0.819
 4124SOL    HW213272   6.596   6.421   0.817
 4125SOL     OW13273   5.076   2.431   2.397
 4125SOL    HW113274   5.096   2.499   2.467
 4125SOL    HW213275   5.125   2.455   2.313
 4126SOL     OW13276   1.133   2.526   2.184
 4126SOL    HW113277   1.036   2.550   2.190
 4126SOL    HW213278   1.158   2.514   2.088
 4127SOL     OW13279   3.523   2.128   4.160
 4127SOL    HW113280   3.567   2.082   4.083
 4127SOL    HW213281   3.591   2.182   4.211
 4128SOL     OW13282   0.549   3.078   1.295
 4128SOL    HW113283   0.566   2.980   1.281
 4128SOL    HW213284   0.635   3.128   1.291
 4129SOL     OW13285   3.208   2.809   0.638
 4129SOL    HW113286   3.224   2.780   0.544
 4129SOL    HW213287   3.177   2.731   0.692
 4130SOL     OW13288   5.968   2.905   1.039
 4130SOL    HW113289   5.962   2.869   0.946
 4130SOL    HW213290   5.877   2.910   1.078
 4131SOL     OW13291   5.316   0.432   2.209
 4131SOL    HW113292   5.316   0.376   2.292
 4131SOL    HW213293   5.308   0.528   2.234
 4132SOL     OW13294   6.694   3.897   4.429
 4132SOL    HW113295   6.659   3.805   4.416
 4132SOL    HW213296   6.749   3.924   4.350
 4133SOL     OW13297   5.840   6.733   1.532
 4133SOL    HW113298   5.891   6.694   1.608
 4133SOL    HW213299   5.831   6.665   1.459
 4134SOL     OW13300   2.572   2.949   1.382
 4134SOL    HW113301   2.502   2.919   1.447
 4134SOL    HW213302   2.661   2.915   1.412
 4135SOL     OW13303   0.091   1.775   3.058
 4135SOL    HW113304   0.024   1.737   3.123
 4135SOL    HW213305   0.182   1.738   3.078
 4136SOL     OW13306   0.671   4.107   1.665
 4136SOL    HW113307   0.756   4.101   1.719
 4136SOL    HW213308   0.593   4.093   1.725
 4137SOL     OW13309   1.808   2.875   0.666
 4137SOL    HW113310   1.724   2.863   0.614
 4137SOL    HW213311   1.866   2.943   0.621
 4138SOL     OW13312   4.729   6.439   0.866
 4138SOL    HW113313   4.646   6.456   0.813
 4138SOL    HW213314   4.734   6.503   0.942
 4139SOL     OW13315   1.479   1.688   2.809
 4139SOL    HW113316   1.502   1.592   2.797
 4139SOL    HW213317   1.560   1.739   2.838
 4140SOL     OW13318   2.636   2.227   4.281
 4140SOL    HW113319   2.617   2.130   4.264
 4140SOL    HW213320   2.733   2.238   4.304
 4141SOL     OW13321   4.070   6.607   6.709
 4141SOL    HW113322   4.156   6.647   6.740
 4141SOL    HW213323   4.087   6.549   6.629
 4142SOL     OW13324   0.025   4.018   2.579
 4142SOL    HW113325   6.962   4.018   2.616
 4142SOL    HW213326   0.081   4.083   2.630
 4143SOL     OW13327   5.640   3.460   0.920
 4143SOL    HW113328   5.655   3.363   0.900
 4143SOL    HW213329   5.703   3.490   0.991
 4144SOL     OW13330   5.544   1.789   0.564
 4144SOL    HW113331   5.590   1.811   0.649
 4144SOL    HW213332   5.450   1.760   0.583
 4145SOL     OW13333   0.949   6.279   0.380
 4145SOL    HW113334   0.977   6.252   0.472
 4145SOL    HW213335   0.963   6.377   0.368
 4146SOL     OW13336   5.623   6.722   3.386
 4146SOL    HW113337   5.670   6.670   3.315
 4146SOL    HW213338   5.687   6.784   3.430
 4147SOL     OW13339   5.045   4.628   5.575
 4147SOL    HW113340   4.973   4.597   5.638
 4147SOL    HW213341   5.072   4.721   5.600
 4148SOL     OW13342   2.931   0.405   4.805
 4148SOL    HW113343   2.920   0.334   4.875
 4148SOL    HW213344   2.913   0.366   4.715
 4149SOL     OW13345   1.985   3.192   1.041
 4149SOL    HW113346   2.036   3.184   0.955
 4149SOL    HW213347   2.040   3.241   1.109
 4150SOL     OW13348   6.433   2.776   6.093
 4150SOL    HW113349   6.365   2.829   6.042
 4150SOL    HW213350   6.406   2.679   6.092
 4151SOL     OW13351   1.929   6.999   4.647
 4151SOL    HW113352   1.893   0.060   4.668
 4151SOL    HW213353   1.932   6.944   4.730
 4152SOL     OW13354   3.599   5.446   1.744
 4152SOL    HW113355   3.675   5.504   1.772
 4152SOL    HW213356   3.554   5.486   1.664
 4153SOL     OW13357   6.775   4.925   1.719
 4153SOL    HW113358   6.863   4.927   1.671
 4153SOL    HW213359   6.790   4.944   1.816
 4154SOL     OW13360   0.111   5.969   4.012
 4154SOL    HW113361   0.180   5.982   3.940
 4154SOL    HW213362   0.073   6.057   4.038
 4155SOL     OW13363   0.668   2.495   1.466
 4155SOL    HW113364   0.759   2.497   1.424
 4155SOL    HW213365   0.599   2.517   1.397
 4156SOL     OW13366   6.587   4.678   4.933
 4156SOL    HW113367   6.508   4.693   4.992
 4156SOL    HW213368   6.629   4.767   4.911
 4157SOL     OW13369   6.914   6.717   2.261
 4157SOL    HW113370   6.823   6.680   2.243
 4157SOL    HW213371   6.970   6.648   2.305
 4158SOL     OW13372   2.216   2.569   1.865
 4158SOL    HW113373   2.294   2.509   1.847
 4158SOL    HW213374   2.160   2.577   1.783
 4159SOL     OW13375   2.862   1.631   2.984
 4159SOL    HW113376   2.851   1.588   3.073
 4159SOL    HW213377   2.773   1.636   2.938
 4160SOL     OW13378   6.696   6.685   6.955
 4160SOL    HW113379   6.684   6.650   6.862
 4160SOL    HW213380   6.788   6.722   6.965
 4161SOL     OW13381   2.091   1.555   1.272
 4161SOL    HW113382   2.153   1.631   1.290
 4161SOL    HW213383   2.034   1.576   1.193
 4162SOL     OW13384   6.202   6.186   1.151
 4162SOL    HW113385   6.258   6.168   1.071
 4162SOL    HW213386   6.107   6.202   1.122
 4163SOL     OW13387   4.619   6.598   1.845
 4163SOL    HW113388   4.675   6.656   1.785
 4163SOL    HW213389   4.677   6.528   1.887
 4164SOL     OW13390   6.993   6.272   5.326
 4164SOL    HW113391   0.018   6.202   5.280
 4164SOL    HW213392   0.024   6.337   5.372
 4165SOL     OW13393   3.780   1.134   5.749
 4165SOL    HW113394   3.792   1.072   5.827
 4165SOL    HW213395   3.869   1.169   5.720
 4166SOL     OW13396   5.599   0.801   2.763
 4166SOL    HW113397   5.677   0.776   2.821
 4166SOL    HW213398   5.597   0.901   2.752
 4167SOL     OW13399   2.966   5.016   5.490
 4167SOL    HW113400   3.027   5.018   5.411
 4167SOL    HW213401   3.007   4.963   5.564
 4168SOL     OW13402   6.979   4.686   0.480
 4168SOL    HW113403   6.909   4.628   0.522
 4168SOL    HW213404   0.023   4.629   0.445
 4169SOL     OW13405   5.232   4.108   5.152
 4169SOL    HW113406   5.185   4.046   5.215
 4169SOL    HW213407   5.276   4.056   5.079
 4170SOL     OW13408   4.812   3.002   4.604
 4170SOL    HW113409   4.738   3.000   4.536
 4170SOL    HW213410   4.848   3.095   4.611
 4171SOL     OW13411   1.503   4.040   1.185
 4171SOL    HW113412   1.426   4.060   1.124
 4171SOL    HW213413   1.494   4.094   1.268
 4172SOL     OW13414   3.665   3.465   0.963
 4172SOL    HW113415   3.650   3.482   0.866
 4172SOL    HW213416   3.577   3.467   1.011
 4173SOL     OW13417   4.267   2.868   5.625
 4173SOL    HW113418   4.250   2.795   5.690
 4173SOL    HW213419   4.258   2.832   5.532
 4174SOL     OW13420   4.560   0.267   3.708
 4174SOL    HW113421   4.659   0.277   3.712
 4174SOL    HW213422   4.517   0.338   3.763
 4175SOL     OW13423   1.979   4.734   6.173
 4175SOL    HW113424   2.043   4.772   6.106
 4175SOL    HW213425   1.887   4.768   6.156
 4176SOL     OW13426   5.194   6.536   0.196
 4176SOL    HW113427   5.132   6.472   0.151
 4176SOL    HW213428   5.211   6.613   0.135
 4177SOL     OW13429   5.051   4.754   4.891
 4177SOL    HW113430   5.097   4.722   4.973
 4177SOL    HW213431   4.957   4.719   4.889
 4178SOL     OW13432   4.302   6.664   2.671
 4178SOL    HW113433   4.224   6.624   2.622
 4178SOL    HW213434   4.385   6.652   2.616
 4179SOL     OW13435   5.486   3.640   3.844
 4179SOL    HW113436   5.421   3.650   3.919
 4179SOL    HW213437   5.543   3.559   3.860
 4180SOL     OW13438   5.724   3.333   0.572
 4180SOL    HW113439   5.725   3.353   0.474
 4180SOL    HW213440   5.796   3.267   0.594
 4181SOL     OW13441   5.240   0.263   6.244
 4181SOL    HW113442   5.221   0.272   6.146
 4181SOL    HW213443   5.249   0.353   6.285
 4182SOL     OW13444   0.433   5.813   3.816
 4182SOL    HW113445   0.367   5.888   3.823
 4182SOL    HW213446   0.420   5.750   3.892
 4183SOL     OW13447   1.915   1.389   1.465
 4183SOL    HW113448   1.977   1.462   1.433
 4183SOL    HW213449   1.936   1.304   1.418
 4184SOL     OW13450   3.849   0.678   2.068
 4184SOL    HW113451   3.916   0.613   2.105
 4184SOL    HW213452   3.831   0.749   2.136
 4185SOL     OW13453   0.593   4.090   3.719
 4185SOL    HW113454   0.575   4.170   3.662
 4185SOL    HW213455   0.583   4.007   3.665
 4186SOL     OW13456   2.478   5.611   6.819
 4186SOL    HW113457   2.507   5.554   6.895
 4186SOL    HW213458   2.397   5.663   6.845
 4187SOL     OW13459   1.889   3.571   6.823
 4187SOL    HW113460   1.985   3.555   6.842
 4187SOL    HW213461   1.880   3.633   6.744
 4188SOL     OW13462   5.778   0.896   5.113
 4188SOL    HW113463   5.825   0.809   5.118
 4188SOL    HW213464   5.683   0.882   5.084
 4189SOL     OW13465   4.291   5.469   3.530
 4189SOL    HW113466   4.211   5.421   3.493
 4189SOL    HW213467   4.287   5.565   3.502
 4190SOL     OW13468   0.358   6.305   0.847
 4190SOL    HW113469   0.284   6.239   0.860
 4190SOL    HW213470   0.340   6.359   0.765
 4191SOL     OW13471   5.312   3.946   6.685
 4191SOL    HW113472   5.254   3.985   6.613
 4191SOL    HW213473   5.326   3.849   6.667
 4192SOL     OW13474   0.759   1.719   2.351
 4192SOL    HW113475   0.692   1.671   2.408
 4192SOL    HW213476   0.720   1.733   2.260
 4193SOL     OW13477   5.523   0.301   0.138
 4193SOL    HW113478   5.452   0.313   0.069
 4193SOL    HW213479   5.591   0.374   0.130
 4194SOL     OW13480   4.325   0.306   5.148
 4194SOL    HW113481   4.422   0.323   5.165
 4194SOL    HW213482   4.311   0.212   5.118
 4195SOL     OW13483   4.189   6.688   1.325
 4195SOL    HW113484   4.274   6.716   1.369
 4195SOL    HW213485   4.125   6.655   1.394
 4196SOL     OW13486   0.302   2.685   3.947
 4196SOL    HW113487   0.355   2.726   3.873
 4196SOL    HW213488   0.350   2.604   3.981
 4197SOL     OW13489   4.164   5.920   5.553
 4197SOL    HW113490   4.113   5.964   5.627
 4197SOL    HW213491   4.224   5.849   5.591
 4198SOL     OW13492   6.357   0.967   2.394
 4198SOL    HW113493   6.317   1.015   2.316
 4198SOL    HW213494   6.426   0.903   2.361
 4199SOL     OW13495   1.500   3.551   6.232
 4199SOL    HW113496   1.463   3.554   6.325
 4199SOL    HW213497   1.434   3.504   6.172
 4200SOL     OW13498   3.533   0.745   5.788
 4200SOL    HW113499   3.562   0.717   5.696
 4200SOL    HW213500   3.569   0.680   5.855
 4201SOL     OW13501   6.088   6.906   3.605
 4201SOL    HW113502   6.107   6.813   3.636
 4201SOL    HW213503   6.146   6.926   3.526
 4202SOL     OW13504   3.650   5.597   6.872
 4202SOL    HW113505   3.631   5.625   6.779
 4202SOL    HW213506   3.608   5.662   6.936
 4203SOL     OW13507   5.020   5.095   0.514
 4203SOL    HW113508   5.074   5.118   0.433
 4203SOL    HW213509   4.958   5.020   0.493
 4204SOL     OW13510   3.883   3.353   5.494
 4204SOL    HW113511   3.791   3.323   5.471
 4204SOL    HW213512   3.885   3.452   5.504
 4205SOL     OW13513   3.624   5.395   5.143
 4205SOL    HW113514   3.677   5.462   5.090
 4205SOL    HW213515   3.527   5.416   5.135
 4206SOL     OW13516   0.348   1.483   5.014
 4206SOL    HW113517   0.289   1.468   4.935
 4206SOL    HW213518   0.394   1.397   5.038
 4207SOL     OW13519   2.635   2.429   1.381
 4207SOL    HW113520   2.571   2.353   1.393
 4207SOL    HW213521   2.624   2.468   1.289
 4208SOL     OW13522   1.021   3.633   5.455
 4208SOL    HW113523   1.001   3.536   5.473
 4208SOL    HW213524   1.037   3.645   5.357
 4209SOL     OW13525   6.512   5.850   3.067
 4209SOL    HW113526   6.563   5.936   3.072
 4209SOL    HW213527   6.446   5.846   3.142
 4210SOL     OW13528   3.822   3.042   3.525
 4210SOL    HW113529   3.743   2.995   3.486
 4210SOL    HW213530   3.876   3.083   3.451
 4211SOL     OW13531   3.748   1.963   5.273
 4211SOL    HW113532   3.799   2.014   5.204
 4211SOL    HW213533   3.709   2.026   5.340
 4212SOL     OW13534   6.709   1.815   3.824
 4212SOL    HW113535   6.759   1.742   3.872
 4212SOL    HW213536   6.775   1.874   3.777
 4213SOL     OW13537   2.608   0.679   3.518
 4213SOL    HW113538   2.612   0.691   3.419
 4213SOL    HW213539   2.600   0.582   3.540
 4214SOL     OW13540   0.171   6.005   4.995
 4214SOL    HW113541   0.180   6.066   5.073
 4214SOL    HW213542   0.157   6.058   4.912
 4215SOL     OW13543   5.091   0.072   5.560
 4215SOL    HW113544   4.994   0.053   5.544
 4215SOL    HW213545   5.141   0.067   5.473
 4216SOL     OW13546   1.640   0.708   2.417
 4216SOL    HW113547   1.716   0.709   2.353
 4216SOL    HW213548   1.613   0.613   2.436
 4217SOL     OW13549   1.200   0.135   1.755
 4217SOL    HW113550   1.236   0.044   1.731
 4217SOL    HW213551   1.137   0.166   1.684
 4218SOL     OW13552   3.263   0.653   1.055
 4218SOL    HW113553   3.297   0.747   1.045
 4218SOL    HW213554   3.316   0.592   0.997
 4219SOL     OW13555   4.268   6.472   4.122
 4219SOL    HW113556   4.232   6.563   4.142
 4219SOL    HW213557   4.288   6.424   4.208
 4220SOL     OW13558   5.825   2.697   2.225
 4220SOL    HW113559   5.737   2.678   2.269
 4220SOL    HW213560   5.892   2.722   2.295
 4221SOL     OW13561   6.653   4.516   6.672
 4221SOL    HW113562   6.601   4.564   6.601
 4221SOL    HW213563   6.608   4.429   6.694
 4222SOL     OW13564   5.934   1.574   3.853
 4222SOL    HW113565   5.966   1.648   3.912
 4222SOL    HW213566   5.900   1.612   3.767
 4223SOL     OW13567   3.897   3.750   1.043
 4223SOL    HW113568   3.878   3.659   1.080
 4223SOL    HW213569   3.827   3.814   1.076
 4224SOL     OW13570   5.126   4.537   5.070
 4224SOL    HW113571   5.028   4.519   5.084
 4224SOL    HW213572   5.174   4.526   5.157
 4225SOL     OW13573   1.643   1.983   5.500
 4225SOL    HW113574   1.587   1.974   5.583
 4225SOL    HW213575   1.587   2.018   5.425
 4226SOL     OW13576   0.992   6.576   3.867
 4226SOL    HW113577   0.911   6.548   3.814
 4226SOL    HW213578   1.052   6.632   3.810
 4227SOL     OW13579   4.998   5.779   1.778
 4227SOL    HW113580   5.030   5.685   1.786
 4227SOL    HW213581   5.026   5.817   1.690
 4228SOL     OW13582   0.577   5.729   5.462
 4228SOL    HW113583   0.565   5.746   5.559
 4228SOL    HW213584   0.541   5.806   5.409
 4229SOL     OW13585   4.390   5.907   5.854
 4229SOL    HW113586   4.372   6.002   5.827
 4229SOL    HW213587   4.488   5.895   5.869
 4230SOL     OW13588   0.467   6.593   2.956
 4230SOL    HW113589   0.471   6.691   2.978
 4230SOL    HW213590   0.378   6.573   2.915
 4231SOL     OW13591   4.938   0.357   5.646
 4231SOL    HW113592   5.032   0.386   5.662
 4231SOL    HW213593   4.937   0.289   5.572
 4232SOL     OW13594   1.808   5.436   3.737
 4232SOL    HW113595   1.817   5.361   3.671
 4232SOL    HW213596   1.880   5.430   3.805
 4233SOL     OW13597   0.086   6.961   4.904
 4233SOL    HW113598   0.123   0.021   4.879
 4233SOL    HW213599   0.018   6.933   4.836
 4234SOL     OW13600   2.085   5.087   5.428
 4234SOL    HW113601   2.159   5.053   5.370
 4234SOL    HW213602   1.997   5.051   5.396
 4235SOL     OW13603   6.560   4.950   5.491
 4235SOL    HW113604   6.643   4.897   5.503
 4235SOL    HW213605   6.534   4.992   5.578
 4236SOL     OW13606   0.054   4.537   1.835
 4236SOL    HW113607   6.995   4.532   1.789
 4236SOL    HW213608   0.124   4.566   1.769
 4237SOL     OW13609   6.392   3.969   4.357
 4237SOL    HW113610   6.431   4.045   4.304
 4237SOL    HW213611   6.404   3.884   4.306
 4238SOL     OW13612   1.096   0.827   3.551
 4238SOL    HW113613   1.000   0.826   3.579
 4238SOL    HW213614   1.102   0.814   3.452
 4239SOL     OW13615   4.219   0.990   2.410
 4239SOL    HW113616   4.193   0.986   2.314
 4239SOL    HW213617   4.199   1.081   2.447
 4240SOL     OW13618   2.497   5.018   7.000
 4240SOL    HW113619   2.463   4.924   7.000
 4240SOL    HW213620   2.421   5.081   7.016
 4241SOL     OW13621   5.321   1.304   0.077
 4241SOL    HW113622   5.347   1.400   0.068
 4241SOL    HW213623   5.252   1.294   0.148
 4242SOL     OW13624   2.097   1.867   4.393
 4242SOL    HW113625   2.007   1.909   4.401
 4242SOL    HW213626   2.157   1.927   4.340
 4243SOL     OW13627   4.982   1.642   2.638
 4243SOL    HW113628   5.060   1.587   2.664
 4243SOL    HW213629   4.898   1.588   2.646
 4244SOL     OW13630   3.420   4.001   1.531
 4244SOL    HW113631   3.362   3.921   1.511
 4244SOL    HW213632   3.513   3.970   1.549
 4245SOL     OW13633   6.528   1.768   6.823
 4245SOL    HW113634   6.561   1.812   6.906
 4245SOL    HW213635   6.577   1.805   6.744
 4246SOL     OW13636   6.467   4.285   3.219
 4246SOL    HW113637   6.462   4.199   3.270
 4246SOL    HW213638   6.562   4.316   3.214
 4247SOL     OW13639   1.002   6.290   3.689
 4247SOL    HW113640   1.063   6.331   3.621
 4247SOL    HW213641   0.988   6.354   3.764
 4248SOL     OW13642   2.336   1.784   4.716
 4248SOL    HW113643   2.344   1.843   4.796
 4248SOL    HW213644   2.240   1.764   4.699
 4249SOL     OW13645   6.200   3.237   5.138
 4249SOL    HW113646   6.174   3.205   5.047
 4249SOL    HW213647   6.208   3.337   5.138
 4250SOL     OW13648   0.412   4.772   3.183
 4250SOL    HW113649   0.390   4.786   3.086
 4250SOL    HW213650   0.512   4.768   3.194
 4251SOL     OW13651   5.938   5.070   0.447
 4251SOL    HW113652   5.974   5.041   0.536
 4251SOL    HW213653   6.006   5.051   0.376
 4252SOL     OW13654   6.665   6.761   5.437
 4252SOL    HW113655   6.676   6.711   5.524
 4252SOL    HW213656   6.612   6.705   5.373
 4253SOL     OW13657   2.947   0.395   1.905
 4253SOL    HW113658   2.985   0.303   1.900
 4253SOL    HW213659   2.946   0.435   1.813
 4254SOL     OW13660   1.172   2.971   1.510
 4254SOL    HW113661   1.121   2.897   1.555
 4254SOL    HW213662   1.270   2.958   1.526
 4255SOL     OW13663   6.023   2.849   3.164
 4255SOL    HW113664   5.958   2.793   3.112
 4255SOL    HW213665   5.995   2.945   3.160
 4256SOL     OW13666   1.278   6.617   0.736
 4256SOL    HW113667   1.218   6.543   0.767
 4256SOL    HW213668   1.370   6.580   0.719
 4257SOL     OW13669   3.809   0.584   5.113
 4257SOL    HW113670   3.830   0.527   5.193
 4257SOL    HW213671   3.894   0.608   5.066
 4258SOL     OW13672   5.970   6.590   1.754
 4258SOL    HW113673   5.921   6.576   1.840
 4258SOL    HW213674   5.983   6.502   1.708
 4259SOL     OW13675   3.116   0.991   6.372
 4259SOL    HW113676   3.135   0.895   6.391
 4259SOL    HW213677   3.109   1.005   6.273
 4260SOL     OW13678   4.970   6.241   4.608
 4260SOL    HW113679   5.040   6.233   4.678
 4260SOL    HW213680   4.998   6.193   4.525
 4261SOL     OW13681   2.014   0.820   1.654
 4261SOL    HW113682   2.110   0.821   1.681
 4261SOL    HW213683   2.004   0.768   1.569
 4262SOL     OW13684   0.930   4.535   5.663
 4262SOL    HW113685   1.000   4.526   5.593
 4262SOL    HW213686   0.966   4.505   5.751
 4263SOL     OW13687   2.512   6.226   3.676
 4263SOL    HW113688   2.601   6.180   3.670
 4263SOL    HW213689   2.486   6.260   3.587
 4264SOL     OW13690   6.988   1.831   2.355
 4264SOL    HW113691   6.955   1.737   2.346
 4264SOL    HW213692   0.040   1.843   2.299
 4265SOL     OW13693   5.352   1.598   6.866
 4265SOL    HW113694   5.270   1.651   6.846
 4265SOL    HW213695   5.431   1.643   6.826
 4266SOL     OW13696   2.050   5.168   1.012
 4266SOL    HW113697   2.065   5.225   1.092
 4266SOL    HW213698   2.099   5.081   1.023
 4267SOL     OW13699   2.064   3.871   4.863
 4267SOL    HW113700   2.045   3.790   4.918
 4267SOL    HW213701   2.162   3.890   4.862
 4268SOL     OW13702   1.747   0.094   6.769
 4268SOL    HW113703   1.767   0.076   6.865
 4268SOL    HW213704   1.829   0.079   6.714
 4269SOL     OW13705   2.109   1.591   0.469
 4269SOL    HW113706   2.165   1.560   0.545
 4269SOL    HW213707   2.142   1.550   0.384
 4270SOL     OW13708   3.034   3.849   4.048
 4270SOL    HW113709   3.053   3.947   4.058
 4270SOL    HW213710   3.036   3.824   3.951
 4271SOL     OW13711   0.097   0.669   6.233
 4271SOL    HW113712   0.076   0.761   6.266
 4271SOL    HW213713   0.013   0.625   6.201
 4272SOL     OW13714   0.540   4.538   4.877
 4272SOL    HW113715   0.494   4.526   4.789
 4272SOL    HW213716   0.479   4.586   4.940
 4273SOL     OW13717   4.761   6.385   4.021
 4273SOL    HW113718   4.786   6.452   3.952
 4273SOL    HW213719   4.663   6.367   4.017
 4274SOL     OW13720   1.188   0.239   2.626
 4274SOL    HW113721   1.151   0.331   2.609
 4274SOL    HW213722   1.253   0.243   2.701
 4275SOL     OW13723   6.732   1.562   5.638
 4275SOL    HW113724   6.811   1.572   5.698
 4275SOL    HW213725   6.654   1.528   5.692
 4276SOL     OW13726   1.494   4.982   3.286
 4276SOL    HW113727   1.515   5.052   3.218
 4276SOL    HW213728   1.429   5.018   3.352
 4277SOL     OW13729   7.001   4.555   4.425
 4277SOL    HW113730   0.002   4.479   4.483
 4277SOL    HW213731   6.918   4.528   4.378
 4278SOL     OW13732   6.998   0.613   4.850
 4278SOL    HW113733   0.017   0.640   4.766
 4278SOL    HW213734   0.026   0.634   4.929
 4279SOL     OW13735   3.283   6.211   5.392
 4279SOL    HW113736   3.349   6.139   5.371
 4279SOL    HW213737   3.227   6.229   5.311
 4280SOL     OW13738   5.186   1.393   5.268
 4280SOL    HW113739   5.169   1.336   5.348
 4280SOL    HW213740   5.274   1.369   5.228
 4281SOL     OW13741   2.429   4.777   4.469
 4281SOL    HW113742   2.456   4.692   4.423
 4281SOL    HW213743   2.347   4.814   4.425
 4282SOL     OW13744   2.824   2.604   0.182
 4282SOL    HW113745   2.781   2.565   0.101
 4282SOL    HW213746   2.754   2.623   0.251
 4283SOL     OW13747   1.478   0.596   3.776
 4283SOL    HW113748   1.388   0.617   3.736
 4283SOL    HW213749   1.550   0.619   3.710
 4284SOL     OW13750   5.182   5.828   1.985
 4284SOL    HW113751   5.127   5.787   2.058
 4284SOL    HW213752   5.145   5.801   1.896
 4285SOL     OW13753   0.260   0.233   6.116
 4285SOL    HW113754   0.336   0.275   6.166
 4285SOL    HW213755   0.248   0.281   6.028
 4286SOL     OW13756   5.307   5.274   6.575
 4286SOL    HW113757   5.218   5.242   6.606
 4286SOL    HW213758   5.358   5.197   6.535
 4287SOL     OW13759   5.777   0.594   6.216
 4287SOL    HW113760   5.833   0.661   6.167
 4287SOL    HW213761   5.775   0.508   6.165
 4288SOL     OW13762   0.711   5.779   3.117
 4288SOL    HW113763   0.801   5.736   3.102
 4288SOL    HW213764   0.658   5.775   3.032
 4289SOL     OW13765   6.213   2.995   1.106
 4289SOL    HW113766   6.120   2.963   1.089
 4289SOL    HW213767   6.212   3.077   1.163
 4290SOL     OW13768   2.217   6.610   1.271
 4290SOL    HW113769   2.152   6.594   1.196
 4290SOL    HW213770   2.225   6.708   1.288
 4291SOL     OW13771   4.623   3.613   1.661
 4291SOL    HW113772   4.599   3.697   1.612
 4291SOL    HW213773   4.545   3.551   1.661
 4292SOL     OW13774   6.639   4.607   5.761
 4292SOL    HW113775   6.699   4.528   5.768
 4292SOL    HW213776   6.564   4.599   5.828
 4293SOL     OW13777   6.950   3.393   0.083
 4293SOL    HW113778   6.924   3.487   0.059
 4293SOL    HW213779   7.030   3.366   0.028
 4294SOL     OW13780   4.220   2.972   0.245
 4294SOL    HW113781   4.169   3.000   0.163
 4294SOL    HW213782   4.196   2.878   0.268
 4295SOL     OW13783   3.337   6.272   4.882
 4295SOL    HW113784   3.377   6.195   4.933
 4295SOL    HW213785   3.308   6.241   4.792
 4296SOL     OW13786   3.313   1.581   0.070
 4296SOL    HW113787   3.262   1.495   0.069
 4296SOL    HW213788   3.282   1.638   0.146
 4297SOL     OW13789   5.557   0.416   5.870
 4297SOL    HW113790   5.543   0.347   5.798
 4297SOL    HW213791   5.608   0.375   5.945
 4298SOL     OW13792   2.492   5.524   6.538
 4298SOL    HW113793   2.483   5.501   6.635
 4298SOL    HW213794   2.440   5.458   6.483
 4299SOL     OW13795   0.733   2.526   6.653
 4299SOL    HW113796   0.697   2.525   6.747
 4299SOL    HW213797   0.656   2.530   6.589
 4300SOL     OW13798   2.997   1.335   6.532
 4300SOL    HW113799   3.044   1.365   6.449
 4300SOL    HW213800   3.052   1.266   6.579
 4301SOL     OW13801   2.361   1.232   0.626
 4301SOL    HW113802   2.341   1.168   0.700
 4301SOL    HW213803   2.349   1.186   0.538
 4302SOL     OW13804   0.634   6.381   5.619
 4302SOL    HW113805   0.607   6.326   5.698
 4302SOL    HW213806   0.664   6.321   5.546
 4303SOL     OW13807   6.206   4.560   4.102
 4303SOL    HW113808   6.298   4.550   4.065
 4303SOL    HW213809   6.192   4.654   4.131
 4304SOL     OW13810   3.300   3.922   4.319
 4304SOL    HW113811   3.261   3.882   4.236
 4304SOL    HW213812   3.354   3.852   4.366
 4305SOL     OW13813   6.243   1.272   3.683
 4305SOL    HW113814   6.177   1.212   3.727
 4305SOL    HW213815   6.336   1.249   3.714
 4306SOL     OW13816   6.537   3.724   6.598
 4306SOL    HW113817   6.526   3.819   6.626
 4306SOL    HW213818   6.467   3.668   6.641
 4307SOL     OW13819   4.761   4.258   6.385
 4307SOL    HW113820   4.765   4.180   6.447
 4307SOL    HW213821   4.846   4.310   6.391
 4308SOL     OW13822   5.288   5.519   5.809
 4308SOL    HW113823   5.298   5.457   5.731
 4308SOL    HW213824   5.374   5.523   5.860
 4309SOL     OW13825   0.763   0.685   0.185
 4309SOL    HW113826   0.755   0.646   0.277
 4309SOL    HW213827   0.692   0.645   0.126
 4310SOL     OW13828   1.826   2.657   3.526
 4310SOL    HW113829   1.873   2.642   3.613
 4310SOL    HW213830   1.730   2.679   3.544
 4311SOL     OW13831   1.151   5.606   2.794
 4311SOL    HW113832   1.150   5.596   2.894
 4311SOL    HW213833   1.100   5.688   2.768
 4312SOL     OW13834   1.797   5.281   1.570
 4312SOL    HW113835   1.819   5.377   1.557
 4312SOL    HW213836   1.809   5.232   1.483
 4313SOL     OW13837   5.152   1.690   2.060
 4313SOL    HW113838   5.202   1.773   2.085
 4313SOL    HW213839   5.064   1.715   2.019
 4314SOL     OW13840   5.230   2.439   3.451
 4314SOL    HW113841   5.218   2.343   3.426
 4314SOL    HW213842   5.145   2.489   3.435
 4315SOL     OW13843   2.009   0.832   1.968
 4315SOL    HW113844   2.064   0.761   1.925
 4315SOL    HW213845   1.925   0.845   1.917
 4316SOL     OW13846   5.020   0.363   0.977
 4316SOL    HW113847   5.049   0.449   1.018
 4316SOL    HW213848   4.922   0.349   0.993
 4317SOL     OW13849   3.345   1.253   4.983
 4317SOL    HW113850   3.440   1.254   4.951
 4317SOL    HW213851   3.293   1.186   4.929
 4318SOL     OW13852   1.161   3.301   3.391
 4318SOL    HW113853   1.233   3.279   3.325
 4318SOL    HW213854   1.081   3.336   3.343
 4319SOL     OW13855   2.378   2.650   0.398
 4319SOL    HW113856   2.365   2.551   0.391
 4319SOL    HW213857   2.308   2.696   0.343
 4320SOL     OW13858   1.328   6.194   1.792
 4320SOL    HW113859   1.380   6.116   1.755
 4320SOL    HW213860   1.390   6.253   1.844
 4321SOL     OW13861   6.677   0.309   4.345
 4321SOL    HW113862   6.674   0.361   4.260
 4321SOL    HW213863   6.740   0.352   4.409
 4322SOL     OW13864   6.102   1.106   6.710
 4322SOL    HW113865   6.092   1.045   6.632
 4322SOL    HW213866   6.050   1.190   6.694
 4323SOL     OW13867   5.670   3.877   1.872
 4323SOL    HW113868   5.596   3.815   1.899
 4323SOL    HW213869   5.633   3.969   1.860
 4324SOL     OW13870   5.601   4.786   6.837
 4324SOL    HW113871   5.521   4.815   6.784
 4324SOL    HW213872   5.650   4.716   6.786
 4325SOL     OW13873   0.886   0.770   7.008
 4325SOL    HW113874   0.839   0.741   0.061
 4325SOL    HW213875   0.843   0.852   6.971
 4326SOL     OW13876   6.110   2.754   5.166
 4326SOL    HW113877   6.119   2.670   5.220
 4326SOL    HW213878   6.015   2.786   5.168
 4327SOL     OW13879   6.075   5.315   2.448
 4327SOL    HW113880   6.019   5.301   2.529
 4327SOL    HW213881   6.018   5.314   2.367
 4328SOL     OW13882   5.022   4.116   6.201
 4328SOL    HW113883   5.089   4.042   6.191
 4328SOL    HW213884   5.034   4.159   6.291
 4329SOL     OW13885   3.638   1.914   6.115
 4329SOL    HW113886   3.659   1.832   6.062
 4329SOL    HW213887   3.542   1.940   6.099
 4330SOL     OW13888   3.212   0.784   4.915
 4330SOL    HW113889   3.154   0.721   4.862
 4330SOL    HW213890   3.228   0.746   5.006
 4331SOL     OW13891   5.288   3.162   1.080
 4331SOL    HW113892   5.291   3.239   1.144
 4331SOL    HW213893   5.298   3.196   0.986
 4332SOL     OW13894   5.692   4.343   2.340
 4332SOL    HW113895   5.773   4.395   2.316
 4332SOL    HW213896   5.652   4.303   2.257
 4333SOL     OW13897   4.176   1.495   5.320
 4333SOL    HW113898   4.172   1.581   5.271
 4333SOL    HW213899   4.251   1.498   5.387
 4334SOL     OW13900   2.505   2.059   2.629
 4334SOL    HW113901   2.557   1.993   2.683
 4334SOL    HW213902   2.462   2.126   2.689
 4335SOL     OW13903   3.380   4.080   3.593
 4335SOL    HW113904   3.372   4.120   3.502
 4335SOL    HW213905   3.475   4.083   3.623
 4336SOL     OW13906   0.743   6.499   5.949
 4336SOL    HW113907   0.779   6.556   5.876
 4336SOL    HW213908   0.802   6.507   6.030
 4337SOL     OW13909   1.691   4.767   0.247
 4337SOL    HW113910   1.679   4.672   0.219
 4337SOL    HW213911   1.702   4.771   0.346
 4338SOL     OW13912   4.594   5.931   4.358
 4338SOL    HW113913   4.598   6.000   4.287
 4338SOL    HW213914   4.575   5.975   4.446
 4339SOL     OW13915   5.527   3.239   5.076
 4339SOL    HW113916   5.453   3.196   5.025
 4339SOL    HW213917   5.586   3.169   5.115
 4340SOL     OW13918   6.133   4.413   2.883
 4340SOL    HW113919   6.081   4.393   2.966
 4340SOL    HW213920   6.089   4.369   2.805
 4341SOL     OW13921   0.837   4.938   1.989
 4341SOL    HW113922   0.813   5.032   2.013
 4341SOL    HW213923   0.874   4.935   1.896
 4342SOL     OW13924   0.014   3.225   4.191
 4342SOL    HW113925   7.003   3.134   4.197
 4342SOL    HW213926   6.972   3.295   4.199
 4343SOL     OW13927   2.277   6.659   6.312
 4343SOL    HW113928   2.262   6.708   6.226
 4343SOL    HW213929   2.219   6.578   6.314
 4344SOL     OW13930   2.074   5.618   2.887
 4344SOL    HW113931   2.151   5.569   2.845
 4344SOL    HW213932   2.098   5.714   2.899
 4345SOL     OW13933   1.798   2.722   5.745
 4345SOL    HW113934   1.781   2.820   5.747
 4345SOL    HW213935   1.809   2.692   5.650
 4346SOL     OW13936   2.065   3.227   1.684
 4346SOL    HW113937   2.035   3.311   1.728
 4346SOL    HW213938   2.165   3.220   1.689
 4347SOL     OW13939   6.059   1.182   2.135
 4347SOL    HW113940   6.048   1.143   2.044
 4347SOL    HW213941   5.977   1.165   2.189
 4348SOL     OW13942   0.476   3.177   2.326
 4348SOL    HW113943   0.406   3.129   2.379
 4348SOL    HW213944   0.506   3.258   2.375
 4349SOL     OW13945   6.825   1.966   3.212
 4349SOL    HW113946   6.837   2.003   3.304
 4349SOL    HW213947   6.840   1.867   3.213
 4350SOL     OW13948   4.965   1.998   4.326
 4350SOL    HW113949   5.020   2.064   4.378
 4350SOL    HW213950   4.911   2.046   4.257
 4351SOL     OW13951   2.257   6.322   0.652
 4351SOL    HW113952   2.213   6.244   0.697
 4351SOL    HW213953   2.222   6.407   0.690
 4352SOL     OW13954   1.149   2.544   1.901
 4352SOL    HW113955   1.245   2.553   1.874
 4352SOL    HW213956   1.106   2.470   1.849
 4353SOL     OW13957   2.939   4.861   0.618
 4353SOL    HW113958   2.943   4.761   0.629
 4353SOL    HW213959   3.023   4.902   0.652
 4354SOL     OW13960   2.211   6.391   5.792
 4354SOL    HW113961   2.165   6.310   5.755
 4354SOL    HW213962   2.304   6.367   5.820
 4355SOL     OW13963   3.602   6.683   1.781
 4355SOL    HW113964   3.505   6.660   1.784
 4355SOL    HW213965   3.615   6.773   1.740
 4356SOL     OW13966   4.718   4.130   1.858
 4356SOL    HW113967   4.791   4.199   1.860
 4356SOL    HW213968   4.631   4.175   1.878
 4357SOL     OW13969   6.083   0.272   0.042
 4357SOL    HW113970   6.026   0.194   0.016
 4357SOL    HW213971   6.072   0.290   0.140
 4358SOL     OW13972   6.705   5.885   0.701
 4358SOL    HW113973   6.740   5.893   0.607
 4358SOL    HW213974   6.779   5.857   0.762
 4359SOL     OW13975   1.326   1.730   5.272
 4359SOL    HW113976   1.350   1.781   5.189
 4359SOL    HW213977   1.367   1.638   5.267
 4360SOL     OW13978   1.860   3.369   2.338
 4360SOL    HW113979   1.826   3.452   2.383
 4360SOL    HW213980   1.928   3.394   2.269
 4361SOL     OW13981   2.766   2.761   1.626
 4361SOL    HW113982   2.827   2.707   1.684
 4361SOL    HW213983   2.821   2.809   1.557
 4362SOL     OW13984   6.311   3.644   4.546
 4362SOL    HW113985   6.349   3.734   4.568
 4362SOL    HW213986   6.290   3.640   4.448
 4363SOL     OW13987   5.390   2.408   5.921
 4363SOL    HW113988   5.480   2.392   5.963
 4363SOL    HW213989   5.336   2.324   5.927
 4364SOL     OW13990   3.103   3.689   5.341
 4364SOL    HW113991   3.143   3.598   5.333
 4364SOL    HW213992   3.013   3.690   5.297
 4365SOL     OW13993   2.950   1.528   1.880
 4365SOL    HW113994   3.024   1.538   1.947
 4365SOL    HW213995   2.942   1.613   1.827
 4366SOL     OW13996   5.524   6.597   7.000
 4366SOL    HW113997   5.592   6.613   0.043
 4366SOL    HW213998   5.484   6.506   7.012
 4367SOL     OW13999   1.522   5.422   5.344
 4367SOL    HW114000   1.615   5.396   5.370
 4367SOL    HW214001   1.458   5.388   5.412
 4368SOL     OW14002   4.228   5.121   1.285
 4368SOL    HW114003   4.165   5.136   1.361
 4368SOL    HW214004   4.311   5.076   1.318
 4369SOL     OW14005   4.389   5.127   2.558
 4369SOL    HW114006   4.329   5.062   2.510
 4369SOL    HW214007   4.371   5.122   2.656
 4370SOL     OW14008   4.937   4.545   2.978
 4370SOL    HW114009   4.876   4.536   2.899
 4370SOL    HW214010   5.028   4.513   2.954
 4371SOL     OW14011   6.301   0.637   1.682
 4371SOL    HW114012   6.264   0.602   1.768
 4371SOL    HW214013   6.377   0.699   1.700
 4372SOL     OW14014   4.547   0.760   3.025
 4372SOL    HW114015   4.500   0.828   2.969
 4372SOL    HW214016   4.611   0.805   3.086
 4373SOL     OW14017   0.078   2.853   0.100
 4373SOL    HW114018   0.086   2.928   0.166
 4373SOL    HW214019   0.154   2.859   0.035
 4374SOL     OW14020   0.921   1.934   1.912
 4374SOL    HW114021   0.883   2.006   1.971
 4374SOL    HW214022   0.962   1.976   1.831
 4375SOL     OW14023   3.299   0.059   4.219
 4375SOL    HW114024   3.204   0.027   4.223
 4375SOL    HW214025   3.345   0.037   4.305
 4376SOL     OW14026   0.014   0.502   2.547
 4376SOL    HW114027   0.079   0.445   2.497
 4376SOL    HW214028   0.023   0.486   2.645
 4377SOL     OW14029   6.146   4.117   0.314
 4377SOL    HW114030   6.053   4.145   0.294
 4377SOL    HW214031   6.206   4.142   0.237
 4378SOL     OW14032   1.726   1.737   2.530
 4378SOL    HW114033   1.666   1.661   2.505
 4378SOL    HW214034   1.821   1.706   2.529
 4379SOL     OW14035   2.863   1.428   3.843
 4379SOL    HW114036   2.815   1.363   3.784
 4379SOL    HW214037   2.804   1.455   3.918
 4380SOL     OW14038   1.147   0.288   1.284
 4380SOL    HW114039   1.185   0.302   1.375
 4380SOL    HW214040   1.211   0.322   1.215
 4381SOL     OW14041   0.984   6.009   4.870
 4381SOL    HW114042   1.026   6.028   4.959
 4381SOL    HW214043   0.997   6.088   4.810
 4382SOL     OW14044   6.763   3.082   6.191
 4382SOL    HW114045   6.788   3.010   6.255
 4382SOL    HW214046   6.831   3.156   6.194
 4383SOL     OW14047   6.731   3.944   6.362
 4383SOL    HW114048   6.731   4.043   6.345
 4383SOL    HW214049   6.641   3.907   6.337
 4384SOL     OW14050   5.765   0.960   3.740
 4384SOL    HW114051   5.734   1.041   3.690
 4384SOL    HW214052   5.850   0.926   3.699
 4385SOL     OW14053   4.511   2.426   5.483
 4385SOL    HW114054   4.543   2.348   5.429
 4385SOL    HW214055   4.570   2.505   5.465
 4386SOL     OW14056   1.513   4.091   5.163
 4386SOL    HW114057   1.443   4.159   5.184
 4386SOL    HW214058   1.584   4.132   5.106
 4387SOL     OW14059   6.530   2.782   1.767
 4387SOL    HW114060   6.550   2.834   1.684
 4387SOL    HW214061   6.616   2.748   1.806
 4388SOL     OW14062   4.357   2.590   6.233
 4388SOL    HW114063   4.409   2.510   6.203
 4388SOL    HW214064   4.400   2.628   6.315
 4389SOL     OW14065   6.651   3.589   0.848
 4389SOL    HW114066   6.651   3.498   0.889
 4389SOL    HW214067   6.587   3.591   0.771
 4390SOL     OW14068   4.897   6.915   1.504
 4390SOL    HW114069   4.850   6.848   1.562
 4390SOL    HW214070   4.977   6.873   1.462
 4391SOL     OW14071   3.000   4.786   6.281
 4391SOL    HW114072   2.933   4.712   6.277
 4391SOL    HW214073   2.972   4.852   6.350
 4392SOL     OW14074   0.270   1.856   5.011
 4392SOL    HW114075   0.295   1.942   5.057
 4392SOL    HW214076   0.295   1.861   4.914
 4393SOL     OW14077   6.526   0.779   2.269
 4393SOL    HW114078   6.577   0.693   2.266
 4393SOL    HW214079   6.565   0.844   2.203
 4394SOL     OW14080   0.796   6.559   1.262
 4394SOL    HW114081   0.864   6.492   1.231
 4394SOL    HW214082   0.708   6.515   1.276
 4395SOL     OW14083   2.043   0.167   1.624
 4395SOL    HW114084   2.132   0.209   1.639
 4395SOL    HW214085   1.971   0.235   1.638
 4396SOL     OW14086   1.926   1.989   4.211
 4396SOL    HW114087   1.828   2.001   4.194
 4396SOL    HW214088   1.977   2.058   4.161
 4397SOL     OW14089   1.703   3.140   4.474
 4397SOL    HW114090   1.770   3.145   4.399
 4397SOL    HW214091   1.688   3.045   4.499
 4398SOL     OW14092   1.713   3.342   6.739
 4398SOL    HW114093   1.689   3.285   6.660
 4398SOL    HW214094   1.796   3.394   6.719
 4399SOL     OW14095   2.396   6.561   1.934
 4399SOL    HW114096   2.302   6.527   1.942
 4399SOL    HW214097   2.430   6.541   1.842
 4400SOL     OW14098   2.158   6.623   3.523
 4400SOL    HW114099   2.219   6.548   3.496
 4400SOL    HW214100   2.063   6.591   3.521
 4401SOL     OW14101   3.971   6.408   5.021
 4401SOL    HW114102   3.993   6.431   4.926
 4401SOL    HW214103   3.903   6.472   5.056
 4402SOL     OW14104   0.692   0.229   2.931
 4402SOL    HW114105   0.612   0.281   2.900
 4402SOL    HW214106   0.712   0.157   2.864
 4403SOL     OW14107   1.540   6.550   0.730
 4403SOL    HW114108   1.569   6.522   0.822
 4403SOL    HW214109   1.598   6.506   0.662
 4404SOL     OW14110   1.399   6.081   5.080
 4404SOL    HW114111   1.377   6.051   4.987
 4404SOL    HW214112   1.496   6.063   5.099
 4405SOL     OW14113   2.038   4.789   2.558
 4405SOL    HW114114   2.077   4.862   2.502
 4405SOL    HW214115   2.111   4.745   2.611
 4406SOL     OW14116   6.640   3.307   0.982
 4406SOL    HW114117   6.697   3.360   1.044
 4406SOL    HW214118   6.590   3.238   1.033
 4407SOL     OW14119   0.271   5.417   0.955
 4407SOL    HW114120   0.344   5.393   1.019
 4407SOL    HW214121   0.202   5.472   1.003
 4408SOL     OW14122   2.902   6.224   6.718
 4408SOL    HW114123   2.823   6.279   6.688
 4408SOL    HW214124   2.897   6.209   6.816
 4409SOL     OW14125   4.918   1.089   1.722
 4409SOL    HW114126   4.870   1.091   1.634
 4409SOL    HW214127   4.870   1.146   1.788
 4410SOL     OW14128   6.432   5.807   0.621
 4410SOL    HW114129   6.514   5.758   0.650
 4410SOL    HW214130   6.359   5.793   0.688
 4411SOL     OW14131   3.545   4.316   5.310
 4411SOL    HW114132   3.558   4.273   5.220
 4411SOL    HW214133   3.529   4.414   5.299
 4412SOL     OW14134   5.147   6.635   4.157
 4412SOL    HW114135   5.110   6.561   4.213
 4412SOL    HW214136   5.076   6.702   4.138
 4413SOL     OW14137   5.219   5.952   3.692
 4413SOL    HW114138   5.177   5.998   3.614
 4413SOL    HW214139   5.152   5.940   3.764
 4414SOL     OW14140   4.474   5.562   1.313
 4414SOL    HW114141   4.549   5.526   1.257
 4414SOL    HW214142   4.510   5.591   1.402
 4415SOL     OW14143   3.991   3.783   0.772
 4415SOL    HW114144   4.080   3.826   0.784
 4415SOL    HW214145   3.940   3.787   0.858
 4416SOL     OW14146   3.890   1.101   4.543
 4416SOL    HW114147   3.943   1.068   4.465
 4416SOL    HW214148   3.820   1.034   4.567
 4417SOL     OW14149   6.192   2.686   4.518
 4417SOL    HW114150   6.189   2.785   4.532
 4417SOL    HW214151   6.220   2.641   4.603
 4418SOL     OW14152   6.126   2.029   2.163
 4418SOL    HW114153   6.082   2.104   2.113
 4418SOL    HW214154   6.057   1.972   2.207
 4419SOL     OW14155   6.649   0.005   6.225
 4419SOL    HW114156   6.663   6.989   6.137
 4419SOL    HW214157   6.552   0.002   6.248
 4420SOL     OW14158   3.025   1.476   0.995
 4420SOL    HW114159   3.101   1.436   0.944
 4420SOL    HW214160   3.059   1.548   1.056
 4421SOL     OW14161   1.428   2.102   5.265
 4421SOL    HW114162   1.431   2.187   5.213
 4421SOL    HW214163   1.485   2.033   5.220
 4422SOL     OW14164   0.957   4.817   0.060
 4422SOL    HW114165   0.916   4.727   0.045
 4422SOL    HW214166   0.988   4.854   7.002
 4423SOL     OW14167   6.645   4.879   5.968
 4423SOL    HW114168   6.717   4.856   5.902
 4423SOL    HW214169   6.557   4.850   5.932
 4424SOL     OW14170   5.818   6.195   4.579
 4424SOL    HW114171   5.767   6.149   4.652
 4424SOL    HW214172   5.847   6.285   4.611
 4425SOL     OW14173   1.710   5.489   1.189
 4425SOL    HW114174   1.735   5.535   1.275
 4425SOL    HW214175   1.731   5.549   1.112
 4426SOL     OW14176   0.996   1.051   3.965
 4426SOL    HW114177   0.950   0.969   3.930
 4426SOL    HW214178   1.037   1.031   4.054
 4427SOL     OW14179   3.997   6.165   2.423
 4427SOL    HW114180   3.899   6.162   2.404
 4427SOL    HW214181   4.047   6.147   2.338
 4428SOL     OW14182   4.776   0.757   4.353
 4428SOL    HW114183   4.870   0.752   4.388
 4428SOL    HW214184   4.735   0.666   4.354
 4429SOL     OW14185   2.738   6.610   2.836
 4429SOL    HW114186   2.831   6.583   2.812
 4429SOL    HW214187   2.720   6.583   2.931
 4430SOL     OW14188   5.643   5.029   4.300
 4430SOL    HW114189   5.576   5.004   4.231
 4430SOL    HW214190   5.602   5.094   4.364
 4431SOL     OW14191   2.954   0.671   3.620
 4431SOL    HW114192   2.888   0.627   3.559
 4431SOL    HW214193   2.955   0.769   3.603
 4432SOL     OW14194   1.940   3.109   6.463
 4432SOL    HW114195   1.860   3.061   6.426
 4432SOL    HW214196   1.942   3.202   6.428
 4433SOL     OW14197   0.435   2.619   4.759
 4433SOL    HW114198   0.398   2.697   4.709
 4433SOL    HW214199   0.452   2.646   4.854
 4434SOL     OW14200   5.600   1.895   2.607
 4434SOL    HW114201   5.582   1.913   2.510
 4434SOL    HW214202   5.555   1.810   2.634
 4435SOL     OW14203   4.008   3.832   1.510
 4435SOL    HW114204   3.924   3.787   1.481
 4435SOL    HW214205   4.061   3.860   1.429
 4436SOL     OW14206   3.590   1.273   1.506
 4436SOL    HW114207   3.539   1.191   1.481
 4436SOL    HW214208   3.664   1.287   1.441
 4437SOL     OW14209   0.779   3.504   2.837
 4437SOL    HW114210   0.806   3.442   2.910
 4437SOL    HW214211   0.745   3.451   2.759
 4438SOL     OW14212   4.891   6.773   5.589
 4438SOL    HW114213   4.976   6.728   5.561
 4438SOL    HW214214   4.868   6.845   5.524
 4439SOL     OW14215   1.098   4.812   2.749
 4439SOL    HW114216   1.009   4.851   2.724
 4439SOL    HW214217   1.170   4.878   2.731
 4440SOL     OW14218   2.457   4.360   0.951
 4440SOL    HW114219   2.424   4.344   0.858
 4440SOL    HW214220   2.543   4.310   0.964
 4441SOL     OW14221   6.949   1.136   1.147
 4441SOL    HW114222   6.872   1.125   1.085
 4441SOL    HW214223   6.970   1.233   1.158
 4442SOL     OW14224   1.248   5.571   5.593
 4442SOL    HW114225   1.300   5.604   5.672
 4442SOL    HW214226   1.161   5.533   5.625
 4443SOL     OW14227   1.039   4.312   6.256
 4443SOL    HW114228   1.085   4.267   6.332
 4443SOL    HW214229   1.073   4.405   6.246
 4444SOL     OW14230   4.633   4.042   0.424
 4444SOL    HW114231   4.691   4.069   0.348
 4444SOL    HW214232   4.632   4.115   0.493
 4445SOL     OW14233   1.561   5.702   0.122
 4445SOL    HW114234   1.620   5.663   0.052
 4445SOL    HW214235   1.527   5.791   0.092
 4446SOL     OW14236   5.441   1.599   0.153
 4446SOL    HW114237   5.520   1.603   0.215
 4446SOL    HW214238   5.472   1.617   0.059
 4447SOL     OW14239   5.688   4.398   5.017
 4447SOL    HW114240   5.638   4.313   5.003
 4447SOL    HW214241   5.767   4.400   4.956
 4448SOL     OW14242   2.702   6.970   1.256
 4448SOL    HW114243   2.717   6.949   1.159
 4448SOL    HW214244   2.613   6.934   1.284
 4449SOL     OW14245   4.403   1.119   6.354
 4449SOL    HW114246   4.454   1.182   6.412
 4449SOL    HW214247   4.383   1.036   6.405
 4450SOL     OW14248   3.036   1.470   6.813
 4450SOL    HW114249   2.975   1.450   6.736
 4450SOL    HW214250   3.076   1.561   6.800
 4451SOL     OW14251   4.570   5.038   4.462
 4451SOL    HW114252   4.607   4.949   4.437
 4451SOL    HW214253   4.536   5.084   4.379
 4452SOL     OW14254   6.191   5.921   4.715
 4452SOL    HW114255   6.121   5.986   4.744
 4452SOL    HW214256   6.282   5.961   4.728
 4453SOL     OW14257   1.458   2.812   1.663
 4453SOL    HW114258   1.372   2.804   1.713
 4453SOL    HW214259   1.516   2.880   1.708
 4454SOL     OW14260   0.759   1.502   0.115
 4454SOL    HW114261   0.800   1.442   0.046
 4454SOL    HW214262   0.708   1.446   0.181
 4455SOL     OW14263   5.369   5.611   5.056
 4455SOL    HW114264   5.312   5.531   5.073
 4455SOL    HW214265   5.409   5.643   5.143
 4456SOL     OW14266   2.458   6.036   3.330
 4456SOL    HW114267   2.524   5.994   3.391
 4456SOL    HW214268   2.372   6.050   3.379
 4457SOL     OW14269   1.881   2.128   4.585
 4457SOL    HW114270   1.860   2.039   4.626
 4457SOL    HW214271   1.947   2.177   4.643
 4458SOL     OW14272   2.573   3.644   1.568
 4458SOL    HW114273   2.490   3.654   1.621
 4458SOL    HW214274   2.586   3.548   1.543
 4459SOL     OW14275   2.457   1.679   4.166
 4459SOL    HW114276   2.537   1.684   4.107
 4459SOL    HW214277   2.431   1.771   4.196
 4460SOL     OW14278   0.756   3.196   5.509
 4460SOL    HW114279   0.718   3.187   5.417
 4460SOL    HW214280   0.713   3.129   5.570
 4461SOL     OW14281   1.533   0.921   1.105
 4461SOL    HW114282   1.623   0.960   1.086
 4461SOL    HW214283   1.528   0.894   1.201
 4462SOL     OW14284   6.057   4.232   2.403
 4462SOL    HW114285   6.018   4.282   2.480
 4462SOL    HW214286   6.112   4.294   2.347
 4463SOL     OW14287   5.207   1.414   1.450
 4463SOL    HW114288   5.292   1.363   1.443
 4463SOL    HW214289   5.226   1.506   1.486
 4464SOL     OW14290   0.716   5.663   0.429
 4464SOL    HW114291   0.798   5.646   0.484
 4464SOL    HW214292   0.635   5.656   0.487
 4465SOL     OW14293   2.822   5.392   0.303
 4465SOL    HW114294   2.895   5.332   0.335
 4465SOL    HW214295   2.820   5.392   0.203
 4466SOL     OW14296   1.474   2.040   2.798
 4466SOL    HW114297   1.457   2.006   2.891
 4466SOL    HW214298   1.458   2.139   2.796
 4467SOL     OW14299   2.643   5.661   3.771
 4467SOL    HW114300   2.593   5.737   3.730
 4467SOL    HW214301   2.740   5.669   3.749
 4468SOL     OW14302   1.303   4.110   1.008
 4468SOL    HW114303   1.325   4.118   0.911
 4468SOL    HW214304   1.238   4.181   1.034
 4469SOL     OW14305   2.829   0.595   1.435
 4469SOL    HW114306   2.756   0.537   1.471
 4469SOL    HW214307   2.833   0.586   1.335
 4470SOL     OW14308   0.555   1.574   2.448
 4470SOL    HW114309   0.578   1.490   2.399
 4470SOL    HW214310   0.456   1.579   2.461
 4471SOL     OW14311   2.061   2.842   6.763
 4471SOL    HW114312   2.060   2.778   6.687
 4471SOL    HW214313   2.025   2.931   6.733
 4472SOL     OW14314   1.402   2.108   0.422
 4472SOL    HW114315   1.328   2.042   0.408
 4472SOL    HW214316   1.463   2.075   0.494
 4473SOL     OW14317   6.026   3.039   3.476
 4473SOL    HW114318   6.070   3.033   3.565
 4473SOL    HW214319   5.975   2.955   3.458
 4474SOL     OW14320   2.867   6.945   2.427
 4474SOL    HW114321   2.867   0.014   2.413
 4474SOL    HW214322   2.834   6.925   2.519
 4475SOL     OW14323   1.043   3.738   1.631
 4475SOL    HW114324   1.041   3.684   1.715
 4475SOL    HW214325   1.076   3.682   1.555
 4476SOL     OW14326   6.217   1.012   4.257
 4476SOL    HW114327   6.267   0.982   4.176
 4476SOL    HW214328   6.279   1.015   4.335
 4477SOL     OW14329   1.974   0.464   5.333
 4477SOL    HW114330   1.893   0.431   5.381
 4477SOL    HW214331   1.982   0.418   5.245
 4478SOL     OW14332   0.950   0.237   1.606
 4478SOL    HW114333   0.930   0.325   1.562
 4478SOL    HW214334   0.920   0.163   1.545
 4479SOL     OW14335   1.149   1.683   0.598
 4479SOL    HW114336   1.192   1.665   0.686
 4479SOL    HW214337   1.075   1.617   0.583
 4480SOL     OW14338   0.839   4.049   5.099
 4480SOL    HW114339   0.779   4.022   5.175
 4480SOL    HW214340   0.787   4.105   5.034
 4481SOL     OW14341   2.249   5.257   5.180
 4481SOL    HW114342   2.329   5.317   5.180
 4481SOL    HW214343   2.279   5.161   5.179
 4482SOL     OW14344   2.439   3.410   5.732
 4482SOL    HW114345   2.445   3.501   5.692
 4482SOL    HW214346   2.497   3.347   5.680
 4483SOL     OW14347   0.467   2.656   2.005
 4483SOL    HW114348   0.562   2.683   1.985
 4483SOL    HW214349   0.454   2.560   1.980
 4484SOL     OW14350   2.231   2.965   0.094
 4484SOL    HW114351   2.224   2.888   0.157
 4484SOL    HW214352   2.286   2.939   0.015
 4485SOL     OW14353   4.712   2.695   5.244
 4485SOL    HW114354   4.666   2.784   5.239
 4485SOL    HW214355   4.723   2.668   5.340
 4486SOL     OW14356   5.868   5.143   5.270
 4486SOL    HW114357   5.789   5.082   5.273
 4486SOL    HW214358   5.842   5.230   5.228
 4487SOL     OW14359   2.293   2.891   6.865
 4487SOL    HW114360   2.205   2.876   6.819
 4487SOL    HW214361   2.367   2.891   6.797
 4488SOL     OW14362   1.123   3.794   4.020
 4488SOL    HW114363   1.205   3.825   4.069
 4488SOL    HW214364   1.129   3.695   4.005
 4489SOL     OW14365   5.071   5.604   5.009
 4489SOL    HW114366   4.974   5.579   5.010
 4489SOL    HW214367   5.095   5.641   4.920
 4490SOL     OW14368   5.213   2.224   1.006
 4490SOL    HW114369   5.297   2.207   1.059
 4490SOL    HW214370   5.195   2.322   1.003
 4491SOL     OW14371   0.940   3.465   3.182
 4491SOL    HW114372   0.894   3.415   3.109
 4491SOL    HW214373   0.889   3.549   3.202
 4492SOL     OW14374   5.644   1.957   2.070
 4492SOL    HW114375   5.676   1.920   1.983
 4492SOL    HW214376   5.579   2.031   2.053
 4493SOL     OW14377   6.343   6.652   4.655
 4493SOL    HW114378   6.299   6.566   4.682
 4493SOL    HW214379   6.440   6.647   4.677
 4494SOL     OW14380   1.176   0.786   5.897
 4494SOL    HW114381   1.092   0.789   5.950
 4494SOL    HW214382   1.155   0.794   5.800
 4495SOL     OW14383   3.777   6.923   2.608
 4495SOL    HW114384   3.725   6.849   2.565
 4495SOL    HW214385   3.844   6.883   2.672
 4496SOL     OW14386   5.001   6.358   0.077
 4496SOL    HW114387   4.952   6.276   0.046
 4496SOL    HW214388   4.980   6.434   0.015
 4497SOL     OW14389   3.882   2.503   6.866
 4497SOL    HW114390   3.883   2.592   6.910
 4497SOL    HW214391   3.945   2.442   6.914
 4498SOL     OW14392   6.823   5.320   6.456
 4498SOL    HW114393   6.817   5.388   6.383
 4498SOL    HW214394   6.844   5.230   6.417
 4499SOL     OW14395   5.975   2.277   3.594
 4499SOL    HW114396   5.962   2.200   3.531
 4499SOL    HW214397   6.071   2.305   3.594
 4500SOL     OW14398   3.879   4.526   6.668
 4500SOL    HW114399   3.883   4.427   6.682
 4500SOL    HW214400   3.940   4.572   6.733
 4501SOL     OW14401   5.628   2.327   2.623
 4501SOL    HW114402   5.538   2.294   2.595
 4501SOL    HW214403   5.620   2.418   2.662
 4502SOL     OW14404   1.017   4.022   0.253
 4502SOL    HW114405   1.043   4.069   0.169
 4502SOL    HW214406   0.948   4.077   0.301
 4503SOL     OW14407   3.025   6.825   2.234
 4503SOL    HW114408   2.961   6.814   2.158
 4503SOL    HW214409   2.977   6.865   2.312
 4504SOL     OW14410   6.380   2.350   4.263
 4504SOL    HW114411   6.341   2.279   4.321
 4504SOL    HW214412   6.441   2.309   4.195
 4505SOL     OW14413   6.757   4.301   2.487
 4505SOL    HW114414   6.834   4.361   2.508
 4505SOL    HW214415   6.759   4.221   2.547
 4506SOL     OW14416   5.642   2.889   3.378
 4506SOL    HW114417   5.678   2.812   3.430
 4506SOL    HW214418   5.602   2.956   3.440
 4507SOL     OW14419   6.955   2.864   3.884
 4507SOL    HW114420   6.888   2.931   3.918
 4507SOL    HW214421   0.017   2.902   3.890
 4508SOL     OW14422   1.681   4.515   0.065
 4508SOL    HW114423   1.582   4.501   0.064
 4508SOL    HW214424   1.727   4.432   0.033
 4509SOL     OW14425   4.953   2.592   2.896
 4509SOL    HW114426   4.976   2.613   2.991
 4509SOL    HW214427   4.874   2.532   2.893
 4510SOL     OW14428   4.655   1.371   4.319
 4510SOL    HW114429   4.604   1.411   4.395
 4510SOL    HW214430   4.730   1.433   4.294
 4511SOL     OW14431   6.541   3.718   1.074
 4511SOL    HW114432   6.617   3.729   1.138
 4511SOL    HW214433   6.565   3.648   1.006
 4512SOL     OW14434   3.361   1.668   5.873
 4512SOL    HW114435   3.382   1.668   5.775
 4512SOL    HW214436   3.275   1.716   5.889
 4513SOL     OW14437   0.742   6.309   6.516
 4513SOL    HW114438   0.823   6.277   6.565
 4513SOL    HW214439   0.745   6.274   6.422
 4514SOL     OW14440   3.651   3.235   0.368
 4514SOL    HW114441   3.590   3.295   0.316
 4514SOL    HW214442   3.709   3.290   0.428
 4515SOL     OW14443   5.430   1.439   4.865
 4515SOL    HW114444   5.462   1.366   4.926
 4515SOL    HW214445   5.460   1.421   4.772
 4516SOL     OW14446   2.745   0.228   5.592
 4516SOL    HW114447   2.736   0.214   5.494
 4516SOL    HW214448   2.765   0.141   5.637
 4517SOL     OW14449   4.325   6.232   6.646
 4517SOL    HW114450   4.263   6.261   6.718
 4517SOL    HW214451   4.298   6.274   6.559
 4518SOL     OW14452   1.197   6.698   1.238
 4518SOL    HW114453   1.278   6.642   1.258
 4518SOL    HW214454   1.154   6.665   1.155
 4519SOL     OW14455   4.793   6.493   6.701
 4519SOL    HW114456   4.877   6.475   6.649
 4519SOL    HW214457   4.720   6.521   6.638
 4520SOL     OW14458   4.244   5.474   5.744
 4520SOL    HW114459   4.313   5.413   5.785
 4520SOL    HW214460   4.286   5.563   5.725
 4521SOL     OW14461   4.944   1.999   5.046
 4521SOL    HW114462   5.029   2.006   5.097
 4521SOL    HW214463   4.871   1.969   5.108
 4522SOL     OW14464   6.102   4.205   3.367
 4522SOL    HW114465   6.026   4.221   3.430
 4522SOL    HW214466   6.082   4.125   3.311
 4523SOL     OW14467   1.451   3.659   0.043
 4523SOL    HW114468   1.375   3.722   0.060
 4523SOL    HW214469   1.414   3.568   0.023
 4524SOL     OW14470   6.917   3.494   2.316
 4524SOL    HW114471   6.954   3.427   2.380
 4524SOL    HW214472   6.973   3.577   2.317
 4525SOL     OW14473   2.892   2.308   5.659
 4525SOL    HW114474   2.914   2.334   5.565
 4525SOL    HW214475   2.807   2.256   5.660
 4526SOL     OW14476   0.289   1.056   6.469
 4526SOL    HW114477   0.376   1.080   6.427
 4526SOL    HW214478   0.305   1.019   6.561
 4527SOL     OW14479   6.719   0.172   3.009
 4527SOL    HW114480   6.769   0.250   3.047
 4527SOL    HW214481   6.718   0.097   3.075
 4528SOL     OW14482   4.334   0.729   6.312
 4528SOL    HW114483   4.349   0.771   6.402
 4528SOL    HW214484   4.240   0.747   6.282
 4529SOL     OW14485   2.986   1.368   5.808
 4529SOL    HW114486   3.033   1.280   5.800
 4529SOL    HW214487   2.889   1.355   5.786
 4530SOL     OW14488   2.344   5.700   4.466
 4530SOL    HW114489   2.326   5.716   4.563
 4530SOL    HW214490   2.301   5.615   4.438
 4531SOL     OW14491   0.743   4.065   6.400
 4531SOL    HW114492   0.707   4.155   6.377
 4531SOL    HW214493   0.799   4.031   6.325
 4532SOL     OW14494   4.987   0.744   3.114
 4532SOL    HW114495   5.004   0.655   3.072
 4532SOL    HW214496   4.994   0.816   3.045
 4533SOL     OW14497   1.463   1.323   3.140
 4533SOL    HW114498   1.386   1.310   3.202
 4533SOL    HW214499   1.437   1.387   3.068
 4534SOL     OW14500   4.194   2.263   5.487
 4534SOL    HW114501   4.100   2.236   5.466
 4534SOL    HW214502   4.248   2.181   5.509
 4535SOL     OW14503   3.434   1.382   1.233
 4535SOL    HW114504   3.338   1.399   1.255
 4535SOL    HW214505   3.474   1.324   1.304
 4536SOL     OW14506   2.701   1.276   5.717
 4536SOL    HW114507   2.630   1.346   5.727
 4536SOL    HW214508   2.696   1.236   5.625
 4537SOL     OW14509   4.050   3.782   2.842
 4537SOL    HW114510   4.032   3.683   2.841
 4537SOL    HW214511   4.107   3.805   2.763
 4538SOL     OW14512   1.708   2.289   1.969
 4538SOL    HW114513   1.744   2.229   1.898
 4538SOL    HW214514   1.632   2.243   2.016
 4539SOL     OW14515   1.896   5.447   4.677
 4539SOL    HW114516   1.892   5.430   4.579
 4539SOL    HW214517   1.958   5.381   4.720
 4540SOL     OW14518   0.766   1.121   1.021
 4540SOL    HW114519   0.786   1.146   0.926
 4540SOL    HW214520   0.667   1.120   1.035
 4541SOL     OW14521   4.472   1.525   0.073
 4541SOL    HW114522   4.382   1.565   0.055
 4541SOL    HW214523   4.480   1.506   0.171
 4542SOL     OW14524   6.990   1.905   1.024
 4542SOL    HW114525   6.939   1.888   1.108
 4542SOL    HW214526   6.940   1.867   0.946
 4543SOL     OW14527   4.605   2.465   0.769
 4543SOL    HW114528   4.664   2.532   0.815
 4543SOL    HW214529   4.613   2.377   0.815
 4544SOL     OW14530   4.415   4.935   0.955
 4544SOL    HW114531   4.348   5.000   0.919
 4544SOL    HW214532   4.430   4.862   0.889
 4545SOL     OW14533   0.666   4.000   5.304
 4545SOL    HW114534   0.648   4.086   5.352
 4545SOL    HW214535   0.733   3.947   5.355
 4546SOL     OW14536   3.482   0.181   5.780
 4546SOL    HW114537   3.419   0.181   5.703
 4546SOL    HW214538   3.566   0.229   5.755
 4547SOL     OW14539   6.301   0.492   0.243
 4547SOL    HW114540   6.241   0.534   0.175
 4547SOL    HW214541   6.349   0.563   0.293
 4548SOL     OW14542   2.529   2.547   3.513
 4548SOL    HW114543   2.511   2.592   3.426
 4548SOL    HW214544   2.454   2.565   3.577
 4549SOL     OW14545   5.092   4.421   2.586
 4549SOL    HW114546   5.014   4.465   2.541
 4549SOL    HW214547   5.176   4.449   2.541
 4550SOL     OW14548   0.981   4.571   3.877
 4550SOL    HW114549   1.037   4.489   3.893
 4550SOL    HW214550   0.900   4.568   3.936
 4551SOL     OW14551   0.667   3.582   5.414
 4551SOL    HW114552   0.713   3.621   5.333
 4551SOL    HW214553   0.634   3.656   5.472
 4552SOL     OW14554   5.625   2.352   2.155
 4552SOL    HW114555   5.564   2.274   2.142
 4552SOL    HW214556   5.607   2.421   2.085
 4553SOL     OW14557   5.239   4.525   6.468
 4553SOL    HW114558   5.325   4.527   6.520
 4553SOL    HW214559   5.180   4.599   6.500
 4554SOL     OW14560   0.378   6.923   1.105
 4554SOL    HW114561   0.438   6.877   1.170
 4554SOL    HW214562   0.371   7.020   1.129
 4555SOL     OW14563   1.152   1.248   6.586
 4555SOL    HW114564   1.204   1.174   6.629
 4555SOL    HW214565   1.202   1.334   6.596
 4556SOL     OW14566   6.049   3.364   5.528
 4556SOL    HW114567   6.071   3.268   5.513
 4556SOL    HW214568   5.961   3.386   5.486
 4557SOL     OW14569   5.862   5.284   4.919
 4557SOL    HW114570   5.781   5.225   4.927
 4557SOL    HW214571   5.894   5.284   4.825
 4558SOL     OW14572   6.538   3.358   5.135
 4558SOL    HW114573   6.581   3.409   5.209
 4558SOL    HW214574   6.519   3.419   5.059
 4559SOL     OW14575   0.657   3.369   2.535
 4559SOL    HW114576   0.564   3.382   2.568
 4559SOL    HW214577   0.676   3.271   2.527
 4560SOL     OW14578   5.899   4.523   2.224
 4560SOL    HW114579   5.871   4.474   2.142
 4560SOL    HW214580   5.982   4.576   2.204
 4561SOL     OW14581   3.334   1.837   4.123
 4561SOL    HW114582   3.381   1.920   4.093
 4561SOL    HW214583   3.356   1.819   4.219
 4562SOL     OW14584   2.228   6.720   0.161
 4562SOL    HW114585   2.135   6.684   0.162
 4562SOL    HW214586   2.290   6.651   0.122
 4563SOL     OW14587   6.856   3.283   1.608
 4563SOL    HW114588   6.887   3.188   1.605
 4563SOL    HW214589   6.929   3.343   1.576
 4564SOL     OW14590   0.201   4.494   2.222
 4564SOL    HW114591   0.211   4.522   2.318
 4564SOL    HW214592   0.279   4.529   2.169
 4565SOL     OW14593   1.543   1.464   4.582
 4565SOL    HW114594   1.632   1.510   4.580
 4565SOL    HW214595   1.490   1.493   4.502
 4566SOL     OW14596   0.434   3.655   1.341
 4566SOL    HW114597   0.438   3.752   1.365
 4566SOL    HW214598   0.404   3.602   1.421
 4567SOL     OW14599   6.979   0.418   0.177
 4567SOL    HW114600   6.954   0.349   0.109
 4567SOL    HW214601   6.896   0.453   0.221
 4568SOL     OW14602   0.650   4.427   5.134
 4568SOL    HW114603   0.609   4.509   5.174
 4568SOL    HW214604   0.737   4.450   5.091
 4569SOL     OW14605   2.951   0.771   2.622
 4569SOL    HW114606   2.946   0.819   2.534
 4569SOL    HW214607   2.936   0.673   2.607
 4570SOL     OW14608   6.033   6.617   2.326
 4570SOL    HW114609   6.080   6.705   2.335
 4570SOL    HW214610   6.071   6.552   2.392
 4571SOL     OW14611   4.433   3.039   6.598
 4571SOL    HW114612   4.515   3.076   6.642
 4571SOL    HW214613   4.424   2.942   6.620
 4572SOL     OW14614   2.553   1.925   6.225
 4572SOL    HW114615   2.574   1.945   6.321
 4572SOL    HW214616   2.632   1.883   6.181
 4573SOL     OW14617   0.781   0.129   0.667
 4573SOL    HW114618   0.841   0.147   0.745
 4573SOL    HW214619   0.818   0.055   0.612
 4574SOL     OW14620   5.938   4.328   6.883
 4574SOL    HW114621   5.962   4.289   6.794
 4574SOL    HW214622   6.015   4.319   6.945
 4575SOL     OW14623   5.703   0.970   4.711
 4575SOL    HW114624   5.615   0.922   4.707
 4575SOL    HW214625   5.700   1.039   4.784
 4576SOL     OW14626   2.512   4.865   5.219
 4576SOL    HW114627   2.580   4.823   5.278
 4576SOL    HW214628   2.543   4.861   5.124
 4577SOL     OW14629   1.182   2.479   2.880
 4577SOL    HW114630   1.210   2.496   2.785
 4577SOL    HW214631   1.259   2.440   2.931
 4578SOL     OW14632   0.520   0.426   3.820
 4578SOL    HW114633   0.619   0.433   3.813
 4578SOL    HW214634   0.478   0.446   3.731
 4579SOL     OW14635   4.804   1.102   1.482
 4579SOL    HW114636   4.872   1.171   1.458
 4579SOL    HW214637   4.810   1.025   1.419
 4580SOL     OW14638   5.615   4.466   0.694
 4580SOL    HW114639   5.535   4.474   0.634
 4580SOL    HW214640   5.698   4.469   0.638
 4581SOL     OW14641   2.926   6.264   2.294
 4581SOL    HW114642   2.856   6.247   2.363
 4581SOL    HW214643   2.928   6.186   2.230
 4582SOL     OW14644   4.553   0.490   3.097
 4582SOL    HW114645   4.553   0.587   3.070
 4582SOL    HW214646   4.483   0.442   3.045
 4583SOL     OW14647   2.227   0.948   6.643
 4583SOL    HW114648   2.164   0.884   6.599
 4583SOL    HW214649   2.195   1.042   6.627
 4584SOL     OW14650   1.847   6.594   6.001
 4584SOL    HW114651   1.774   6.658   6.025
 4584SOL    HW214652   1.811   6.522   5.942
 4585SOL     OW14653   1.891   3.948   3.400
 4585SOL    HW114654   1.850   4.029   3.360
 4585SOL    HW214655   1.851   3.866   3.358
 4586SOL     OW14656   5.091   4.092   0.454
 4586SOL    HW114657   5.072   4.034   0.375
 4586SOL    HW214658   5.035   4.061   0.531
 4587SOL     OW14659   3.507   3.279   4.569
 4587SOL    HW114660   3.471   3.367   4.602
 4587SOL    HW214661   3.602   3.269   4.598
 4588SOL     OW14662   3.217   3.432   5.421
 4588SOL    HW114663   3.298   3.461   5.370
 4588SOL    HW214664   3.245   3.396   5.510
 4589SOL     OW14665   5.686   5.976   1.935
 4589SOL    HW114666   5.730   5.998   1.848
 4589SOL    HW214667   5.588   5.963   1.920
 4590SOL     OW14668   3.476   6.362   1.444
 4590SOL    HW114669   3.564   6.377   1.398
 4590SOL    HW214670   3.434   6.279   1.409
 4591SOL     OW14671   1.914   0.821   4.864
 4591SOL    HW114672   1.976   0.853   4.936
 4591SOL    HW214673   1.858   0.897   4.831
 4592SOL     OW14674   2.487   2.230   3.750
 4592SOL    HW114675   2.465   2.148   3.697
 4592SOL    HW214676   2.546   2.205   3.827
 4593SOL     OW14677   6.533   5.702   2.827
 4593SOL    HW114678   6.628   5.680   2.806
 4593SOL    HW214679   6.528   5.752   2.914
 4594SOL     OW14680   2.923   0.036   2.934
 4594SOL    HW114681   2.968   0.094   3.001
 4594SOL    HW214682   2.985   6.993   2.906
 4595SOL     OW14683   5.017   2.706   5.696
 4595SOL    HW114684   5.026   2.772   5.621
 4595SOL    HW214685   5.085   2.633   5.684
 4596SOL     OW14686   0.198   1.068   2.339
 4596SOL    HW114687   0.168   1.161   2.360
 4596SOL    HW214688   0.201   1.055   2.240
 4597SOL     OW14689   2.683   5.218   0.075
 4597SOL    HW114690   2.627   5.300   0.067
 4597SOL    HW214691   2.641   5.144   0.023
 4598SOL     OW14692   2.078   5.302   0.760
 4598SOL    HW114693   2.066   5.242   0.840
 4598SOL    HW214694   2.176   5.317   0.745
 4599SOL     OW14695   1.840   3.532   2.116
 4599SOL    HW114696   1.858   3.515   2.019
 4599SOL    HW214697   1.893   3.611   2.147
 4600SOL     OW14698   0.416   7.005   6.071
 4600SOL    HW114699   0.509   7.024   6.039
 4600SOL    HW214700   0.366   0.061   6.081
 4601SOL     OW14701   0.471   1.250   5.109
 4601SOL    HW114702   0.550   1.264   5.168
 4601SOL    HW214703   0.502   1.223   5.018
 4602SOL     OW14704   3.145   7.011   6.272
 4602SOL    HW114705   3.133   0.043   6.350
 4602SOL    HW214706   3.108   6.921   6.295
 4603SOL     OW14707   3.937   6.111   0.874
 4603SOL    HW114708   3.943   6.054   0.956
 4603SOL    HW214709   3.905   6.056   0.797
 4604SOL     OW14710   4.855   6.853   5.844
 4604SOL    HW114711   4.947   6.857   5.885
 4604SOL    HW214712   4.860   6.808   5.755
 4605SOL     OW14713   2.378   0.153   1.717
 4605SOL    HW114714   2.341   0.065   1.689
 4605SOL    HW214715   2.473   0.160   1.687
 4606SOL     OW14716   0.166   6.737   2.454
 4606SOL    HW114717   0.255   6.722   2.498
 4606SOL    HW214718   0.173   6.811   2.388
 4607SOL     OW14719   2.065   3.609   3.171
 4607SOL    HW114720   2.062   3.706   3.198
 4607SOL    HW214721   2.146   3.593   3.114
 4608SOL     OW14722   0.338   3.406   3.898
 4608SOL    HW114723   0.393   3.490   3.888
 4608SOL    HW214724   0.324   3.388   3.995
 4609SOL     OW14725   5.001   5.569   6.998
 4609SOL    HW114726   4.964   5.571   6.905
 4609SOL    HW214727   5.100   5.557   6.995
 4610SOL     OW14728   4.855   1.848   6.573
 4610SOL    HW114729   4.773   1.820   6.522
 4610SOL    HW214730   4.914   1.903   6.515
 4611SOL     OW14731   0.180   0.965   5.830
 4611SOL    HW114732   0.092   0.937   5.870
 4611SOL    HW214733   0.226   0.884   5.794
 4612SOL     OW14734   2.139   6.543   1.799
 4612SOL    HW114735   2.087   6.591   1.870
 4612SOL    HW214736   2.137   6.597   1.715
 4613SOL     OW14737   1.644   5.364   2.643
 4613SOL    HW114738   1.712   5.396   2.709
 4613SOL    HW214739   1.665   5.270   2.617
 4614SOL     OW14740   6.307   2.985   3.974
 4614SOL    HW114741   6.321   3.084   3.963
 4614SOL    HW214742   6.359   2.936   3.904
 4615SOL     OW14743   1.113   0.728   1.492
 4615SOL    HW114744   1.186   0.762   1.433
 4615SOL    HW214745   1.150   0.659   1.555
 4616SOL     OW14746   6.456   2.355   4.702
 4616SOL    HW114747   6.423   2.292   4.772
 4616SOL    HW214748   6.385   2.423   4.682
 4617SOL     OW14749   1.330   2.139   2.473
 4617SOL    HW114750   1.301   2.221   2.423
 4617SOL    HW214751   1.413   2.103   2.432
 4618SOL     OW14752   2.730   3.521   5.294
 4618SOL    HW114753   2.775   3.439   5.328
 4618SOL    HW214754   2.799   3.592   5.278
 4619SOL     OW14755   2.848   6.582   3.780
 4619SOL    HW114756   2.873   6.677   3.798
 4619SOL    HW214757   2.812   6.541   3.864
 4620SOL     OW14758   0.469   5.139   1.350
 4620SOL    HW114759   0.516   5.115   1.265
 4620SOL    HW214760   0.509   5.088   1.426
 4621SOL     OW14761   5.106   0.326   1.929
 4621SOL    HW114762   5.057   0.400   1.883
 4621SOL    HW214763   5.194   0.360   1.961
 4622SOL     OW14764   4.533   4.706   1.127
 4622SOL    HW114765   4.575   4.795   1.146
 4622SOL    HW214766   4.436   4.720   1.105
 4623SOL     OW14767   4.216   5.632   1.035
 4623SOL    HW114768   4.279   5.698   1.077
 4623SOL    HW214769   4.172   5.674   0.956
 4624SOL     OW14770   3.810   1.330   3.262
 4624SOL    HW114771   3.726   1.384   3.250
 4624SOL    HW214772   3.844   1.342   3.355
 4625SOL     OW14773   2.406   5.984   1.558
 4625SOL    HW114774   2.448   6.072   1.538
 4625SOL    HW214775   2.309   5.987   1.536
 4626SOL     OW14776   4.225   3.892   1.706
 4626SOL    HW114777   4.139   3.883   1.655
 4626SOL    HW214778   4.255   3.987   1.705
 4627SOL     OW14779   0.186   6.184   5.191
 4627SOL    HW114780   0.182   6.275   5.150
 4627SOL    HW214781   0.268   6.178   5.249
 4628SOL     OW14782   4.732   4.804   3.378
 4628SOL    HW114783   4.726   4.741   3.300
 4628SOL    HW214784   4.640   4.823   3.413
 4629SOL     OW14785   2.768   5.093   6.142
 4629SOL    HW114786   2.766   5.121   6.046
 4629SOL    HW214787   2.839   5.143   6.190
 4630SOL     OW14788   1.868   5.697   2.725
 4630SOL    HW114789   1.933   5.654   2.788
 4630SOL    HW214790   1.917   5.762   2.666
 4631SOL     OW14791   0.981   7.026   3.719
 4631SOL    HW114792   1.026   6.952   3.669
 4631SOL    HW214793   0.939   6.989   3.802
 4632SOL     OW14794   2.504   5.630   2.800
 4632SOL    HW114795   2.467   5.653   2.890
 4632SOL    HW214796   2.557   5.546   2.805
 4633SOL     OW14797   5.177   1.299   4.212
 4633SOL    HW114798   5.108   1.371   4.208
 4633SOL    HW214799   5.236   1.305   4.132
 4634SOL     OW14800   3.015   3.789   4.819
 4634SOL    HW114801   2.978   3.866   4.872
 4634SOL    HW214802   3.034   3.712   4.880
 4635SOL     OW14803   4.127   4.804   1.255
 4635SOL    HW114804   4.181   4.724   1.229
 4635SOL    HW214805   4.043   4.806   1.201
 4636SOL     OW14806   1.849   4.797   1.124
 4636SOL    HW114807   1.811   4.809   1.032
 4636SOL    HW214808   1.937   4.750   1.118
 4637SOL     OW14809   0.988   6.539   0.396
 4637SOL    HW114810   0.997   6.597   0.477
 4637SOL    HW214811   0.939   6.589   0.325
 4638SOL     OW14812   3.573   5.313   6.697
 4638SOL    HW114813   3.631   5.338   6.774
 4638SOL    HW214814   3.538   5.396   6.653
 4639SOL     OW14815   2.748   2.458   6.369
 4639SOL    HW114816   2.728   2.367   6.334
 4639SOL    HW214817   2.805   2.451   6.451
 4640SOL     OW14818   6.217   2.479   4.713
 4640SOL    HW114819   6.207   2.529   4.799
 4640SOL    HW214820   6.131   2.483   4.662
 4641SOL     OW14821   1.928   6.842   3.520
 4641SOL    HW114822   1.906   6.748   3.495
 4641SOL    HW214823   1.858   6.879   3.580
 4642SOL     OW14824   1.741   0.871   3.757
 4642SOL    HW114825   1.657   0.919   3.781
 4642SOL    HW214826   1.797   0.928   3.697
 4643SOL     OW14827   6.451   2.191   0.385
 4643SOL    HW114828   6.434   2.227   0.476
 4643SOL    HW214829   6.520   2.119   0.389
 4644SOL     OW14830   6.953   0.887   5.914
 4644SOL    HW114831   6.867   0.837   5.900
 4644SOL    HW214832   6.938   0.962   5.978
 4645SOL     OW14833   1.309   0.655   4.171
 4645SOL    HW114834   1.406   0.668   4.150
 4645SOL    HW214835   1.298   0.585   4.240
 4646SOL     OW14836   2.526   4.896   4.688
 4646SOL    HW114837   2.612   4.850   4.712
 4646SOL    HW214838   2.481   4.846   4.614
 4647SOL     OW14839   1.559   0.415   3.252
 4647SOL    HW114840   1.477   0.359   3.256
 4647SOL    HW214841   1.533   0.512   3.256
 4648SOL     OW14842   2.693   0.877   4.198
 4648SOL    HW114843   2.664   0.782   4.190
 4648SOL    HW214844   2.613   0.937   4.187
 4649SOL     OW14845   5.560   1.026   1.220
 4649SOL    HW114846   5.528   0.976   1.140
 4649SOL    HW214847   5.657   1.050   1.208
 4650SOL     OW14848   4.509   5.939   1.585
 4650SOL    HW114849   4.536   5.846   1.562
 4650SOL    HW214850   4.577   5.980   1.646
 4651SOL     OW14851   6.014   3.700   6.600
 4651SOL    HW114852   5.974   3.640   6.531
 4651SOL    HW214853   6.094   3.746   6.561
 4652SOL     OW14854   6.542   6.035   4.555
 4652SOL    HW114855   6.605   6.000   4.485
 4652SOL    HW214856   6.535   6.134   4.548
 4653SOL     OW14857   4.788   5.517   0.322
 4653SOL    HW114858   4.888   5.528   0.321
 4653SOL    HW214859   4.760   5.467   0.240
 4654SOL     OW14860   6.946   6.818   5.420
 4654SOL    HW114861   7.013   6.744   5.425
 4654SOL    HW214862   6.856   6.779   5.400
 4655SOL     OW14863   4.820   3.693   1.861
 4655SOL    HW114864   4.795   3.748   1.780
 4655SOL    HW214865   4.785   3.600   1.850
 4656SOL     OW14866   0.772   0.478   1.563
 4656SOL    HW114867   0.729   0.564   1.592
 4656SOL    HW214868   0.767   0.470   1.464
 4657SOL     OW14869   5.764   5.995   1.657
 4657SOL    HW114870   5.735   5.974   1.564
 4657SOL    HW214871   5.815   5.918   1.695
 4658SOL     OW14872   2.967   2.803   5.390
 4658SOL    HW114873   2.972   2.740   5.468
 4658SOL    HW214874   2.917   2.885   5.418
 4659SOL     OW14875   3.496   4.328   1.388
 4659SOL    HW114876   3.442   4.402   1.428
 4659SOL    HW214877   3.540   4.276   1.461
 4660SOL     OW14878   1.576   0.034   4.103
 4660SOL    HW114879   1.509   0.030   4.177
 4660SOL    HW214880   1.536   0.081   4.024
 4661SOL     OW14881   2.586   4.887   5.685
 4661SOL    HW114882   2.532   4.839   5.617
 4661SOL    HW214883   2.636   4.821   5.741
 4662SOL     OW14884   2.926   0.217   5.004
 4662SOL    HW114885   2.994   0.154   4.968
 4662SOL    HW214886   2.842   0.167   5.026
 4663SOL     OW14887   0.822   6.785   6.936
 4663SOL    HW114888   0.826   6.763   6.839
 4663SOL    HW214889   0.801   6.882   6.948
 4664SOL     OW14890   6.881   0.297   0.872
 4664SOL    HW114891   6.976   0.282   0.898
 4664SOL    HW214892   6.836   0.208   0.858
 4665SOL     OW14893   2.072   0.763   6.259
 4665SOL    HW114894   2.161   0.769   6.214
 4665SOL    HW214895   2.008   0.827   6.216
 4666SOL     OW14896   2.247   2.117   6.768
 4666SOL    HW114897   2.187   2.185   6.724
 4666SOL    HW214898   2.191   2.055   6.823
 4667SOL     OW14899   6.442   4.149   2.359
 4667SOL    HW114900   6.459   4.116   2.266
 4667SOL    HW214901   6.500   4.228   2.377
 4668SOL     OW14902   4.124   1.951   5.054
 4668SOL    HW114903   4.204   1.990   5.099
 4668SOL    HW214904   4.070   1.900   5.121
 4669SOL     OW14905   5.239   6.915   0.304
 4669SOL    HW114906   5.324   6.884   0.345
 4669SOL    HW214907   5.243   7.013   0.286
 4670SOL     OW14908   1.039   3.295   0.154
 4670SOL    HW114909   1.007   3.252   0.238
 4670SOL    HW214910   1.112   3.240   0.114
 4671SOL     OW14911   0.268   3.435   0.281
 4671SOL    HW114912   0.281   3.483   0.194
 4671SOL    HW214913   0.348   3.379   0.300
 4672SOL     OW14914   4.549   4.403   6.030
 4672SOL    HW114915   4.602   4.322   6.007
 4672SOL    HW214916   4.463   4.377   6.075
 4673SOL     OW14917   5.334   0.334   6.990
 4673SOL    HW114918   5.341   0.360   6.894
 4673SOL    HW214919   5.261   0.266   7.000
 4674SOL     OW14920   6.254   1.266   0.428
 4674SOL    HW114921   6.339   1.241   0.476
 4674SOL    HW214922   6.178   1.212   0.464
 4675SOL     OW14923   3.840   0.220   6.593
 4675SOL    HW114924   3.839   0.138   6.535
 4675SOL    HW214925   3.846   0.193   6.689
 4676SOL     OW14926   0.766   6.816   4.522
 4676SOL    HW114927   0.783   6.782   4.615
 4676SOL    HW214928   0.750   6.739   4.460
 4677SOL     OW14929   3.032   0.597   6.877
 4677SOL    HW114930   2.994   0.639   6.795
 4677SOL    HW214931   3.015   0.499   6.876
 4678SOL     OW14932   1.978   5.301   2.217
 4678SOL    HW114933   1.979   5.305   2.317
 4678SOL    HW214934   1.988   5.393   2.179
 4679SOL     OW14935   3.034   1.445   6.171
 4679SOL    HW114936   3.094   1.401   6.236
 4679SOL    HW214937   3.080   1.452   6.082
 4680SOL     OW14938   2.166   5.827   1.025
 4680SOL    HW114939   2.111   5.747   0.999
 4680SOL    HW214940   2.255   5.796   1.058
 4681SOL     OW14941   6.500   6.302   4.209
 4681SOL    HW114942   6.421   6.261   4.163
 4681SOL    HW214943   6.489   6.294   4.308
 4682SOL     OW14944   4.431   5.490   6.961
 4682SOL    HW114945   4.335   5.489   6.935
 4682SOL    HW214946   4.451   5.412   7.021
 4683SOL     OW14947   5.789   4.618   2.504
 4683SOL    HW114948   5.763   4.531   2.546
 4683SOL    HW214949   5.835   4.599   2.417
 4684SOL     OW14950   0.451   2.117   4.737
 4684SOL    HW114951   0.387   2.194   4.735
 4684SOL    HW214952   0.400   2.031   4.729
 4685SOL     OW14953   6.596   5.514   4.555
 4685SOL    HW114954   6.677   5.474   4.600
 4685SOL    HW214955   6.523   5.445   4.552
 4686SOL     OW14956   5.037   5.429   0.410
 4686SOL    HW114957   5.116   5.369   0.415
 4686SOL    HW214958   4.958   5.386   0.454
 4687SOL     OW14959   6.372   4.042   5.076
 4687SOL    HW114960   6.350   3.953   5.035
 4687SOL    HW214961   6.471   4.055   5.076
 4688SOL     OW14962   0.639   3.143   6.480
 4688SOL    HW114963   0.688   3.080   6.541
 4688SOL    HW214964   0.679   3.235   6.489
 4689SOL     OW14965   6.249   0.465   6.026
 4689SOL    HW114966   6.301   0.544   6.060
 4689SOL    HW214967   6.246   0.394   6.096
 4690SOL     OW14968   1.127   1.009   6.978
 4690SOL    HW114969   1.029   1.001   6.960
 4690SOL    HW214970   1.178   0.999   6.892
 4691SOL     OW14971   2.887   3.844   1.271
 4691SOL    HW114972   2.859   3.842   1.367
 4691SOL    HW214973   2.887   3.751   1.234
 4692SOL     OW14974   0.141   4.996   2.646
 4692SOL    HW114975   0.125   4.990   2.745
 4692SOL    HW214976   0.061   4.963   2.597
 4693SOL     OW14977   0.109   1.189   4.900
 4693SOL    HW114978   0.166   1.139   4.965
 4693SOL    HW214979   0.034   1.233   4.950
 4694SOL     OW14980   3.200   0.613   0.179
 4694SOL    HW114981   3.216   0.515   0.173
 4694SOL    HW214982   3.108   0.633   0.145
 4695SOL     OW14983   3.711   3.340   1.667
 4695SOL    HW114984   3.652   3.306   1.741
 4695SOL    HW214985   3.806   3.313   1.686
 4696SOL     OW14986   1.299   4.307   5.860
 4696SOL    HW114987   1.356   4.313   5.779
 4696SOL    HW214988   1.278   4.211   5.879
 4697SOL     OW14989   1.382   3.637   0.905
 4697SOL    HW114990   1.471   3.629   0.950
 4697SOL    HW214991   1.388   3.598   0.813
 4698SOL     OW14992   4.868   4.823   2.548
 4698SOL    HW114993   4.927   4.777   2.614
 4698SOL    HW214994   4.788   4.860   2.595
 4699SOL     OW14995   0.531   6.558   2.269
 4699SOL    HW114996   0.562   6.478   2.218
 4699SOL    HW214997   0.433   6.572   2.251
 4700SOL     OW14998   5.536   1.808   1.846
 4700SOL    HW114999   5.476   1.871   1.796
 4700SOL    HW215000   5.481   1.738   1.890
 4701SOL     OW15001   0.895   1.382   6.934
 4701SOL    HW115002   0.875   1.335   6.848
 4701SOL    HW215003   0.993   1.378   6.952
 4702SOL     OW15004   4.673   4.044   6.083
 4702SOL    HW115005   4.714   4.135   6.085
 4702SOL    HW215006   4.574   4.054   6.069
 4703SOL     OW15007   0.875   2.233   2.853
 4703SOL    HW115008   0.825   2.296   2.794
 4703SOL    HW215009   0.918   2.284   2.927
 4704SOL     OW15010   0.275   5.837   0.862
 4704SOL    HW115011   0.301   5.918   0.914
 4704SOL    HW215012   0.343   5.765   0.876
 4705SOL     OW15013   3.039   3.092   3.558
 4705SOL    HW115014   2.989   3.119   3.476
 4705SOL    HW215015   3.014   3.153   3.634
 4706SOL     OW15016   3.858   5.624   6.630
 4706SOL    HW115017   3.838   5.722   6.634
 4706SOL    HW215018   3.852   5.585   6.722
 4707SOL     OW15019   2.259   5.625   0.804
 4707SOL    HW115020   2.267   5.634   0.705
 4707SOL    HW215021   2.164   5.638   0.832
 4708SOL     OW15022   2.853   2.796   0.538
 4708SOL    HW115023   2.897   2.822   0.623
 4708SOL    HW215024   2.903   2.836   0.461
 4709SOL     OW15025   4.017   5.159   4.928
 4709SOL    HW115026   4.057   5.197   5.011
 4709SOL    HW215027   3.922   5.189   4.919
 4710SOL     OW15028   4.563   1.406   6.321
 4710SOL    HW115029   4.582   1.436   6.414
 4710SOL    HW215030   4.648   1.378   6.276
 4711SOL     OW15031   4.083   0.135   2.574
 4711SOL    HW115032   4.177   0.114   2.600
 4711SOL    HW215033   4.041   0.055   2.531
 4712SOL     OW15034   2.451   4.633   1.026
 4712SOL    HW115035   2.438   4.537   1.004
 4712SOL    HW215036   2.539   4.645   1.073
 4713SOL     OW15037   3.335   4.543   1.472
 4713SOL    HW115038   3.249   4.534   1.523
 4713SOL    HW215039   3.315   4.583   1.382
 4714SOL     OW15040   2.118   2.113   0.325
 4714SOL    HW115041   2.207   2.082   0.293
 4714SOL    HW215042   2.068   2.155   0.250
 4715SOL     OW15043   6.570   3.634   2.735
 4715SOL    HW115044   6.634   3.565   2.699
 4715SOL    HW215045   6.476   3.605   2.716
 4716SOL     OW15046   3.899   4.651   6.343
 4716SOL    HW115047   3.852   4.590   6.407
 4716SOL    HW215048   3.855   4.644   6.253
 4717SOL     OW15049   0.947   5.916   1.913
 4717SOL    HW115050   0.921   5.820   1.902
 4717SOL    HW215051   1.023   5.938   1.851
 4718SOL     OW15052   5.275   1.933   6.516
 4718SOL    HW115053   5.353   1.976   6.471
 4718SOL    HW215054   5.235   1.865   6.455
 4719SOL     OW15055   4.894   3.698   2.753
 4719SOL    HW115056   4.856   3.756   2.826
 4719SOL    HW215057   4.943   3.622   2.795
 4720SOL     OW15058   2.182   6.829   5.517
 4720SOL    HW115059   2.090   6.796   5.538
 4720SOL    HW215060   2.217   6.882   5.594
 4721SOL     OW15061   0.741   2.397   1.887
 4721SOL    HW115062   0.646   2.414   1.863
 4721SOL    HW215063   0.795   2.480   1.876
 4722SOL     OW15064   1.689   6.112   6.760
 4722SOL    HW115065   1.718   6.042   6.825
 4722SOL    HW215066   1.716   6.202   6.794
 4723SOL     OW15067   2.264   6.099   5.947
 4723SOL    HW115068   2.313   6.165   5.890
 4723SOL    HW215069   2.304   6.008   5.935
 4724SOL     OW15070   4.122   6.487   2.591
 4724SOL    HW115071   4.147   6.423   2.517
 4724SOL    HW215072   4.025   6.509   2.585
 4725SOL     OW15073   5.209   6.376   2.999
 4725SOL    HW115074   5.236   6.471   3.014
 4725SOL    HW215075   5.123   6.357   3.047
 4726SOL     OW15076   0.749   3.736   6.883
 4726SOL    HW115077   0.663   3.722   6.835
 4726SOL    HW215078   0.739   3.706   6.978
 4727SOL     OW15079   0.102   5.689   6.815
 4727SOL    HW115080   0.015   5.691   6.766
 4727SOL    HW215081   0.137   5.595   6.816
 4728SOL     OW15082   5.276   1.513   0.865
 4728SOL    HW115083   5.226   1.598   0.859
 4728SOL    HW215084   5.364   1.522   0.819
 4729SOL     OW15085   1.827   1.076   3.281
 4729SOL    HW115086   1.851   1.157   3.228
 4729SOL    HW215087   1.731   1.081   3.308
 4730SOL     OW15088   2.458   6.246   5.804
 4730SOL    HW115089   2.554   6.236   5.830
 4730SOL    HW215090   2.446   6.219   5.709
 4731SOL     OW15091   5.760   0.322   5.537
 4731SOL    HW115092   5.742   0.313   5.635
 4731SOL    HW215093   5.858   0.310   5.520
 4732SOL     OW15094   0.070   3.417   6.629
 4732SOL    HW115095   0.087   3.331   6.581
 4732SOL    HW215096   7.005   3.418   6.664
 4733SOL     OW15097   1.011   3.836   3.365
 4733SOL    HW115098   1.072   3.837   3.444
 4733SOL    HW215099   1.045   3.900   3.296
 4734SOL     OW15100   5.546   2.707   6.614
 4734SOL    HW115101   5.537   2.621   6.665
 4734SOL    HW215102   5.633   2.750   6.638
 4735SOL     OW15103   1.224   5.095   3.478
 4735SOL    HW115104   1.284   5.121   3.553
 4735SOL    HW215105   1.246   5.003   3.447
 4736SOL     OW15106   0.046   1.214   6.507
 4736SOL    HW115107   0.053   1.221   6.606
 4736SOL    HW215108   0.113   1.148   6.473
 4737SOL     OW15109   2.274   4.881   2.351
 4737SOL    HW115110   2.367   4.876   2.386
 4737SOL    HW215111   2.219   4.940   2.410
 4738SOL     OW15112   6.752   6.303   1.773
 4738SOL    HW115113   6.782   6.397   1.758
 4738SOL    HW215114   6.819   6.255   1.830
 4739SOL     OW15115   4.759   0.321   1.948
 4739SOL    HW115116   4.719   0.265   2.021
 4739SOL    HW215117   4.747   0.418   1.971
 4740SOL     OW15118   0.563   1.256   2.613
 4740SOL    HW115119   0.558   1.256   2.513
 4740SOL    HW215120   0.652   1.289   2.642
 4741SOL     OW15121   3.854   2.430   1.285
 4741SOL    HW115122   3.886   2.519   1.316
 4741SOL    HW215123   3.810   2.381   1.360
 4742SOL     OW15124   2.263   6.778   6.863
 4742SOL    HW115125   2.166   6.790   6.885
 4742SOL    HW215126   2.299   6.698   6.911
 4743SOL     OW15127   1.645   3.704   2.522
 4743SOL    HW115128   1.657   3.640   2.446
 4743SOL    HW215129   1.730   3.756   2.535
 4744SOL     OW15130   2.200   5.717   0.571
 4744SOL    HW115131   2.282   5.697   0.517
 4744SOL    HW215132   2.120   5.683   0.522
 4745SOL     OW15133   3.038   3.450   0.242
 4745SOL    HW115134   3.090   3.366   0.224
 4745SOL    HW215135   3.097   3.529   0.225
 4746SOL     OW15136   4.571   5.245   3.939
 4746SOL    HW115137   4.523   5.228   3.852
 4746SOL    HW215138   4.611   5.336   3.936
 4747SOL     OW15139   1.429   2.788   0.635
 4747SOL    HW115140   1.379   2.839   0.705
 4747SOL    HW215141   1.459   2.700   0.673
 4748SOL     OW15142   1.676   6.645   1.918
 4748SOL    HW115143   1.691   6.671   1.822
 4748SOL    HW215144   1.716   6.555   1.934
 4749SOL     OW15145   2.172   7.010   0.148
 4749SOL    HW115146   2.260   0.005   0.108
 4749SOL    HW215147   2.138   6.926   0.106
 4750SOL     OW15148   6.488   4.474   5.241
 4750SOL    HW115149   6.427   4.542   5.282
 4750SOL    HW215150   6.471   4.470   5.142
 4751SOL     OW15151   5.149   1.822   2.511
 4751SOL    HW115152   5.228   1.803   2.453
 4751SOL    HW215153   5.102   1.737   2.533
 4752SOL     OW15154   4.781   0.862   0.203
 4752SOL    HW115155   4.849   0.854   0.276
 4752SOL    HW215156   4.822   0.907   0.124
 4753SOL     OW15157   1.386   6.673   4.805
 4753SOL    HW115158   1.384   6.645   4.901
 4753SOL    HW215159   1.405   6.593   4.747
 4754SOL     OW15160   4.589   3.897   5.526
 4754SOL    HW115161   4.593   3.962   5.603
 4754SOL    HW215162   4.613   3.806   5.558
 4755SOL     OW15163   1.758   0.692   1.255
 4755SOL    HW115164   1.765   0.672   1.157
 4755SOL    HW215165   1.662   0.696   1.281
 4756SOL     OW15166   6.906   4.427   6.725
 4756SOL    HW115167   6.987   4.457   6.673
 4756SOL    HW215168   6.824   4.470   6.687
 4757SOL     OW15169   1.442   2.503   1.521
 4757SOL    HW115170   1.488   2.430   1.572
 4757SOL    HW215171   1.369   2.542   1.577
 4758SOL     OW15172   1.486   0.335   3.653
 4758SOL    HW115173   1.496   0.420   3.705
 4758SOL    HW215174   1.400   0.336   3.603
 4759SOL     OW15175   0.529   5.367   0.266
 4759SOL    HW115176   0.458   5.434   0.287
 4759SOL    HW215177   0.601   5.411   0.212
 4760SOL     OW15178   1.453   0.029   0.954
 4760SOL    HW115179   1.371   0.081   0.932
 4760SOL    HW215180   1.476   6.998   0.878
 4761SOL     OW15181   0.032   6.975   0.626
 4761SOL    HW115182   7.022   7.016   0.708
 4761SOL    HW215183   0.121   7.018   0.607
 4762SOL     OW15184   1.608   5.921   1.909
 4762SOL    HW115185   1.518   5.964   1.917
 4762SOL    HW215186   1.624   5.894   1.815
 4763SOL     OW15187   4.695   5.732   1.918
 4763SOL    HW115188   4.625   5.719   1.848
 4763SOL    HW215189   4.761   5.656   1.914
 4764SOL     OW15190   4.852   3.681   5.339
 4764SOL    HW115191   4.799   3.743   5.396
 4764SOL    HW215192   4.793   3.641   5.269
 4765SOL     OW15193   3.118   0.819   5.406
 4765SOL    HW115194   3.214   0.829   5.381
 4765SOL    HW215195   3.087   0.725   5.388
 4766SOL     OW15196   5.805   6.957   4.327
 4766SOL    HW115197   5.794   6.858   4.317
 4766SOL    HW215198   5.719   7.002   4.301
 4767SOL     OW15199   2.505   5.614   4.867
 4767SOL    HW115200   2.490   5.641   4.962
 4767SOL    HW215201   2.548   5.524   4.864
 4768SOL     OW15202   4.368   3.154   6.347
 4768SOL    HW115203   4.347   3.104   6.263
 4768SOL    HW215204   4.381   3.090   6.422
 4769SOL     OW15205   2.732   6.216   0.806
 4769SOL    HW115206   2.796   6.292   0.802
 4769SOL    HW215207   2.704   6.190   0.713
 4770SOL     OW15208   6.698   1.853   5.864
 4770SOL    HW115209   6.793   1.882   5.858
 4770SOL    HW215210   6.693   1.756   5.888
 4771SOL     OW15211   2.418   0.210   5.037
 4771SOL    HW115212   2.352   0.157   4.984
 4771SOL    HW215213   2.434   0.298   4.992
 4772SOL     OW15214   2.848   5.156   0.725
 4772SOL    HW115215   2.920   5.213   0.685
 4772SOL    HW215216   2.829   5.078   0.665
 4773SOL     OW15217   1.869   5.758   4.656
 4773SOL    HW115218   1.889   5.674   4.706
 4773SOL    HW215219   1.770   5.772   4.653
 4774SOL     OW15220   1.796   4.148   0.849
 4774SOL    HW115221   1.834   4.229   0.894
 4774SOL    HW215222   1.867   4.104   0.794
 4775SOL     OW15223   5.295   6.663   4.639
 4775SOL    HW115224   5.227   6.736   4.636
 4775SOL    HW215225   5.253   6.578   4.606
 4776SOL     OW15226   1.466   0.387   5.321
 4776SOL    HW115227   1.410   0.403   5.402
 4776SOL    HW215228   1.406   0.364   5.243
 4777SOL     OW15229   1.315   5.275   0.482
 4777SOL    HW115230   1.316   5.343   0.409
 4777SOL    HW215231   1.228   5.227   0.481
 4778SOL     OW15232   0.773   2.367   5.015
 4778SOL    HW115233   0.860   2.413   4.997
 4778SOL    HW215234   0.753   2.303   4.940
 4779SOL     OW15235   5.968   0.366   4.279
 4779SOL    HW115236   5.957   0.459   4.243
 4779SOL    HW215237   5.989   0.303   4.205
 4780SOL     OW15238   5.789   2.928   5.551
 4780SOL    HW115239   5.765   2.838   5.589
 4780SOL    HW215240   5.881   2.925   5.514
 4781SOL     OW15241   2.409   5.750   2.374
 4781SOL    HW115242   2.489   5.765   2.316
 4781SOL    HW215243   2.344   5.691   2.325
 4782SOL     OW15244   5.557   5.305   5.911
 4782SOL    HW115245   5.486   5.283   5.844
 4782SOL    HW215246   5.602   5.390   5.885
 4783SOL     OW15247   5.785   4.129   0.450
 4783SOL    HW115248   5.785   4.063   0.375
 4783SOL    HW215249   5.755   4.218   0.416
 4784SOL     OW15250   6.079   2.340   6.212
 4784SOL    HW115251   5.987   2.325   6.246
 4784SOL    HW215252   6.082   2.319   6.114
 4785SOL     OW15253   0.246   6.292   3.253
 4785SOL    HW115254   0.267   6.201   3.217
 4785SOL    HW215255   0.332   6.337   3.280
 4786SOL     OW15256   2.751   0.214   1.029
 4786SOL    HW115257   2.849   0.203   1.017
 4786SOL    HW215258   2.725   0.187   1.122
 4787SOL     OW15259   4.438   2.213   4.288
 4787SOL    HW115260   4.389   2.236   4.203
 4787SOL    HW215261   4.486   2.295   4.321
 4788SOL     OW15262   6.050   5.788   6.882
 4788SOL    HW115263   6.060   5.825   6.790
 4788SOL    HW215264   6.013   5.695   6.877
 4789SOL     OW15265   5.014   1.977   2.194
 4789SOL    HW115266   4.943   1.961   2.262
 4789SOL    HW215267   4.976   1.965   2.102
 4790SOL     OW15268   5.370   1.528   5.478
 4790SOL    HW115269   5.449   1.479   5.441
 4790SOL    HW215270   5.286   1.485   5.446
 4791SOL     OW15271   0.164   3.063   0.947
 4791SOL    HW115272   0.193   3.143   1.001
 4791SOL    HW215273   0.204   3.070   0.855
 4792SOL     OW15274   1.647   4.609   5.000
 4792SOL    HW115275   1.629   4.511   5.008
 4792SOL    HW215276   1.701   4.627   4.918
 4793SOL     OW15277   1.462   4.518   6.139
 4793SOL    HW115278   1.516   4.449   6.090
 4793SOL    HW215279   1.498   4.529   6.232
 4794SOL     OW15280   4.837   0.307   3.705
 4794SOL    HW115281   4.812   0.356   3.622
 4794SOL    HW215282   4.932   0.330   3.730
 4795SOL     OW15283   0.220   1.832   4.019
 4795SOL    HW115284   0.241   1.775   3.940
 4795SOL    HW215285   0.262   1.922   4.008
 4796SOL     OW15286   3.631   1.347   5.892
 4796SOL    HW115287   3.665   1.271   5.946
 4796SOL    HW215288   3.660   1.337   5.797
 4797SOL     OW15289   0.198   5.566   4.790
 4797SOL    HW115290   0.273   5.529   4.735
 4797SOL    HW215291   0.170   5.654   4.753
 4798SOL     OW15292   5.414   5.072   6.467
 4798SOL    HW115293   5.410   4.979   6.504
 4798SOL    HW215294   5.396   5.070   6.369
 4799SOL     OW15295   2.940   2.427   6.542
 4799SOL    HW115296   2.983   2.491   6.606
 4799SOL    HW215297   2.981   2.336   6.553
 4800SOL     OW15298   2.164   4.539   0.385
 4800SOL    HW115299   2.229   4.502   0.318
 4800SOL    HW215300   2.164   4.481   0.466
 4801SOL     OW15301   4.750   2.679   1.138
 4801SOL    HW115302   4.822   2.742   1.107
 4801SOL    HW215303   4.663   2.728   1.145
 4802SOL     OW15304   6.771   6.436   2.017
 4802SOL    HW115305   6.671   6.436   2.022
 4802SOL    HW215306   6.803   6.345   1.990
 4803SOL     OW15307   5.567   4.980   0.257
 4803SOL    HW115308   5.581   5.064   0.310
 4803SOL    HW215309   5.651   4.956   0.210
 4804SOL     OW15310   5.137   1.647   0.384
 4804SOL    HW115311   5.038   1.628   0.389
 4804SOL    HW215312   5.151   1.746   0.380
 4805SOL     OW15313   6.630   1.782   1.834
 4805SOL    HW115314   6.704   1.729   1.876
 4805SOL    HW215315   6.654   1.879   1.833
 4806SOL     OW15316   1.297   3.902   2.807
 4806SOL    HW115317   1.211   3.948   2.783
 4806SOL    HW215318   1.345   3.874   2.724
 4807SOL     OW15319   1.170   3.421   6.679
 4807SOL    HW115320   1.262   3.413   6.718
 4807SOL    HW215321   1.142   3.517   6.678
 4808SOL     OW15322   3.939   5.937   1.067
 4808SOL    HW115323   4.011   5.972   1.128
 4808SOL    HW215324   3.873   5.884   1.120
 4809SOL     OW15325   3.571   4.763   1.518
 4809SOL    HW115326   3.487   4.708   1.517
 4809SOL    HW215327   3.558   4.846   1.464
 4810SOL     OW15328   0.777   4.003   4.232
 4810SOL    HW115329   0.841   4.031   4.160
 4810SOL    HW215330   0.695   3.963   4.190
 4811SOL     OW15331   3.758   3.513   4.480
 4811SOL    HW115332   3.816   3.432   4.473
 4811SOL    HW215333   3.724   3.522   4.574
 4812SOL     OW15334   0.641   6.834   1.538
 4812SOL    HW115335   0.684   6.744   1.544
 4812SOL    HW215336   0.548   6.829   1.576
 4813SOL     OW15337   5.755   1.667   0.055
 4813SOL    HW115338   5.847   1.699   0.035
 4813SOL    HW215339   5.744   1.657   0.154
 4814SOL     OW15340   6.835   4.103   2.289
 4814SOL    HW115341   6.812   4.200   2.299
 4814SOL    HW215342   6.898   4.076   2.362
 4815SOL     OW15343   5.284   5.194   2.976
 4815SOL    HW115344   5.234   5.243   3.048
 4815SOL    HW215345   5.366   5.245   2.952
 4816SOL     OW15346   1.947   6.477   1.435
 4816SOL    HW115347   2.001   6.561   1.439
 4816SOL    HW215348   1.877   6.479   1.507
 4817SOL     OW15349   3.914   0.475   1.896
 4817SOL    HW115350   3.878   0.392   1.939
 4817SOL    HW215351   3.866   0.555   1.933
 4818SOL     OW15352   2.789   0.365   4.077
 4818SOL    HW115353   2.756   0.291   4.136
 4818SOL    HW215354   2.828   0.327   3.994
 4819SOL     OW15355   3.129   2.285   1.051
 4819SOL    HW115356   3.033   2.303   1.073
 4819SOL    HW215357   3.143   2.295   0.953
 4820SOL     OW15358   0.325   3.479   1.546
 4820SOL    HW115359   0.268   3.444   1.620
 4820SOL    HW215360   0.287   3.451   1.458
 4821SOL     OW15361   6.335   5.613   1.855
 4821SOL    HW115362   6.369   5.618   1.761
 4821SOL    HW215363   6.305   5.520   1.875
 4822SOL     OW15364   1.584   3.829   3.684
 4822SOL    HW115365   1.664   3.768   3.681
 4822SOL    HW215366   1.506   3.779   3.721
 4823SOL     OW15367   0.832   6.921   3.931
 4823SOL    HW115368   0.772   6.974   3.990
 4823SOL    HW215369   0.888   6.859   3.986
 4824SOL     OW15370   5.181   1.949   3.379
 4824SOL    HW115371   5.170   1.960   3.280
 4824SOL    HW215372   5.092   1.965   3.423
 4825SOL     OW15373   1.279   3.237   4.431
 4825SOL    HW115374   1.212   3.270   4.498
 4825SOL    HW215375   1.328   3.315   4.392
 4826SOL     OW15376   0.420   6.402   0.543
 4826SOL    HW115377   0.519   6.391   0.535
 4826SOL    HW215378   0.397   6.499   0.546
 4827SOL     OW15379   5.086   0.626   1.595
 4827SOL    HW115380   5.064   0.533   1.564
 4827SOL    HW215381   5.039   0.693   1.538
 4828SOL     OW15382   5.662   3.787   1.621
 4828SOL    HW115383   5.684   3.813   1.715
 4828SOL    HW215384   5.578   3.833   1.593
 4829SOL     OW15385   3.582   0.145   6.070
 4829SOL    HW115386   3.523   0.133   6.150
 4829SOL    HW215387   3.527   0.134   5.987
 4830SOL     OW15388   4.818   6.078   3.866
 4830SOL    HW115389   4.797   6.156   3.807
 4830SOL    HW215390   4.891   6.104   3.929
 4831SOL     OW15391   6.944   4.957   5.194
 4831SOL    HW115392   7.026   4.905   5.172
 4831SOL    HW215393   6.903   4.993   5.110
 4832SOL     OW15394   3.277   2.592   6.286
 4832SOL    HW115395   3.289   2.509   6.340
 4832SOL    HW215396   3.190   2.635   6.310
 4833SOL     OW15397   4.492   1.582   2.900
 4833SOL    HW115398   4.562   1.585   2.970
 4833SOL    HW215399   4.505   1.657   2.836
 4834SOL     OW15400   3.871   0.511   0.515
 4834SOL    HW115401   3.875   0.537   0.418
 4834SOL    HW215402   3.829   0.421   0.524
 4835SOL     OW15403   1.685   0.173   6.259
 4835SOL    HW115404   1.648   0.211   6.174
 4835SOL    HW215405   1.693   0.245   6.328
 4836SOL     OW15406   4.205   1.901   3.641
 4836SOL    HW115407   4.258   1.838   3.697
 4836SOL    HW215408   4.229   1.995   3.664
 4837SOL     OW15409   3.396   2.815   1.824
 4837SOL    HW115410   3.458   2.794   1.748
 4837SOL    HW215411   3.330   2.740   1.834
 4838SOL     OW15412   3.285   4.954   2.341
 4838SOL    HW115413   3.333   4.913   2.263
 4838SOL    HW215414   3.332   4.929   2.425
 4839SOL     OW15415   0.300   4.329   5.349
 4839SOL    HW115416   0.268   4.349   5.442
 4839SOL    HW215417   0.232   4.274   5.301
 4840SOL     OW15418   5.751   6.817   6.735
 4840SOL    HW115419   5.774   6.721   6.716
 4840SOL    HW215420   5.799   6.876   6.671
 4841SOL     OW15421   3.605   5.787   1.782
 4841SOL    HW115422   3.572   5.849   1.711
 4841SOL    HW215423   3.526   5.742   1.825
 4842SOL     OW15424   3.485   5.216   1.684
 4842SOL    HW115425   3.386   5.208   1.698
 4842SOL    HW215426   3.521   5.286   1.745
 4843SOL     OW15427   6.419   4.099   0.209
 4843SOL    HW115428   6.391   4.021   0.264
 4843SOL    HW215429   6.483   4.156   0.262
 4844SOL     OW15430   0.206   4.275   6.992
 4844SOL    HW115431   0.156   4.234   6.916
 4844SOL    HW215432   0.142   4.306   0.033
 4845SOL     OW15433   6.543   5.393   4.281
 4845SOL    HW115434   6.482   5.340   4.341
 4845SOL    HW215435   6.636   5.360   4.290
 4846SOL     OW15436   0.284   4.002   0.755
 4846SOL    HW115437   0.384   4.006   0.762
 4846SOL    HW215438   0.251   3.917   0.796
 4847SOL     OW15439   3.597   1.964   5.671
 4847SOL    HW115440   3.610   2.029   5.597
 4847SOL    HW215441   3.685   1.936   5.708
 4848SOL     OW15442   1.802   1.543   4.613
 4848SOL    HW115443   1.889   1.587   4.589
 4848SOL    HW215444   1.821   1.455   4.657
 4849SOL     OW15445   1.624   6.497   6.968
 4849SOL    HW115446   1.564   6.508   0.018
 4849SOL    HW215447   1.569   6.488   6.885
 4850SOL     OW15448   3.401   0.552   1.947
 4850SOL    HW115449   3.308   0.565   1.983
 4850SOL    HW215450   3.454   0.498   2.012
 4851SOL     OW15451   3.774   6.544   5.153
 4851SOL    HW115452   3.733   6.457   5.181
 4851SOL    HW215453   3.709   6.595   5.097
 4852SOL     OW15454   1.514   0.291   6.743
 4852SOL    HW115455   1.546   0.374   6.697
 4852SOL    HW215456   1.588   0.223   6.745
 4853SOL     OW15457   3.692   1.558   2.403
 4853SOL    HW115458   3.597   1.527   2.399
 4853SOL    HW215459   3.721   1.564   2.498
 4854SOL     OW15460   4.904   5.902   2.529
 4854SOL    HW115461   4.979   5.847   2.492
 4854SOL    HW215462   4.853   5.848   2.595
 4855SOL     OW15463   5.903   2.213   1.746
 4855SOL    HW115464   5.851   2.130   1.727
 4855SOL    HW215465   5.907   2.269   1.664
 4856SOL     OW15466   2.418   4.849   2.871
 4856SOL    HW115467   2.445   4.882   2.961
 4856SOL    HW215468   2.492   4.793   2.833
 4857SOL     OW15469   1.518   1.354   5.984
 4857SOL    HW115470   1.475   1.385   6.069
 4857SOL    HW215471   1.601   1.408   5.968
 4858SOL     OW15472   1.750   1.233   4.005
 4858SOL    HW115473   1.677   1.205   3.943
 4858SOL    HW215474   1.732   1.196   4.096
 4859SOL     OW15475   1.426   6.017   4.334
 4859SOL    HW115476   1.426   6.049   4.239
 4859SOL    HW215477   1.333   6.020   4.370
 4860SOL     OW15478   4.001   5.284   2.218
 4860SOL    HW115479   4.036   5.201   2.176
 4860SOL    HW215480   3.902   5.275   2.231
 4861SOL     OW15481   5.250   5.208   0.384
 4861SOL    HW115482   5.303   5.216   0.299
 4861SOL    HW215483   5.310   5.177   0.458
 4862SOL     OW15484   2.126   5.058   4.283
 4862SOL    HW115485   2.164   4.971   4.312
 4862SOL    HW215486   2.189   5.132   4.306
 4863SOL     OW15487   5.535   4.826   0.483
 4863SOL    HW115488   5.515   4.876   0.567
 4863SOL    HW215489   5.513   4.883   0.404
 4864SOL     OW15490   3.502   1.373   4.323
 4864SOL    HW115491   3.456   1.289   4.350
 4864SOL    HW215492   3.564   1.355   4.248
 4865SOL     OW15493   2.108   0.436   4.793
 4865SOL    HW115494   2.017   0.450   4.831
 4865SOL    HW215495   2.136   0.517   4.741
 4866SOL     OW15496   6.600   3.824   1.375
 4866SOL    HW115497   6.589   3.911   1.327
 4866SOL    HW215498   6.511   3.792   1.406
 4867SOL     OW15499   4.721   5.595   2.161
 4867SOL    HW115500   4.653   5.622   2.228
 4867SOL    HW215501   4.716   5.657   2.082
 4868SOL     OW15502   6.734   4.862   2.628
 4868SOL    HW115503   6.663   4.842   2.560
 4868SOL    HW215504   6.704   4.829   2.718
 4869SOL     OW15505   1.232   1.613   0.865
 4869SOL    HW115506   1.296   1.550   0.822
 4869SOL    HW215507   1.159   1.561   0.910
 4870SOL     OW15508   0.607   6.202   1.836
 4870SOL    HW115509   0.657   6.191   1.922
 4870SOL    HW215510   0.510   6.188   1.852
 4871SOL     OW15511   0.924   0.523   4.599
 4871SOL    HW115512   0.969   0.435   4.583
 4871SOL    HW215513   0.946   0.556   4.690
 4872SOL     OW15514   6.326   6.715   3.101
 4872SOL    HW115515   6.338   6.698   3.003
 4872SOL    HW215516   6.229   6.707   3.124
 4873SOL     OW15517   6.804   5.906   4.573
 4873SOL    HW115518   6.841   5.954   4.494
 4873SOL    HW215519   6.799   5.968   4.651
 4874SOL     OW15520   5.181   3.133   2.502
 4874SOL    HW115521   5.258   3.122   2.439
 4874SOL    HW215522   5.096   3.105   2.457
 4875SOL     OW15523   5.091   0.186   6.745
 4875SOL    HW115524   5.173   0.244   6.744
 4875SOL    HW215525   5.093   0.124   6.668
 4876SOL     OW15526   6.930   1.309   3.831
 4876SOL    HW115527   6.956   1.262   3.747
 4876SOL    HW215528   6.994   1.384   3.849
 4877SOL     OW15529   0.392   2.281   5.576
 4877SOL    HW115530   0.446   2.364   5.589
 4877SOL    HW215531   0.420   2.212   5.642
 4878SOL     OW15532   6.781   1.900   2.209
 4878SOL    HW115533   6.852   1.868   2.272
 4878SOL    HW215534   6.800   1.995   2.183
 4879SOL     OW15535   4.436   2.485   1.772
 4879SOL    HW115536   4.402   2.479   1.866
 4879SOL    HW215537   4.489   2.403   1.751
 4880SOL     OW15538   6.320   3.728   7.016
 4880SOL    HW115539   6.388   3.687   0.047
 4880SOL    HW215540   6.244   3.665   7.004
 4881SOL     OW15541   1.771   1.783   0.499
 4881SOL    HW115542   1.764   1.880   0.479
 4881SOL    HW215543   1.803   1.734   0.418
 4882SOL     OW15544   3.865   2.293   5.629
 4882SOL    HW115545   3.873   2.336   5.719
 4882SOL    HW215546   3.849   2.363   5.559
 4883SOL     OW15547   5.343   3.963   1.305
 4883SOL    HW115548   5.378   3.979   1.397
 4883SOL    HW215549   5.414   3.987   1.238
 4884SOL     OW15550   3.928   5.071   0.884
 4884SOL    HW115551   3.996   5.060   0.957
 4884SOL    HW215552   3.856   5.133   0.915
 4885SOL     OW15553   2.509   4.265   1.820
 4885SOL    HW115554   2.485   4.337   1.755
 4885SOL    HW215555   2.489   4.296   1.913
 4886SOL     OW15556   3.357   6.786   1.402
 4886SOL    HW115557   3.408   6.717   1.349
 4886SOL    HW215558   3.264   6.791   1.368
 4887SOL     OW15559   0.864   6.148   1.702
 4887SOL    HW115560   0.814   6.062   1.691
 4887SOL    HW215561   0.859   6.178   1.797
 4888SOL     OW15562   2.531   0.111   2.816
 4888SOL    HW115563   2.598   0.106   2.890
 4888SOL    HW215564   2.445   0.150   2.851
 4889SOL     OW15565   6.498   1.666   5.425
 4889SOL    HW115566   6.528   1.752   5.466
 4889SOL    HW215567   6.542   1.655   5.336
 4890SOL     OW15568   1.006   1.717   5.890
 4890SOL    HW115569   1.042   1.756   5.805
 4890SOL    HW215570   1.060   1.748   5.967
 4891SOL     OW15571   2.928   4.967   6.937
 4891SOL    HW115572   2.997   4.994   6.869
 4891SOL    HW215573   2.922   4.868   6.939
 4892SOL     OW15574   5.497   5.536   2.217
 4892SOL    HW115575   5.500   5.612   2.151
 4892SOL    HW215576   5.458   5.569   2.303
 4893SOL     OW15577   6.118   3.459   2.162
 4893SOL    HW115578   6.184   3.528   2.194
 4893SOL    HW215579   6.163   3.398   2.097
 4894SOL     OW15580   3.642   0.116   2.688
 4894SOL    HW115581   3.690   0.196   2.723
 4894SOL    HW215582   3.705   0.039   2.682
 4895SOL     OW15583   1.009   4.897   3.304
 4895SOL    HW115584   1.054   4.935   3.385
 4895SOL    HW215585   0.981   4.971   3.244
 4896SOL     OW15586   2.543   4.849   2.426
 4896SOL    HW115587   2.578   4.782   2.361
 4896SOL    HW215588   2.567   4.820   2.519
 4897SOL     OW15589   1.721   5.895   5.720
 4897SOL    HW115590   1.781   5.821   5.689
 4897SOL    HW215591   1.626   5.870   5.703
 4898SOL     OW15592   4.153   0.926   5.103
 4898SOL    HW115593   4.229   0.975   5.061
 4898SOL    HW215594   4.081   0.990   5.127
 4899SOL     OW15595   6.323   5.246   3.123
 4899SOL    HW115596   6.357   5.314   3.188
 4899SOL    HW215597   6.400   5.197   3.083
 4900SOL     OW15598   3.888   5.988   5.901
 4900SOL    HW115599   3.881   5.902   5.851
 4900SOL    HW215600   3.819   5.990   5.973
 4901SOL     OW15601   1.949   1.629   5.764
 4901SOL    HW115602   2.027   1.581   5.725
 4901SOL    HW215603   1.925   1.706   5.704
 4902SOL     OW15604   1.409   0.971   5.537
 4902SOL    HW115605   1.349   0.966   5.457
 4902SOL    HW215606   1.500   0.999   5.509
 4903SOL     OW15607   4.331   5.847   1.204
 4903SOL    HW115608   4.237   5.872   1.231
 4903SOL    HW215609   4.374   5.795   1.277
 4904SOL     OW15610   2.059   0.944   5.659
 4904SOL    HW115611   2.028   0.851   5.636
 4904SOL    HW215612   1.993   0.988   5.720
 4905SOL     OW15613   2.376   0.981   3.685
 4905SOL    HW115614   2.357   1.022   3.596
 4905SOL    HW215615   2.303   0.918   3.710
 4906SOL     OW15616   4.680   3.285   5.756
 4906SOL    HW115617   4.741   3.246   5.825
 4906SOL    HW215618   4.604   3.332   5.802
 4907SOL     OW15619   4.786   1.303   1.164
 4907SOL    HW115620   4.796   1.398   1.134
 4907SOL    HW215621   4.873   1.270   1.199
 4908SOL     OW15622   4.917   6.735   0.277
 4908SOL    HW115623   4.980   6.802   0.237
 4908SOL    HW215624   4.956   6.699   0.362
 4909SOL     OW15625   6.909   4.582   3.933
 4909SOL    HW115626   6.850   4.616   3.860
 4909SOL    HW215627   6.987   4.643   3.944
 4910SOL     OW15628   5.689   0.836   4.143
 4910SOL    HW115629   5.786   0.858   4.143
 4910SOL    HW215630   5.643   0.883   4.068
 4911SOL     OW15631   1.931   3.443   3.351
 4911SOL    HW115632   1.976   3.505   3.287
 4911SOL    HW215633   1.996   3.374   3.383
 4912SOL     OW15634   5.366   1.761   5.599
 4912SOL    HW115635   5.359   1.681   5.540
 4912SOL    HW215636   5.313   1.746   5.682
 4913SOL     OW15637   5.454   3.621   5.496
 4913SOL    HW115638   5.516   3.562   5.547
 4913SOL    HW215639   5.360   3.593   5.513
 4914SOL     OW15640   4.363   0.180   5.599
 4914SOL    HW115641   4.435   0.235   5.556
 4914SOL    HW215642   4.317   0.125   5.529
 4915SOL     OW15643   2.679   6.296   5.333
 4915SOL    HW115644   2.651   6.278   5.238
 4915SOL    HW215645   2.668   6.393   5.353
 4916SOL     OW15646   0.165   0.348   4.062
 4916SOL    HW115647   0.120   0.271   4.107
 4916SOL    HW215648   0.181   0.326   3.966
 4917SOL     OW15649   4.011   5.751   0.864
 4917SOL    HW115650   4.092   5.804   0.841
 4917SOL    HW215651   3.969   5.788   0.947
 4918SOL     OW15652   6.036   6.313   2.495
 4918SOL    HW115653   6.013   6.221   2.462
 4918SOL    HW215654   5.961   6.348   2.551
 4919SOL     OW15655   3.809   3.066   2.505
 4919SOL    HW115656   3.902   3.097   2.484
 4919SOL    HW215657   3.777   3.005   2.432
 4920SOL     OW15658   5.333   0.165   5.053
 4920SOL    HW115659   5.428   0.175   5.026
 4920SOL    HW215660   5.274   0.207   4.985
 4921SOL     OW15661   1.683   4.970   0.065
 4921SOL    HW115662   1.700   4.899   0.133
 4921SOL    HW215663   1.592   5.010   0.080
 4922SOL     OW15664   3.163   2.090   4.866
 4922SOL    HW115665   3.139   2.182   4.894
 4922SOL    HW215666   3.162   2.029   4.946
 4923SOL     OW15667   2.283   1.638   2.816
 4923SOL    HW115668   2.258   1.695   2.738
 4923SOL    HW215669   2.267   1.542   2.793
 4924SOL     OW15670   2.325   1.960   4.938
 4924SOL    HW115671   2.235   1.939   4.978
 4924SOL    HW215672   2.349   2.055   4.958
 4925SOL     OW15673   4.492   0.355   2.862
 4925SOL    HW115674   4.543   0.428   2.815
 4925SOL    HW215675   4.553   0.277   2.877
 4926SOL     OW15676   5.481   2.030   1.423
 4926SOL    HW115677   5.560   2.083   1.392
 4926SOL    HW215678   5.424   2.006   1.344
 4927SOL     OW15679   3.106   3.281   5.897
 4927SOL    HW115680   3.125   3.202   5.839
 4927SOL    HW215681   3.114   3.365   5.843
 4928SOL     OW15682   1.430   0.880   0.071
 4928SOL    HW115683   1.510   0.928   0.107
 4928SOL    HW215684   1.381   0.940   0.007
 4929SOL     OW15685   6.628   0.201   3.633
 4929SOL    HW115686   6.722   0.170   3.642
 4929SOL    HW215687   6.616   0.246   3.544
 4930SOL     OW15688   5.733   6.868   2.546
 4930SOL    HW115689   5.762   6.953   2.589
 4930SOL    HW215690   5.637   6.850   2.568
 4931SOL     OW15691   6.241   6.364   1.756
 4931SOL    HW115692   6.151   6.387   1.718
 4931SOL    HW215693   6.311   6.420   1.713
 4932SOL     OW15694   3.721   3.896   3.340
 4932SOL    HW115695   3.673   3.971   3.295
 4932SOL    HW215696   3.663   3.859   3.413
 4933SOL     OW15697   2.443   6.643   3.157
 4933SOL    HW115698   2.465   6.555   3.116
 4933SOL    HW215699   2.344   6.654   3.163
 4934SOL     OW15700   3.749   5.799   2.710
 4934SOL    HW115701   3.785   5.863   2.779
 4934SOL    HW215702   3.776   5.706   2.735
 4935SOL     OW15703   2.049   1.971   6.912
 4935SOL    HW115704   2.099   1.884   6.904
 4935SOL    HW215705   2.062   2.008   7.004
 4936SOL     OW15706   2.761   4.832   0.826
 4936SOL    HW115707   2.811   4.868   0.747
 4936SOL    HW215708   2.797   4.742   0.850
 4937SOL     OW15709   5.127   3.333   5.205
 4937SOL    HW115710   5.178   3.276   5.269
 4937SOL    HW215711   5.038   3.293   5.187
 4938SOL     OW15712   3.328   5.422   6.027
 4938SOL    HW115713   3.371   5.430   5.937
 4938SOL    HW215714   3.369   5.345   6.077
 4939SOL     OW15715   5.283   2.183   4.838
 4939SOL    HW115716   5.336   2.226   4.765
 4939SOL    HW215717   5.227   2.109   4.799
 4940SOL     OW15718   1.338   0.791   4.968
 4940SOL    HW115719   1.276   0.802   5.046
 4940SOL    HW215720   1.285   0.785   4.884
 4941SOL     OW15721   3.390   1.903   6.420
 4941SOL    HW115722   3.426   1.889   6.512
 4941SOL    HW215723   3.341   1.821   6.391
 4942SOL     OW15724   4.805   3.334   5.229
 4942SOL    HW115725   4.782   3.430   5.213
 4942SOL    HW215726   4.855   3.326   5.315
 4943SOL     OW15727   3.898   2.272   0.008
 4943SOL    HW115728   3.949   2.193   0.041
 4943SOL    HW215729   3.877   2.333   0.085
 4944SOL     OW15730   2.135   3.887   3.249
 4944SOL    HW115731   2.068   3.938   3.303
 4944SOL    HW215732   2.226   3.904   3.286
 4945SOL     OW15733   0.823   0.804   3.933
 4945SOL    HW115734   0.865   0.757   4.010
 4945SOL    HW215735   0.732   0.838   3.960
 4946SOL     OW15736   0.982   2.887   1.123
 4946SOL    HW115737   0.992   2.790   1.102
 4946SOL    HW215738   0.897   2.922   1.084
 4947SOL     OW15739   0.856   6.333   0.707
 4947SOL    HW115740   0.926   6.280   0.659
 4947SOL    HW215741   0.779   6.273   0.731
 4948SOL     OW15742   2.841   0.916   2.419
 4948SOL    HW115743   2.832   0.977   2.497
 4948SOL    HW215744   2.751   0.878   2.396
 4949SOL     OW15745   4.517   0.531   5.605
 4949SOL    HW115746   4.578   0.496   5.676
 4949SOL    HW215747   4.428   0.553   5.645
 4950SOL     OW15748   2.931   5.659   3.690
 4950SOL    HW115749   2.924   5.650   3.590
 4950SOL    HW215750   3.021   5.697   3.713
 4951SOL     OW15751   4.884   1.180   4.605
 4951SOL    HW115752   4.886   1.280   4.601
 4951SOL    HW215753   4.878   1.143   4.512
 4952SOL     OW15754   0.485   6.279   5.239
 4952SOL    HW115755   0.493   6.245   5.145
 4952SOL    HW215756   0.505   6.376   5.241
 4953SOL     OW15757   2.408   5.422   1.986
 4953SOL    HW115758   2.393   5.520   1.994
 4953SOL    HW215759   2.484   5.405   1.924
 4954SOL     OW15760   4.681   4.344   6.926
 4954SOL    HW115761   4.677   4.417   6.857
 4954SOL    HW215762   4.753   4.279   6.903
 4955SOL     OW15763   1.806   5.871   6.802
 4955SOL    HW115764   1.706   5.873   6.805
 4955SOL    HW215765   1.837   5.874   6.707
 4956SOL     OW15766   3.794   6.958   5.241
 4956SOL    HW115767   3.819   6.888   5.308
 4956SOL    HW215768   3.877   6.993   5.197
 4957SOL     OW15769   0.069   1.511   3.912
 4957SOL    HW115770   0.079   1.515   4.012
 4957SOL    HW215771   0.142   1.563   3.869
 4958SOL     OW15772   0.469   6.465   6.409
 4958SOL    HW115773   0.486   6.521   6.329
 4958SOL    HW215774   0.512   6.506   6.489
 4959SOL     OW15775   0.846   0.935   6.427
 4959SOL    HW115776   0.827   0.869   6.354
 4959SOL    HW215777   0.932   0.982   6.407
 4960SOL     OW15778   3.218   6.635   4.138
 4960SOL    HW115779   3.215   6.722   4.089
 4960SOL    HW215780   3.298   6.583   4.109
 4961SOL     OW15781   5.524   1.201   4.991
 4961SOL    HW115782   5.618   1.172   4.974
 4961SOL    HW215783   5.461   1.131   4.959
 4962SOL     OW15784   5.436   3.080   1.874
 4962SOL    HW115785   5.456   3.077   1.972
 4962SOL    HW215786   5.387   2.997   1.847
 4963SOL     OW15787   6.779   5.967   1.653
 4963SOL    HW115788   6.810   5.875   1.631
 4963SOL    HW215789   6.739   5.969   1.744
 4964SOL     OW15790   3.447   5.805   2.802
 4964SOL    HW115791   3.417   5.844   2.714
 4964SOL    HW215792   3.547   5.805   2.806
 4965SOL     OW15793   0.506   6.934   5.049
 4965SOL    HW115794   0.492   7.002   4.977
 4965SOL    HW215795   0.457   6.962   5.132
 4966SOL     OW15796   2.290   5.902   4.718
 4966SOL    HW115797   2.235   5.980   4.747
 4966SOL    HW215798   2.264   5.821   4.770
 4967SOL     OW15799   4.082   2.774   6.759
 4967SOL    HW115800   3.983   2.762   6.759
 4967SOL    HW215801   4.118   2.758   6.851
 4968SOL     OW15802   4.879   3.467   3.448
 4968SOL    HW115803   4.916   3.466   3.355
 4968SOL    HW215804   4.917   3.544   3.499
 4969SOL     OW15805   1.437   0.910   2.406
 4969SOL    HW115806   1.453   1.000   2.447
 4969SOL    HW215807   1.521   0.856   2.413
 4970SOL     OW15808   1.075   2.219   4.917
 4970SOL    HW115809   1.070   2.237   5.015
 4970SOL    HW215810   1.041   2.298   4.867
 4971SOL     OW15811   6.281   6.140   4.142
 4971SOL    HW115812   6.293   6.102   4.051
 4971SOL    HW215813   6.189   6.179   4.151
 4972SOL     OW15814   2.836   3.373   0.400
 4972SOL    HW115815   2.886   3.421   0.327
 4972SOL    HW215816   2.834   3.431   0.482
 4973SOL     OW15817   6.156   6.511   2.026
 4973SOL    HW115818   6.084   6.445   2.048
 4973SOL    HW215819   6.171   6.511   1.927
 4974SOL     OW15820   5.697   5.471   1.622
 4974SOL    HW115821   5.710   5.417   1.705
 4974SOL    HW215822   5.601   5.467   1.595
 4975SOL     OW15823   6.247   6.388   0.727
 4975SOL    HW115824   6.278   6.458   0.663
 4975SOL    HW215825   6.308   6.309   0.723
 4976SOL     OW15826   3.363   0.669   4.096
 4976SOL    HW115827   3.280   0.687   4.149
 4976SOL    HW215828   3.375   0.741   4.028
 4977SOL     OW15829   4.761   3.616   0.662
 4977SOL    HW115830   4.785   3.635   0.567
 4977SOL    HW215831   4.678   3.561   0.665
 4978SOL     OW15832   6.212   4.068   5.487
 4978SOL    HW115833   6.144   4.053   5.416
 4978SOL    HW215834   6.258   4.155   5.471
 4979SOL     OW15835   6.862   2.457   5.298
 4979SOL    HW115836   6.799   2.475   5.223
 4979SOL    HW215837   6.811   2.454   5.384
 4980SOL     OW15838   3.825   6.383   2.707
 4980SOL    HW115839   3.900   6.335   2.660
 4980SOL    HW215840   3.756   6.316   2.734
 4981SOL     OW15841   4.371   6.514   5.624
 4981SOL    HW115842   4.424   6.467   5.695
 4981SOL    HW215843   4.353   6.452   5.549
 4982SOL     OW15844   2.207   1.780   0.059
 4982SOL    HW115845   2.196   1.737   6.999
 4982SOL    HW215846   2.280   1.733   0.109
 4983SOL     OW15847   5.725   3.230   4.075
 4983SOL    HW115848   5.768   3.258   3.989
 4983SOL    HW215849   5.732   3.131   4.085
 4984SOL     OW15850   5.570   3.559   4.688
 4984SOL    HW115851   5.639   3.531   4.621
 4984SOL    HW215852   5.534   3.649   4.663
 4985SOL     OW15853   6.172   5.504   3.911
 4985SOL    HW115854   6.248   5.569   3.909
 4985SOL    HW215855   6.204   5.416   3.945
 4986SOL     OW15856   6.434   4.651   2.975
 4986SOL    HW115857   6.418   4.640   3.073
 4986SOL    HW215858   6.349   4.679   2.930
 4987SOL     OW15859   0.569   2.778   0.993
 4987SOL    HW115860   0.548   2.872   0.967
 4987SOL    HW215861   0.647   2.745   0.940
 4988SOL     OW15862   0.267   2.101   4.044
 4988SOL    HW115863   0.306   2.180   3.996
 4988SOL    HW215864   0.176   2.123   4.078
 4989SOL     OW15865   5.605   1.633   1.622
 4989SOL    HW115866   5.595   1.665   1.716
 4989SOL    HW215867   5.645   1.541   1.623
 4990SOL     OW15868   0.688   2.509   6.276
 4990SOL    HW115869   0.633   2.486   6.195
 4990SOL    HW215870   0.689   2.608   6.288
 4991SOL     OW15871   0.481   3.123   4.169
 4991SOL    HW115872   0.424   3.096   4.091
 4991SOL    HW215873   0.561   3.173   4.135
 4992SOL     OW15874   3.869   0.503   4.591
 4992SOL    HW115875   3.881   0.487   4.493
 4992SOL    HW215876   3.833   0.596   4.605
 4993SOL     OW15877   2.688   5.012   3.662
 4993SOL    HW115878   2.710   5.099   3.706
 4993SOL    HW215879   2.606   4.973   3.704
 4994SOL     OW15880   1.165   6.806   2.741
 4994SOL    HW115881   1.078   6.758   2.732
 4994SOL    HW215882   1.186   6.853   2.655
 4995SOL     OW15883   0.020   2.809   6.292
 4995SOL    HW115884   0.081   2.768   6.360
 4995SOL    HW215885   0.040   2.770   6.202
 4996SOL     OW15886   0.030   1.117   1.477
 4996SOL    HW115887   0.073   1.044   1.423
 4996SOL    HW215888   6.962   1.096   1.488
 4997SOL     OW15889   6.806   2.515   2.894
 4997SOL    HW115890   6.888   2.513   2.953
 4997SOL    HW215891   6.820   2.455   2.816
 4998SOL     OW15892   1.907   4.784   5.086
 4998SOL    HW115893   1.885   4.787   4.989
 4998SOL    HW215894   1.860   4.707   5.130
 4999SOL     OW15895   4.911   5.732   1.213
 4999SOL    HW115896   4.863   5.645   1.220
 4999SOL    HW215897   4.991   5.722   1.155
 5000SOL     OW15898   0.878   0.515   4.958
 5000SOL    HW115899   0.791   0.488   4.918
 5000SOL    HW215900   0.898   0.610   4.933
 5001SOL     OW15901   1.983   3.724   6.283
 5001SOL    HW115902   2.047   3.796   6.309
 5001SOL    HW215903   1.934   3.751   6.199
 5002SOL     OW15904   1.441   2.169   3.379
 5002SOL    HW115905   1.386   2.111   3.440
 5002SOL    HW215906   1.475   2.247   3.431
 5003SOL     OW15907   0.396   6.702   3.430
 5003SOL    HW115908   0.357   6.784   3.388
 5003SOL    HW215909   0.496   6.703   3.420
 5004SOL     OW15910   2.683   5.620   5.737
 5004SOL    HW115911   2.638   5.689   5.793
 5004SOL    HW215912   2.775   5.603   5.773
 5005SOL     OW15913   3.570   2.018   0.573
 5005SOL    HW115914   3.660   2.023   0.530
 5005SOL    HW215915   3.521   1.938   0.538
 5006SOL     OW15916   5.949   0.086   5.632
 5006SOL    HW115917   5.920   0.080   5.536
 5006SOL    HW215918   5.890   0.151   5.680
 5007SOL     OW15919   3.343   0.617   5.960
 5007SOL    HW115920   3.394   0.539   5.997
 5007SOL    HW215921   3.400   0.665   5.894
 5008SOL     OW15922   5.921   1.284   2.967
 5008SOL    HW115923   6.008   1.236   2.977
 5008SOL    HW215924   5.907   1.344   3.046
 5009SOL     OW15925   1.426   5.981   1.618
 5009SOL    HW115926   1.509   6.004   1.567
 5009SOL    HW215927   1.388   5.896   1.583
 5010SOL     OW15928   3.491   4.178   4.045
 5010SOL    HW115929   3.489   4.206   4.141
 5010SOL    HW215930   3.397   4.163   4.013
 5011SOL     OW15931   2.115   3.286   2.106
 5011SOL    HW115932   2.144   3.377   2.077
 5011SOL    HW215933   2.020   3.270   2.078
 5012SOL     OW15934   6.302   2.772   5.716
 5012SOL    HW115935   6.391   2.796   5.754
 5012SOL    HW215936   6.229   2.812   5.774
 5013SOL     OW15937   4.710   0.998   6.190
 5013SOL    HW115938   4.678   1.040   6.275
 5013SOL    HW215939   4.746   0.907   6.210
 5014SOL     OW15940   6.130   5.955   0.917
 5014SOL    HW115941   6.127   5.931   1.014
 5014SOL    HW215942   6.037   5.973   0.885
 5015SOL     OW15943   4.573   1.665   3.557
 5015SOL    HW115944   4.553   1.650   3.460
 5015SOL    HW215945   4.539   1.589   3.611
 5016SOL     OW15946   1.877   1.436   2.897
 5016SOL    HW115947   1.799   1.490   2.929
 5016SOL    HW215948   1.891   1.451   2.799
 5017SOL     OW15949   2.481   2.363   0.509
 5017SOL    HW115950   2.533   2.282   0.536
 5017SOL    HW215951   2.399   2.335   0.459
 5018SOL     OW15952   0.194   4.025   2.329
 5018SOL    HW115953   0.156   4.009   2.420
 5018SOL    HW215954   0.172   3.947   2.270
 5019SOL     OW15955   2.316   3.828   0.218
 5019SOL    HW115956   2.408   3.834   0.177
 5019SOL    HW215957   2.306   3.738   0.261
 5020SOL     OW15958   5.516   5.639   6.072
 5020SOL    HW115959   5.597   5.614   6.018
 5020SOL    HW215960   5.535   5.721   6.126
 5021SOL     OW15961   1.305   4.783   6.067
 5021SOL    HW115962   1.270   4.791   5.973
 5021SOL    HW215963   1.366   4.704   6.073
 5022SOL     OW15964   2.056   6.668   0.504
 5022SOL    HW115965   2.127   6.736   0.486
 5022SOL    HW215966   2.096   6.577   0.509
 5023SOL     OW15967   6.211   2.521   0.835
 5023SOL    HW115968   6.284   2.570   0.882
 5023SOL    HW215969   6.150   2.479   0.902
 5024SOL     OW15970   6.989   4.044   3.190
 5024SOL    HW115971   6.988   3.956   3.144
 5024SOL    HW215972   6.965   4.116   3.124
 5025SOL     OW15973   4.568   1.725   2.676
 5025SOL    HW115974   4.474   1.744   2.649
 5025SOL    HW215975   4.623   1.808   2.664
 5026SOL     OW15976   6.106   5.545   5.745
 5026SOL    HW115977   6.050   5.523   5.824
 5026SOL    HW215978   6.161   5.627   5.765
 5027SOL     OW15979   0.339   6.867   3.032
 5027SOL    HW115980   0.299   6.842   2.944
 5027SOL    HW215981   0.389   6.953   3.023
 5028SOL     OW15982   6.925   6.153   1.894
 5028SOL    HW115983   6.963   6.109   1.976
 5028SOL    HW215984   6.864   6.090   1.847
 5029SOL     OW15985   6.782   2.446   2.275
 5029SOL    HW115986   6.781   2.353   2.312
 5029SOL    HW215987   6.861   2.456   2.214
 5030SOL     OW15988   0.111   0.193   7.022
 5030SOL    HW115989   0.032   0.164   6.968
 5030SOL    HW215990   0.159   0.113   0.027
 5031SOL     OW15991   5.944   0.994   4.261
 5031SOL    HW115992   5.938   1.000   4.161
 5031SOL    HW215993   6.038   1.008   4.290
 5032SOL     OW15994   1.645   5.297   0.820
 5032SOL    HW115995   1.604   5.243   0.748
 5032SOL    HW215996   1.714   5.243   0.868
 5033SOL     OW15997   2.992   5.299   5.331
 5033SOL    HW115998   2.951   5.322   5.419
 5033SOL    HW215999   2.996   5.200   5.321
 5034SOL     OW16000   6.592   2.595   2.156
 5034SOL    HW116001   6.648   2.521   2.194
 5034SOL    HW216002   6.641   2.682   2.164
 5035SOL     OW16003   4.944   5.446   0.703
 5035SOL    HW116004   5.023   5.503   0.727
 5035SOL    HW216005   4.953   5.357   0.747
 5036SOL     OW16006   1.473   6.015   6.611
 5036SOL    HW116007   1.546   6.051   6.670
 5036SOL    HW216008   1.493   5.920   6.587
 5037SOL     OW16009   4.108   1.799   3.393
 5037SOL    HW116010   4.152   1.831   3.477
 5037SOL    HW216011   4.016   1.765   3.414
 5038SOL     OW16012   1.047   6.003   5.608
 5038SOL    HW116013   1.035   6.047   5.697
 5038SOL    HW216014   1.001   5.914   5.608
 5039SOL     OW16015   2.449   3.279   5.385
 5039SOL    HW116016   2.508   3.274   5.466
 5039SOL    HW216017   2.479   3.211   5.318
 5040SOL     OW16018   2.406   3.454   6.723
 5040SOL    HW116019   2.415   3.513   6.643
 5040SOL    HW216020   2.492   3.452   6.773
 5041SOL     OW16021   0.790   4.440   1.555
 5041SOL    HW116022   0.795   4.395   1.644
 5041SOL    HW216023   0.754   4.376   1.487
 5042SOL     OW16024   6.737   3.105   6.778
 5042SOL    HW116025   6.708   3.015   6.811
 5042SOL    HW216026   6.661   3.149   6.730
 5043SOL     OW16027   3.560   1.757   4.536
 5043SOL    HW116028   3.502   1.722   4.609
 5043SOL    HW216029   3.596   1.681   4.482
 5044SOL     OW16030   6.187   6.275   3.779
 5044SOL    HW116031   6.188   6.251   3.682
 5044SOL    HW216032   6.093   6.273   3.813
 5045SOL     OW16033   6.203   2.869   0.317
 5045SOL    HW116034   6.121   2.912   0.354
 5045SOL    HW216035   6.265   2.845   0.391
 5046SOL     OW16036   3.860   2.944   4.914
 5046SOL    HW116037   3.877   2.947   5.012
 5046SOL    HW216038   3.917   2.873   4.872
 5047SOL     OW16039   5.601   1.073   2.688
 5047SOL    HW116040   5.688   1.121   2.705
 5047SOL    HW216041   5.533   1.104   2.755
 5048SOL     OW16042   6.614   2.057   1.834
 5048SOL    HW116043   6.608   2.064   1.933
 5048SOL    HW216044   6.679   2.124   1.799
 5049SOL     OW16045   0.828   1.996   2.404
 5049SOL    HW116046   0.831   1.898   2.386
 5049SOL    HW216047   0.842   2.013   2.501
 5050SOL     OW16048   0.067   1.513   1.989
 5050SOL    HW116049   0.156   1.550   2.016
 5050SOL    HW216050   0.081   1.431   1.933
 5051SOL     OW16051   2.938   4.108   1.187
 5051SOL    HW116052   2.902   4.021   1.219
 5051SOL    HW216053   3.036   4.099   1.169
 5052SOL     OW16054   3.635   4.443   0.676
 5052SOL    HW116055   3.671   4.515   0.616
 5052SOL    HW216056   3.696   4.363   0.672
 5053SOL     OW16057   2.240   4.108   2.132
 5053SOL    HW116058   2.149   4.128   2.096
 5053SOL    HW216059   2.232   4.068   2.224
 5054SOL     OW16060   3.463   6.088   5.043
 5054SOL    HW116061   3.530   6.023   5.006
 5054SOL    HW216062   3.468   6.086   5.143
 5055SOL     OW16063   0.357   1.831   4.736
 5055SOL    HW116064   0.271   1.810   4.689
 5055SOL    HW216065   0.433   1.786   4.690
 5056SOL     OW16066   7.026   4.184   6.356
 5056SOL    HW116067   0.046   4.120   6.414
 5056SOL    HW216068   6.935   4.149   6.337
 5057SOL     OW16069   0.677   5.495   3.330
 5057SOL    HW116070   0.582   5.501   3.361
 5057SOL    HW216071   0.737   5.537   3.398
 5058SOL     OW16072   4.014   4.434   7.018
 5058SOL    HW116073   3.937   4.415   0.048
 5058SOL    HW216074   4.018   4.366   6.945
 5059SOL     OW16075   4.041   2.001   4.718
 5059SOL    HW116076   4.054   2.008   4.817
 5059SOL    HW216077   4.011   1.908   4.695
 5060SOL     OW16078   0.153   3.284   5.668
 5060SOL    HW116079   0.195   3.230   5.741
 5060SOL    HW216080   0.205   3.272   5.584
 5061SOL     OW16081   2.915   3.673   4.232
 5061SOL    HW116082   2.880   3.718   4.315
 5061SOL    HW216083   2.960   3.741   4.174
 5062SOL     OW16084   4.767   1.455   2.251
 5062SOL    HW116085   4.677   1.444   2.209
 5062SOL    HW216086   4.792   1.552   2.250
 5063SOL     OW16087   1.877   6.236   1.616
 5063SOL    HW116088   1.930   6.212   1.535
 5063SOL    HW216089   1.939   6.247   1.694
 5064SOL     OW16090   4.615   5.231   0.918
 5064SOL    HW116091   4.515   5.234   0.923
 5064SOL    HW216092   4.643   5.170   0.844
 5065SOL     OW16093   1.710   0.634   3.621
 5065SOL    HW116094   1.778   0.627   3.547
 5065SOL    HW216095   1.719   0.722   3.666
 5066SOL     OW16096   2.150   4.462   2.356
 5066SOL    HW116097   2.125   4.511   2.440
 5066SOL    HW216098   2.125   4.518   2.276
 5067SOL     OW16099   3.998   2.019   1.746
 5067SOL    HW116100   3.948   1.977   1.671
 5067SOL    HW216101   3.965   1.981   1.833
 5068SOL     OW16102   3.550   6.062   0.635
 5068SOL    HW116103   3.501   6.086   0.719
 5068SOL    HW216104   3.492   6.082   0.556
 5069SOL     OW16105   2.421   3.556   6.458
 5069SOL    HW116106   2.517   3.540   6.434
 5069SOL    HW216107   2.364   3.547   6.377
 5070SOL     OW16108   6.148   2.948   3.738
 5070SOL    HW116109   6.129   2.917   3.831
 5070SOL    HW216110   6.201   2.878   3.690
 5071SOL     OW16111   3.581   1.306   3.970
 5071SOL    HW116112   3.637   1.346   3.897
 5071SOL    HW216113   3.515   1.373   4.003
 5072SOL     OW16114   1.429   0.695   1.002
 5072SOL    HW116115   1.457   0.790   1.011
 5072SOL    HW216116   1.345   0.680   1.054
 5073SOL     OW16117   2.620   5.796   2.218
 5073SOL    HW116118   2.647   5.886   2.184
 5073SOL    HW216119   2.674   5.774   2.299
 5074SOL     OW16120   3.295   1.646   1.800
 5074SOL    HW116121   3.305   1.741   1.771
 5074SOL    HW216122   3.325   1.586   1.727
 5075SOL     OW16123   0.792   3.018   0.023
 5075SOL    HW116124   0.826   2.924   0.012
 5075SOL    HW216125   0.754   3.028   0.115
 5076SOL     OW16126   5.323   0.578   0.137
 5076SOL    HW116127   5.327   0.549   0.233
 5076SOL    HW216128   5.342   0.500   0.078
 5077SOL     OW16129   1.596   4.073   4.771
 5077SOL    HW116130   1.683   4.023   4.763
 5077SOL    HW216131   1.540   4.032   4.842
 5078SOL     OW16132   0.488   1.484   4.044
 5078SOL    HW116133   0.567   1.461   4.100
 5078SOL    HW216134   0.487   1.428   3.961
 5079SOL     OW16135   1.771   2.030   5.772
 5079SOL    HW116136   1.780   2.122   5.809
 5079SOL    HW216137   1.777   2.034   5.672
 5080SOL     OW16138   5.904   5.282   5.802
 5080SOL    HW116139   5.883   5.184   5.802
 5080SOL    HW216140   5.928   5.310   5.895
 5081SOL     OW16141   2.922   5.441   5.106
 5081SOL    HW116142   2.918   5.541   5.113
 5081SOL    HW216143   2.961   5.404   5.190
 5082SOL     OW16144   4.605   6.658   0.153
 5082SOL    HW116145   4.600   6.606   0.238
 5082SOL    HW216146   4.651   6.603   0.083
 5083SOL     OW16147   3.025   0.769   2.027
 5083SOL    HW116148   3.079   0.695   2.067
 5083SOL    HW216149   2.987   0.826   2.100
 5084SOL     OW16150   0.978   4.983   5.340
 5084SOL    HW116151   0.928   5.070   5.341
 5084SOL    HW216152   0.913   4.908   5.326
 5085SOL     OW16153   1.501   3.175   5.746
 5085SOL    HW116154   1.482   3.195   5.650
 5085SOL    HW216155   1.419   3.192   5.800
 5086SOL     OW16156   0.779   4.625   2.808
 5086SOL    HW116157   0.680   4.636   2.819
 5086SOL    HW216158   0.825   4.664   2.887
 5087SOL     OW16159   6.747   5.400   2.378
 5087SOL    HW116160   6.765   5.376   2.473
 5087SOL    HW216161   6.832   5.425   2.333
 5088SOL     OW16162   4.756   5.750   2.700
 5088SOL    HW116163   4.668   5.751   2.747
 5088SOL    HW216164   4.811   5.675   2.735
 5089SOL     OW16165   6.139   4.358   4.344
 5089SOL    HW116166   6.072   4.420   4.304
 5089SOL    HW216167   6.116   4.263   4.320
 5090SOL     OW16168   1.817   0.150   3.837
 5090SOL    HW116169   1.791   0.237   3.880
 5090SOL    HW216170   1.875   0.098   3.899
 5091SOL     OW16171   6.608   0.035   6.857
 5091SOL    HW116172   6.632   0.037   6.954
 5091SOL    HW216173   6.630   0.123   6.816
 5092SOL     OW16174   4.143   3.508   4.383
 5092SOL    HW116175   4.097   3.595   4.367
 5092SOL    HW216176   4.227   3.522   4.435
 5093SOL     OW16177   2.292   1.110   2.946
 5093SOL    HW116178   2.384   1.072   2.960
 5093SOL    HW216179   2.264   1.095   2.851
 5094SOL     OW16180   2.649   5.520   7.030
 5094SOL    HW116181   2.587   5.531   0.078
 5094SOL    HW216182   2.726   5.583   0.010
 5095SOL     OW16183   0.726   1.463   3.865
 5095SOL    HW116184   0.783   1.534   3.825
 5095SOL    HW216185   0.777   1.415   3.937
 5096SOL     OW16186   5.872   3.912   6.434
 5096SOL    HW116187   5.802   3.943   6.499
 5096SOL    HW216188   5.922   3.836   6.473
 5097SOL     OW16189   6.570   6.632   0.160
 5097SOL    HW116190   6.593   6.645   0.064
 5097SOL    HW216191   6.644   6.669   0.217
 5098SOL     OW16192   3.926   2.309   1.776
 5098SOL    HW116193   3.953   2.214   1.758
 5098SOL    HW216194   3.827   2.314   1.785
 5099SOL     OW16195   6.782   6.142   1.409
 5099SOL    HW116196   6.864   6.198   1.395
 5099SOL    HW216197   6.792   6.091   1.494
 5100SOL     OW16198   4.621   5.227   3.161
 5100SOL    HW116199   4.623   5.268   3.252
 5100SOL    HW216200   4.714   5.222   3.124
 5101SOL     OW16201   4.039   0.370   5.005
 5101SOL    HW116202   4.046   0.469   5.014
 5101SOL    HW216203   4.110   0.326   5.060
 5102SOL     OW16204   4.952   6.070   4.112
 5102SOL    HW116205   4.962   6.091   4.209
 5102SOL    HW216206   5.042   6.075   4.068
 5103SOL     OW16207   0.703   0.173   4.880
 5103SOL    HW116208   0.739   0.103   4.819
 5103SOL    HW216209   0.616   0.207   4.844
 5104SOL     OW16210   3.392   6.000   1.809
 5104SOL    HW116211   3.403   5.928   1.740
 5104SOL    HW216212   3.415   6.088   1.769
 5105SOL     OW16213   3.230   3.227   0.188
 5105SOL    HW116214   3.219   3.182   0.099
 5105SOL    HW216215   3.308   3.290   0.184
 5106SOL     OW16216   4.094   1.972   0.846
 5106SOL    HW116217   4.076   1.917   0.927
 5106SOL    HW216218   4.047   2.060   0.854
 5107SOL     OW16219   5.572   3.146   1.222
 5107SOL    HW116220   5.480   3.184   1.230
 5107SOL    HW216221   5.636   3.203   1.274
 5108SOL     OW16222   4.763   4.087   5.749
 5108SOL    HW116223   4.856   4.052   5.740
 5108SOL    HW216224   4.704   4.016   5.788
 5109SOL     OW16225   2.014   2.730   1.306
 5109SOL    HW116226   2.070   2.752   1.227
 5109SOL    HW216227   2.021   2.802   1.374
 5110SOL     OW16228   0.045   0.088   6.160
 5110SOL    HW116229   0.118   0.155   6.150
 5110SOL    HW216230   0.044   0.028   6.080
 5111SOL     OW16231   1.087   6.501   5.000
 5111SOL    HW116232   1.119   6.481   5.092
 5111SOL    HW216233   0.988   6.519   5.002
 5112SOL     OW16234   0.444   0.029   2.526
 5112SOL    HW116235   0.422   0.074   2.439
 5112SOL    HW216236   0.459   6.961   2.510
 5113SOL     OW16237   1.779   5.176   0.481
 5113SOL    HW116238   1.746   5.204   0.391
 5113SOL    HW216239   1.704   5.136   0.533
 5114SOL     OW16240   3.511   6.783   0.497
 5114SOL    HW116241   3.420   6.762   0.462
 5114SOL    HW216242   3.578   6.772   0.423
 5115SOL     OW16243   2.016   3.616   1.623
 5115SOL    HW116244   2.067   3.544   1.576
 5115SOL    HW216245   2.074   3.698   1.630
 5116SOL     OW16246   2.893   6.128   6.976
 5116SOL    HW116247   2.919   6.154   0.040
 5116SOL    HW216248   2.958   6.061   6.942
 5117SOL     OW16249   0.986   3.489   4.312
 5117SOL    HW116250   0.985   3.399   4.268
 5117SOL    HW216251   0.994   3.560   4.241
 5118SOL     OW16252   6.093   6.929   0.685
 5118SOL    HW116253   6.067   6.972   0.771
 5118SOL    HW216254   6.014   6.880   0.647
 5119SOL     OW16255   5.143   1.756   0.873
 5119SOL    HW116256   5.146   1.856   0.881
 5119SOL    HW216257   5.054   1.728   0.836
 5120SOL     OW16258   4.931   0.285   5.105
 5120SOL    HW116259   4.959   0.381   5.120
 5120SOL    HW216260   4.890   0.276   5.015
 5121SOL     OW16261   3.474   3.581   0.368
 5121SOL    HW116262   3.510   3.657   0.315
 5121SOL    HW216263   3.458   3.503   0.308
 5122SOL     OW16264   3.623   5.262   3.104
 5122SOL    HW116265   3.557   5.187   3.109
 5122SOL    HW216266   3.603   5.329   3.176
 5123SOL     OW16267   5.395   2.509   2.470
 5123SOL    HW116268   5.376   2.434   2.533
 5123SOL    HW216269   5.314   2.567   2.462
 5124SOL     OW16270   2.234   6.433   3.171
 5124SOL    HW116271   2.250   6.416   3.073
 5124SOL    HW216272   2.157   6.378   3.202
 5125SOL     OW16273   0.467   1.801   3.743
 5125SOL    HW116274   0.515   1.783   3.657
 5125SOL    HW216275   0.532   1.835   3.811
 5126SOL     OW16276   1.131   6.275   0.129
 5126SOL    HW116277   1.139   6.372   0.110
 5126SOL    HW216278   1.035   6.247   0.123
 5127SOL     OW16279   2.070   5.747   0.244
 5127SOL    HW116280   2.009   5.679   0.205
 5127SOL    HW216281   2.053   5.755   0.343
 5128SOL     OW16282   7.019   5.985   1.026
 5128SOL    HW116283   7.000   6.077   0.993
 5128SOL    HW216284   0.076   5.985   1.076
 5129SOL     OW16285   4.987   6.348   1.605
 5129SOL    HW116286   4.997   6.314   1.698
 5129SOL    HW216287   5.060   6.413   1.585
 5130SOL     OW16288   0.196   4.666   2.882
 5130SOL    HW116289   0.096   4.667   2.871
 5130SOL    HW216290   0.228   4.758   2.902
 5131SOL     OW16291   1.428   3.653   3.809
 5131SOL    HW116292   1.468   3.608   3.888
 5131SOL    HW216293   1.409   3.585   3.738
 5132SOL     OW16294   3.903   3.568   6.119
 5132SOL    HW116295   3.932   3.477   6.088
 5132SOL    HW216296   3.978   3.612   6.168
 5133SOL     OW16297   3.475   5.068   0.204
 5133SOL    HW116298   3.433   5.040   0.118
 5133SOL    HW216299   3.407   5.059   0.278
 5134SOL     OW16300   0.563   2.858   1.570
 5134SOL    HW116301   0.527   2.820   1.484
 5134SOL    HW216302   0.490   2.909   1.616
 5135SOL     OW16303   6.539   1.856   6.098
 5135SOL    HW116304   6.617   1.916   6.112
 5135SOL    HW216305   6.462   1.909   6.064
 5136SOL     OW16306   5.085   0.717   4.945
 5136SOL    HW116307   4.997   0.688   4.909
 5136SOL    HW216308   5.079   0.812   4.976
 5137SOL     OW16309   5.943   3.253   6.264
 5137SOL    HW116310   5.910   3.320   6.197
 5137SOL    HW216311   5.873   3.240   6.334
 5138SOL     OW16312   3.756   3.162   6.758
 5138SOL    HW116313   3.803   3.074   6.747
 5138SOL    HW216314   3.708   3.185   6.673
 5139SOL     OW16315   1.554   6.785   3.816
 5139SOL    HW116316   1.636   6.835   3.787
 5139SOL    HW216317   1.473   6.840   3.795
 5140SOL     OW16318   2.409   1.598   0.122
 5140SOL    HW116319   2.423   1.559   0.213
 5140SOL    HW216320   2.470   1.551   0.057
 5141SOL     OW16321   6.144   3.314   0.906
 5141SOL    HW116322   6.080   3.269   0.843
 5141SOL    HW216323   6.094   3.353   0.983
 5142SOL     OW16324   5.673   2.032   4.204
 5142SOL    HW116325   5.707   2.126   4.210
 5142SOL    HW216326   5.750   1.968   4.213
 5143SOL     OW16327   0.947   4.038   4.014
 5143SOL    HW116328   1.040   4.006   4.028
 5143SOL    HW216329   0.906   3.991   3.936
 5144SOL     OW16330   1.858   6.887   6.138
 5144SOL    HW116331   1.763   6.857   6.140
 5144SOL    HW216332   1.876   6.935   6.052
 5145SOL     OW16333   2.447   5.314   6.357
 5145SOL    HW116334   2.543   5.341   6.358
 5145SOL    HW216335   2.434   5.239   6.291
 5146SOL     OW16336   4.488   3.538   6.664
 5146SOL    HW116337   4.406   3.487   6.639
 5146SOL    HW216338   4.480   3.632   6.632
 5147SOL     OW16339   6.734   4.002   2.041
 5147SOL    HW116340   6.796   3.951   1.981
 5147SOL    HW216341   6.786   4.042   2.116
 5148SOL     OW16342   0.851   6.160   0.996
 5148SOL    HW116343   0.940   6.114   0.998
 5148SOL    HW216344   0.800   6.130   0.916
 5149SOL     OW16345   5.592   0.113   3.684
 5149SOL    HW116346   5.589   0.198   3.632
 5149SOL    HW216347   5.676   0.109   3.739
 5150SOL     OW16348   2.086   5.895   3.957
 5150SOL    HW116349   2.121   5.975   4.006
 5150SOL    HW216350   2.005   5.921   3.904
 5151SOL     OW16351   5.657   0.815   6.995
 5151SOL    HW116352   5.692   0.785   6.906
 5151SOL    HW216353   5.578   0.875   6.980
 5152SOL     OW16354   2.627   4.967   6.760
 5152SOL    HW116355   2.689   5.045   6.753
 5152SOL    HW216356   2.562   4.983   6.835
 5153SOL     OW16357   2.053   1.620   6.611
 5153SOL    HW116358   1.977   1.659   6.560
 5153SOL    HW216359   2.138   1.631   6.560
 5154SOL     OW16360   2.055   3.323   6.198
 5154SOL    HW116361   2.133   3.261   6.196
 5154SOL    HW216362   2.069   3.392   6.269
 5155SOL     OW16363   4.394   6.673   1.977
 5155SOL    HW116364   4.479   6.656   1.928
 5155SOL    HW216365   4.377   6.771   1.982
 5156SOL     OW16366   6.780   2.421   6.296
 5156SOL    HW116367   6.694   2.390   6.256
 5156SOL    HW216368   6.770   2.515   6.329
 5157SOL     OW16369   4.863   3.068   3.279
 5157SOL    HW116370   4.960   3.048   3.266
 5157SOL    HW216371   4.833   3.137   3.213
 5158SOL     OW16372   3.154   2.315   1.456
 5158SOL    HW116373   3.111   2.246   1.514
 5158SOL    HW216374   3.084   2.364   1.405
 5159SOL     OW16375   1.297   3.920   5.158
 5159SOL    HW116376   1.385   3.967   5.166
 5159SOL    HW216377   1.224   3.987   5.143
 5160SOL     OW16378   1.562   4.024   4.489
 5160SOL    HW116379   1.578   4.114   4.449
 5160SOL    HW216380   1.601   4.021   4.581
 5161SOL     OW16381   1.246   4.181   5.457
 5161SOL    HW116382   1.274   4.215   5.367
 5161SOL    HW216383   1.295   4.230   5.528
 5162SOL     OW16384   0.258   5.163   4.300
 5162SOL    HW116385   0.160   5.160   4.323
 5162SOL    HW216386   0.312   5.143   4.382
 5163SOL     OW16387   4.597   4.921   1.621
 5163SOL    HW116388   4.662   4.847   1.603
 5163SOL    HW216389   4.515   4.907   1.566
 5164SOL     OW16390   5.844   2.154   6.084
 5164SOL    HW116391   5.832   2.088   6.157
 5164SOL    HW216392   5.804   2.241   6.111
 5165SOL     OW16393   5.819   4.738   4.821
 5165SOL    HW116394   5.765   4.788   4.753
 5165SOL    HW216395   5.909   4.779   4.829
 5166SOL     OW16396   2.037   4.988   1.776
 5166SOL    HW116397   2.021   5.086   1.765
 5166SOL    HW216398   2.098   4.956   1.704
 5167SOL     OW16399   6.241   6.792   5.494
 5167SOL    HW116400   6.322   6.750   5.534
 5167SOL    HW216401   6.259   6.889   5.475
 5168SOL     OW16402   4.651   2.698   3.635
 5168SOL    HW116403   4.675   2.664   3.544
 5168SOL    HW216404   4.552   2.709   3.642
 5169SOL     OW16405   3.489   3.476   6.878
 5169SOL    HW116406   3.389   3.481   6.867
 5169SOL    HW216407   3.533   3.524   6.803
 5170SOL     OW16408   6.706   4.432   6.152
 5170SOL    HW116409   6.698   4.529   6.177
 5170SOL    HW216410   6.789   4.418   6.098
 5171SOL     OW16411   2.391   4.368   4.475
 5171SOL    HW116412   2.336   4.300   4.427
 5171SOL    HW216413   2.400   4.342   4.571
 5172SOL     OW16414   1.132   3.251   1.578
 5172SOL    HW116415   1.038   3.280   1.559
 5172SOL    HW216416   1.149   3.162   1.536
 5173SOL     OW16417   5.902   4.197   6.373
 5173SOL    HW116418   5.975   4.228   6.313
 5173SOL    HW216419   5.896   4.097   6.369
 5174SOL     OW16420   1.632   4.389   4.577
 5174SOL    HW116421   1.610   4.485   4.558
 5174SOL    HW216422   1.596   4.332   4.503
 5175SOL     OW16423   2.175   4.551   6.867
 5175SOL    HW116424   2.130   4.637   6.846
 5175SOL    HW216425   2.133   4.477   6.814
 5176SOL     OW16426   3.995   3.165   0.511
 5176SOL    HW116427   3.973   3.150   0.414
 5176SOL    HW216428   4.052   3.089   0.544
 5177SOL     OW16429   4.808   0.094   5.642
 5177SOL    HW116430   4.750   0.173   5.662
 5177SOL    HW216431   4.809   0.032   5.720
 5178SOL     OW16432   2.570   2.135   1.282
 5178SOL    HW116433   2.609   2.076   1.212
 5178SOL    HW216434   2.641   2.158   1.349
 5179SOL     OW16435   4.871   6.186   5.048
 5179SOL    HW116436   4.848   6.156   4.956
 5179SOL    HW216437   4.832   6.276   5.066
 5180SOL     OW16438   3.364   2.372   6.717
 5180SOL    HW116439   3.464   2.367   6.714
 5180SOL    HW216440   3.334   2.461   6.681
 5181SOL     OW16441   3.770   0.602   3.153
 5181SOL    HW116442   3.839   0.674   3.147
 5181SOL    HW216443   3.679   0.643   3.154
 5182SOL     OW16444   5.649   4.779   1.721
 5182SOL    HW116445   5.566   4.824   1.756
 5182SOL    HW216446   5.639   4.680   1.729
 5183SOL     OW16447   4.851   6.798   1.748
 5183SOL    HW116448   4.941   6.774   1.784
 5183SOL    HW216449   4.817   6.880   1.794
 5184SOL     OW16450   0.966   1.805   3.915
 5184SOL    HW116451   0.964   1.857   3.829
 5184SOL    HW216452   1.017   1.721   3.902
 5185SOL     OW16453   3.785   6.860   3.028
 5185SOL    HW116454   3.844   6.940   3.031
 5185SOL    HW216455   3.808   6.798   3.104
 5186SOL     OW16456   6.652   4.171   0.929
 5186SOL    HW116457   6.557   4.194   0.912
 5186SOL    HW216458   6.692   4.131   0.846
 5187SOL     OW16459   6.650   0.851   3.592
 5187SOL    HW116460   6.599   0.903   3.660
 5187SOL    HW216461   6.664   0.908   3.511
 5188SOL     OW16462   0.620   4.995   0.275
 5188SOL    HW116463   0.652   4.921   0.334
 5188SOL    HW216464   0.539   5.037   0.314
 5189SOL     OW16465   4.549   4.791   6.765
 5189SOL    HW116466   4.498   4.704   6.767
 5189SOL    HW216467   4.644   4.774   6.791
 5190SOL     OW16468   0.931   2.117   4.428
 5190SOL    HW116469   1.025   2.126   4.394
 5190SOL    HW216470   0.876   2.069   4.360
 5191SOL     OW16471   3.511   1.030   1.454
 5191SOL    HW116472   3.510   0.945   1.507
 5191SOL    HW216473   3.578   1.023   1.380
 5192SOL     OW16474   4.858   5.521   2.806
 5192SOL    HW116475   4.844   5.435   2.758
 5192SOL    HW216476   4.794   5.528   2.882
 5193SOL     OW16477   4.325   4.720   3.792
 5193SOL    HW116478   4.384   4.798   3.770
 5193SOL    HW216479   4.230   4.751   3.792
 5194SOL     OW16480   5.398   0.159   5.942
 5194SOL    HW116481   5.438   0.153   5.851
 5194SOL    HW216482   5.309   0.205   5.936
 5195SOL     OW16483   6.423   6.972   4.387
 5195SOL    HW116484   6.412   0.014   4.318
 5195SOL    HW216485   6.338   6.963   4.439
 5196SOL     OW16486   0.907   3.987   1.803
 5196SOL    HW116487   0.854   3.909   1.837
 5196SOL    HW216488   1.005   3.970   1.818
 5197SOL     OW16489   2.012   6.364   4.355
 5197SOL    HW116490   2.038   6.416   4.274
 5197SOL    HW216491   1.944   6.416   4.407
 5198SOL     OW16492   2.977   6.936   4.996
 5198SOL    HW116493   2.910   6.866   5.022
 5198SOL    HW216494   3.063   6.918   5.043
 5199SOL     OW16495   2.512   5.431   1.259
 5199SOL    HW116496   2.439   5.426   1.191
 5199SOL    HW216497   2.598   5.402   1.218
 5200SOL     OW16498   0.681   1.666   5.207
 5200SOL    HW116499   0.647   1.683   5.114
 5200SOL    HW216500   0.632   1.588   5.247
 5201SOL     OW16501   5.870   5.131   4.459
 5201SOL    HW116502   5.781   5.094   4.433
 5201SOL    HW216503   5.914   5.172   4.379
 5202SOL     OW16504   5.533   3.244   7.016
 5202SOL    HW116505   5.482   3.231   6.931
 5202SOL    HW216506   5.471   3.275   0.058
 5203SOL     OW16507   1.429   0.389   6.010
 5203SOL    HW116508   1.352   0.372   6.072
 5203SOL    HW216509   1.482   0.305   6.001
 5204SOL     OW16510   3.253   6.365   6.467
 5204SOL    HW116511   3.175   6.391   6.412
 5204SOL    HW216512   3.223   6.341   6.559
 5205SOL     OW16513   6.479   5.863   1.108
 5205SOL    HW116514   6.427   5.941   1.143
 5205SOL    HW216515   6.561   5.850   1.164
 5206SOL     OW16516   1.079   4.464   5.446
 5206SOL    HW116517   1.030   4.377   5.450
 5206SOL    HW216518   1.160   4.455   5.389
 5207SOL     OW16519   6.961   0.043   3.940
 5207SOL    HW116520   6.988   6.990   3.990
 5207SOL    HW216521   6.878   0.081   3.981
 5208SOL     OW16522   4.450   2.777   0.249
 5208SOL    HW116523   4.463   2.805   0.154
 5208SOL    HW216524   4.417   2.856   0.302
 5209SOL     OW16525   4.537   6.871   3.340
 5209SOL    HW116526   4.530   6.960   3.383
 5209SOL    HW216527   4.478   6.869   3.258
 5210SOL     OW16528   5.158   4.409   1.354
 5210SOL    HW116529   5.103   4.466   1.293
 5210SOL    HW216530   5.166   4.317   1.316
 5211SOL     OW16531   4.756   2.039   4.549
 5211SOL    HW116532   4.679   2.009   4.493
 5211SOL    HW216533   4.842   2.014   4.504
 5212SOL     OW16534   1.466   2.280   0.927
 5212SOL    HW116535   1.564   2.263   0.936
 5212SOL    HW216536   1.415   2.205   0.972
 5213SOL     OW16537   4.114   3.716   1.880
 5213SOL    HW116538   4.147   3.789   1.820
 5213SOL    HW216539   4.190   3.679   1.933
 5214SOL     OW16540   5.654   4.366   6.315
 5214SOL    HW116541   5.713   4.318   6.379
 5214SOL    HW216542   5.706   4.391   6.233
 5215SOL     OW16543   0.176   3.139   4.711
 5215SOL    HW116544   0.230   3.138   4.626
 5215SOL    HW216545   0.117   3.220   4.712
 5216SOL     OW16546   5.420   5.549   0.963
 5216SOL    HW116547   5.395   5.627   0.906
 5216SOL    HW216548   5.519   5.549   0.978
 5217SOL     OW16549   3.657   5.705   4.219
 5217SOL    HW116550   3.731   5.719   4.285
 5217SOL    HW216551   3.577   5.666   4.266
 5218SOL     OW16552   0.472   1.397   0.552
 5218SOL    HW116553   0.490   1.312   0.600
 5218SOL    HW216554   0.377   1.397   0.519
 5219SOL     OW16555   3.163   1.761   4.749
 5219SOL    HW116556   3.181   1.830   4.819
 5219SOL    HW216557   3.087   1.703   4.779
 5220SOL     OW16558   2.130   5.739   3.590
 5220SOL    HW116559   2.101   5.655   3.544
 5220SOL    HW216560   2.129   5.725   3.689
 5221SOL     OW16561   6.858   0.385   1.493
 5221SOL    HW116562   6.940   0.369   1.548
 5221SOL    HW216563   6.847   0.483   1.478
 5222SOL     OW16564   4.658   4.656   1.796
 5222SOL    HW116565   4.644   4.738   1.851
 5222SOL    HW216566   4.628   4.575   1.847
 5223SOL     OW16567   0.094   2.786   0.952
 5223SOL    HW116568   0.100   2.877   0.911
 5223SOL    HW216569   7.028   2.759   0.962
 5224SOL     OW16570   0.676   1.797   4.816
 5224SOL    HW116571   0.761   1.820   4.863
 5224SOL    HW216572   0.650   1.873   4.756
 5225SOL     OW16573   6.326   1.298   4.490
 5225SOL    HW116574   6.269   1.339   4.561
 5225SOL    HW216575   6.347   1.203   4.515
 5226SOL     OW16576   0.440   5.794   3.543
 5226SOL    HW116577   0.435   5.784   3.642
 5226SOL    HW216578   0.457   5.704   3.502
 5227SOL     OW16579   6.927   3.795   6.087
 5227SOL    HW116580   6.881   3.728   6.145
 5227SOL    HW216581   6.994   3.846   6.142
 5228SOL     OW16582   1.079   2.993   6.590
 5228SOL    HW116583   1.046   2.899   6.602
 5228SOL    HW216584   1.111   3.029   6.677
 5229SOL     OW16585   3.617   6.353   6.749
 5229SOL    HW116586   3.661   6.379   6.662
 5229SOL    HW216587   3.586   6.258   6.743
 5230SOL     OW16588   6.638   6.680   2.182
 5230SOL    HW116589   6.561   6.697   2.244
 5230SOL    HW216590   6.623   6.594   2.133
 5231SOL     OW16591   5.502   1.587   3.379
 5231SOL    HW116592   5.502   1.552   3.285
 5231SOL    HW216593   5.562   1.667   3.385
 5232SOL     OW16594   1.699   3.877   6.221
 5232SOL    HW116595   1.713   3.831   6.134
 5232SOL    HW216596   1.706   3.976   6.208
 5233SOL     OW16597   3.144   1.429   2.563
 5233SOL    HW116598   3.107   1.404   2.473
 5233SOL    HW216599   3.154   1.528   2.568
 5234SOL     OW16600   1.876   3.133   0.495
 5234SOL    HW116601   1.944   3.206   0.496
 5234SOL    HW216602   1.853   3.110   0.400
 5235SOL     OW16603   1.969   2.074   0.596
 5235SOL    HW116604   2.021   2.109   0.518
 5235SOL    HW216605   1.993   1.978   0.612
 5236SOL     OW16606   3.422   4.904   2.087
 5236SOL    HW116607   3.337   4.891   2.035
 5236SOL    HW216608   3.496   4.853   2.044
 5237SOL     OW16609   1.888   1.856   4.662
 5237SOL    HW116610   1.794   1.823   4.657
 5237SOL    HW216611   1.951   1.779   4.656
 5238SOL     OW16612   1.200   4.819   3.116
 5238SOL    HW116613   1.195   4.872   3.031
 5238SOL    HW216614   1.123   4.841   3.174
 5239SOL     OW16615   3.282   4.109   1.140
 5239SOL    HW116616   3.311   4.025   1.186
 5239SOL    HW216617   3.254   4.087   1.046
 5240SOL     OW16618   2.731   2.978   5.782
 5240SOL    HW116619   2.689   2.932   5.703
 5240SOL    HW216620   2.755   2.909   5.851
 5241SOL     OW16621   1.481   6.060   2.328
 5241SOL    HW116622   1.549   6.133   2.334
 5241SOL    HW216623   1.516   5.978   2.371
 5242SOL     OW16624   4.978   0.813   1.438
 5242SOL    HW116625   4.967   0.865   1.353
 5242SOL    HW216626   4.887   0.794   1.477
 5243SOL     OW16627   2.348   6.342   1.655
 5243SOL    HW116628   2.266   6.370   1.706
 5243SOL    HW216629   2.344   6.380   1.562
 5244SOL     OW16630   5.219   3.340   0.480
 5244SOL    HW116631   5.264   3.254   0.455
 5244SOL    HW216632   5.261   3.376   0.564
 5245SOL     OW16633   3.954   4.408   0.337
 5245SOL    HW116634   3.902   4.428   0.254
 5245SOL    HW216635   4.015   4.484   0.358
 5246SOL     OW16636   6.789   2.614   1.811
 5246SOL    HW116637   6.847   2.584   1.735
 5246SOL    HW216638   6.804   2.711   1.828
 5247SOL     OW16639   3.925   1.445   5.398
 5247SOL    HW116640   3.923   1.493   5.485
 5247SOL    HW216641   4.015   1.454   5.356
 5248SOL     OW16642   6.989   1.995   2.928
 5248SOL    HW116643   0.009   1.926   2.980
 5248SOL    HW216644   6.964   1.959   2.839
 5249SOL     OW16645   1.124   5.115   6.954
 5249SOL    HW116646   1.176   5.081   0.003
 5249SOL    HW216647   1.124   5.214   6.955
 5250SOL     OW16648   1.866   5.405   0.595
 5250SOL    HW116649   1.822   5.324   0.557
 5250SOL    HW216650   1.948   5.378   0.646
 5251SOL     OW16651   0.933   4.727   1.115
 5251SOL    HW116652   1.028   4.706   1.089
 5251SOL    HW216653   0.931   4.814   1.164
 5252SOL     OW16654   3.014   6.565   2.406
 5252SOL    HW116655   3.057   6.487   2.362
 5252SOL    HW216656   3.020   6.645   2.346
 5253SOL     OW16657   5.783   4.514   4.641
 5253SOL    HW116658   5.819   4.600   4.678
 5253SOL    HW216659   5.684   4.512   4.654
 5254SOL     OW16660   5.770   0.377   3.294
 5254SOL    HW116661   5.726   0.309   3.235
 5254SOL    HW216662   5.737   0.469   3.270
 5255SOL     OW16663   5.113   2.191   4.499
 5255SOL    HW116664   5.127   2.124   4.572
 5255SOL    HW216665   5.075   2.275   4.537
 5256SOL     OW16666   4.897   0.954   2.956
 5256SOL    HW116667   4.964   1.022   2.986
 5256SOL    HW216668   4.807   0.978   2.993
 5257SOL     OW16669   4.570   0.275   0.282
 5257SOL    HW116670   4.545   0.185   0.318
 5257SOL    HW216671   4.650   0.266   0.223
 5258SOL     OW16672   5.775   2.000   2.974
 5258SOL    HW116673   5.765   2.065   3.049
 5258SOL    HW216674   5.748   2.044   2.888
 5259SOL     OW16675   5.100   5.761   2.867
 5259SOL    HW116676   5.002   5.743   2.857
 5259SOL    HW216677   5.126   5.755   2.963
 5260SOL     OW16678   3.384   5.344   0.230
 5260SOL    HW116679   3.443   5.264   0.239
 5260SOL    HW216680   3.403   5.391   0.144
 5261SOL     OW16681   0.237   4.869   0.964
 5261SOL    HW116682   0.218   4.963   0.994
 5261SOL    HW216683   0.164   4.839   0.903
 5262SOL     OW16684   2.537   0.703   2.860
 5262SOL    HW116685   2.553   0.608   2.885
 5262SOL    HW216686   2.621   0.743   2.824
 5263SOL     OW16687   1.893   1.291   3.143
 5263SOL    HW116688   1.872   1.315   3.049
 5263SOL    HW216689   1.992   1.284   3.155
 5264SOL     OW16690   6.928   2.129   1.880
 5264SOL    HW116691   7.007   2.069   1.891
 5264SOL    HW216692   6.872   2.125   1.963
 5265SOL     OW16693   5.743   2.588   4.475
 5265SOL    HW116694   5.826   2.582   4.531
 5265SOL    HW216695   5.695   2.674   4.496
 5266SOL     OW16696   2.225   6.568   0.726
 5266SOL    HW116697   2.284   6.605   0.654
 5266SOL    HW216698   2.156   6.637   0.750
 5267SOL     OW16699   4.493   2.308   4.752
 5267SOL    HW116700   4.414   2.253   4.777
 5267SOL    HW216701   4.484   2.400   4.792
 5268SOL     OW16702   5.348   0.628   6.872
 5268SOL    HW116703   5.348   0.635   6.972
 5268SOL    HW216704   5.351   0.720   6.832
 5269SOL     OW16705   0.574   6.822   2.341
 5269SOL    HW116706   0.557   6.889   2.270
 5269SOL    HW216707   0.563   6.730   2.303
 5270SOL     OW16708   5.647   1.598   0.345
 5270SOL    HW116709   5.634   1.647   0.431
 5270SOL    HW216710   5.684   1.507   0.364
 5271SOL     OW16711   6.563   5.146   4.673
 5271SOL    HW116712   6.546   5.048   4.688
 5271SOL    HW216713   6.586   5.189   4.760
 5272SOL     OW16714   4.165   6.248   0.994
 5272SOL    HW116715   4.114   6.264   1.079
 5272SOL    HW216716   4.122   6.174   0.943
 5273SOL     OW16717   1.137   2.996   2.862
 5273SOL    HW116718   1.080   3.054   2.804
 5273SOL    HW216719   1.233   3.006   2.836
 5274SOL     OW16720   4.525   6.666   2.535
 5274SOL    HW116721   4.502   6.748   2.483
 5274SOL    HW216722   4.619   6.675   2.569
 5275SOL     OW16723   2.570   0.598   0.831
 5275SOL    HW116724   2.536   0.673   0.774
 5275SOL    HW216725   2.631   0.634   0.901
 5276SOL     OW16726   2.465   0.062   2.138
 5276SOL    HW116727   2.455   0.159   2.161
 5276SOL    HW216728   2.421   0.043   2.050
 5277SOL     OW16729   3.123   0.911   2.770
 5277SOL    HW116730   3.052   0.879   2.708
 5277SOL    HW216731   3.213   0.884   2.735
 5278SOL     OW16732   4.388   4.646   3.083
 5278SOL    HW116733   4.328   4.689   3.015
 5278SOL    HW216734   4.351   4.661   3.174
 5279SOL     OW16735   2.732   5.568   0.932
 5279SOL    HW116736   2.781   5.618   0.860
 5279SOL    HW216737   2.657   5.625   0.967
 5280SOL     OW16738   2.609   6.320   5.080
 5280SOL    HW116739   2.622   6.411   5.040
 5280SOL    HW216740   2.524   6.280   5.046
 5281SOL     OW16741   0.046   1.563   2.852
 5281SOL    HW116742   0.076   1.640   2.908
 5281SOL    HW216743   0.061   1.478   2.902
 5282SOL     OW16744   1.945   1.889   3.849
 5282SOL    HW116745   1.990   1.836   3.778
 5282SOL    HW216746   2.004   1.964   3.878
 5283SOL     OW16747   5.453   5.812   0.898
 5283SOL    HW116748   5.511   5.808   0.817
 5283SOL    HW216749   5.388   5.887   0.890
 5284SOL     OW16750   5.627   4.598   2.910
 5284SOL    HW116751   5.710   4.639   2.949
 5284SOL    HW216752   5.564   4.574   2.984
 5285SOL     OW16753   3.237   4.861   3.739
 5285SOL    HW116754   3.330   4.829   3.753
 5285SOL    HW216755   3.229   4.906   3.650
 5286SOL     OW16756   2.299   4.231   1.130
 5286SOL    HW116757   2.335   4.314   1.088
 5286SOL    HW216758   2.247   4.256   1.213
 5287SOL     OW16759   2.612   1.336   0.524
 5287SOL    HW116760   2.655   1.365   0.609
 5287SOL    HW216761   2.527   1.286   0.545
 5288SOL     OW16762   3.556   0.066   1.419
 5288SOL    HW116763   3.643   0.024   1.443
 5288SOL    HW216764   3.571   0.141   1.355
 5289SOL     OW16765   0.838   5.336   0.424
 5289SOL    HW116766   0.740   5.336   0.403
 5289SOL    HW216767   0.864   5.247   0.461
 5290SOL     OW16768   3.682   6.054   6.735
 5290SOL    HW116769   3.685   5.985   6.662
 5290SOL    HW216770   3.775   6.085   6.755
 5291SOL     OW16771   1.560   4.809   5.753
 5291SOL    HW116772   1.549   4.863   5.671
 5291SOL    HW216773   1.502   4.727   5.748
 5292SOL     OW16774   5.221   3.111   6.994
 5292SOL    HW116775   5.121   3.110   6.991
 5292SOL    HW216776   5.252   3.031   0.016
 5293SOL     OW16777   0.775   1.076   4.392
 5293SOL    HW116778   0.833   0.995   4.399
 5293SOL    HW216779   0.731   1.077   4.302
 5294SOL     OW16780   5.697   2.966   6.084
 5294SOL    HW116781   5.624   2.995   6.147
 5294SOL    HW216782   5.656   2.937   5.998
 5295SOL     OW16783   5.207   1.010   3.028
 5295SOL    HW116784   5.300   1.041   3.049
 5295SOL    HW216785   5.182   0.936   3.090
 5296SOL     OW16786   1.741   4.357   0.325
 5296SOL    HW116787   1.748   4.421   0.248
 5296SOL    HW216788   1.829   4.312   0.340
 5297SOL     OW16789   1.930   1.579   1.005
 5297SOL    HW116790   1.848   1.541   1.047
 5297SOL    HW216791   1.979   1.508   0.954
 5298SOL     OW16792   6.533   4.741   1.945
 5298SOL    HW116793   6.469   4.750   2.020
 5298SOL    HW216794   6.600   4.669   1.966
 5299SOL     OW16795   2.875   0.336   1.602
 5299SOL    HW116796   2.869   0.352   1.504
 5299SOL    HW216797   2.956   0.282   1.623
 5300SOL     OW16798   0.167   6.344   3.725
 5300SOL    HW116799   0.132   6.371   3.636
 5300SOL    HW216800   0.267   6.340   3.722
 5301SOL     OW16801   4.235   1.627   0.004
 5301SOL    HW116802   4.137   1.627   0.027
 5301SOL    HW216803   4.247   1.583   6.944
 5302SOL     OW16804   6.940   4.262   2.946
 5302SOL    HW116805   6.861   4.318   2.925
 5302SOL    HW216806   7.024   4.311   2.922
 5303SOL     OW16807   6.951   4.779   3.649
 5303SOL    HW116808   7.025   4.774   3.716
 5303SOL    HW216809   6.867   4.810   3.694
 5304SOL     OW16810   5.066   1.938   5.786
 5304SOL    HW116811   5.070   1.868   5.857
 5304SOL    HW216812   5.000   2.008   5.812
 5305SOL     OW16813   2.059   0.611   3.985
 5305SOL    HW116814   2.118   0.675   3.937
 5305SOL    HW216815   2.109   0.574   4.064
 5306SOL     OW16816   2.637   6.821   5.955
 5306SOL    HW116817   2.618   6.728   5.987
 5306SOL    HW216818   2.585   6.887   6.009
 5307SOL     OW16819   4.402   6.660   6.285
 5307SOL    HW116820   4.348   6.678   6.202
 5307SOL    HW216821   4.350   6.686   6.365
 5308SOL     OW16822   6.854   0.649   3.306
 5308SOL    HW116823   6.943   0.692   3.288
 5308SOL    HW216824   6.830   0.662   3.402
 5309SOL     OW16825   3.780   4.120   4.064
 5309SOL    HW116826   3.809   4.078   3.978
 5309SOL    HW216827   3.693   4.168   4.051
 5310SOL     OW16828   5.365   2.517   1.509
 5310SOL    HW116829   5.327   2.483   1.595
 5310SOL    HW216830   5.350   2.616   1.502
 5311SOL     OW16831   2.301   5.220   7.007
 5311SOL    HW116832   2.218   5.177   0.015
 5311SOL    HW216833   2.304   5.316   0.007
 5312SOL     OW16834   1.128   4.337   2.866
 5312SOL    HW116835   1.133   4.376   2.957
 5312SOL    HW216836   1.220   4.332   2.827
 5313SOL     OW16837   1.028   5.977   6.609
 5313SOL    HW116838   0.976   5.892   6.602
 5313SOL    HW216839   1.038   6.018   6.518
 5314SOL     OW16840   4.173   5.452   6.751
 5314SOL    HW116841   4.185   5.463   6.652
 5314SOL    HW216842   4.187   5.357   6.777
 5315SOL     OW16843   5.925   3.709   1.539
 5315SOL    HW116844   5.831   3.735   1.563
 5315SOL    HW216845   5.972   3.675   1.620
 5316SOL     OW16846   0.071   4.879   4.637
 5316SOL    HW116847   0.122   4.845   4.558
 5316SOL    HW216848   7.003   4.863   4.624
 5317SOL     OW16849   5.297   0.422   2.487
 5317SOL    HW116850   5.274   0.494   2.552
 5317SOL    HW216851   5.231   0.348   2.494
 5318SOL     OW16852   6.864   2.590   4.603
 5318SOL    HW116853   6.806   2.671   4.614
 5318SOL    HW216854   6.819   2.511   4.644
 5319SOL     OW16855   5.329   0.141   0.313
 5319SOL    HW116856   5.327   0.168   0.409
 5319SOL    HW216857   5.413   0.175   0.271
 5320SOL     OW16858   5.313   3.630   6.708
 5320SOL    HW116859   5.342   3.620   6.803
 5320SOL    HW216860   5.214   3.621   6.702
 5321SOL     OW16861   1.913   5.707   5.627
 5321SOL    HW116862   1.853   5.674   5.554
 5321SOL    HW216863   1.971   5.632   5.660
 5322SOL     OW16864   3.852   5.521   6.196
 5322SOL    HW116865   3.900   5.577   6.263
 5322SOL    HW216866   3.919   5.480   6.134
 5323SOL     OW16867   3.782   1.560   0.570
 5323SOL    HW116868   3.836   1.627   0.620
 5323SOL    HW216869   3.814   1.468   0.592
 5324SOL     OW16870   4.239   2.990   1.362
 5324SOL    HW116871   4.221   2.977   1.459
 5324SOL    HW216872   4.254   3.087   1.343
 5325SOL     OW16873   5.254   6.267   1.999
 5325SOL    HW116874   5.345   6.289   1.966
 5325SOL    HW216875   5.258   6.187   2.059
 5326SOL     OW16876   6.669   5.943   1.913
 5326SOL    HW116877   6.600   6.010   1.887
 5326SOL    HW216878   6.625   5.861   1.950
 5327SOL     OW16879   6.801   6.724   4.288
 5327SOL    HW116880   6.858   6.707   4.208
 5327SOL    HW216881   6.735   6.796   4.268
 5328SOL     OW16882   3.799   3.969   0.073
 5328SOL    HW116883   3.825   3.918   7.021
 5328SOL    HW216884   3.881   4.010   0.114
 5329SOL     OW16885   0.766   4.794   0.903
 5329SOL    HW116886   0.674   4.755   0.911
 5329SOL    HW216887   0.798   4.820   0.994
 5330SOL     OW16888   3.942   4.024   1.218
 5330SOL    HW116889   4.034   4.005   1.252
 5330SOL    HW216890   3.875   3.983   1.281
 5331SOL     OW16891   4.060   2.197   0.550
 5331SOL    HW116892   4.081   2.250   0.633
 5331SOL    HW216893   4.143   2.187   0.495
 5332SOL     OW16894   6.062   4.737   0.339
 5332SOL    HW116895   6.069   4.831   0.305
 5332SOL    HW216896   6.000   4.735   0.418
 5333SOL     OW16897   1.408   0.930   3.788
 5333SOL    HW116898   1.403   0.896   3.694
 5333SOL    HW216899   1.339   0.885   3.844
 5334SOL     OW16900   4.578   4.341   3.177
 5334SOL    HW116901   4.584   4.311   3.081
 5334SOL    HW216902   4.486   4.374   3.196
 5335SOL     OW16903   0.264   4.852   1.236
 5335SOL    HW116904   0.355   4.813   1.246
 5335SOL    HW216905   0.235   4.844   1.140
 5336SOL     OW16906   1.929   2.291   4.349
 5336SOL    HW116907   1.907   2.229   4.424
 5336SOL    HW216908   1.931   2.385   4.382
 5337SOL     OW16909   6.879   4.484   1.349
 5337SOL    HW116910   6.921   4.415   1.288
 5337SOL    HW216911   6.865   4.568   1.298
 5338SOL     OW16912   6.185   3.138   0.099
 5338SOL    HW116913   6.134   3.070   0.046
 5338SOL    HW216914   6.275   3.101   0.123
 5339SOL     OW16915   6.175   2.415   2.914
 5339SOL    HW116916   6.138   2.334   2.869
 5339SOL    HW216917   6.260   2.442   2.870
 5340SOL     OW16918   5.625   3.042   2.614
 5340SOL    HW116919   5.593   3.022   2.521
 5340SOL    HW216920   5.724   3.057   2.613
 5341SOL     OW16921   4.472   4.910   3.453
 5341SOL    HW116922   4.531   4.935   3.530
 5341SOL    HW216923   4.420   4.991   3.424
 5342SOL     OW16924   5.947   0.251   5.315
 5342SOL    HW116925   5.901   0.166   5.341
 5342SOL    HW216926   5.880   0.312   5.270
 5343SOL     OW16927   3.886   3.653   5.528
 5343SOL    HW116928   3.942   3.694   5.601
 5343SOL    HW216929   3.931   3.666   5.440
 5344SOL     OW16930   0.359   1.885   6.373
 5344SOL    HW116931   0.381   1.882   6.470
 5344SOL    HW216932   0.279   1.828   6.355
 5345SOL     OW16933   5.289   1.135   6.888
 5345SOL    HW116934   5.348   1.153   6.809
 5345SOL    HW216935   5.317   1.193   6.965
 5346SOL     OW16936   2.680   5.277   3.773
 5346SOL    HW116937   2.602   5.309   3.720
 5346SOL    HW216938   2.654   5.270   3.869
 5347SOL     OW16939   6.260   1.965   3.996
 5347SOL    HW116940   6.265   1.975   3.897
 5347SOL    HW216941   6.349   1.939   4.032
 5348SOL     OW16942   5.369   2.353   3.987
 5348SOL    HW116943   5.430   2.353   3.907
 5348SOL    HW216944   5.280   2.390   3.961
 5349SOL     OW16945   0.944   3.054   1.696
 5349SOL    HW116946   1.043   3.040   1.692
 5349SOL    HW216947   0.902   3.015   1.614
 5350SOL     OW16948   2.546   6.783   5.693
 5350SOL    HW116949   2.470   6.717   5.698
 5350SOL    HW216950   2.596   6.783   5.780
 5351SOL     OW16951   0.403   5.347   1.689
 5351SOL    HW116952   0.475   5.392   1.636
 5351SOL    HW216953   0.441   5.316   1.776
 5352SOL     OW16954   1.828   4.003   3.968
 5352SOL    HW116955   1.872   3.977   4.054
 5352SOL    HW216956   1.836   4.102   3.955
 5353SOL     OW16957   4.802   5.516   3.333
 5353SOL    HW116958   4.711   5.483   3.356
 5353SOL    HW216959   4.859   5.440   3.302
 5354SOL     OW16960   4.301   5.548   0.592
 5354SOL    HW116961   4.219   5.492   0.579
 5354SOL    HW216962   4.274   5.641   0.615
 5355SOL     OW16963   5.192   4.817   5.208
 5355SOL    HW116964   5.219   4.900   5.160
 5355SOL    HW216965   5.269   4.752   5.208
 5356SOL     OW16966   0.498   4.772   0.987
 5356SOL    HW116967   0.407   4.813   0.978
 5356SOL    HW216968   0.499   4.711   1.066
 5357SOL     OW16969   5.069   4.725   2.087
 5357SOL    HW116970   5.048   4.788   2.162
 5357SOL    HW216971   5.014   4.750   2.007
 5358SOL     OW16972   4.630   1.239   0.199
 5358SOL    HW116973   4.603   1.147   0.172
 5358SOL    HW216974   4.721   1.259   0.165
 5359SOL     OW16975   1.778   1.922   6.808
 5359SOL    HW116976   1.866   1.891   6.772
 5359SOL    HW216977   1.792   1.970   6.895
 5360SOL     OW16978   5.751   4.545   3.545
 5360SOL    HW116979   5.680   4.511   3.483
 5360SOL    HW216980   5.707   4.587   3.625
 5361SOL     OW16981   3.305   5.915   2.595
 5361SOL    HW116982   3.260   5.869   2.519
 5361SOL    HW216983   3.364   5.987   2.560
 5362SOL     OW16984   5.697   0.132   1.930
 5362SOL    HW116985   5.653   0.097   1.847
 5362SOL    HW216986   5.641   0.204   1.970
 5363SOL     OW16987   5.599   5.245   4.938
 5363SOL    HW116988   5.564   5.237   5.032
 5363SOL    HW216989   5.556   5.176   4.881
 5364SOL     OW16990   4.843   0.836   2.506
 5364SOL    HW116991   4.901   0.755   2.501
 5364SOL    HW216992   4.856   0.892   2.424
 5365SOL     OW16993   3.155   3.201   4.146
 5365SOL    HW116994   3.213   3.250   4.081
 5365SOL    HW216995   3.175   3.232   4.239
 5366SOL     OW16996   6.397   6.646   1.776
 5366SOL    HW116997   6.307   6.680   1.748
 5366SOL    HW216998   6.468   6.704   1.736
 5367SOL     OW16999   7.013   6.298   1.431
 5367SOL    HW117000   6.939   6.346   1.383
 5367SOL    HW217001   0.007   6.350   1.513
 5368SOL     OW17002   6.573   5.733   3.738
 5368SOL    HW117003   6.667   5.754   3.764
 5368SOL    HW217004   6.524   5.696   3.816
 5369SOL     OW17005   2.741   5.853   1.868
 5369SOL    HW117006   2.822   5.796   1.881
 5369SOL    HW217007   2.763   5.929   1.808
 5370SOL     OW17008   3.157   3.874   1.298
 5370SOL    HW117009   3.220   3.855   1.223
 5370SOL    HW217010   3.064   3.850   1.269
 5371SOL     OW17011   6.681   5.197   5.455
 5371SOL    HW117012   6.671   5.098   5.462
 5371SOL    HW217013   6.602   5.241   5.496
 5372SOL     OW17014   0.726   0.319   2.231
 5372SOL    HW117015   0.714   0.355   2.324
 5372SOL    HW217016   0.817   0.342   2.198
 5373SOL     OW17017   3.835   0.275   6.058
 5373SOL    HW117018   3.835   0.280   6.158
 5373SOL    HW217019   3.768   0.208   6.028
 5374SOL     OW17020   3.055   5.122   1.331
 5374SOL    HW117021   3.098   5.034   1.308
 5374SOL    HW217022   2.963   5.125   1.293
 5375SOL     OW17023   0.468   5.948   4.790
 5375SOL    HW117024   0.449   5.872   4.728
 5375SOL    HW217025   0.475   5.913   4.884
 5376SOL     OW17026   1.003   1.650   6.836
 5376SOL    HW117027   0.956   1.587   6.774
 5376SOL    HW217028   0.935   1.694   6.895
 5377SOL     OW17029   2.319   0.631   3.478
 5377SOL    HW117030   2.352   0.696   3.409
 5377SOL    HW217031   2.262   0.562   3.433
 5378SOL     OW17032   5.848   0.551   1.785
 5378SOL    HW117033   5.832   0.630   1.726
 5378SOL    HW217034   5.765   0.531   1.837
 5379SOL     OW17035   0.827   2.966   6.095
 5379SOL    HW117036   0.874   3.011   6.171
 5379SOL    HW217037   0.808   3.033   6.023
 5380SOL     OW17038   5.038   0.201   1.338
 5380SOL    HW117039   5.116   0.143   1.315
 5380SOL    HW217040   4.954   0.147   1.333
 5381SOL     OW17041   4.613   6.350   2.818
 5381SOL    HW117042   4.536   6.324   2.760
 5381SOL    HW217043   4.699   6.331   2.770
 5382SOL     OW17044   4.187   1.794   1.792
 5382SOL    HW117045   4.119   1.861   1.763
 5382SOL    HW217046   4.149   1.735   1.863
 5383SOL     OW17047   2.303   2.937   4.550
 5383SOL    HW117048   2.283   2.907   4.643
 5383SOL    HW217049   2.391   2.898   4.521
 5384SOL     OW17050   4.564   5.919   5.540
 5384SOL    HW117051   4.616   5.976   5.603
 5384SOL    HW217052   4.627   5.864   5.484
 5385SOL     OW17053   5.716   2.655   5.561
 5385SOL    HW117054   5.667   2.590   5.619
 5385SOL    HW217055   5.741   2.611   5.475
 5386SOL     OW17056   6.899   4.054   4.276
 5386SOL    HW117057   6.970   4.119   4.304
 5386SOL    HW217058   6.883   4.063   4.178
 5387SOL     OW17059   2.062   1.370   2.688
 5387SOL    HW117060   2.161   1.372   2.678
 5387SOL    HW217061   2.038   1.339   2.781
 5388SOL     OW17062   0.830   6.841   2.444
 5388SOL    HW117063   0.863   6.934   2.426
 5388SOL    HW217064   0.734   6.845   2.473
 5389SOL     OW17065   4.444   1.927   4.078
 5389SOL    HW117066   4.456   1.940   4.177
 5389SOL    HW217067   4.352   1.956   4.051
 5390SOL     OW17068   6.632   3.191   3.717
 5390SOL    HW117069   6.578   3.117   3.678
 5390SOL    HW217070   6.624   3.272   3.659
 5391SOL     OW17071   2.171   2.714   0.232
 5391SOL    HW117072   2.137   2.685   0.143
 5391SOL    HW217073   2.094   2.720   0.297
 5392SOL     OW17074   5.335   1.768   3.523
 5392SOL    HW117075   5.284   1.826   3.459
 5392SOL    HW217076   5.373   1.690   3.474
 5393SOL     OW17077   3.872   1.946   5.650
 5393SOL    HW117078   3.913   1.999   5.576
 5393SOL    HW217079   3.937   1.940   5.726
 5394SOL     OW17080   1.964   0.272   0.985
 5394SOL    HW117081   2.007   0.232   0.905
 5394SOL    HW217082   2.033   0.317   1.042
 5395SOL     OW17083   5.412   2.244   1.182
 5395SOL    HW117084   5.417   2.344   1.180
 5395SOL    HW217085   5.484   2.209   1.241
 5396SOL     OW17086   6.044   5.319   3.315
 5396SOL    HW117087   6.034   5.220   3.326
 5396SOL    HW217088   6.091   5.356   3.396
 5397SOL     OW17089   6.410   1.070   3.103
 5397SOL    HW117090   6.414   1.012   3.021
 5397SOL    HW217091   6.314   1.086   3.126
 5398SOL     OW17092   4.916   1.901   3.467
 5398SOL    HW117093   4.856   1.904   3.387
 5398SOL    HW217094   4.938   1.806   3.489
 5399SOL     OW17095   2.348   6.972   5.707
 5399SOL    HW117096   2.411   6.895   5.705
 5399SOL    HW217097   2.391   0.021   5.752
 5400SOL     OW17098   3.756   3.268   1.393
 5400SOL    HW117099   3.727   3.323   1.471
 5400SOL    HW217100   3.690   3.194   1.377
 5401SOL     OW17101   6.009   4.408   1.659
 5401SOL    HW117102   6.036   4.388   1.565
 5401SOL    HW217103   6.088   4.444   1.709
 5402SOL     OW17104   1.828   6.929   0.871
 5402SOL    HW117105   1.830   6.984   0.954
 5402SOL    HW217106   1.814   6.988   0.791
 5403SOL     OW17107   5.232   3.519   0.276
 5403SOL    HW117108   5.234   3.602   0.332
 5403SOL    HW217109   5.219   3.439   0.335
 5404SOL     OW17110   6.314   0.808   1.463
 5404SOL    HW117111   6.328   0.886   1.524
 5404SOL    HW217112   6.319   0.723   1.516
 5405SOL     OW17113   5.020   5.840   0.027
 5405SOL    HW117114   5.119   5.835   0.037
 5405SOL    HW217115   4.982   5.748   0.020
 5406SOL     OW17116   2.859   0.171   3.878
 5406SOL    HW117117   2.934   0.109   3.903
 5406SOL    HW217118   2.874   0.204   3.784
 5407SOL     OW17119   2.329   0.407   1.693
 5407SOL    HW117120   2.366   0.315   1.681
 5407SOL    HW217121   2.403   0.474   1.687
 5408SOL     OW17122   2.551   2.448   4.442
 5408SOL    HW117123   2.583   2.383   4.373
 5408SOL    HW217124   2.600   2.433   4.528
 5409SOL     OW17125   1.298   2.677   1.132
 5409SOL    HW117126   1.284   2.776   1.128
 5409SOL    HW217127   1.354   2.648   1.055
 5410SOL     OW17128   0.756   2.357   0.945
 5410SOL    HW117129   0.854   2.361   0.925
 5410SOL    HW217130   0.724   2.262   0.939
 5411SOL     OW17131   4.065   5.049   6.735
 5411SOL    HW117132   4.084   5.116   6.664
 5411SOL    HW217133   4.074   4.957   6.697
 5412SOL     OW17134   0.266   2.399   5.943
 5412SOL    HW117135   0.189   2.413   5.881
 5412SOL    HW217136   0.295   2.304   5.939
 5413SOL     OW17137   6.624   6.791   4.724
 5413SOL    HW117138   6.591   6.885   4.715
 5413SOL    HW217139   6.723   6.793   4.741
 5414SOL     OW17140   6.428   3.990   5.349
 5414SOL    HW117141   6.389   4.001   5.257
 5414SOL    HW217142   6.362   4.023   5.417
 5415SOL     OW17143   3.532   0.553   0.577
 5415SOL    HW117144   3.480   0.621   0.525
 5415SOL    HW217145   3.608   0.598   0.624
 5416SOL     OW17146   3.484   5.106   5.650
 5416SOL    HW117147   3.423   5.108   5.730
 5416SOL    HW217148   3.486   5.197   5.608
 5417SOL     OW17149   4.399   6.346   3.692
 5417SOL    HW117150   4.339   6.271   3.721
 5417SOL    HW217151   4.346   6.430   3.684
 5418SOL     OW17152   6.426   3.888   4.623
 5418SOL    HW117153   6.435   3.920   4.529
 5418SOL    HW217154   6.434   3.965   4.686
 5419SOL     OW17155   4.111   0.080   6.378
 5419SOL    HW117156   4.027   0.042   6.341
 5419SOL    HW217157   4.151   0.143   6.312
 5420SOL     OW17158   1.082   0.974   1.593
 5420SOL    HW117159   1.094   0.995   1.690
 5420SOL    HW217160   1.108   0.879   1.577
 5421SOL     OW17161   3.755   5.209   2.207
 5421SOL    HW117162   3.693   5.283   2.236
 5421SOL    HW217163   3.709   5.154   2.137
 5422SOL     OW17164   2.199   6.522   3.853
 5422SOL    HW117165   2.205   6.610   3.899
 5422SOL    HW217166   2.290   6.483   3.842
 5423SOL     OW17167   6.284   6.369   2.427
 5423SOL    HW117168   6.203   6.335   2.473
 5423SOL    HW217169   6.362   6.309   2.447
 5424SOL     OW17170   4.264   4.106   5.454
 5424SOL    HW117171   4.196   4.156   5.402
 5424SOL    HW217172   4.348   4.099   5.400
 5425SOL     OW17173   0.203   3.658   6.134
 5425SOL    HW117174   0.171   3.600   6.209
 5425SOL    HW217175   0.136   3.656   6.060
 5426SOL     OW17176   5.679   5.238   2.674
 5426SOL    HW117177   5.630   5.151   2.676
 5426SOL    HW217178   5.674   5.278   2.583
 5427SOL     OW17179   4.783   2.655   6.486
 5427SOL    HW117180   4.771   2.596   6.406
 5427SOL    HW217181   4.849   2.727   6.463
 5428SOL     OW17182   6.872   5.675   3.260
 5428SOL    HW117183   6.921   5.696   3.176
 5428SOL    HW217184   6.929   5.618   3.319
 5429SOL     OW17185   2.838   0.175   3.586
 5429SOL    HW117186   2.779   0.095   3.581
 5429SOL    HW217187   2.879   0.191   3.496
 5430SOL     OW17188   2.692   3.577   6.356
 5430SOL    HW117189   2.689   3.484   6.322
 5430SOL    HW217190   2.731   3.578   6.449
 5431SOL     OW17191   3.332   5.134   5.878
 5431SOL    HW117192   3.245   5.146   5.925
 5431SOL    HW217193   3.377   5.051   5.913
 5432SOL     OW17194   5.379   5.425   0.612
 5432SOL    HW117195   5.475   5.446   0.625
 5432SOL    HW217196   5.359   5.333   0.648
 5433SOL     OW17197   1.650   6.742   0.977
 5433SOL    HW117198   1.728   6.793   0.943
 5433SOL    HW217199   1.568   6.766   0.925
 5434SOL     OW17200   5.075   0.896   4.497
 5434SOL    HW117201   5.119   0.886   4.586
 5434SOL    HW217202   5.105   0.821   4.437
 5435SOL     OW17203   6.513   3.944   0.910
 5435SOL    HW117204   6.574   4.019   0.937
 5435SOL    HW217205   6.512   3.874   0.981
 5436SOL     OW17206   1.465   4.789   2.786
 5436SOL    HW117207   1.420   4.877   2.771
 5436SOL    HW217208   1.504   4.756   2.700
 5437SOL     OW17209   3.819   5.974   0.669
 5437SOL    HW117210   3.735   5.985   0.617
 5437SOL    HW217211   3.840   5.877   0.678
 5438SOL     OW17212   4.763   4.558   2.774
 5438SOL    HW117213   4.672   4.587   2.806
 5438SOL    HW217214   4.755   4.513   2.686
 5439SOL     OW17215   1.086   4.515   1.694
 5439SOL    HW117216   1.092   4.415   1.699
 5439SOL    HW217217   1.005   4.541   1.641
 5440SOL     OW17218   5.806   6.164   3.604
 5440SOL    HW117219   5.756   6.079   3.621
 5440SOL    HW217220   5.804   6.185   3.507
 5441SOL     OW17221   4.477   2.251   3.895
 5441SOL    HW117222   4.486   2.213   3.987
 5441SOL    HW217223   4.491   2.178   3.828
 5442SOL     OW17224   4.992   0.135   4.823
 5442SOL    HW117225   5.078   0.183   4.804
 5442SOL    HW217226   5.007   0.069   4.897
 5443SOL     OW17227   4.560   0.104   4.574
 5443SOL    HW117228   4.603   0.046   4.505
 5443SOL    HW217229   4.469   0.132   4.542
 5444SOL     OW17230   6.898   0.759   4.330
 5444SOL    HW117231   6.948   0.821   4.271
 5444SOL    HW217232   6.959   0.686   4.361
 5445SOL     OW17233   5.199   5.358   5.163
 5445SOL    HW117234   5.146   5.299   5.224
 5445SOL    HW217235   5.142   5.388   5.087
 5446SOL     OW17236   1.055   4.446   5.900
 5446SOL    HW117237   0.989   4.388   5.948
 5446SOL    HW217238   1.138   4.393   5.880
 5447SOL     OW17239   0.954   1.488   0.535
 5447SOL    HW117240   1.027   1.426   0.563
 5447SOL    HW217241   0.949   1.492   0.436
 5448SOL     OW17242   4.468   5.829   3.007
 5448SOL    HW117243   4.391   5.889   2.986
 5448SOL    HW217244   4.444   5.769   3.083
 5449SOL     OW17245   3.035   1.801   2.153
 5449SOL    HW117246   2.940   1.809   2.184
 5449SOL    HW217247   3.067   1.889   2.118
 5450SOL     OW17248   3.812   5.657   1.533
 5450SOL    HW117249   3.850   5.744   1.501
 5450SOL    HW217250   3.799   5.596   1.455
 5451SOL     OW17251   1.298   0.355   3.194
 5451SOL    HW117252   1.245   0.290   3.140
 5451SOL    HW217253   1.266   0.448   3.176
 5452SOL     OW17254   2.145   4.552   2.060
 5452SOL    HW117255   2.188   4.512   1.980
 5452SOL    HW217256   2.052   4.517   2.070
 5453SOL     OW17257   5.706   4.347   3.186
 5453SOL    HW117258   5.607   4.334   3.182
 5453SOL    HW217259   5.728   4.441   3.160
 5454SOL     OW17260   5.932   5.296   3.641
 5454SOL    HW117261   6.012   5.345   3.607
 5454SOL    HW217262   5.858   5.361   3.660
 5455SOL     OW17263   0.338   1.661   3.083
 5455SOL    HW117264   0.359   1.586   3.020
 5455SOL    HW217265   0.421   1.715   3.098
 5456SOL     OW17266   5.444   0.877   6.510
 5456SOL    HW117267   5.537   0.844   6.496
 5456SOL    HW217268   5.445   0.977   6.520
 5457SOL     OW17269   6.227   2.387   0.346
 5457SOL    HW117270   6.287   2.320   0.302
 5457SOL    HW217271   6.141   2.342   0.372
 5458SOL     OW17272   6.430   4.657   0.874
 5458SOL    HW117273   6.420   4.572   0.924
 5458SOL    HW217274   6.528   4.674   0.857
 5459SOL     OW17275   2.377   4.549   5.696
 5459SOL    HW117276   2.422   4.600   5.623
 5459SOL    HW217277   2.293   4.508   5.661
 5460SOL     OW17278   1.916   0.097   7.000
 5460SOL    HW117279   1.889   0.089   0.066
 5460SOL    HW217280   1.940   0.192   6.980
 5461SOL     OW17281   6.660   1.124   6.507
 5461SOL    HW117282   6.667   1.080   6.596
 5461SOL    HW217283   6.740   1.101   6.451
 5462SOL     OW17284   5.703   5.810   6.698
 5462SOL    HW117285   5.610   5.780   6.722
 5462SOL    HW217286   5.770   5.756   6.749
 5463SOL     OW17287   0.124   2.738   0.484
 5463SOL    HW117288   0.070   2.823   0.487
 5463SOL    HW217289   0.210   2.752   0.533
 5464SOL     OW17290   6.567   6.421   5.245
 5464SOL    HW117291   6.658   6.440   5.283
 5464SOL    HW217292   6.572   6.340   5.186
 5465SOL     OW17293   6.901   6.648   3.718
 5465SOL    HW117294   6.867   6.726   3.665
 5465SOL    HW217295   6.997   6.661   3.740
 5466SOL     OW17296   5.865   2.846   5.254
 5466SOL    HW117297   5.871   2.936   5.212
 5466SOL    HW217298   5.773   2.809   5.243
 5467SOL     OW17299   5.521   3.675   3.355
 5467SOL    HW117300   5.508   3.709   3.262
 5467SOL    HW217301   5.462   3.727   3.417
 5468SOL     OW17302   0.057   1.355   2.398
 5468SOL    HW117303   0.004   1.297   2.459
 5468SOL    HW217304   0.023   1.345   2.304
 5469SOL     OW17305   2.231   1.030   5.188
 5469SOL    HW117306   2.300   1.009   5.119
 5469SOL    HW217307   2.253   0.983   5.273
 5470SOL     OW17308   3.893   5.201   4.220
 5470SOL    HW117309   3.961   5.138   4.183
 5470SOL    HW217310   3.807   5.152   4.235
 5471SOL     OW17311   4.802   0.040   2.505
 5471SOL    HW117312   4.815   0.132   2.468
 5471SOL    HW217313   4.830   7.002   2.437
 5472SOL     OW17314   2.784   1.440   6.082
 5472SOL    HW117315   2.883   1.444   6.097
 5472SOL    HW217316   2.740   1.395   6.160
 5473SOL     OW17317   2.517   4.379   1.494
 5473SOL    HW117318   2.598   4.411   1.543
 5473SOL    HW217319   2.494   4.444   1.422
 5474SOL     OW17320   0.418   5.514   3.393
 5474SOL    HW117321   0.374   5.486   3.307
 5474SOL    HW217322   0.410   5.440   3.460
 5475SOL     OW17323   0.164   1.837   6.743
 5475SOL    HW117324   0.120   1.892   6.813
 5475SOL    HW217325   0.252   1.878   6.718
 5476SOL     OW17326   2.528   6.368   6.181
 5476SOL    HW117327   2.520   6.408   6.273
 5476SOL    HW217328   2.437   6.345   6.148
 5477SOL     OW17329   1.979   5.428   4.417
 5477SOL    HW117330   2.077   5.430   4.440
 5477SOL    HW217331   1.947   5.521   4.401
 5478SOL     OW17332   5.509   4.729   6.353
 5478SOL    HW117333   5.564   4.812   6.355
 5478SOL    HW217334   5.465   4.720   6.264
 5479SOL     OW17335   4.304   1.941   4.583
 5479SOL    HW117336   4.206   1.929   4.567
 5479SOL    HW217337   4.323   2.036   4.608
 5480SOL     OW17338   6.313   4.655   5.042
 5480SOL    HW117339   6.293   4.656   5.140
 5480SOL    HW217340   6.340   4.563   5.015
 5481SOL     OW17341   4.480   1.079   6.088
 5481SOL    HW117342   4.439   1.088   6.178
 5481SOL    HW217343   4.567   1.031   6.095
 5482SOL     OW17344   3.982   3.327   1.688
 5482SOL    HW117345   4.024   3.379   1.613
 5482SOL    HW217346   4.052   3.303   1.755
 5483SOL     OW17347   6.923   3.301   6.207
 5483SOL    HW117348   7.017   3.331   6.224
 5483SOL    HW217349   6.859   3.368   6.243
 5484SOL     OW17350   0.055   6.505   4.219
 5484SOL    HW117351   6.998   6.463   4.244
 5484SOL    HW217352   0.098   6.452   4.146
 5485SOL     OW17353   3.908   6.821   4.894
 5485SOL    HW117354   3.986   6.808   4.954
 5485SOL    HW217355   3.879   6.733   4.857
 5486SOL     OW17356   1.115   0.586   3.315
 5486SOL    HW117357   1.207   0.581   3.275
 5486SOL    HW217358   1.103   0.511   3.380
 5487SOL     OW17359   6.300   4.573   0.348
 5487SOL    HW117360   6.321   4.558   0.444
 5487SOL    HW217361   6.221   4.634   0.341
 5488SOL     OW17362   5.170   2.293   7.001
 5488SOL    HW117363   5.249   2.291   0.032
 5488SOL    HW217364   5.152   2.202   6.966
 5489SOL     OW17365   1.794   4.743   2.449
 5489SOL    HW117366   1.804   4.712   2.355
 5489SOL    HW217367   1.883   4.740   2.495
 5490SOL     OW17368   3.493   0.934   0.006
 5490SOL    HW117369   3.587   0.956   0.031
 5490SOL    HW217370   3.490   0.906   6.940
 5491SOL     OW17371   1.864   4.727   0.643
 5491SOL    HW117372   1.934   4.656   0.638
 5491SOL    HW217373   1.880   4.794   0.570
 5492SOL     OW17374   0.874   2.341   6.824
 5492SOL    HW117375   0.898   2.351   6.728
 5492SOL    HW217376   0.800   2.404   6.847
 5493SOL     OW17377   3.683   3.266   5.753
 5493SOL    HW117378   3.721   3.222   5.834
 5493SOL    HW217379   3.734   3.237   5.672
 5494SOL     OW17380   6.614   3.405   1.657
 5494SOL    HW117381   6.697   3.362   1.620
 5494SOL    HW217382   6.635   3.498   1.685
 5495SOL     OW17383   3.881   4.092   1.797
 5495SOL    HW117384   3.925   4.164   1.743
 5495SOL    HW217385   3.921   4.003   1.773
 5496SOL     OW17386   3.721   6.036   1.612
 5496SOL    HW117387   3.647   6.005   1.552
 5496SOL    HW217388   3.682   6.089   1.687
 5497SOL     OW17389   0.565   1.325   3.152
 5497SOL    HW117390   0.513   1.357   3.231
 5497SOL    HW217391   0.519   1.353   3.068
 5498SOL     OW17392   4.577   1.087   5.786
 5498SOL    HW117393   4.532   1.006   5.825
 5498SOL    HW217394   4.647   1.119   5.849
 5499SOL     OW17395   6.998   1.129   3.555
 5499SOL    HW117396   0.052   1.118   3.500
 5499SOL    HW217397   6.953   1.040   3.564
 5500SOL     OW17398   2.619   5.322   0.838
 5500SOL    HW117399   2.642   5.417   0.820
 5500SOL    HW217400   2.689   5.262   0.799
 5501SOL     OW17401   2.662   6.915   2.188
 5501SOL    HW117402   2.714   6.945   2.268
 5501SOL    HW217403   2.578   6.968   2.181
 5502SOL     OW17404   5.931   4.279   5.586
 5502SOL    HW117405   5.988   4.353   5.623
 5502SOL    HW217406   5.889   4.228   5.661
 5503SOL     OW17407   1.241   4.805   3.474
 5503SOL    HW117408   1.158   4.785   3.525
 5503SOL    HW217409   1.297   4.722   3.468
 5504SOL     OW17410   3.586   0.989   4.878
 5504SOL    HW117411   3.607   0.898   4.911
 5504SOL    HW217412   3.488   0.996   4.859
 5505SOL     OW17413   2.443   5.952   5.106
 5505SOL    HW117414   2.395   5.935   5.192
 5505SOL    HW217415   2.480   5.865   5.071
 5506SOL     OW17416   6.498   0.610   4.708
 5506SOL    HW117417   6.597   0.618   4.723
 5506SOL    HW217418   6.479   0.530   4.652
 5507SOL     OW17419   2.182   6.693   3.228
 5507SOL    HW117420   2.140   6.713   3.139
 5507SOL    HW217421   2.178   6.595   3.245
 5508SOL     OW17422   2.325   0.718   6.178
 5508SOL    HW117423   2.350   0.736   6.273
 5508SOL    HW217424   2.383   0.772   6.117
 5509SOL     OW17425   5.703   6.289   0.286
 5509SOL    HW117426   5.714   6.363   0.352
 5509SOL    HW217427   5.634   6.225   0.318
 5510SOL     OW17428   4.334   6.956   6.413
 5510SOL    HW117429   4.235   6.971   6.416
 5510SOL    HW217430   4.369   6.982   6.324
 5511SOL     OW17431   0.637   0.644   2.605
 5511SOL    HW117432   0.710   0.645   2.673
 5511SOL    HW217433   0.615   0.737   2.577
 5512SOL     OW17434   6.644   1.988   0.390
 5512SOL    HW117435   6.582   1.916   0.421
 5512SOL    HW217436   6.700   1.954   0.314
 5513SOL     OW17437   4.437   4.614   4.667
 5513SOL    HW117438   4.509   4.560   4.711
 5513SOL    HW217439   4.387   4.666   4.737
 5514SOL     OW17440   6.068   4.969   3.051
 5514SOL    HW117441   6.101   4.947   3.143
 5514SOL    HW217442   5.972   4.995   3.055
 5515SOL     OW17443   6.887   2.877   1.849
 5515SOL    HW117444   6.839   2.956   1.889
 5515SOL    HW217445   6.924   2.903   1.760
 5516SOL     OW17446   1.652   2.813   6.895
 5516SOL    HW117447   1.587   2.739   6.914
 5516SOL    HW217448   1.617   2.898   6.934
 5517SOL     OW17449   3.300   2.551   1.660
 5517SOL    HW117450   3.278   2.454   1.671
 5517SOL    HW217451   3.355   2.565   1.578
 5518SOL     OW17452   5.126   5.011   6.404
 5518SOL    HW117453   5.205   5.049   6.357
 5518SOL    HW217454   5.123   5.048   6.497
 5519SOL     OW17455   5.261   3.779   2.829
 5519SOL    HW117456   5.265   3.718   2.908
 5519SOL    HW217457   5.303   3.734   2.750
 5520SOL     OW17458   1.753   4.361   2.732
 5520SOL    HW117459   1.788   4.428   2.796
 5520SOL    HW217460   1.691   4.406   2.667
 5521SOL     OW17461   5.037   6.261   1.842
 5521SOL    HW117462   5.122   6.278   1.891
 5521SOL    HW217463   5.014   6.164   1.848
 5522SOL     OW17464   2.552   3.387   1.492
 5522SOL    HW117465   2.534   3.301   1.538
 5522SOL    HW217466   2.500   3.390   1.406
 5523SOL     OW17467   3.476   6.767   3.185
 5523SOL    HW117468   3.494   6.697   3.116
 5523SOL    HW217469   3.385   6.807   3.169
 5524SOL     OW17470   0.510   5.816   5.042
 5524SOL    HW117471   0.603   5.795   5.072
 5524SOL    HW217472   0.462   5.732   5.020
 5525SOL     OW17473   6.695   4.892   0.009
 5525SOL    HW117474   6.657   4.891   0.101
 5525SOL    HW217475   6.724   4.985   7.016
 5526SOL     OW17476   6.290   3.241   4.010
 5526SOL    HW117477   6.244   3.313   3.958
 5526SOL    HW217478   6.304   3.272   4.104
 5527SOL     OW17479   0.743   2.721   1.995
 5527SOL    HW117480   0.722   2.808   2.039
 5527SOL    HW217481   0.796   2.738   1.912
 5528SOL     OW17482   6.860   2.823   5.310
 5528SOL    HW117483   6.879   2.911   5.265
 5528SOL    HW217484   6.840   2.754   5.240
 5529SOL     OW17485   2.629   0.266   4.794
 5529SOL    HW117486   2.645   0.301   4.702
 5529SOL    HW217487   2.622   0.166   4.791
 5530SOL     OW17488   6.892   2.739   1.277
 5530SOL    HW117489   6.819   2.672   1.264
 5530SOL    HW217490   6.864   2.807   1.344
 5531SOL     OW17491   4.042   3.380   4.673
 5531SOL    HW117492   4.032   3.340   4.582
 5531SOL    HW217493   4.071   3.311   4.738
 5532SOL     OW17494   1.603   0.785   0.636
 5532SOL    HW117495   1.602   0.818   0.542
 5532SOL    HW217496   1.509   0.777   0.670
 5533SOL     OW17497   2.643   0.710   3.215
 5533SOL    HW117498   2.740   0.725   3.196
 5533SOL    HW217499   2.620   0.614   3.199
 5534SOL     OW17500   0.929   3.095   6.837
 5534SOL    HW117501   0.877   3.057   6.913
 5534SOL    HW217502   1.025   3.104   6.863
 5535SOL     OW17503   6.728   3.015   2.963
 5535SOL    HW117504   6.673   2.973   2.891
 5535SOL    HW217505   6.673   3.029   3.045
 5536SOL     OW17506   2.178   0.535   4.218
 5536SOL    HW117507   2.181   0.630   4.248
 5536SOL    HW217508   2.201   0.475   4.294
 5537SOL     OW17509   3.698   0.416   4.860
 5537SOL    HW117510   3.776   0.458   4.813
 5537SOL    HW217511   3.697   0.318   4.841
 5538SOL     OW17512   4.166   0.502   5.260
 5538SOL    HW117513   4.073   0.466   5.272
 5538SOL    HW217514   4.229   0.425   5.249
 5539SOL     OW17515   0.708   1.773   2.071
 5539SOL    HW117516   0.649   1.728   2.004
 5539SOL    HW217517   0.783   1.819   2.024
 5540SOL     OW17518   5.273   3.068   1.467
 5540SOL    HW117519   5.201   3.108   1.410
 5540SOL    HW217520   5.331   3.141   1.504
 5541SOL     OW17521   4.994   3.123   5.648
 5541SOL    HW117522   4.962   3.155   5.737
 5541SOL    HW217523   5.070   3.059   5.661
 5542SOL     OW17524   5.362   5.414   6.219
 5542SOL    HW117525   5.375   5.425   6.318
 5542SOL    HW217526   5.417   5.483   6.171
 5543SOL     OW17527   2.275   5.518   7.011
 5543SOL    HW117528   2.263   5.611   6.976
 5543SOL    HW217529   2.186   5.479   0.006
 5544SOL     OW17530   5.235   5.000   5.996
 5544SOL    HW117531   5.255   4.989   5.898
 5544SOL    HW217532   5.149   4.953   6.018
 5545SOL     OW17533   4.210   1.148   2.727
 5545SOL    HW117534   4.240   1.218   2.791
 5545SOL    HW217535   4.240   1.058   2.759
 5546SOL     OW17536   1.050   6.590   4.542
 5546SOL    HW117537   0.993   6.524   4.591
 5546SOL    HW217538   1.080   6.662   4.604
 5547SOL     OW17539   3.537   1.341   5.374
 5547SOL    HW117540   3.485   1.364   5.457
 5547SOL    HW217541   3.498   1.390   5.296
 5548SOL     OW17542   6.491   4.279   6.099
 5548SOL    HW117543   6.586   4.303   6.118
 5548SOL    HW217544   6.431   4.341   6.149
 5549SOL     OW17545   4.032   3.227   1.391
 5549SOL    HW117546   3.941   3.265   1.378
 5549SOL    HW217547   4.027   3.145   1.447
 5550SOL     OW17548   2.420   4.516   2.955
 5550SOL    HW117549   2.485   4.546   2.884
 5550SOL    HW217550   2.366   4.440   2.920
 5551SOL     OW17551   1.556   6.411   2.747
 5551SOL    HW117552   1.482   6.345   2.755
 5551SOL    HW217553   1.520   6.503   2.758
 5552SOL     OW17554   5.937   0.210   6.141
 5552SOL    HW117555   6.036   0.208   6.127
 5552SOL    HW217556   5.917   0.206   6.239
 5553SOL     OW17557   4.278   6.742   6.829
 5553SOL    HW117558   4.302   6.674   6.899
 5553SOL    HW217559   4.245   6.825   6.873
 5554SOL     OW17560   4.803   3.431   1.753
 5554SOL    HW117561   4.744   3.481   1.690
 5554SOL    HW217562   4.818   3.338   1.719
 5555SOL     OW17563   1.105   3.452   2.363
 5555SOL    HW117564   1.013   3.414   2.377
 5555SOL    HW217565   1.110   3.542   2.407
 5556SOL     OW17566   6.526   0.998   3.805
 5556SOL    HW117567   6.540   1.096   3.788
 5556SOL    HW217568   6.429   0.981   3.822
 5557SOL     OW17569   4.220   5.365   2.061
 5557SOL    HW117570   4.288   5.294   2.038
 5557SOL    HW217571   4.155   5.328   2.127
 5558SOL     OW17572   3.708   3.757   0.276
 5558SOL    HW117573   3.748   3.833   0.226
 5558SOL    HW217574   3.705   3.676   0.217
 5559SOL     OW17575   1.391   0.436   1.992
 5559SOL    HW117576   1.427   0.441   1.899
 5559SOL    HW217577   1.404   0.524   2.038
 5560SOL     OW17578   7.004   5.754   1.281
 5560SOL    HW117579   6.949   5.738   1.363
 5560SOL    HW217580   6.975   5.692   1.208
 5561SOL     OW17581   2.787   0.752   4.481
 5561SOL    HW117582   2.744   0.802   4.557
 5561SOL    HW217583   2.751   0.787   4.394
 5562SOL     OW17584   4.333   3.646   0.782
 5562SOL    HW117585   4.401   3.617   0.715
 5562SOL    HW217586   4.312   3.570   0.843
 5563SOL     OW17587   2.912   5.099   2.914
 5563SOL    HW117588   2.933   5.002   2.910
 5563SOL    HW217589   2.821   5.112   2.955
 5564SOL     OW17590   4.643   6.789   6.293
 5564SOL    HW117591   4.651   6.824   6.200
 5564SOL    HW217592   4.570   6.721   6.297
 5565SOL     OW17593   3.752   2.679   6.212
 5565SOL    HW117594   3.737   2.610   6.283
 5565SOL    HW217595   3.665   2.721   6.187
 5566SOL     OW17596   2.328   4.222   0.100
 5566SOL    HW117597   2.315   4.167   0.183
 5566SOL    HW217598   2.348   4.317   0.126
 5567SOL     OW17599   0.103   3.822   2.145
 5567SOL    HW117600   0.168   3.754   2.109
 5567SOL    HW217601   0.055   3.866   2.069
 5568SOL     OW17602   4.854   1.113   3.273
 5568SOL    HW117603   4.920   1.149   3.206
 5568SOL    HW217604   4.849   1.014   3.265
 5569SOL     OW17605   1.854   2.036   2.528
 5569SOL    HW117606   1.929   2.019   2.591
 5569SOL    HW217607   1.774   1.983   2.556
 5570SOL     OW17608   6.434   3.035   3.601
 5570SOL    HW117609   6.375   3.114   3.619
 5570SOL    HW217610   6.387   2.970   3.541
 5571SOL     OW17611   6.891   5.891   2.283
 5571SOL    HW117612   6.927   5.835   2.357
 5571SOL    HW217613   6.899   5.842   2.197
 5572SOL     OW17614   1.327   4.465   4.933
 5572SOL    HW117615   1.378   4.549   4.913
 5572SOL    HW217616   1.367   4.389   4.881
 5573SOL     OW17617   1.311   5.991   5.517
 5573SOL    HW117618   1.333   6.044   5.435
 5573SOL    HW217619   1.225   6.024   5.555
 5574SOL     OW17620   0.252   3.314   1.055
 5574SOL    HW117621   0.306   3.381   1.005
 5574SOL    HW217622   0.309   3.273   1.127
 5575SOL     OW17623   6.586   0.718   0.717
 5575SOL    HW117624   6.602   0.684   0.625
 5575SOL    HW217625   6.495   0.759   0.722
 5576SOL     OW17626   1.322   4.195   2.335
 5576SOL    HW117627   1.380   4.241   2.402
 5576SOL    HW217628   1.239   4.163   2.379
 5577SOL     OW17629   2.367   2.733   6.575
 5577SOL    HW117630   2.398   2.826   6.558
 5577SOL    HW217631   2.275   2.721   6.538
 5578SOL     OW17632   3.288   3.961   2.295
 5578SOL    HW117633   3.202   4.005   2.321
 5578SOL    HW217634   3.324   3.911   2.374
 5579SOL     OW17635   0.551   4.000   0.735
 5579SOL    HW117636   0.648   3.999   0.713
 5579SOL    HW217637   0.534   3.940   0.814
 5580SOL     OW17638   4.543   1.883   5.678
 5580SOL    HW117639   4.636   1.883   5.641
 5580SOL    HW217640   4.504   1.792   5.669
 5581SOL     OW17641   1.286   0.783   1.796
 5581SOL    HW117642   1.322   0.691   1.780
 5581SOL    HW217643   1.213   0.779   1.864
 5582SOL     OW17644   2.706   4.577   6.348
 5582SOL    HW117645   2.621   4.626   6.327
 5582SOL    HW217646   2.687   4.501   6.410
 5583SOL     OW17647   4.360   0.682   2.811
 5583SOL    HW117648   4.362   0.696   2.910
 5583SOL    HW217649   4.281   0.626   2.787
 5584SOL     OW17650   6.588   3.648   4.457
 5584SOL    HW117651   6.587   3.607   4.366
 5584SOL    HW217652   6.513   3.611   4.511
 5585SOL     OW17653   5.721   5.679   3.342
 5585SOL    HW117654   5.665   5.642   3.268
 5585SOL    HW217655   5.775   5.756   3.308
 5586SOL     OW17656   0.136   3.919   5.869
 5586SOL    HW117657   0.111   3.824   5.849
 5586SOL    HW217658   0.116   3.939   5.965
 5587SOL     OW17659   4.361   0.092   0.537
 5587SOL    HW117660   4.280   0.150   0.527
 5587SOL    HW217661   4.382   0.047   0.450
 5588SOL     OW17662   2.608   5.883   2.975
 5588SOL    HW117663   2.666   5.948   3.024
 5588SOL    HW217664   2.628   5.888   2.877
 5589SOL     OW17665   6.310   3.851   6.024
 5589SOL    HW117666   6.259   3.863   5.939
 5589SOL    HW217667   6.354   3.761   6.024
 5590SOL     OW17668   6.829   6.617   3.996
 5590SOL    HW117669   6.825   6.613   3.896
 5590SOL    HW217670   6.780   6.539   4.035
 5591SOL     OW17671   6.909   2.004   1.478
 5591SOL    HW117672   7.008   2.017   1.478
 5591SOL    HW217673   6.882   1.951   1.558
 5592SOL     OW17674   2.257   5.853   3.231
 5592SOL    HW117675   2.340   5.889   3.274
 5592SOL    HW217676   2.180   5.864   3.293
 5593SOL     OW17677   7.026   2.993   6.873
 5593SOL    HW117678   6.992   3.022   6.783
 5593SOL    HW217679   7.026   2.893   6.878
 5594SOL     OW17680   4.996   0.550   5.195
 5594SOL    HW117681   4.992   0.580   5.290
 5594SOL    HW217682   4.950   0.617   5.136
 5595SOL     OW17683   0.888   1.487   4.923
 5595SOL    HW117684   0.806   1.534   4.892
 5595SOL    HW217685   0.941   1.456   4.844
 5596SOL     OW17686   3.622   6.669   2.900
 5596SOL    HW117687   3.675   6.585   2.911
 5596SOL    HW217688   3.670   6.744   2.946
 5597SOL     OW17689   4.512   2.561   4.840
 5597SOL    HW117690   4.518   2.550   4.741
 5597SOL    HW217691   4.575   2.632   4.870
 5598SOL     OW17692   5.475   3.861   4.419
 5598SOL    HW117693   5.391   3.816   4.449
 5598SOL    HW217694   5.460   3.901   4.329
 5599SOL     OW17695   1.203   1.643   4.526
 5599SOL    HW117696   1.127   1.618   4.466
 5599SOL    HW217697   1.185   1.607   4.618
 5600SOL     OW17698   0.929   1.052   1.869
 5600SOL    HW117699   0.942   0.953   1.866
 5600SOL    HW217700   0.998   1.094   1.927
 5601SOL     OW17701   2.386   0.954   4.979
 5601SOL    HW117702   2.419   0.865   5.011
 5601SOL    HW217703   2.455   1.024   5.000
 5602SOL     OW17704   6.139   2.097   1.187
 5602SOL    HW117705   6.232   2.104   1.224
 5602SOL    HW217706   6.137   2.024   1.119
 5603SOL     OW17707   5.553   1.956   6.568
 5603SOL    HW117708   5.584   2.049   6.550
 5603SOL    HW217709   5.467   1.958   6.619
 5604SOL     OW17710   6.167   1.969   4.612
 5604SOL    HW117711   6.180   1.926   4.523
 5604SOL    HW217712   6.251   2.017   4.638
 5605SOL     OW17713   0.619   0.370   5.105
 5605SOL    HW117714   0.683   0.426   5.158
 5605SOL    HW217715   0.669   0.311   5.042
 5606SOL     OW17716   4.658   6.869   0.321
 5606SOL    HW117717   4.744   6.910   0.290
 5606SOL    HW217718   4.635   6.792   0.263
 5607SOL     OW17719   5.358   0.702   2.319
 5607SOL    HW117720   5.369   0.796   2.286
 5607SOL    HW217721   5.448   0.666   2.346
 5608SOL     OW17722   4.765   0.054   5.062
 5608SOL    HW117723   4.714   0.091   4.985
 5608SOL    HW217724   4.851   0.105   5.073
 5609SOL     OW17725   3.205   5.869   1.204
 5609SOL    HW117726   3.193   5.785   1.152
 5609SOL    HW217727   3.120   5.921   1.205
 5610SOL     OW17728   4.495   6.596   0.726
 5610SOL    HW117729   4.397   6.615   0.719
 5610SOL    HW217730   4.547   6.679   0.705
 5611SOL     OW17731   0.724   5.307   2.547
 5611SOL    HW117732   0.784   5.385   2.530
 5611SOL    HW217733   0.779   5.223   2.550
 5612SOL     OW17734   3.857   1.847   6.873
 5612SOL    HW117735   3.882   1.813   6.783
 5612SOL    HW217736   3.938   1.882   6.920
 5613SOL     OW17737   5.699   3.793   3.774
 5613SOL    HW117738   5.738   3.845   3.849
 5613SOL    HW217739   5.615   3.748   3.805
 5614SOL     OW17740   4.609   2.661   4.522
 5614SOL    HW117741   4.622   2.753   4.487
 5614SOL    HW217742   4.692   2.631   4.569
 5615SOL     OW17743   0.419   0.964   4.733
 5615SOL    HW117744   0.389   0.997   4.822
 5615SOL    HW217745   0.491   1.023   4.697
 5616SOL     OW17746   2.533   1.862   5.059
 5616SOL    HW117747   2.453   1.901   5.013
 5616SOL    HW217748   2.509   1.841   5.154
 5617SOL     OW17749   3.286   0.451   6.294
 5617SOL    HW117750   3.312   0.532   6.346
 5617SOL    HW217751   3.187   0.453   6.276
 5618SOL     OW17752   0.410   4.312   3.891
 5618SOL    HW117753   0.483   4.333   3.825
 5618SOL    HW217754   0.449   4.306   3.983
 5619SOL     OW17755   2.880   3.880   5.935
 5619SOL    HW117756   2.836   3.823   6.004
 5619SOL    HW217757   2.861   3.977   5.954
 5620SOL     OW17758   3.672   2.853   0.766
 5620SOL    HW117759   3.629   2.928   0.716
 5620SOL    HW217760   3.638   2.851   0.860
 5621SOL     OW17761   1.049   2.579   6.133
 5621SOL    HW117762   0.969   2.583   6.193
 5621SOL    HW217763   1.101   2.496   6.153
 5622SOL     OW17764   4.521   0.070   6.092
 5622SOL    HW117765   4.426   0.068   6.060
 5622SOL    HW217766   4.577   0.120   6.026
 5623SOL     OW17767   2.110   6.119   5.573
 5623SOL    HW117768   2.027   6.173   5.556
 5623SOL    HW217769   2.157   6.103   5.486
 5624SOL     OW17770   1.077   4.578   3.328
 5624SOL    HW117771   1.028   4.647   3.275
 5624SOL    HW217772   1.059   4.593   3.426
 5625SOL     OW17773   6.412   1.650   4.279
 5625SOL    HW117774   6.477   1.576   4.263
 5625SOL    HW217775   6.333   1.638   4.218
 5626SOL     OW17776   2.699   6.506   4.037
 5626SOL    HW117777   2.777   6.497   4.099
 5626SOL    HW217778   2.665   6.600   4.039
 5627SOL     OW17779   0.856   5.785   6.539
 5627SOL    HW117780   0.840   5.716   6.469
 5627SOL    HW217781   0.813   5.756   6.625
 5628SOL     OW17782   1.242   2.735   6.846
 5628SOL    HW117783   1.290   2.711   6.930
 5628SOL    HW217784   1.308   2.743   6.771
 5629SOL     OW17785   2.995   3.707   2.233
 5629SOL    HW117786   2.965   3.780   2.294
 5629SOL    HW217787   3.052   3.642   2.283
 5630SOL     OW17788   2.129   4.659   1.098
 5630SOL    HW117789   2.143   4.626   1.191
 5630SOL    HW217790   2.215   4.656   1.047
 5631SOL     OW17791   4.507   2.230   0.333
 5631SOL    HW117792   4.451   2.178   0.398
 5631SOL    HW217793   4.478   2.326   0.333
 5632SOL     OW17794   3.600   3.111   6.121
 5632SOL    HW117795   3.594   3.209   6.100
 5632SOL    HW217796   3.528   3.087   6.186
 5633SOL     OW17797   6.981   2.957   4.451
 5633SOL    HW117798   6.935   2.932   4.366
 5633SOL    HW217799   0.050   2.944   4.441
 5634SOL     OW17800   1.816   5.312   5.123
 5634SOL    HW117801   1.731   5.343   5.081
 5634SOL    HW217802   1.888   5.381   5.110
 5635SOL     OW17803   2.464   4.004   5.533
 5635SOL    HW117804   2.455   4.087   5.478
 5635SOL    HW217805   2.374   3.975   5.564
 5636SOL     OW17806   3.644   6.619   3.639
 5636SOL    HW117807   3.644   6.644   3.542
 5636SOL    HW217808   3.636   6.701   3.695
 5637SOL     OW17809   5.034   6.501   3.528
 5637SOL    HW117810   4.971   6.426   3.554
 5637SOL    HW217811   5.019   6.525   3.432
 5638SOL     OW17812   6.000   3.962   1.474
 5638SOL    HW117813   5.981   3.865   1.492
 5638SOL    HW217814   6.006   4.011   1.560
 5639SOL     OW17815   0.564   0.595   0.032
 5639SOL    HW117816   0.560   0.664   6.990
 5639SOL    HW217817   0.483   0.600   0.089
 5640SOL     OW17818   2.930   0.642   4.140
 5640SOL    HW117819   2.862   0.704   4.101
 5640SOL    HW217820   2.919   0.551   4.101
 5641SOL     OW17821   0.540   4.960   5.541
 5641SOL    HW117822   0.473   4.886   5.540
 5641SOL    HW217823   0.632   4.922   5.530
 5642SOL     OW17824   1.954   6.826   5.700
 5642SOL    HW117825   2.004   6.763   5.759
 5642SOL    HW217826   1.874   6.861   5.748
 5643SOL     OW17827   4.704   1.112   5.299
 5643SOL    HW117828   4.798   1.090   5.272
 5643SOL    HW217829   4.699   1.208   5.326
 5644SOL     OW17830   3.382   0.098   4.835
 5644SOL    HW117831   3.389   7.030   4.820
 5644SOL    HW217832   3.409   0.147   4.752
 5645SOL     OW17833   6.485   4.133   4.152
 5645SOL    HW117834   6.530   4.222   4.141
 5645SOL    HW217835   6.434   4.112   4.069
 5646SOL     OW17836   1.999   5.474   3.129
 5646SOL    HW117837   2.050   5.515   3.054
 5646SOL    HW217838   2.019   5.376   3.132
 5647SOL     OW17839   5.274   6.809   1.214
 5647SOL    HW117840   5.245   6.713   1.209
 5647SOL    HW217841   5.299   6.840   1.122
 5648SOL     OW17842   2.135   5.901   2.884
 5648SOL    HW117843   2.088   5.924   2.968
 5648SOL    HW217844   2.217   5.958   2.875
 5649SOL     OW17845   1.199   6.814   3.949
 5649SOL    HW117846   1.246   6.726   3.950
 5649SOL    HW217847   1.113   6.807   3.999
 5650SOL     OW17848   1.309   4.647   1.609
 5650SOL    HW117849   1.302   4.740   1.574
 5650SOL    HW217850   1.218   4.615   1.637
 5651SOL     OW17851   1.185   0.805   0.419
 5651SOL    HW117852   1.111   0.750   0.458
 5651SOL    HW217853   1.214   0.765   0.332
 5652SOL     OW17854   6.767   5.907   1.167
 5652SOL    HW117855   6.846   5.931   1.223
 5652SOL    HW217856   6.769   5.959   1.082
 5653SOL     OW17857   0.669   6.007   6.813
 5653SOL    HW117858   0.623   6.049   6.734
 5653SOL    HW217859   0.701   5.916   6.788
 5654SOL     OW17860   1.296   5.692   4.277
 5654SOL    HW117861   1.268   5.739   4.360
 5654SOL    HW217862   1.359   5.618   4.300
 5655SOL     OW17863   0.264   2.930   3.298
 5655SOL    HW117864   0.364   2.932   3.300
 5655SOL    HW217865   0.231   2.990   3.225
 5656SOL     OW17866   6.742   4.212   6.327
 5656SOL    HW117867   6.789   4.286   6.278
 5656SOL    HW217868   6.648   4.240   6.349
 5657SOL     OW17869   4.584   4.365   5.197
 5657SOL    HW117870   4.569   4.326   5.106
 5657SOL    HW217871   4.681   4.384   5.210
 5658SOL     OW17872   2.831   3.623   5.574
 5658SOL    HW117873   2.860   3.552   5.510
 5658SOL    HW217874   2.823   3.583   5.666
 5659SOL     OW17875   3.513   4.076   5.995
 5659SOL    HW117876   3.487   4.140   5.923
 5659SOL    HW217877   3.462   3.991   5.985
 5660SOL     OW17878   4.312   6.338   6.392
 5660SOL    HW117879   4.248   6.275   6.348
 5660SOL    HW217880   4.379   6.370   6.325
 5661SOL     OW17881   1.255   5.283   5.111
 5661SOL    HW117882   1.341   5.241   5.141
 5661SOL    HW217883   1.275   5.371   5.067
 5662SOL     OW17884   2.506   0.125   2.387
 5662SOL    HW117885   2.481   0.052   2.452
 5662SOL    HW217886   2.493   0.091   2.294
 5663SOL     OW17887   2.082   2.259   1.081
 5663SOL    HW117888   2.070   2.206   1.165
 5663SOL    HW217889   2.177   2.253   1.051
 5664SOL     OW17890   6.209   3.360   4.376
 5664SOL    HW117891   6.291   3.318   4.415
 5664SOL    HW217892   6.132   3.344   4.437
 5665SOL     OW17893   1.144   5.787   0.250
 5665SOL    HW117894   1.093   5.863   0.291
 5665SOL    HW217895   1.080   5.722   0.209
 5666SOL     OW17896   6.134   0.479   3.885
 5666SOL    HW117897   6.197   0.410   3.850
 5666SOL    HW217898   6.152   0.567   3.841
 5667SOL     OW17899   1.680   4.938   4.888
 5667SOL    HW117900   1.600   4.932   4.948
 5667SOL    HW217901   1.679   5.026   4.840
 5668SOL     OW17902   6.182   2.721   2.967
 5668SOL    HW117903   6.151   2.781   3.041
 5668SOL    HW217904   6.152   2.628   2.985
 5669SOL     OW17905   6.819   5.081   0.578
 5669SOL    HW117906   6.903   5.076   0.632
 5669SOL    HW217907   6.741   5.094   0.639
 5670SOL     OW17908   1.737   3.594   3.931
 5670SOL    HW117909   1.776   3.632   4.015
 5670SOL    HW217910   1.655   3.541   3.954
 5671SOL     OW17911   6.211   5.346   5.599
 5671SOL    HW117912   6.222   5.268   5.660
 5671SOL    HW217913   6.161   5.419   5.646
 5672SOL     OW17914   4.924   4.206   4.969
 5672SOL    HW117915   4.996   4.138   4.980
 5672SOL    HW217916   4.927   4.243   4.876
 5673SOL     OW17917   1.290   6.256   0.946
 5673SOL    HW117918   1.223   6.324   0.917
 5673SOL    HW217919   1.244   6.183   0.998
 5674SOL     OW17920   2.151   4.880   4.977
 5674SOL    HW117921   2.157   4.867   4.878
 5674SOL    HW217922   2.077   4.944   4.998
 5675SOL     OW17923   4.204   2.220   0.239
 5675SOL    HW117924   4.300   2.198   0.220
 5675SOL    HW217925   4.146   2.173   0.172
 5676SOL     OW17926   2.794   1.618   2.476
 5676SOL    HW117927   2.769   1.675   2.397
 5676SOL    HW217928   2.848   1.672   2.540
 5677SOL     OW17929   0.307   0.829   0.075
 5677SOL    HW117930   0.295   0.733   0.100
 5677SOL    HW217931   0.229   0.858   0.019
 5678SOL     OW17932   4.400   0.941   1.830
 5678SOL    HW117933   4.305   0.930   1.801
 5678SOL    HW217934   4.410   0.908   1.924
 5679SOL     OW17935   5.475   1.946   3.964
 5679SOL    HW117936   5.538   1.993   4.025
 5679SOL    HW217937   5.486   1.847   3.973
 5680SOL     OW17938   1.446   5.087   6.655
 5680SOL    HW117939   1.491   5.003   6.685
 5680SOL    HW217940   1.427   5.146   6.734
 5681SOL     OW17941   0.414   3.994   2.526
 5681SOL    HW117942   0.456   3.992   2.435
 5681SOL    HW217943   0.447   4.074   2.575
 5682SOL     OW17944   2.223   5.496   4.125
 5682SOL    HW117945   2.180   5.406   4.119
 5682SOL    HW217946   2.319   5.490   4.097
 5683SOL     OW17947   3.975   2.607   6.077
 5683SOL    HW117948   4.029   2.552   6.141
 5683SOL    HW217949   3.904   2.655   6.126
 5684SOL     OW17950   1.837   3.605   6.526
 5684SOL    HW117951   1.748   3.615   6.572
 5684SOL    HW217952   1.849   3.680   6.462
 5685SOL     OW17953   2.305   2.435   3.163
 5685SOL    HW117954   2.291   2.341   3.194
 5685SOL    HW217955   2.262   2.448   3.074
 5686SOL     OW17956   3.192   1.465   4.856
 5686SOL    HW117957   3.168   1.517   4.938
 5686SOL    HW217958   3.259   1.395   4.879
 5687SOL     OW17959   1.091   6.122   6.402
 5687SOL    HW117960   1.183   6.148   6.433
 5687SOL    HW217961   1.044   6.203   6.366
 5688SOL     OW17962   2.185   3.050   3.037
 5688SOL    HW117963   2.236   2.967   3.016
 5688SOL    HW217964   2.154   3.092   2.951
 5689SOL     OW17965   2.390   0.319   2.150
 5689SOL    HW117966   2.332   0.352   2.224
 5689SOL    HW217967   2.337   0.316   2.065
 5690SOL     OW17968   1.030   5.169   6.456
 5690SOL    HW117969   1.077   5.163   6.368
 5690SOL    HW217970   1.006   5.078   6.487
 5691SOL     OW17971   3.696   1.071   2.883
 5691SOL    HW117972   3.600   1.097   2.883
 5691SOL    HW217973   3.736   1.090   2.973
 5692SOL     OW17974   4.871   4.524   1.151
 5692SOL    HW117975   4.783   4.493   1.113
 5692SOL    HW217976   4.877   4.623   1.142
 5693SOL     OW17977   4.630   0.232   1.524
 5693SOL    HW117978   4.538   0.216   1.558
 5693SOL    HW217979   4.627   0.304   1.454
 5694SOL     OW17980   0.402   0.136   2.260
 5694SOL    HW117981   0.494   0.113   2.230
 5694SOL    HW217982   0.403   0.228   2.301
 5695SOL     OW17983   1.093   0.973   3.021
 5695SOL    HW117984   1.046   1.013   2.942
 5695SOL    HW217985   1.040   0.897   3.056
 5696SOL     OW17986   1.440   0.037   4.316
 5696SOL    HW117987   1.353   0.015   4.360
 5696SOL    HW217988   1.515   7.029   4.371
 5697SOL     OW17989   5.924   2.242   2.139
 5697SOL    HW117990   5.916   2.334   2.177
 5697SOL    HW217991   5.834   2.211   2.109
 5698SOL     OW17992   1.381   3.845   4.114
 5698SOL    HW117993   1.453   3.876   4.051
 5698SOL    HW217994   1.423   3.816   4.200
 5699SOL     OW17995   2.051   2.709   2.852
 5699SOL    HW117996   2.001   2.694   2.937
 5699SOL    HW217997   1.987   2.717   2.775
 5700SOL     OW17998   6.582   0.338   3.389
 5700SOL    HW117999   6.652   0.308   3.325
 5700SOL    HW218000   6.581   0.438   3.393
 5701SOL     OW18001   6.813   0.618   1.310
 5701SOL    HW118002   6.725   0.655   1.339
 5701SOL    HW218003   6.800   0.551   1.237
 5702SOL     OW18004   1.629   6.370   4.391
 5702SOL    HW118005   1.630   6.275   4.423
 5702SOL    HW218006   1.693   6.424   4.445
 5703SOL     OW18007   7.017   4.132   6.716
 5703SOL    HW118008   6.977   4.048   6.682
 5703SOL    HW218009   6.945   4.198   6.737
 5704SOL     OW18010   4.945   3.862   3.347
 5704SOL    HW118011   4.879   3.885   3.419
 5704SOL    HW218012   4.948   3.935   3.279
 5705SOL     OW18013   5.802   5.636   6.878
 5705SOL    HW118014   5.813   5.547   6.924
 5705SOL    HW218015   5.705   5.656   6.868
 5706SOL     OW18016   4.980   2.712   1.808
 5706SOL    HW118017   4.949   2.796   1.762
 5706SOL    HW218018   4.926   2.698   1.891
 5707SOL     OW18019   6.225   0.196   0.959
 5707SOL    HW118020   6.136   0.200   1.003
 5707SOL    HW218021   6.263   0.288   0.951
 5708SOL     OW18022   5.153   6.195   2.789
 5708SOL    HW118023   5.148   6.248   2.704
 5708SOL    HW218024   5.155   6.257   2.867
 5709SOL     OW18025   0.594   0.912   2.511
 5709SOL    HW118026   0.516   0.924   2.572
 5709SOL    HW218027   0.562   0.885   2.421
 5710SOL     OW18028   2.904   2.092   0.565
 5710SOL    HW118029   2.984   2.034   0.574
 5710SOL    HW218030   2.887   2.112   0.468
 5711SOL     OW18031   4.782   0.127   1.770
 5711SOL    HW118032   4.781   0.216   1.815
 5711SOL    HW218033   4.750   0.138   1.675
 5712SOL     OW18034   6.313   6.712   0.181
 5712SOL    HW118035   6.405   6.673   0.185
 5712SOL    HW218036   6.295   6.744   0.088
 5713SOL     OW18037   3.359   4.999   0.984
 5713SOL    HW118038   3.319   5.086   1.015
 5713SOL    HW218039   3.318   4.973   0.897
 5714SOL     OW18040   6.973   6.218   0.814
 5714SOL    HW118041   6.982   6.285   0.740
 5714SOL    HW218042   7.024   6.136   0.791
 5715SOL     OW18043   6.891   0.104   2.340
 5715SOL    HW118044   6.795   0.132   2.336
 5715SOL    HW218045   6.908   0.034   2.272
 5716SOL     OW18046   0.814   5.679   6.114
 5716SOL    HW118047   0.727   5.677   6.164
 5716SOL    HW218048   0.877   5.614   6.156
 5717SOL     OW18049   2.299   5.161   1.791
 5717SOL    HW118050   2.283   5.222   1.714
 5717SOL    HW218051   2.241   5.188   1.868
 5718SOL     OW18052   0.746   3.479   0.235
 5718SOL    HW118053   0.838   3.517   0.244
 5718SOL    HW218054   0.693   3.536   0.173
 5719SOL     OW18055   3.076   3.734   1.006
 5719SOL    HW118056   3.055   3.648   1.054
 5719SOL    HW218057   3.158   3.722   0.950
 5720SOL     OW18058   1.761   6.832   4.927
 5720SOL    HW118059   1.727   6.814   5.019
 5720SOL    HW218060   1.859   6.853   4.932
 5721SOL     OW18061   5.988   4.330   0.752
 5721SOL    HW118062   5.996   4.248   0.695
 5721SOL    HW218063   5.937   4.308   0.835
 5722SOL     OW18064   0.095   2.302   5.513
 5722SOL    HW118065   0.067   2.375   5.451
 5722SOL    HW218066   0.174   2.332   5.567
 5723SOL     OW18067   4.137   3.772   0.088
 5723SOL    HW118068   4.107   3.686   0.128
 5723SOL    HW218069   4.193   3.822   0.155
 5724SOL     OW18070   6.307   2.762   3.575
 5724SOL    HW118071   6.359   2.678   3.593
 5724SOL    HW218072   6.288   2.769   3.477
 5725SOL     OW18073   6.587   5.123   4.086
 5725SOL    HW118074   6.623   5.095   3.997
 5725SOL    HW218075   6.646   5.192   4.126
 5726SOL     OW18076   6.221   4.888   3.927
 5726SOL    HW118077   6.167   4.829   3.988
 5726SOL    HW218078   6.159   4.950   3.879
 5727SOL     OW18079   0.024   2.668   4.767
 5727SOL    HW118080   0.064   2.757   4.743
 5727SOL    HW218081   6.992   2.639   4.694
 5728SOL     OW18082   5.209   5.916   5.270
 5728SOL    HW118083   5.303   5.928   5.302
 5728SOL    HW218084   5.178   5.824   5.291
 5729SOL     OW18085   1.190   2.324   6.127
 5729SOL    HW118086   1.279   2.344   6.168
 5729SOL    HW218087   1.148   2.246   6.174
 5730SOL     OW18088   6.492   4.287   6.493
 5730SOL    HW118089   6.451   4.211   6.442
 5730SOL    HW218090   6.521   4.255   6.583
 5731SOL     OW18091   6.643   6.846   1.773
 5731SOL    HW118092   6.692   6.872   1.856
 5731SOL    HW218093   6.708   6.833   1.699
 5732SOL     OW18094   1.080   6.891   3.427
 5732SOL    HW118095   1.172   6.929   3.414
 5732SOL    HW218096   1.044   6.861   3.339
 5733SOL     OW18097   4.198   6.493   5.323
 5733SOL    HW118098   4.291   6.525   5.300
 5733SOL    HW218099   4.135   6.571   5.321
 5734SOL     OW18100   1.226   6.686   5.200
 5734SOL    HW118101   1.165   6.729   5.135
 5734SOL    HW218102   1.181   6.607   5.242
 5735SOL     OW18103   2.895   1.086   1.112
 5735SOL    HW118104   2.899   1.176   1.068
 5735SOL    HW218105   2.833   1.026   1.061
 5736SOL     OW18106   0.486   4.401   0.012
 5736SOL    HW118107   0.410   4.338   7.029
 5736SOL    HW218108   0.454   4.481   0.064
 5737SOL     OW18109   5.527   6.353   6.705
 5737SOL    HW118110   5.617   6.386   6.675
 5737SOL    HW218111   5.465   6.430   6.715
 5738SOL     OW18112   1.422   3.406   6.797
 5738SOL    HW118113   1.423   3.376   6.893
 5738SOL    HW218114   1.515   3.427   6.768
 5739SOL     OW18115   1.551   1.037   6.775
 5739SOL    HW118116   1.588   1.124   6.742
 5739SOL    HW218117   1.619   0.965   6.761
 5740SOL     OW18118   4.504   6.029   0.493
 5740SOL    HW118119   4.411   5.995   0.480
 5740SOL    HW218120   4.556   5.964   0.548
 5741SOL     OW18121   6.750   5.691   4.413
 5741SOL    HW118122   6.753   5.743   4.498
 5741SOL    HW218123   6.713   5.600   4.432
 5742SOL     OW18124   5.498   6.276   2.344
 5742SOL    HW118125   5.587   6.231   2.343
 5742SOL    HW218126   5.504   6.363   2.295
 5743SOL     OW18127   2.449   6.906   4.685
 5743SOL    HW118128   2.454   6.810   4.661
 5743SOL    HW218129   2.530   6.931   4.740
 5744SOL     OW18130   5.035   0.930   0.523
 5744SOL    HW118131   5.047   0.918   0.425
 5744SOL    HW218132   4.937   0.923   0.545
 5745SOL     OW18133   2.081   1.657   4.621
 5745SOL    HW118134   2.093   1.564   4.587
 5745SOL    HW218135   2.115   1.722   4.553
 5746SOL     OW18136   5.086   0.920   0.266
 5746SOL    HW118137   5.081   0.844   0.202
 5746SOL    HW218138   5.158   0.984   0.238
 5747SOL     OW18139   0.307   5.621   3.132
 5747SOL    HW118140   0.386   5.682   3.137
 5747SOL    HW218141   0.225   5.675   3.114
 5748SOL     OW18142   2.461   4.999   1.922
 5748SOL    HW118143   2.398   5.070   1.891
 5748SOL    HW218144   2.410   4.920   1.955
 5749SOL     OW18145   1.910   1.418   4.231
 5749SOL    HW118146   1.967   1.369   4.165
 5749SOL    HW218147   1.901   1.513   4.203
 5750SOL     OW18148   6.280   5.037   4.359
 5750SOL    HW118149   6.252   5.132   4.345
 5750SOL    HW218150   6.335   5.007   4.281
 5751SOL     OW18151   2.149   3.056   5.089
 5751SOL    HW118152   2.237   3.011   5.097
 5751SOL    HW218153   2.076   2.992   5.112
 5752SOL     OW18154   6.789   0.320   5.740
 5752SOL    HW118155   6.698   0.290   5.711
 5752SOL    HW218156   6.820   0.262   5.816
 5753SOL     OW18157   3.443   3.147   6.505
 5753SOL    HW118158   3.405   3.185   6.589
 5753SOL    HW218159   3.541   3.166   6.500
 5754SOL     OW18160   5.806   4.946   2.303
 5754SOL    HW118161   5.731   4.907   2.356
 5754SOL    HW218162   5.769   4.994   2.223
 5755SOL     OW18163   2.996   3.782   6.506
 5755SOL    HW118164   2.935   3.787   6.585
 5755SOL    HW218165   3.090   3.796   6.536
 5756SOL     OW18166   6.868   4.863   2.992
 5756SOL    HW118167   6.852   4.826   3.084
 5756SOL    HW218168   6.951   4.919   2.993
 5757SOL     OW18169   5.934   5.952   1.288
 5757SOL    HW118170   5.918   5.864   1.332
 5757SOL    HW218171   5.907   5.947   1.192
 5758SOL     OW18172   2.665   2.401   4.937
 5758SOL    HW118173   2.745   2.341   4.946
 5758SOL    HW218174   2.647   2.447   5.024
 5759SOL     OW18175   5.123   2.288   6.279
 5759SOL    HW118176   5.075   2.375   6.273
 5759SOL    HW218177   5.170   2.269   6.192
 5760SOL     OW18178   1.786   5.798   2.289
 5760SOL    HW118179   1.828   5.725   2.343
 5760SOL    HW218180   1.725   5.758   2.221
 5761SOL     OW18181   5.460   0.555   4.879
 5761SOL    HW118182   5.553   0.554   4.915
 5761SOL    HW218183   5.407   0.481   4.920
 5762SOL     OW18184   5.716   6.805   0.495
 5762SOL    HW118185   5.763   6.875   0.442
 5762SOL    HW218186   5.783   6.753   0.548
 5763SOL     OW18187   0.994   6.988   0.256
 5763SOL    HW118188   0.966   0.032   0.195
 5763SOL    HW218189   0.915   6.931   0.278
 5764SOL     OW18190   5.666   4.377   5.534
 5764SOL    HW118191   5.630   4.391   5.443
 5764SOL    HW218192   5.738   4.307   5.531
 5765SOL     OW18193   6.714   4.211   6.649
 5765SOL    HW118194   6.766   4.254   6.575
 5765SOL    HW218195   6.745   4.247   6.737
 5766SOL     OW18196   3.534   1.503   1.981
 5766SOL    HW118197   3.454   1.444   1.975
 5766SOL    HW218198   3.506   1.598   1.988
 5767SOL     OW18199   1.059   6.166   0.623
 5767SOL    HW118200   1.151   6.206   0.626
 5767SOL    HW218201   1.056   6.085   0.681
 5768SOL     OW18202   6.889   0.822   2.970
 5768SOL    HW118203   6.866   0.730   3.002
 5768SOL    HW218204   6.925   0.817   2.877
 5769SOL     OW18205   2.736   6.353   3.185
 5769SOL    HW118206   2.759   6.403   3.102
 5769SOL    HW218207   2.816   6.348   3.245
 5770SOL     OW18208   6.987   6.591   0.940
 5770SOL    HW118209   6.954   6.669   0.993
 5770SOL    HW218210   0.032   6.621   0.881
 5771SOL     OW18211   1.220   0.689   1.224
 5771SOL    HW118212   1.150   0.618   1.222
 5771SOL    HW218213   1.178   0.778   1.202
 5772SOL     OW18214   6.383   2.616   0.432
 5772SOL    HW118215   6.441   2.648   0.357
 5772SOL    HW218216   6.329   2.537   0.401
 5773SOL     OW18217   5.452   6.705   3.787
 5773SOL    HW118218   5.390   6.653   3.728
 5773SOL    HW218219   5.529   6.648   3.813
 5774SOL     OW18220   2.323   4.471   3.184
 5774SOL    HW118221   2.277   4.558   3.201
 5774SOL    HW218222   2.392   4.484   3.112
 5775SOL     OW18223   0.254   7.016   0.319
 5775SOL    HW118224   0.186   0.058   0.302
 5775SOL    HW218225   0.277   6.970   0.233
 5776SOL     OW18226   5.376   0.518   6.384
 5776SOL    HW118227   5.440   0.469   6.444
 5776SOL    HW218228   5.429   0.574   6.320
 5777SOL     OW18229   6.009   0.604   4.106
 5777SOL    HW118230   6.035   0.700   4.096
 5777SOL    HW218231   6.047   0.551   4.030
 5778SOL     OW18232   1.415   6.689   2.760
 5778SOL    HW118233   1.461   6.688   2.671
 5778SOL    HW218234   1.325   6.733   2.750
 5779SOL     OW18235   3.730   1.013   1.308
 5779SOL    HW118236   3.761   1.072   1.233
 5779SOL    HW218237   3.809   0.985   1.363
 5780SOL     OW18238   6.809   4.181   1.664
 5780SOL    HW118239   6.902   4.207   1.635
 5780SOL    HW218240   6.773   4.250   1.726
 5781SOL     OW18241   1.892   4.092   4.826
 5781SOL    HW118242   1.887   4.162   4.898
 5781SOL    HW218243   1.970   4.032   4.843
 5782SOL     OW18244   2.000   1.161   1.347
 5782SOL    HW118245   1.974   1.072   1.310
 5782SOL    HW218246   2.067   1.148   1.420
 5783SOL     OW18247   1.578   0.262   1.084
 5783SOL    HW118248   1.579   0.348   1.032
 5783SOL    HW218249   1.565   0.185   1.023
 5784SOL     OW18250   0.921   6.007   6.953
 5784SOL    HW118251   0.854   6.001   6.879
 5784SOL    HW218252   0.886   6.067   7.025
 5785SOL     OW18253   1.333   0.776   0.639
 5785SOL    HW118254   1.291   0.777   0.549
 5785SOL    HW218255   1.311   0.691   0.685
 5786SOL     OW18256   1.842   3.259   1.559
 5786SOL    HW118257   1.859   3.195   1.484
 5786SOL    HW218258   1.920   3.260   1.620
 5787SOL     OW18259   5.939   2.535   4.665
 5787SOL    HW118260   5.880   2.586   4.727
 5787SOL    HW218261   5.914   2.438   4.666
 5788SOL     OW18262   3.459   0.706   2.228
 5788SOL    HW118263   3.518   0.773   2.272
 5788SOL    HW218264   3.465   0.618   2.277
 5789SOL     OW18265   4.379   4.053   0.548
 5789SOL    HW118266   4.462   4.014   0.507
 5789SOL    HW218267   4.381   4.152   0.538
 5790SOL     OW18268   5.941   5.268   4.677
 5790SOL    HW118269   5.983   5.358   4.665
 5790SOL    HW218270   5.919   5.229   4.588
 5791SOL     OW18271   3.824   1.181   2.556
 5791SOL    HW118272   3.795   1.267   2.598
 5791SOL    HW218273   3.752   1.148   2.495
 5792SOL     OW18274   4.881   3.818   3.041
 5792SOL    HW118275   4.848   3.899   3.090
 5792SOL    HW218276   4.974   3.834   3.010
 5793SOL     OW18277   5.507   2.324   5.346
 5793SOL    HW118278   5.547   2.414   5.337
 5793SOL    HW218279   5.540   2.279   5.429
 5794SOL     OW18280   3.127   6.520   5.575
 5794SOL    HW118281   3.166   6.439   5.617
 5794SOL    HW218282   3.077   6.494   5.492
 5795SOL     OW18283   1.143   5.155   1.807
 5795SOL    HW118284   1.079   5.233   1.808
 5795SOL    HW218285   1.199   5.157   1.890
 5796SOL     OW18286   4.416   1.362   6.077
 5796SOL    HW118287   4.456   1.386   6.166
 5796SOL    HW218288   4.417   1.263   6.065
 5797SOL     OW18289   5.345   2.302   6.746
 5797SOL    HW118290   5.383   2.231   6.805
 5797SOL    HW218291   5.245   2.303   6.756
 5798SOL     OW18292   1.568   3.587   5.251
 5798SOL    HW118293   1.587   3.531   5.170
 5798SOL    HW218294   1.475   3.568   5.283
 5799SOL     OW18295   1.332   6.563   3.617
 5799SOL    HW118296   1.255   6.531   3.562
 5799SOL    HW218297   1.395   6.615   3.559
 5800SOL     OW18298   0.178   6.713   0.745
 5800SOL    HW118299   0.274   6.698   0.767
 5800SOL    HW218300   0.164   6.810   0.721
 5801SOL     OW18301   2.227   2.912   2.363
 5801SOL    HW118302   2.311   2.901   2.416
 5801SOL    HW218303   2.207   3.010   2.352
 5802SOL     OW18304   0.133   1.728   2.580
 5802SOL    HW118305   0.095   1.658   2.641
 5802SOL    HW218306   0.059   1.782   2.541
 5803SOL     OW18307   1.012   5.521   4.483
 5803SOL    HW118308   1.058   5.451   4.428
 5803SOL    HW218309   0.985   5.597   4.423
 5804SOL     OW18310   5.832   6.938   3.768
 5804SOL    HW118311   5.920   6.949   3.722
 5804SOL    HW218312   5.847   6.898   3.859
 5805SOL     OW18313   2.655   3.247   0.583
 5805SOL    HW118314   2.726   3.260   0.514
 5805SOL    HW218315   2.599   3.330   0.589
 5806SOL     OW18316   0.705   3.083   3.316
 5806SOL    HW118317   0.721   2.995   3.360
 5806SOL    HW218318   0.790   3.117   3.275
 5807SOL     OW18319   1.342   6.248   0.313
 5807SOL    HW118320   1.422   6.300   0.284
 5807SOL    HW218321   1.273   6.251   0.240
 5808SOL     OW18322   5.840   0.827   4.500
 5808SOL    HW118323   5.824   0.896   4.571
 5808SOL    HW218324   5.885   0.870   4.422
 5809SOL     OW18325   0.385   2.663   6.212
 5809SOL    HW118326   0.346   2.572   6.220
 5809SOL    HW218327   0.377   2.694   6.117
 5810SOL     OW18328   4.066   6.466   4.762
 5810SOL    HW118329   4.072   6.388   4.700
 5810SOL    HW218330   3.993   6.527   4.733
 5811SOL     OW18331   2.879   3.418   6.196
 5811SOL    HW118332   2.945   3.493   6.206
 5811SOL    HW218333   2.929   3.331   6.195
 5812SOL     OW18334   6.008   3.233   0.548
 5812SOL    HW118335   6.018   3.159   0.481
 5812SOL    HW218336   6.006   3.194   0.640
 5813SOL     OW18337   4.700   6.635   1.057
 5813SOL    HW118338   4.601   6.626   1.066
 5813SOL    HW218339   4.738   6.674   1.141
 5814SOL     OW18340   5.674   2.043   2.341
 5814SOL    HW118341   5.671   1.984   2.261
 5814SOL    HW218342   5.766   2.044   2.379
 5815SOL     OW18343   6.691   0.933   3.998
 5815SOL    HW118344   6.647   0.962   3.913
 5815SOL    HW218345   6.727   1.012   4.046
 5816SOL     OW18346   0.280   3.944   3.386
 5816SOL    HW118347   0.229   3.888   3.321
 5816SOL    HW218348   0.292   3.893   3.472
 5817SOL     OW18349   5.462   4.227   4.139
 5817SOL    HW118350   5.389   4.171   4.098
 5817SOL    HW218351   5.522   4.168   4.193
 5818SOL     OW18352   1.819   0.245   4.734
 5818SOL    HW118353   1.782   0.304   4.662
 5818SOL    HW218354   1.863   0.302   4.804
 5819SOL     OW18355   4.328   4.892   6.882
 5819SOL    HW118356   4.250   4.879   6.821
 5819SOL    HW218357   4.412   4.861   6.836
 5820SOL     OW18358   6.243   4.931   2.866
 5820SOL    HW118359   6.182   4.963   2.939
 5820SOL    HW218360   6.224   4.835   2.846
 5821SOL     OW18361   6.552   0.776   1.715
 5821SOL    HW118362   6.595   0.764   1.804
 5821SOL    HW218363   6.568   0.868   1.681
 5822SOL     OW18364   1.377   2.739   2.134
 5822SOL    HW118365   1.361   2.681   2.054
 5822SOL    HW218366   1.352   2.834   2.113
 5823SOL     OW18367   2.414   6.422   3.401
 5823SOL    HW118368   2.510   6.450   3.405
 5823SOL    HW218369   2.383   6.423   3.306
 5824SOL     OW18370   0.983   0.359   2.153
 5824SOL    HW118371   1.033   0.373   2.238
 5824SOL    HW218372   1.047   0.328   2.082
 5825SOL     OW18373   6.266   0.319   4.201
 5825SOL    HW118374   6.233   0.307   4.107
 5825SOL    HW218375   6.313   0.407   4.209
 5826SOL     OW18376   0.339   6.711   5.025
 5826SOL    HW118377   0.410   6.776   4.999
 5826SOL    HW218378   0.321   6.649   4.948
 5827SOL     OW18379   2.328   4.382   5.069
 5827SOL    HW118380   2.287   4.472   5.075
 5827SOL    HW218381   2.286   4.331   4.994
 5828SOL     OW18382   4.623   0.248   4.158
 5828SOL    HW118383   4.687   0.231   4.082
 5828SOL    HW218384   4.529   0.245   4.124
 5829SOL     OW18385   2.586   0.996   3.943
 5829SOL    HW118386   2.594   0.960   3.850
 5829SOL    HW218387   2.674   0.986   3.990
 5830SOL     OW18388   3.919   5.848   4.941
 5830SOL    HW118389   3.975   5.807   4.869
 5830SOL    HW218390   3.858   5.917   4.901
 5831SOL     OW18391   1.532   1.229   5.514
 5831SOL    HW118392   1.494   1.317   5.487
 5831SOL    HW218393   1.502   1.206   5.607
 5832SOL     OW18394   3.596   4.982   1.335
 5832SOL    HW118395   3.560   4.952   1.247
 5832SOL    HW218396   3.589   5.081   1.341
 5833SOL     OW18397   3.872   3.625   5.851
 5833SOL    HW118398   3.880   3.641   5.950
 5833SOL    HW218399   3.949   3.570   5.820
 5834SOL     OW18400   6.263   4.563   6.871
 5834SOL    HW118401   6.275   4.595   6.777
 5834SOL    HW218402   6.167   4.574   6.898
 5835SOL     OW18403   5.623   1.130   2.410
 5835SOL    HW118404   5.567   1.213   2.420
 5835SOL    HW218405   5.618   1.076   2.494
 5836SOL     OW18406   4.338   6.907   1.489
 5836SOL    HW118407   4.408   6.840   1.466
 5836SOL    HW218408   4.340   6.982   1.422
 5837SOL     OW18409   3.778   4.489   0.144
 5837SOL    HW118410   3.765   4.582   0.109
 5837SOL    HW218411   3.698   4.433   0.121
 5838SOL     OW18412   2.494   1.901   1.088
 5838SOL    HW118413   2.572   1.952   1.051
 5838SOL    HW218414   2.432   1.875   1.014
 5839SOL     OW18415   1.569   2.272   1.609
 5839SOL    HW118416   1.639   2.245   1.543
 5839SOL    HW218417   1.612   2.320   1.686
 5840SOL     OW18418   0.634   3.234   2.133
 5840SOL    HW118419   0.645   3.333   2.138
 5840SOL    HW218420   0.573   3.204   2.206
 5841SOL     OW18421   4.826   1.514   0.364
 5841SOL    HW118422   4.833   1.470   0.275
 5841SOL    HW218423   4.787   1.450   0.430
 5842SOL     OW18424   3.201   1.305   0.874
 5842SOL    HW118425   3.240   1.324   0.784
 5842SOL    HW218426   3.122   1.244   0.864
 5843SOL     OW18427   1.832   3.236   1.289
 5843SOL    HW118428   1.748   3.213   1.338
 5843SOL    HW218429   1.823   3.209   1.193
 5844SOL     OW18430   0.775   0.803   4.799
 5844SOL    HW118431   0.694   0.820   4.855
 5844SOL    HW218432   0.747   0.782   4.705
 5845SOL     OW18433   0.684   5.806   1.937
 5845SOL    HW118434   0.705   5.860   1.856
 5845SOL    HW218435   0.709   5.858   2.019
 5846SOL     OW18436   6.333   3.682   5.807
 5846SOL    HW118437   6.415   3.738   5.801
 5846SOL    HW218438   6.358   3.586   5.813
 5847SOL     OW18439   3.137   3.115   0.578
 5847SOL    HW118440   3.191   3.030   0.571
 5847SOL    HW218441   3.061   3.111   0.513
 5848SOL     OW18442   2.000   5.967   3.573
 5848SOL    HW118443   1.951   5.976   3.659
 5848SOL    HW218444   2.033   5.873   3.562
 5849SOL     OW18445   2.482   6.216   5.525
 5849SOL    HW118446   2.402   6.193   5.469
 5849SOL    HW218447   2.550   6.261   5.468
 5850SOL     OW18448   1.228   2.055   1.634
 5850SOL    HW118449   1.139   2.098   1.620
 5850SOL    HW218450   1.262   2.021   1.546
 5851SOL     OW18451   5.589   2.828   4.563
 5851SOL    HW118452   5.533   2.910   4.580
 5851SOL    HW218453   5.545   2.749   4.605
 5852SOL     OW18454   5.229   5.009   3.423
 5852SOL    HW118455   5.297   4.942   3.393
 5852SOL    HW218456   5.164   5.026   3.349
 5853SOL     OW18457   3.748   4.988   5.642
 5853SOL    HW118458   3.666   5.035   5.610
 5853SOL    HW218459   3.808   4.967   5.565
 5854SOL     OW18460   2.471   5.089   6.184
 5854SOL    HW118461   2.482   5.041   6.272
 5854SOL    HW218462   2.561   5.104   6.144
 5855SOL     OW18463   1.921   2.686   3.807
 5855SOL    HW118464   1.987   2.722   3.742
 5855SOL    HW218465   1.880   2.762   3.858
 5856SOL     OW18466   1.756   0.274   3.083
 5856SOL    HW118467   1.728   0.205   3.015
 5856SOL    HW218468   1.675   0.316   3.122
 5857SOL     OW18469   0.603   4.320   6.405
 5857SOL    HW118470   0.525   4.299   6.346
 5857SOL    HW218471   0.574   4.318   6.501
 5858SOL     OW18472   1.871   2.244   3.327
 5858SOL    HW118473   1.803   2.289   3.385
 5858SOL    HW218474   1.878   2.292   3.240
 5859SOL     OW18475   6.275   0.241   2.692
 5859SOL    HW118476   6.327   0.156   2.698
 5859SOL    HW218477   6.284   0.279   2.600
 5860SOL     OW18478   0.071   3.154   3.739
 5860SOL    HW118479   0.079   3.151   3.639
 5860SOL    HW218480   0.128   3.082   3.779
 5861SOL     OW18481   5.961   1.332   5.280
 5861SOL    HW118482   5.878   1.299   5.235
 5861SOL    HW218483   5.940   1.413   5.335
 5862SOL     OW18484   0.119   5.447   3.208
 5862SOL    HW118485   0.042   5.458   3.145
 5862SOL    HW218486   0.205   5.465   3.160
 5863SOL     OW18487   3.824   0.242   5.096
 5863SOL    HW118488   3.744   0.199   5.055
 5863SOL    HW218489   3.885   0.276   5.024
 5864SOL     OW18490   3.250   4.024   3.101
 5864SOL    HW118491   3.172   3.981   3.055
 5864SOL    HW218492   3.332   4.012   3.046
 5865SOL     OW18493   6.033   1.189   5.607
 5865SOL    HW118494   5.941   1.153   5.588
 5865SOL    HW218495   6.101   1.127   5.568
 5866SOL     OW18496   4.143   3.420   2.105
 5866SOL    HW118497   4.165   3.512   2.137
 5866SOL    HW218498   4.081   3.376   2.170
 5867SOL     OW18499   2.895   2.404   1.494
 5867SOL    HW118500   2.901   2.492   1.540
 5867SOL    HW218501   2.817   2.404   1.431
 5868SOL     OW18502   0.583   1.698   6.329
 5868SOL    HW118503   0.529   1.760   6.385
 5868SOL    HW218504   0.539   1.608   6.327
 5869SOL     OW18505   1.270   4.433   4.560
 5869SOL    HW118506   1.305   4.344   4.588
 5869SOL    HW218507   1.188   4.420   4.503
 5870SOL     OW18508   4.360   4.803   5.269
 5870SOL    HW118509   4.318   4.855   5.343
 5870SOL    HW218510   4.363   4.859   5.186
 5871SOL     OW18511   3.080   3.287   3.025
 5871SOL    HW118512   3.159   3.305   2.967
 5871SOL    HW218513   3.034   3.373   3.048
 5872SOL     OW18514   4.440   6.539   2.252
 5872SOL    HW118515   4.453   6.593   2.335
 5872SOL    HW218516   4.431   6.601   2.174
 5873SOL     OW18517   3.841   4.820   2.874
 5873SOL    HW118518   3.786   4.901   2.856
 5873SOL    HW218519   3.871   4.780   2.788
 5874SOL     OW18520   1.941   4.370   5.624
 5874SOL    HW118521   1.952   4.456   5.675
 5874SOL    HW218522   2.030   4.340   5.589
 5875SOL     OW18523   3.610   1.547   0.104
 5875SOL    HW118524   3.639   1.588   0.018
 5875SOL    HW218525   3.512   1.530   0.102
 5876SOL     OW18526   3.951   3.117   2.091
 5876SOL    HW118527   3.979   3.121   2.187
 5876SOL    HW218528   3.911   3.205   2.064
 5877SOL     OW18529   6.009   5.740   1.098
 5877SOL    HW118530   5.981   5.698   1.184
 5877SOL    HW218531   5.955   5.702   1.023
 5878SOL     OW18532   1.850   4.975   2.670
 5878SOL    HW118533   1.805   4.953   2.757
 5878SOL    HW218534   1.892   4.893   2.633
 5879SOL     OW18535   6.761   3.933   0.063
 5879SOL    HW118536   6.746   3.895   0.155
 5879SOL    HW218537   6.677   3.925   0.010
 5880SOL     OW18538   2.751   6.526   1.355
 5880SOL    HW118539   2.765   6.460   1.428
 5880SOL    HW218540   2.838   6.547   1.311
 5881SOL     OW18541   0.584   4.709   3.821
 5881SOL    HW118542   0.614   4.765   3.744
 5881SOL    HW218543   0.645   4.630   3.830
 5882SOL     OW18544   5.068   0.625   1.066
 5882SOL    HW118545   5.137   0.663   1.005
 5882SOL    HW218546   5.113   0.572   1.138
 5883SOL     OW18547   6.640   2.677   6.377
 5883SOL    HW118548   6.675   2.659   6.469
 5883SOL    HW218549   6.546   2.643   6.370
 5884SOL     OW18550   0.937   0.986   3.334
 5884SOL    HW118551   0.913   0.894   3.303
 5884SOL    HW218552   0.966   1.042   3.257
 5885SOL     OW18553   6.684   6.536   1.185
 5885SOL    HW118554   6.701   6.516   1.281
 5885SOL    HW218555   6.719   6.627   1.163
 5886SOL     OW18556   0.617   2.646   5.244
 5886SOL    HW118557   0.576   2.707   5.311
 5886SOL    HW218558   0.651   2.564   5.290
 5887SOL     OW18559   3.215   0.982   4.169
 5887SOL    HW118560   3.129   1.031   4.153
 5887SOL    HW218561   3.263   0.970   4.082
 5888SOL     OW18562   1.817   6.427   2.909
 5888SOL    HW118563   1.724   6.430   2.871
 5888SOL    HW218564   1.881   6.401   2.837
 5889SOL     OW18565   2.385   0.492   1.127
 5889SOL    HW118566   2.481   0.495   1.100
 5889SOL    HW218567   2.328   0.492   1.045
 5890SOL     OW18568   1.779   6.513   5.106
 5890SOL    HW118569   1.857   6.555   5.153
 5890SOL    HW218570   1.709   6.489   5.173
 5891SOL     OW18571   4.090   3.162   6.972
 5891SOL    HW118572   4.123   3.156   6.878
 5891SOL    HW218573   4.043   3.249   6.985
 5892SOL     OW18574   0.892   6.103   1.421
 5892SOL    HW118575   0.868   6.175   1.355
 5892SOL    HW218576   0.892   6.141   1.513
 5893SOL     OW18577   1.248   2.503   3.663
 5893SOL    HW118578   1.218   2.588   3.706
 5893SOL    HW218579   1.244   2.429   3.731
 5894SOL     OW18580   1.671   4.516   3.659
 5894SOL    HW118581   1.661   4.418   3.639
 5894SOL    HW218582   1.670   4.568   3.574
 5895SOL     OW18583   4.982   2.786   4.557
 5895SOL    HW118584   4.990   2.728   4.476
 5895SOL    HW218585   4.917   2.860   4.539
 5896SOL     OW18586   3.694   2.406   6.295
 5896SOL    HW118587   3.598   2.436   6.293
 5896SOL    HW218588   3.704   2.332   6.362
 5897SOL     OW18589   4.061   0.650   0.920
 5897SOL    HW118590   4.036   0.570   0.975
 5897SOL    HW218591   4.042   0.734   0.972
 5898SOL     OW18592   1.382   0.343   1.539
 5898SOL    HW118593   1.453   0.313   1.603
 5898SOL    HW218594   1.396   0.300   1.450
 5899SOL     OW18595   5.743   7.015   5.024
 5899SOL    HW118596   5.837   7.016   4.991
 5899SOL    HW218597   5.684   0.034   4.960
 5900SOL     OW18598   4.920   4.822   3.037
 5900SOL    HW118599   4.929   4.723   3.052
 5900SOL    HW218600   4.824   4.849   3.046
 5901SOL     OW18601   2.371   6.467   6.586
 5901SOL    HW118602   2.281   6.497   6.554
 5901SOL    HW218603   2.365   6.440   6.682
 5902SOL     OW18604   6.816   2.389   0.810
 5902SOL    HW118605   6.745   2.321   0.789
 5902SOL    HW218606   6.850   2.429   0.725
 5903SOL     OW18607   5.956   4.624   0.124
 5903SOL    HW118608   5.997   4.682   0.194
 5903SOL    HW218609   5.949   4.530   0.158
 5904SOL     OW18610   0.371   3.486   2.316
 5904SOL    HW118611   0.293   3.423   2.313
 5904SOL    HW218612   0.401   3.497   2.411
 5905SOL     OW18613   6.888   6.221   2.812
 5905SOL    HW118614   6.834   6.157   2.867
 5905SOL    HW218615   6.863   6.210   2.716
 5906SOL     OW18616   5.558   0.926   3.925
 5906SOL    HW118617   5.464   0.951   3.903
 5906SOL    HW218618   5.617   0.945   3.846
 5907SOL     OW18619   1.097   6.433   0.793
 5907SOL    HW118620   1.003   6.405   0.772
 5907SOL    HW218621   1.159   6.396   0.725
 5908SOL     OW18622   0.850   2.218   5.919
 5908SOL    HW118623   0.846   2.256   6.011
 5908SOL    HW218624   0.870   2.291   5.853
 5909SOL     OW18625   1.332   5.956   0.388
 5909SOL    HW118626   1.274   5.900   0.329
 5909SOL    HW218627   1.357   6.040   0.339
 5910SOL     OW18628   1.084   2.742   3.421
 5910SOL    HW118629   1.022   2.679   3.375
 5910SOL    HW218630   1.068   2.739   3.520
 5911SOL     OW18631   6.394   5.619   6.559
 5911SOL    HW118632   6.390   5.520   6.573
 5911SOL    HW218633   6.489   5.649   6.562
 5912SOL     OW18634   6.553   1.488   5.814
 5912SOL    HW118635   6.522   1.394   5.828
 5912SOL    HW218636   6.619   1.513   5.885
 5913SOL     OW18637   5.754   3.008   0.244
 5913SOL    HW118638   5.706   2.978   0.161
 5913SOL    HW218639   5.766   3.107   0.242
 5914SOL     OW18640   0.874   6.572   6.201
 5914SOL    HW118641   0.887   6.661   6.157
 5914SOL    HW218642   0.859   6.585   6.299
 5915SOL     OW18643   3.322   6.820   0.169
 5915SOL    HW118644   3.313   6.761   0.249
 5915SOL    HW218645   3.413   6.807   0.129
 5916SOL     OW18646   1.002   6.553   1.588
 5916SOL    HW118647   1.057   6.633   1.566
 5916SOL    HW218648   1.062   6.473   1.594
 5917SOL     OW18649   3.227   4.436   6.360
 5917SOL    HW118650   3.273   4.349   6.341
 5917SOL    HW218651   3.149   4.447   6.299
 5918SOL     OW18652   2.597   5.871   5.825
 5918SOL    HW118653   2.501   5.889   5.844
 5918SOL    HW218654   2.614   5.881   5.727
 5919SOL     OW18655   3.303   3.371   3.670
 5919SOL    HW118656   3.221   3.388   3.615
 5919SOL    HW218657   3.357   3.299   3.627
 5920SOL     OW18658   5.758   0.976   6.029
 5920SOL    HW118659   5.846   0.963   6.076
 5920SOL    HW218660   5.766   1.052   5.965
 5921SOL     OW18661   3.931   4.676   6.899
 5921SOL    HW118662   3.952   4.582   6.926
 5921SOL    HW218663   3.880   4.721   6.972
 5922SOL     OW18664   6.671   4.026   3.845
 5922SOL    HW118665   6.575   4.023   3.817
 5922SOL    HW218666   6.727   3.979   3.777
 5923SOL     OW18667   6.175   1.307   1.773
 5923SOL    HW118668   6.098   1.370   1.784
 5923SOL    HW218669   6.260   1.357   1.786
 5924SOL     OW18670   5.137   6.791   2.921
 5924SOL    HW118671   5.142   6.872   2.863
 5924SOL    HW218672   5.049   6.790   2.969
 5925SOL     OW18673   4.409   5.316   1.488
 5925SOL    HW118674   4.369   5.363   1.409
 5925SOL    HW218675   4.508   5.323   1.484
 5926SOL     OW18676   3.837   4.961   3.382
 5926SOL    HW118677   3.901   4.885   3.370
 5926SOL    HW218678   3.805   4.963   3.477
 5927SOL     OW18679   1.640   3.929   2.059
 5927SOL    HW118680   1.638   3.983   2.143
 5927SOL    HW218681   1.732   3.929   2.021
 5928SOL     OW18682   4.472   0.411   1.039
 5928SOL    HW118683   4.411   0.489   1.023
 5928SOL    HW218684   4.432   0.329   0.998
 5929SOL     OW18685   6.553   0.393   5.344
 5929SOL    HW118686   6.465   0.425   5.378
 5929SOL    HW218687   6.575   0.441   5.259
 5930SOL     OW18688   1.486   3.004   1.174
 5930SOL    HW118689   1.498   3.022   1.076
 5930SOL    HW218690   1.393   3.029   1.201
 5931SOL     OW18691   5.638   5.936   2.906
 5931SOL    HW118692   5.540   5.928   2.926
 5931SOL    HW218693   5.660   6.030   2.882
 5932SOL     OW18694   3.398   0.087   6.640
 5932SOL    HW118695   3.390   0.180   6.674
 5932SOL    HW218696   3.306   0.049   6.623
 5933SOL     OW18697   0.052   5.756   4.454
 5933SOL    HW118698   0.106   5.761   4.370
 5933SOL    HW218699   0.022   5.662   4.469
 5934SOL     OW18700   3.497   3.880   5.576
 5934SOL    HW118701   3.429   3.816   5.610
 5934SOL    HW218702   3.580   3.873   5.630
 5935SOL     OW18703   0.155   5.906   5.918
 5935SOL    HW118704   0.074   5.954   5.953
 5935SOL    HW218705   0.235   5.931   5.973
 5936SOL     OW18706   3.173   3.000   2.837
 5936SOL    HW118707   3.187   2.987   2.739
 5936SOL    HW218708   3.258   2.982   2.886
 5937SOL     OW18709   0.234   2.351   1.962
 5937SOL    HW118710   0.190   2.338   1.872
 5937SOL    HW218711   0.169   2.394   2.024
 5938SOL     OW18712   5.756   5.472   5.082
 5938SOL    HW118713   5.793   5.410   5.012
 5938SOL    HW218714   5.660   5.452   5.097
 5939SOL     OW18715   3.569   6.323   4.095
 5939SOL    HW118716   3.647   6.329   4.159
 5939SOL    HW218717   3.587   6.380   4.016
 5940SOL     OW18718   4.922   5.244   3.351
 5940SOL    HW118719   4.986   5.270   3.278
 5940SOL    HW218720   4.910   5.145   3.350
 5941SOL     OW18721   6.187   2.506   2.269
 5941SOL    HW118722   6.126   2.534   2.195
 5941SOL    HW218723   6.254   2.440   2.234
 5942SOL     OW18724   6.229   3.424   5.735
 5942SOL    HW118725   6.322   3.414   5.698
 5942SOL    HW218726   6.163   3.413   5.661
 5943SOL     OW18727   4.195   3.315   0.289
 5943SOL    HW118728   4.258   3.315   0.212
 5943SOL    HW218729   4.214   3.237   0.348
 5944SOL     OW18730   0.567   2.866   6.882
 5944SOL    HW118731   0.493   2.879   6.947
 5944SOL    HW218732   0.654   2.853   6.931
 5945SOL     OW18733   0.528   6.201   4.989
 5945SOL    HW118734   0.476   6.171   4.909
 5945SOL    HW218735   0.613   6.148   4.995
 5946SOL     OW18736   3.676   4.533   6.475
 5946SOL    HW118737   3.581   4.540   6.507
 5946SOL    HW218738   3.737   4.526   6.553
 5947SOL     OW18739   3.183   2.970   4.727
 5947SOL    HW118740   3.220   2.884   4.761
 5947SOL    HW218741   3.090   2.983   4.762
 5948SOL     OW18742   4.754   4.233   2.255
 5948SOL    HW118743   4.682   4.223   2.186
 5948SOL    HW218744   4.841   4.201   2.216
 5949SOL     OW18745   5.598   5.618   1.274
 5949SOL    HW118746   5.655   5.536   1.284
 5949SOL    HW218747   5.601   5.649   1.179
 5950SOL     OW18748   5.138   2.319   5.443
 5950SOL    HW118749   5.210   2.253   5.427
 5950SOL    HW218750   5.049   2.273   5.443
 5951SOL     OW18751   0.534   5.332   5.053
 5951SOL    HW118752   0.552   5.238   5.022
 5951SOL    HW218753   0.621   5.379   5.069
 5952SOL     OW18754   4.247   5.079   2.159
 5952SOL    HW118755   4.231   5.040   2.250
 5952SOL    HW218756   4.183   5.038   2.094
 5953SOL     OW18757   6.350   2.904   4.870
 5953SOL    HW118758   6.425   2.845   4.843
 5953SOL    HW218759   6.382   2.969   4.939
 5954SOL     OW18760   0.345   5.518   5.613
 5954SOL    HW118761   0.350   5.538   5.515
 5954SOL    HW218762   0.305   5.427   5.626
 5955SOL     OW18763   4.906   4.871   1.355
 5955SOL    HW118764   4.865   4.865   1.264
 5955SOL    HW218765   4.842   4.835   1.423
 5956SOL     OW18766   5.402   2.535   4.219
 5956SOL    HW118767   5.429   2.497   4.130
 5956SOL    HW218768   5.327   2.601   4.206
 5957SOL     OW18769   1.333   0.917   3.109
 5957SOL    HW118770   1.400   0.922   3.035
 5957SOL    HW218771   1.241   0.934   3.071
 5958SOL     OW18772   3.627   7.002   3.182
 5958SOL    HW118773   3.689   6.958   3.117
 5958SOL    HW218774   3.581   6.931   3.236
 5959SOL     OW18775   4.869   2.206   5.540
 5959SOL    HW118776   4.852   2.284   5.600
 5959SOL    HW218777   4.806   2.208   5.463
 5960SOL     OW18778   3.000   6.482   4.667
 5960SOL    HW118779   3.062   6.434   4.604
 5960SOL    HW218780   2.906   6.468   4.637
 5961SOL     OW18781   3.873   1.807   2.260
 5961SOL    HW118782   3.815   1.755   2.198
 5961SOL    HW218783   3.842   1.902   2.262
 5962SOL     OW18784   4.777   6.207   6.181
 5962SOL    HW118785   4.828   6.249   6.105
 5962SOL    HW218786   4.770   6.273   6.256
 5963SOL     OW18787   3.380   4.514   6.555
 5963SOL    HW118788   3.337   4.585   6.612
 5963SOL    HW218789   3.325   4.500   6.473
 5964SOL     OW18790   2.349   0.233   2.994
 5964SOL    HW118791   2.363   0.322   3.036
 5964SOL    HW218792   2.364   0.161   3.063
 5965SOL     OW18793   1.786   0.553   6.697
 5965SOL    HW118794   1.705   0.584   6.647
 5965SOL    HW218795   1.840   0.491   6.639
 5966SOL     OW18796   1.676   6.858   5.730
 5966SOL    HW118797   1.596   6.916   5.718
 5966SOL    HW218798   1.654   6.765   5.700
 5967SOL     OW18799   2.372   2.190   5.223
 5967SOL    HW118800   2.407   2.275   5.264
 5967SOL    HW218801   2.425   2.168   5.141
 5968SOL     OW18802   5.683   2.298   0.236
 5968SOL    HW118803   5.680   2.231   0.310
 5968SOL    HW218804   5.720   2.384   0.271
 5969SOL     OW18805   4.813   0.212   6.488
 5969SOL    HW118806   4.837   0.231   6.583
 5969SOL    HW218807   4.714   0.208   6.479
 5970SOL     OW18808   0.113   4.233   0.687
 5970SOL    HW118809   0.170   4.315   0.693
 5970SOL    HW218810   0.164   4.154   0.721
 5971SOL     OW18811   5.845   0.230   2.455
 5971SOL    HW118812   5.792   0.282   2.388
 5971SOL    HW218813   5.904   0.165   2.407
 5972SOL     OW18814   5.208   5.384   6.999
 5972SOL    HW118815   5.290   5.341   0.007
 5972SOL    HW218816   5.136   5.315   6.987
 5973SOL     OW18817   2.104   3.687   2.799
 5973SOL    HW118818   2.109   3.762   2.865
 5973SOL    HW218819   2.130   3.601   2.843
 5974SOL     OW18820   4.474   0.794   7.029
 5974SOL    HW118821   4.487   0.859   0.075
 5974SOL    HW218822   4.378   0.794   7.001
 5975SOL     OW18823   5.018   4.907   0.872
 5975SOL    HW118824   5.085   4.842   0.837
 5975SOL    HW218825   5.062   4.994   0.892
 5976SOL     OW18826   3.547   3.489   5.682
 5976SOL    HW118827   3.574   3.559   5.616
 5976SOL    HW218828   3.623   3.426   5.695
 5977SOL     OW18829   0.935   5.621   0.163
 5977SOL    HW118830   0.840   5.622   0.191
 5977SOL    HW218831   0.941   5.645   0.066
 5978SOL     OW18832   3.804   5.209   0.391
 5978SOL    HW118833   3.887   5.152   0.395
 5978SOL    HW218834   3.825   5.295   0.346
 5979SOL     OW18835   6.199   0.614   2.240
 5979SOL    HW118836   6.110   0.576   2.215
 5979SOL    HW218837   6.236   0.666   2.163
 5980SOL     OW18838   3.464   2.887   2.071
 5980SOL    HW118839   3.563   2.903   2.064
 5980SOL    HW218840   3.429   2.857   1.982
 5981SOL     OW18841   4.925   2.514   0.438
 5981SOL    HW118842   4.896   2.419   0.435
 5981SOL    HW218843   4.847   2.572   0.461
 5982SOL     OW18844   5.463   2.169   2.070
 5982SOL    HW118845   5.369   2.161   2.103
 5982SOL    HW218846   5.462   2.186   1.971
 5983SOL     OW18847   0.384   0.537   4.040
 5983SOL    HW118848   0.430   0.510   3.955
 5983SOL    HW218849   0.297   0.487   4.048
 5984SOL     OW18850   5.735   6.608   3.152
 5984SOL    HW118851   5.672   6.535   3.123
 5984SOL    HW218852   5.790   6.637   3.073
 5985SOL     OW18853   6.342   2.262   3.798
 5985SOL    HW118854   6.359   2.346   3.849
 5985SOL    HW218855   6.420   2.201   3.807
 5986SOL     OW18856   4.036   3.825   5.685
 5986SOL    HW118857   4.092   3.850   5.605
 5986SOL    HW218858   4.017   3.907   5.739
 5987SOL     OW18859   6.402   1.016   4.460
 5987SOL    HW118860   6.388   0.919   4.478
 5987SOL    HW218861   6.499   1.033   4.443
 5988SOL     OW18862   3.081   1.107   6.646
 5988SOL    HW118863   3.114   1.040   6.579
 5988SOL    HW218864   3.120   1.086   6.736
 5989SOL     OW18865   1.198   5.551   6.527
 5989SOL    HW118866   1.110   5.504   6.515
 5989SOL    HW218867   1.271   5.496   6.487
 5990SOL     OW18868   4.430   4.068   0.898
 5990SOL    HW118869   4.467   3.977   0.914
 5990SOL    HW218870   4.360   4.063   0.827
 5991SOL     OW18871   4.153   5.687   0.250
 5991SOL    HW118872   4.192   5.599   0.278
 5991SOL    HW218873   4.134   5.685   0.152
 5992SOL     OW18874   3.118   0.353   2.503
 5992SOL    HW118875   3.170   0.435   2.528
 5992SOL    HW218876   3.158   0.273   2.549
 5993SOL     OW18877   6.352   3.609   6.738
 5993SOL    HW118878   6.286   3.641   6.806
 5993SOL    HW218879   6.387   3.519   6.766
 5994SOL     OW18880   0.025   3.427   0.940
 5994SOL    HW118881   0.105   3.421   0.999
 5994SOL    HW218882   7.006   3.339   0.940
 5995SOL     OW18883   4.329   3.252   1.300
 5995SOL    HW118884   4.273   3.331   1.276
 5995SOL    HW218885   4.417   3.283   1.336
 5996SOL     OW18886   2.227   5.772   1.346
 5996SOL    HW118887   2.224   5.856   1.400
 5996SOL    HW218888   2.316   5.765   1.301
 5997SOL     OW18889   6.927   6.841   3.311
 5997SOL    HW118890   6.998   6.817   3.377
 5997SOL    HW218891   6.873   6.759   3.289
 5998SOL     OW18892   5.617   0.639   1.606
 5998SOL    HW118893   5.639   0.731   1.572
 5998SOL    HW218894   5.530   0.609   1.567
 5999SOL     OW18895   4.018   3.240   1.094
 5999SOL    HW118896   4.034   3.177   1.017
 5999SOL    HW218897   4.053   3.199   1.178
 6000SOL     OW18898   0.338   5.582   0.324
 6000SOL    HW118899   0.331   5.654   0.393
 6000SOL    HW218900   0.281   5.505   0.351
 6001SOL     OW18901   5.366   5.995   6.370
 6001SOL    HW118902   5.267   5.985   6.359
 6001SOL    HW218903   5.385   6.075   6.427
 6002SOL     OW18904   6.883   6.847   4.780
 6002SOL    HW118905   6.847   6.922   4.836
 6002SOL    HW218906   6.900   6.881   4.687
 6003SOL     OW18907   6.709   2.450   4.822
 6003SOL    HW118908   6.625   2.409   4.788
 6003SOL    HW218909   6.773   2.378   4.849
 6004SOL     OW18910   5.859   2.561   3.321
 6004SOL    HW118911   5.775   2.527   3.363
 6004SOL    HW218912   5.845   2.574   3.223
 6005SOL     OW18913   5.362   4.309   5.041
 6005SOL    HW118914   5.312   4.236   5.088
 6005SOL    HW218915   5.313   4.396   5.054
 6006SOL     OW18916   3.563   0.157   5.018
 6006SOL    HW118917   3.477   0.141   4.971
 6006SOL    HW218918   3.566   0.250   5.054
 6007SOL     OW18919   0.216   3.759   6.791
 6007SOL    HW118920   0.239   3.664   6.772
 6007SOL    HW218921   0.136   3.763   6.851
 6008SOL     OW18922   1.973   4.609   5.723
 6008SOL    HW118923   1.913   4.633   5.799
 6008SOL    HW218924   1.984   4.688   5.663
 6009SOL     OW18925   5.109   5.870   3.137
 6009SOL    HW118926   5.038   5.930   3.101
 6009SOL    HW218927   5.094   5.856   3.235
 6010SOL     OW18928   0.446   4.036   4.409
 6010SOL    HW118929   0.407   3.954   4.367
 6010SOL    HW218930   0.448   4.024   4.509
 6011SOL     OW18931   4.614   2.268   2.687
 6011SOL    HW118932   4.596   2.170   2.691
 6011SOL    HW218933   4.564   2.309   2.611
 6012SOL     OW18934   5.625   0.444   6.816
 6012SOL    HW118935   5.600   0.349   6.833
 6012SOL    HW218936   5.640   0.491   6.903
 6013SOL     OW18937   4.968   1.182   2.709
 6013SOL    HW118938   4.922   1.256   2.757
 6013SOL    HW218939   4.912   1.152   2.632
 6014SOL     OW18940   3.363   3.572   3.927
 6014SOL    HW118941   3.357   3.525   3.839
 6014SOL    HW218942   3.275   3.568   3.973
 6015SOL     OW18943   5.979   3.041   4.646
 6015SOL    HW118944   5.958   2.971   4.714
 6015SOL    HW218945   5.913   3.037   4.571
 6016SOL     OW18946   4.797   1.888   5.554
 6016SOL    HW118947   4.867   1.958   5.569
 6016SOL    HW218948   4.753   1.904   5.466
 6017SOL     OW18949   0.359   3.997   4.698
 6017SOL    HW118950   0.331   4.047   4.780
 6017SOL    HW218951   0.430   3.930   4.722
 6018SOL     OW18952   3.224   1.516   4.337
 6018SOL    HW118953   3.204   1.599   4.389
 6018SOL    HW218954   3.322   1.495   4.343
 6019SOL     OW18955   1.141   3.976   6.091
 6019SOL    HW118956   1.065   3.975   6.156
 6019SOL    HW218957   1.221   3.933   6.132
 6020SOL     OW18958   1.222   5.240   1.138
 6020SOL    HW118959   1.288   5.214   1.068
 6020SOL    HW218960   1.130   5.210   1.109
 6021SOL     OW18961   4.365   0.241   2.604
 6021SOL    HW118962   4.438   0.240   2.535
 6021SOL    HW218963   4.387   0.308   2.675
 6022SOL     OW18964   6.454   1.948   3.251
 6022SOL    HW118965   6.361   1.984   3.250
 6022SOL    HW218966   6.506   1.987   3.175
 6023SOL     OW18967   5.281   0.328   1.540
 6023SOL    HW118968   5.200   0.274   1.561
 6023SOL    HW218969   5.353   0.268   1.507
 6024SOL     OW18970   0.876   4.889   0.690
 6024SOL    HW118971   0.838   4.981   0.687
 6024SOL    HW218972   0.851   4.845   0.776
 6025SOL     OW18973   2.543   1.642   3.582
 6025SOL    HW118974   2.622   1.690   3.619
 6025SOL    HW218975   2.572   1.584   3.506
 6026SOL     OW18976   6.425   4.635   4.502
 6026SOL    HW118977   6.370   4.708   4.541
 6026SOL    HW218978   6.455   4.660   4.410
 6027SOL     OW18979   6.112   3.548   5.986
 6027SOL    HW118980   6.141   3.497   5.904
 6027SOL    HW218981   6.193   3.574   6.039
 6028SOL     OW18982   5.461   5.128   1.381
 6028SOL    HW118983   5.547   5.077   1.387
 6028SOL    HW218984   5.419   5.113   1.292
 6029SOL     OW18985   2.259   6.894   3.382
 6029SOL    HW118986   2.226   6.815   3.330
 6029SOL    HW218987   2.307   6.957   3.321
 6030SOL     OW18988   4.971   3.781   4.769
 6030SOL    HW118989   4.975   3.752   4.674
 6030SOL    HW218990   4.903   3.727   4.818
 6031SOL     OW18991   1.367   6.107   4.097
 6031SOL    HW118992   1.323   6.120   4.008
 6031SOL    HW218993   1.462   6.140   4.092
 6032SOL     OW18994   3.212   5.754   3.921
 6032SOL    HW118995   3.271   5.752   3.841
 6032SOL    HW218996   3.197   5.848   3.950
 6033SOL     OW18997   2.366   2.756   2.605
 6033SOL    HW118998   2.348   2.690   2.532
 6033SOL    HW218999   2.348   2.714   2.694
 6034SOL     OW19000   0.910   0.299   6.343
 6034SOL    HW119001   0.938   0.203   6.330
 6034SOL    HW219002   0.922   0.324   6.439
 6035SOL     OW19003   0.859   1.285   2.471
 6035SOL    HW119004   0.832   1.194   2.502
 6035SOL    HW219005   0.902   1.334   2.546
 6036SOL     OW19006   6.354   4.896   1.735
 6036SOL    HW119007   6.435   4.945   1.703
 6036SOL    HW219008   6.382   4.819   1.792
 6037SOL     OW19009   4.208   0.940   1.150
 6037SOL    HW119010   4.110   0.919   1.154
 6037SOL    HW219011   4.237   0.949   1.055
 6038SOL     OW19012   0.142   2.350   6.685
 6038SOL    HW119013   0.144   2.308   6.775
 6038SOL    HW219014   0.190   2.438   6.687
 6039SOL     OW19015   4.110   3.311   3.953
 6039SOL    HW119016   4.095   3.227   3.901
 6039SOL    HW219017   4.108   3.389   3.891
 6040SOL     OW19018   1.868   1.599   0.327
 6040SOL    HW119019   1.833   1.507   0.311
 6040SOL    HW219020   1.952   1.594   0.381
 6041SOL     OW19021   3.123   3.063   5.480
 6041SOL    HW119022   3.029   3.096   5.493
 6041SOL    HW219023   3.131   3.020   5.390
 6042SOL     OW19024   4.308   6.057   2.972
 6042SOL    HW119025   4.209   6.068   2.963
 6042SOL    HW219026   4.336   6.084   3.064
 6043SOL     OW19027   1.192   0.807   4.007
 6043SOL    HW119028   1.135   0.740   3.959
 6043SOL    HW219029   1.246   0.760   4.077
 6044SOL     OW19030   2.166   1.586   1.819
 6044SOL    HW119031   2.114   1.501   1.811
 6044SOL    HW219032   2.236   1.577   1.889
 6045SOL     OW19033   4.892   3.021   3.765
 6045SOL    HW119034   4.907   3.091   3.695
 6045SOL    HW219035   4.890   3.064   3.855
 6046SOL     OW19036   3.139   2.792   1.174
 6046SOL    HW119037   3.208   2.771   1.105
 6046SOL    HW219038   3.063   2.841   1.131
 6047SOL     OW19039   5.612   2.457   0.800
 6047SOL    HW119040   5.522   2.423   0.772
 6047SOL    HW219041   5.632   2.428   0.893
 6048SOL     OW19042   5.365   5.009   5.091
 6048SOL    HW119043   5.384   5.106   5.096
 6048SOL    HW219044   5.398   4.973   5.003
 6049SOL     OW19045   5.798   4.409   6.051
 6049SOL    HW119046   5.853   4.472   5.997
 6049SOL    HW219047   5.759   4.339   5.990
 6050SOL     OW19048   3.050   5.284   0.594
 6050SOL    HW119049   3.050   5.376   0.634
 6050SOL    HW219050   3.051   5.292   0.494
 6051SOL     OW19051   0.817   1.021   2.591
 6051SOL    HW119052   0.883   1.006   2.517
 6051SOL    HW219053   0.725   1.002   2.558
 6052SOL     OW19054   5.377   0.504   1.093
 6052SOL    HW119055   5.311   0.472   1.161
 6052SOL    HW219056   5.427   0.582   1.130
 6053SOL     OW19057   4.433   0.619   6.074
 6053SOL    HW119058   4.404   0.653   6.164
 6053SOL    HW219059   4.363   0.559   6.037
 6054SOL     OW19060   3.650   4.998   0.722
 6054SOL    HW119061   3.659   5.030   0.628
 6054SOL    HW219062   3.738   4.966   0.755
 6055SOL     OW19063   3.539   5.067   6.616
 6055SOL    HW119064   3.546   5.163   6.644
 6055SOL    HW219065   3.594   5.052   6.534
 6056SOL     OW19066   5.888   2.906   4.871
 6056SOL    HW119067   5.805   2.959   4.886
 6056SOL    HW219068   5.870   2.809   4.888
 6057SOL     OW19069   5.681   0.369   2.283
 6057SOL    HW119070   5.650   0.461   2.309
 6057SOL    HW219071   5.641   0.344   2.195
 6058SOL     OW19072   6.104   3.436   0.396
 6058SOL    HW119073   6.115   3.521   0.448
 6058SOL    HW219074   6.073   3.363   0.457
 6059SOL     OW19075   4.982   4.090   5.504
 6059SOL    HW119076   4.948   4.036   5.581
 6059SOL    HW219077   5.038   4.032   5.445
 6060SOL     OW19078   3.325   3.043   0.376
 6060SOL    HW119079   3.280   3.122   0.335
 6060SOL    HW219080   3.387   3.002   0.310
 6061SOL     OW19081   4.663   4.835   0.061
 6061SOL    HW119082   4.583   4.784   0.093
 6061SOL    HW219083   4.686   4.806   6.998
 6062SOL     OW19084   2.722   1.772   6.729
 6062SOL    HW119085   2.773   1.772   6.815
 6062SOL    HW219086   2.772   1.722   6.659
 6063SOL     OW19087   3.665   4.256   5.534
 6063SOL    HW119088   3.609   4.292   5.459
 6063SOL    HW219089   3.673   4.156   5.524
 6064SOL     OW19090   0.556   0.416   0.942
 6064SOL    HW119091   0.515   0.420   1.033
 6064SOL    HW219092   0.537   0.326   0.901
 6065SOL     OW19093   0.968   5.171   1.442
 6065SOL    HW119094   0.942   5.074   1.441
 6065SOL    HW219095   1.065   5.179   1.418
 6066SOL     OW19096   5.268   1.402   3.697
 6066SOL    HW119097   5.255   1.479   3.759
 6066SOL    HW219098   5.240   1.428   3.605
 6067SOL     OW19099   5.533   0.153   6.182
 6067SOL    HW119100   5.490   0.121   6.098
 6067SOL    HW219101   5.463   0.179   6.248
 6068SOL     OW19102   5.027   2.234   4.988
 6068SOL    HW119103   4.973   2.149   4.985
 6068SOL    HW219104   5.118   2.217   4.950
 6069SOL     OW19105   6.711   2.950   5.953
 6069SOL    HW119106   6.784   3.001   5.908
 6069SOL    HW219107   6.706   2.977   6.049
 6070SOL     OW19108   3.568   2.337   1.580
 6070SOL    HW119109   3.594   2.348   1.676
 6070SOL    HW219110   3.629   2.271   1.536
 6071SOL     OW19111   0.238   6.289   4.242
 6071SOL    HW119112   0.177   6.319   4.315
 6071SOL    HW219113   0.192   6.303   4.154
 6072SOL     OW19114   6.528   1.660   0.989
 6072SOL    HW119115   6.597   1.639   1.058
 6072SOL    HW219116   6.542   1.601   0.909
 6073SOL     OW19117   5.096   2.861   1.295
 6073SOL    HW119118   5.040   2.812   1.363
 6073SOL    HW219119   5.187   2.819   1.292
 6074SOL     OW19120   1.623   0.400   2.150
 6074SOL    HW119121   1.533   0.400   2.107
 6074SOL    HW219122   1.614   0.418   2.248
 6075SOL     OW19123   4.662   6.839   6.037
 6075SOL    HW119124   4.655   6.938   6.045
 6075SOL    HW219125   4.745   6.816   5.985
 6076SOL     OW19126   2.530   5.497   3.574
 6076SOL    HW119127   2.433   5.493   3.599
 6076SOL    HW219128   2.579   5.556   3.639
 6077SOL     OW19129   5.976   6.705   0.902
 6077SOL    HW119130   6.023   6.775   0.849
 6077SOL    HW219131   6.043   6.651   0.953
 6078SOL     OW19132   4.493   4.531   0.945
 6078SOL    HW119133   4.521   4.586   1.024
 6078SOL    HW219134   4.495   4.434   0.969
 6079SOL     OW19135   4.833   4.511   6.692
 6079SOL    HW119136   4.815   4.527   6.595
 6079SOL    HW219137   4.907   4.444   6.701
 6080SOL     OW19138   0.703   5.150   1.548
 6080SOL    HW119139   0.641   5.228   1.562
 6080SOL    HW219140   0.793   5.183   1.522
 6081SOL     OW19141   0.685   3.409   5.750
 6081SOL    HW119142   0.737   3.419   5.664
 6081SOL    HW219143   0.605   3.352   5.734
 6082SOL     OW19144   3.346   6.873   1.876
 6082SOL    HW119145   3.397   6.890   1.792
 6082SOL    HW219146   3.249   6.888   1.861
 6083SOL     OW19147   5.484   6.333   0.039
 6083SOL    HW119148   5.423   6.260   0.009
 6083SOL    HW219149   5.579   6.301   0.035
 6084SOL     OW19150   0.678   6.305   2.161
 6084SOL    HW119151   0.694   6.298   2.259
 6084SOL    HW219152   0.748   6.253   2.112
 6085SOL     OW19153   5.928   6.140   6.017
 6085SOL    HW119154   5.838   6.096   6.011
 6085SOL    HW219155   5.926   6.212   6.086
 6086SOL     OW19156   3.858   3.201   6.339
 6086SOL    HW119157   3.813   3.272   6.286
 6086SOL    HW219158   3.813   3.113   6.322
 6087SOL     OW19159   5.281   6.301   0.945
 6087SOL    HW119160   5.181   6.307   0.942
 6087SOL    HW219161   5.318   6.374   1.003
 6088SOL     OW19162   5.717   6.213   5.287
 6088SOL    HW119163   5.679   6.206   5.195
 6088SOL    HW219164   5.745   6.123   5.319
 6089SOL     OW19165   6.727   2.208   2.427
 6089SOL    HW119166   6.760   2.193   2.520
 6089SOL    HW219167   6.628   2.216   2.427
 6090SOL     OW19168   2.694   4.904   4.428
 6090SOL    HW119169   2.597   4.904   4.455
 6090SOL    HW219170   2.713   4.821   4.375
 6091SOL     OW19171   2.742   1.634   0.969
 6091SOL    HW119172   2.761   1.732   0.958
 6091SOL    HW219173   2.675   1.621   1.042
 6092SOL     OW19174   4.208   0.570   2.006
 6092SOL    HW119175   4.131   0.539   2.062
 6092SOL    HW219176   4.294   0.540   2.048
 6093SOL     OW19177   2.403   1.883   2.453
 6093SOL    HW119178   2.367   1.918   2.366
 6093SOL    HW219179   2.455   1.955   2.498
 6094SOL     OW19180   1.469   6.428   3.797
 6094SOL    HW119181   1.557   6.474   3.787
 6094SOL    HW219182   1.406   6.461   3.728
 6095SOL     OW19183   4.731   5.267   6.760
 6095SOL    HW119184   4.752   5.262   6.663
 6095SOL    HW219185   4.652   5.209   6.780
 6096SOL     OW19186   5.767   6.187   2.352
 6096SOL    HW119187   5.811   6.270   2.319
 6096SOL    HW219188   5.836   6.117   2.369
 6097SOL     OW19189   1.169   5.789   1.726
 6097SOL    HW119190   1.131   5.824   1.640
 6097SOL    HW219191   1.110   5.716   1.761
 6098SOL     OW19192   6.069   0.451   5.834
 6098SOL    HW119193   6.069   0.547   5.803
 6098SOL    HW219194   6.138   0.439   5.905
 6099SOL     OW19195   4.369   6.149   5.764
 6099SOL    HW119196   4.355   6.172   5.667
 6099SOL    HW219197   4.412   6.226   5.810
 6100SOL     OW19198   0.234   5.564   1.766
 6100SOL    HW119199   0.272   5.633   1.827
 6100SOL    HW219200   0.306   5.501   1.737
 6101SOL     OW19201   6.034   3.024   2.838
 6101SOL    HW119202   5.962   2.955   2.829
 6101SOL    HW219203   6.080   3.035   2.750
 6102SOL     OW19204   4.054   5.582   2.700
 6102SOL    HW119205   4.111   5.501   2.717
 6102SOL    HW219206   3.964   5.554   2.668
 6103SOL     OW19207   6.336   1.231   1.352
 6103SOL    HW119208   6.249   1.278   1.362
 6103SOL    HW219209   6.401   1.266   1.420
 6104SOL     OW19210   6.135   1.140   5.308
 6104SOL    HW119211   6.223   1.185   5.297
 6104SOL    HW219212   6.063   1.209   5.319
 6105SOL     OW19213   2.629   5.627   5.472
 6105SOL    HW119214   2.548   5.680   5.447
 6105SOL    HW219215   2.640   5.630   5.572
 6106SOL     OW19216   1.321   4.961   0.614
 6106SOL    HW119217   1.346   4.929   0.522
 6106SOL    HW219218   1.263   4.894   0.659
 6107SOL     OW19219   5.003   5.692   4.138
 6107SOL    HW119220   4.990   5.599   4.104
 6107SOL    HW219221   4.918   5.724   4.180
 6108SOL     OW19222   0.907   2.049   3.184
 6108SOL    HW119223   0.936   2.035   3.089
 6108SOL    HW219224   0.915   2.146   3.208
 6109SOL     OW19225   4.940   1.063   4.345
 6109SOL    HW119226   4.996   1.061   4.262
 6109SOL    HW219227   4.975   0.996   4.410
 6110SOL     OW19228   1.473   2.411   6.824
 6110SOL    HW119229   1.453   2.476   6.751
 6110SOL    HW219230   1.569   2.382   6.818
 6111SOL     OW19231   1.312   3.335   1.753
 6111SOL    HW119232   1.392   3.289   1.714
 6111SOL    HW219233   1.229   3.302   1.708
 6112SOL     OW19234   4.401   0.089   2.261
 6112SOL    HW119235   4.387   0.095   2.360
 6112SOL    HW219236   4.313   0.076   2.216
 6113SOL     OW19237   2.742   4.049   6.455
 6113SOL    HW119238   2.649   4.042   6.492
 6113SOL    HW219239   2.806   4.008   6.519
 6114SOL     OW19240   5.000   2.874   2.464
 6114SOL    HW119241   4.968   2.867   2.370
 6114SOL    HW219242   4.950   2.947   2.511
 6115SOL     OW19243   0.024   1.632   5.350
 6115SOL    HW119244   0.011   1.697   5.426
 6115SOL    HW219245   0.034   1.683   5.265
 6116SOL     OW19246   4.176   2.562   5.606
 6116SOL    HW119247   4.192   2.522   5.697
 6116SOL    HW219248   4.088   2.609   5.607
 6117SOL     OW19249   0.881   1.427   3.341
 6117SOL    HW119250   0.871   1.398   3.246
 6117SOL    HW219251   0.942   1.506   3.346
 6118SOL     OW19252   5.649   1.389   1.748
 6118SOL    HW119253   5.649   1.310   1.687
 6118SOL    HW219254   5.568   1.385   1.807
 6119SOL     OW19255   0.627   2.756   0.281
 6119SOL    HW119256   0.662   2.849   0.292
 6119SOL    HW219257   0.701   2.696   0.250
 6120SOL     OW19258   1.552   6.636   5.587
 6120SOL    HW119259   1.467   6.690   5.581
 6120SOL    HW219260   1.539   6.561   5.652
 6121SOL     OW19261   0.661   4.162   5.600
 6121SOL    HW119262   0.656   4.194   5.506
 6121SOL    HW219263   0.574   4.120   5.627
 6122SOL     OW19264   4.990   5.544   6.385
 6122SOL    HW119265   5.058   5.577   6.320
 6122SOL    HW219266   4.902   5.531   6.339
 6123SOL     OW19267   5.209   0.840   5.360
 6123SOL    HW119268   5.224   0.844   5.459
 6123SOL    HW219269   5.254   0.918   5.316
 6124SOL     OW19270   1.268   6.751   5.553
 6124SOL    HW119271   1.201   6.786   5.487
 6124SOL    HW219272   1.276   6.652   5.543
 6125SOL     OW19273   2.446   3.527   0.020
 6125SOL    HW119274   2.422   3.491   6.960
 6125SOL    HW219275   2.363   3.539   0.074
 6126SOL     OW19276   0.863   1.997   5.519
 6126SOL    HW119277   0.786   1.985   5.456
 6126SOL    HW219278   0.933   1.928   5.499
 6127SOL     OW19279   4.391   0.941   1.469
 6127SOL    HW119280   4.452   0.895   1.533
 6127SOL    HW219281   4.438   0.955   1.382
 6128SOL     OW19282   5.721   5.481   0.556
 6128SOL    HW119283   5.700   5.570   0.518
 6128SOL    HW219284   5.805   5.445   0.516
 6129SOL     OW19285   1.593   4.379   3.033
 6129SOL    HW119286   1.561   4.440   3.105
 6129SOL    HW219287   1.689   4.359   3.047
 6130SOL     OW19288   6.448   2.458   2.905
 6130SOL    HW119289   6.477   2.366   2.930
 6130SOL    HW219290   6.525   2.507   2.865
 6131SOL     OW19291   0.862   2.197   2.040
 6131SOL    HW119292   0.795   2.189   2.114
 6131SOL    HW219293   0.826   2.259   1.970
 6132SOL     OW19294   3.478   1.830   6.695
 6132SOL    HW119295   3.469   1.906   6.759
 6132SOL    HW219296   3.441   1.747   6.736
 6133SOL     OW19297   1.064   2.275   3.235
 6133SOL    HW119298   1.056   2.277   3.335
 6133SOL    HW219299   1.148   2.227   3.209
 6134SOL     OW19300   4.604   7.011   6.590
 6134SOL    HW119301   4.558   0.069   6.585
 6134SOL    HW219302   4.538   6.938   6.572
 6135SOL     OW19303   5.723   6.533   0.388
 6135SOL    HW119304   5.721   6.595   0.310
 6135SOL    HW219305   5.778   6.572   0.461
 6136SOL     OW19306   1.565   2.200   1.327
 6136SOL    HW119307   1.557   2.290   1.284
 6136SOL    HW219308   1.474   2.170   1.357
 6137SOL     OW19309   0.812   3.939   2.597
 6137SOL    HW119310   0.858   3.890   2.522
 6137SOL    HW219311   0.781   3.873   2.665
 6138SOL     OW19312   3.760   0.292   2.033
 6138SOL    HW119313   3.682   0.354   2.043
 6138SOL    HW219314   3.727   0.198   2.030
 6139SOL     OW19315   0.767   6.927   5.533
 6139SOL    HW119316   0.682   6.910   5.582
 6139SOL    HW219317   0.751   6.989   5.457
 6140SOL     OW19318   0.713   0.744   3.039
 6140SOL    HW119319   0.692   0.841   3.045
 6140SOL    HW219320   0.630   0.692   3.021
 6141SOL     OW19321   0.840   0.463   5.890
 6141SOL    HW119322   0.832   0.559   5.863
 6141SOL    HW219323   0.792   0.406   5.824
 6142SOL     OW19324   0.852   0.538   5.543
 6142SOL    HW119325   0.810   0.602   5.608
 6142SOL    HW219326   0.945   0.568   5.522
 6143SOL     OW19327   6.920   4.294   0.979
 6143SOL    HW119328   6.822   4.275   0.970
 6143SOL    HW219329   6.969   4.208   0.995
 6144SOL     OW19330   5.068   4.269   3.106
 6144SOL    HW119331   5.160   4.270   3.146
 6144SOL    HW219332   5.075   4.272   3.006
 6145SOL     OW19333   5.678   4.790   3.994
 6145SOL    HW119334   5.683   4.701   3.948
 6145SOL    HW219335   5.615   4.850   3.944
 6146SOL     OW19336   3.655   6.412   3.833
 6146SOL    HW119337   3.688   6.332   3.783
 6146SOL    HW219338   3.648   6.490   3.771
 6147SOL     OW19339   1.706   2.908   4.625
 6147SOL    HW119340   1.653   2.913   4.710
 6147SOL    HW219341   1.737   2.814   4.611
 6148SOL     OW19342   4.185   5.195   6.541
 6148SOL    HW119343   4.147   5.270   6.487
 6148SOL    HW219344   4.236   5.133   6.481
 6149SOL     OW19345   1.951   7.020   1.808
 6149SOL    HW119346   2.001   6.938   1.781
 6149SOL    HW219347   1.957   0.059   1.736
 6150SOL     OW19348   6.181   4.070   6.714
 6150SOL    HW119349   6.119   4.001   6.753
 6150SOL    HW219350   6.127   4.146   6.677
 6151SOL     OW19351   5.213   4.973   4.020
 6151SOL    HW119352   5.254   4.935   3.936
 6151SOL    HW219353   5.147   4.908   4.056
 6152SOL     OW19354   0.722   5.812   4.704
 6152SOL    HW119355   0.638   5.767   4.675
 6152SOL    HW219356   0.735   5.800   4.802
 6153SOL     OW19357   4.882   5.361   1.022
 6153SOL    HW119358   4.970   5.347   0.977
 6153SOL    HW219359   4.808   5.349   0.956
 6154SOL     OW19360   5.422   3.441   3.167
 6154SOL    HW119361   5.492   3.505   3.134
 6154SOL    HW219362   5.448   3.348   3.144
 6155SOL     OW19363   2.788   0.798   2.834
 6155SOL    HW119364   2.842   0.800   2.750
 6155SOL    HW219365   2.739   0.884   2.844
 6156SOL     OW19366   5.112   3.862   1.586
 6156SOL    HW119367   5.035   3.814   1.630
 6156SOL    HW219368   5.098   3.961   1.594
 6157SOL     OW19369   0.517   2.194   3.184
 6157SOL    HW119370   0.567   2.138   3.118
 6157SOL    HW219371   0.423   2.162   3.191
 6158SOL     OW19372   2.993   2.223   6.978
 6158SOL    HW119373   3.057   2.206   6.903
 6158SOL    HW219374   3.022   2.174   0.030
 6159SOL     OW19375   5.444   3.385   0.692
 6159SOL    HW119376   5.453   3.453   0.764
 6159SOL    HW219377   5.528   3.332   0.685
 6160SOL     OW19378   7.011   0.051   6.793
 6160SOL    HW119379   6.968   0.126   6.744
 6160SOL    HW219380   6.947   7.004   6.801
 6161SOL     OW19381   5.010   1.532   6.911
 6161SOL    HW119382   5.057   1.563   6.993
 6161SOL    HW219383   4.995   1.609   6.849
 6162SOL     OW19384   6.099   6.644   3.786
 6162SOL    HW119385   6.083   6.554   3.826
 6162SOL    HW219386   6.139   6.705   3.855
 6163SOL     OW19387   5.470   5.872   2.310
 6163SOL    HW119388   5.442   5.947   2.370
 6163SOL    HW219389   5.543   5.904   2.250
 6164SOL     OW19390   3.522   3.727   4.623
 6164SOL    HW119391   3.574   3.803   4.661
 6164SOL    HW219392   3.528   3.728   4.523
 6165SOL     OW19393   3.872   2.077   6.071
 6165SOL    HW119394   3.870   2.177   6.073
 6165SOL    HW219395   3.788   2.041   6.112
 6166SOL     OW19396   6.395   1.734   0.241
 6166SOL    HW119397   6.373   1.672   0.166
 6166SOL    HW219398   6.313   1.783   0.269
 6167SOL     OW19399   1.150   4.482   3.070
 6167SOL    HW119400   1.145   4.485   3.170
 6167SOL    HW219401   1.209   4.556   3.037
 6168SOL     OW19402   0.321   2.375   3.435
 6168SOL    HW119403   0.351   2.437   3.363
 6168SOL    HW219404   0.377   2.293   3.435
 6169SOL     OW19405   0.871   1.243   6.234
 6169SOL    HW119406   0.834   1.226   6.143
 6169SOL    HW219407   0.916   1.160   6.267
 6170SOL     OW19408   3.340   4.172   6.381
 6170SOL    HW119409   3.362   4.077   6.360
 6170SOL    HW219410   3.425   4.225   6.390
 6171SOL     OW19411   1.373   3.472   2.001
 6171SOL    HW119412   1.274   3.478   2.016
 6171SOL    HW219413   1.391   3.415   1.921
 6172SOL     OW19414   0.194   0.335   2.437
 6172SOL    HW119415   0.290   0.327   2.412
 6172SOL    HW219416   0.137   0.317   2.356
 6173SOL     OW19417   0.114   5.266   2.524
 6173SOL    HW119418   0.082   5.204   2.452
 6173SOL    HW219419   0.143   5.213   2.603
 6174SOL     OW19420   5.925   4.746   2.963
 6174SOL    HW119421   5.984   4.819   2.998
 6174SOL    HW219422   5.908   4.761   2.865
 6175SOL     OW19423   5.225   0.374   2.815
 6175SOL    HW119424   5.281   0.297   2.848
 6175SOL    HW219425   5.285   0.451   2.793
 6176SOL     OW19426   6.467   3.093   6.672
 6176SOL    HW119427   6.452   3.078   6.575
 6176SOL    HW219428   6.433   3.014   6.724
 6177SOL     OW19429   5.523   1.657   1.355
 6177SOL    HW119430   5.531   1.665   1.455
 6177SOL    HW219431   5.461   1.727   1.321
 6178SOL     OW19432   5.114   5.490   1.511
 6178SOL    HW119433   5.091   5.393   1.509
 6178SOL    HW219434   5.137   5.517   1.605
 6179SOL     OW19435   0.038   3.772   4.892
 6179SOL    HW119436   0.021   3.841   4.821
 6179SOL    HW219437   0.129   3.785   4.930
 6180SOL     OW19438   3.179   6.581   6.111
 6180SOL    HW119439   3.180   6.613   6.016
 6180SOL    HW219440   3.208   6.485   6.114
 6181SOL     OW19441   4.857   6.730   0.668
 6181SOL    HW119442   4.903   6.761   0.752
 6181SOL    HW219443   4.820   6.639   0.682
 6182SOL     OW19444   5.344   4.969   5.731
 6182SOL    HW119445   5.432   5.013   5.711
 6182SOL    HW219446   5.295   4.952   5.645
 6183SOL     OW19447   2.152   0.217   2.791
 6183SOL    HW119448   2.204   0.236   2.707
 6183SOL    HW219449   2.214   0.216   2.869
 6184SOL     OW19450   2.044   6.596   5.821
 6184SOL    HW119451   1.981   6.597   5.898
 6184SOL    HW219452   2.117   6.530   5.838
 6185SOL     OW19453   1.668   3.975   7.016
 6185SOL    HW119454   1.692   4.003   0.079
 6185SOL    HW219455   1.698   3.880   7.001
 6186SOL     OW19456   5.719   0.227   3.936
 6186SOL    HW119457   5.752   0.321   3.925
 6186SOL    HW219458   5.619   0.226   3.929
 6187SOL     OW19459   4.934   4.626   4.024
 6187SOL    HW119460   4.848   4.676   4.014
 6187SOL    HW219461   4.916   4.535   4.060
 6188SOL     OW19462   2.505   6.028   1.109
 6188SOL    HW119463   2.563   6.081   1.170
 6188SOL    HW219464   2.479   5.942   1.154
 6189SOL     OW19465   4.511   4.649   3.997
 6189SOL    HW119466   4.416   4.663   3.969
 6189SOL    HW219467   4.518   4.564   4.050
 6190SOL     OW19468   5.746   3.651   5.786
 6190SOL    HW119469   5.827   3.702   5.755
 6190SOL    HW219470   5.675   3.716   5.814
 6191SOL     OW19471   4.920   2.934   0.512
 6191SOL    HW119472   4.886   2.875   0.586
 6191SOL    HW219473   4.986   2.882   0.457
 6192SOL     OW19474   4.029   3.631   0.527
 6192SOL    HW119475   3.991   3.697   0.591
 6192SOL    HW219476   4.056   3.548   0.575
 6193SOL     OW19477   4.010   0.651   2.416
 6193SOL    HW119478   3.996   0.666   2.514
 6193SOL    HW219479   3.968   0.726   2.365
 6194SOL     OW19480   1.755   6.753   6.886
 6194SOL    HW119481   1.736   6.666   6.931
 6194SOL    HW219482   1.682   6.819   6.908
 6195SOL     OW19483   3.530   5.712   5.386
 6195SOL    HW119484   3.564   5.623   5.418
 6195SOL    HW219485   3.607   5.768   5.356
 6196SOL     OW19486   6.156   2.168   0.600
 6196SOL    HW119487   6.168   2.093   0.665
 6196SOL    HW219488   6.218   2.243   0.624
 6197SOL     OW19489   4.658   3.491   0.373
 6197SOL    HW119490   4.687   3.476   0.278
 6197SOL    HW219491   4.666   3.406   0.424
 6198SOL     OW19492   3.473   5.533   2.591
 6198SOL    HW119493   3.461   5.631   2.610
 6198SOL    HW219494   3.445   5.480   2.672
 6199SOL     OW19495   0.061   0.279   1.611
 6199SOL    HW119496   0.065   0.243   1.704
 6199SOL    HW219497   0.153   0.283   1.572
 6200SOL     OW19498   2.398   1.353   6.086
 6200SOL    HW119499   2.355   1.406   6.012
 6200SOL    HW219500   2.481   1.400   6.115
 6201SOL     OW19501   2.312   3.935   5.900
 6201SOL    HW119502   2.412   3.948   5.897
 6201SOL    HW219503   2.271   4.012   5.948
 6202SOL     OW19504   3.622   1.777   1.424
 6202SOL    HW119505   3.716   1.771   1.389
 6202SOL    HW219506   3.595   1.689   1.462
 6203SOL     OW19507   5.111   0.387   3.837
 6203SOL    HW119508   5.169   0.353   3.763
 6203SOL    HW219509   5.156   0.465   3.881
 6204SOL     OW19510   0.683   4.953   5.224
 6204SOL    HW119511   0.649   5.023   5.161
 6204SOL    HW219512   0.645   4.968   5.315
 6205SOL     OW19513   5.653   6.960   6.963
 6205SOL    HW119514   5.678   6.899   6.887
 6205SOL    HW219515   5.554   6.973   6.964
 6206SOL     OW19516   6.641   0.355   2.793
 6206SOL    HW119517   6.660   0.340   2.696
 6206SOL    HW219518   6.642   0.268   2.841
 6207SOL     OW19519   1.602   3.871   4.998
 6207SOL    HW119520   1.510   3.884   5.034
 6207SOL    HW219521   1.669   3.905   5.065
 6208SOL     OW19522   6.030   7.008   6.335
 6208SOL    HW119523   6.085   0.022   6.406
 6208SOL    HW219524   6.075   6.924   6.305
 6209SOL     OW19525   4.540   5.739   0.016
 6209SOL    HW119526   4.504   5.646   0.008
 6209SOL    HW219527   4.608   5.754   6.974
 6210SOL     OW19528   5.483   4.531   3.394
 6210SOL    HW119529   5.393   4.557   3.359
 6210SOL    HW219530   5.479   4.439   3.431
 6211SOL     OW19531   3.113   6.695   4.823
 6211SOL    HW119532   3.095   6.632   4.748
 6211SOL    HW219533   3.063   6.666   4.905
 6212SOL     OW19534   0.965   5.394   3.178
 6212SOL    HW119535   0.878   5.409   3.131
 6212SOL    HW219536   0.949   5.384   3.277
 6213SOL     OW19537   5.329   0.052   6.399
 6213SOL    HW119538   5.300   0.135   6.351
 6213SOL    HW219539   5.341   7.008   6.332
 6214SOL     OW19540   6.301   5.131   3.595
 6214SOL    HW119541   6.275   5.104   3.502
 6214SOL    HW219542   6.392   5.172   3.594
 6215SOL     OW19543   3.400   1.601   6.821
 6215SOL    HW119544   3.366   1.600   6.915
 6215SOL    HW219545   3.388   1.511   6.780
 6216SOL     OW19546   6.412   2.368   2.178
 6216SOL    HW119547   6.424   2.271   2.156
 6216SOL    HW219548   6.426   2.422   2.095
 6217SOL     OW19549   5.989   2.955   2.044
 6217SOL    HW119550   6.081   2.918   2.033
 6217SOL    HW219551   5.940   2.903   2.114
 6218SOL     OW19552   3.408   4.938   4.347
 6218SOL    HW119553   3.359   4.857   4.376
 6218SOL    HW219554   3.344   5.014   4.335
 6219SOL     OW19555   0.514   1.380   4.528
 6219SOL    HW119556   0.567   1.460   4.556
 6219SOL    HW219557   0.417   1.397   4.546
 6220SOL     OW19558   1.482   4.302   5.657
 6220SOL    HW119559   1.558   4.317   5.720
 6220SOL    HW219560   1.507   4.233   5.589
 6221SOL     OW19561   5.782   5.033   5.842
 6221SOL    HW119562   5.763   4.944   5.799
 6221SOL    HW219563   5.726   5.043   5.924
 6222SOL     OW19564   0.564   6.808   1.271
 6222SOL    HW119565   0.641   6.760   1.228
 6222SOL    HW219566   0.592   6.844   1.360
 6223SOL     OW19567   0.207   3.581   4.449
 6223SOL    HW119568   0.146   3.592   4.371
 6223SOL    HW219569   0.222   3.483   4.466
 6224SOL     OW19570   1.778   2.071   6.162
 6224SOL    HW119571   1.801   2.099   6.255
 6224SOL    HW219572   1.704   2.128   6.127
 6225SOL     OW19573   2.891   2.925   1.402
 6225SOL    HW119574   2.889   3.022   1.381
 6225SOL    HW219575   2.965   2.906   1.466
 6226SOL     OW19576   5.108   1.565   4.198
 6226SOL    HW119577   5.205   1.544   4.186
 6226SOL    HW219578   5.072   1.603   4.113
 6227SOL     OW19579   3.682   5.032   6.389
 6227SOL    HW119580   3.770   4.985   6.385
 6227SOL    HW219581   3.690   5.121   6.343
 6228SOL     OW19582   0.064   2.496   2.121
 6228SOL    HW119583   0.021   2.582   2.094
 6228SOL    HW219584   0.107   2.507   2.210
 6229SOL     OW19585   1.194   2.717   2.404
 6229SOL    HW119586   1.163   2.647   2.340
 6229SOL    HW219587   1.213   2.802   2.354
 6230SOL     OW19588   1.207   1.210   4.343
 6230SOL    HW119589   1.213   1.135   4.409
 6230SOL    HW219590   1.299   1.233   4.310
 6231SOL     OW19591   6.733   4.417   1.821
 6231SOL    HW119592   6.639   4.439   1.794
 6231SOL    HW219593   6.795   4.482   1.777
 6232SOL     OW19594   6.198   1.647   0.889
 6232SOL    HW119595   6.110   1.606   0.869
 6232SOL    HW219596   6.202   1.673   0.986
 6233SOL     OW19597   5.119   1.318   0.319
 6233SOL    HW119598   5.170   1.398   0.351
 6233SOL    HW219599   5.165   1.235   0.349
 6234SOL     OW19600   0.026   1.036   5.406
 6234SOL    HW119601   0.095   1.098   5.443
 6234SOL    HW219602   0.005   0.965   5.474
 6235SOL     OW19603   1.420   0.193   2.270
 6235SOL    HW119604   1.401   0.116   2.330
 6235SOL    HW219605   1.474   0.262   2.318
 6236SOL     OW19606   1.049   5.387   0.254
 6236SOL    HW119607   1.019   5.476   0.222
 6236SOL    HW219608   0.971   5.339   0.295
 6237SOL     OW19609   3.591   6.491   0.593
 6237SOL    HW119610   3.560   6.429   0.521
 6237SOL    HW219611   3.582   6.586   0.562
 6238SOL     OW19612   4.291   4.671   3.378
 6238SOL    HW119613   4.345   4.756   3.374
 6238SOL    HW219614   4.324   4.614   3.452
 6239SOL     OW19615   2.853   6.672   1.731
 6239SOL    HW119616   2.791   6.750   1.719
 6239SOL    HW219617   2.815   6.593   1.683
 6240SOL     OW19618   3.028   2.440   0.293
 6240SOL    HW119619   3.116   2.460   0.249
 6240SOL    HW219620   2.956   2.493   0.248
 6241SOL     OW19621   2.532   0.973   2.645
 6241SOL    HW119622   2.599   0.981   2.719
 6241SOL    HW219623   2.447   0.935   2.682
 6242SOL     OW19624   5.491   0.996   3.559
 6242SOL    HW119625   5.486   1.072   3.624
 6242SOL    HW219626   5.460   0.912   3.602
 6243SOL     OW19627   5.446   6.909   3.112
 6243SOL    HW119628   5.459   6.864   3.201
 6243SOL    HW219629   5.486   7.000   3.115
 6244SOL     OW19630   1.845   2.206   1.742
 6244SOL    HW119631   1.833   2.171   1.649
 6244SOL    HW219632   1.890   2.295   1.738
 6245SOL     OW19633   2.784   4.568   1.389
 6245SOL    HW119634   2.776   4.490   1.451
 6245SOL    HW219635   2.814   4.649   1.440
 6246SOL     OW19636   2.725   2.698   6.232
 6246SOL    HW119637   2.633   2.731   6.249
 6246SOL    HW219638   2.733   2.603   6.260
 6247SOL     OW19639   0.776   6.318   3.156
 6247SOL    HW119640   0.696   6.258   3.160
 6247SOL    HW219641   0.789   6.363   3.244
 6248SOL     OW19642   1.936   3.797   1.185
 6248SOL    HW119643   1.839   3.791   1.207
 6248SOL    HW219644   1.966   3.892   1.191
 6249SOL     OW19645   0.944   4.476   0.234
 6249SOL    HW119646   0.936   4.524   0.147
 6249SOL    HW219647   1.022   4.512   0.286
 6250SOL     OW19648   6.188   5.852   0.466
 6250SOL    HW119649   6.165   5.810   0.378
 6250SOL    HW219650   6.287   5.855   0.476
 6251SOL     OW19651   3.732   6.824   0.317
 6251SOL    HW119652   3.751   6.850   0.223
 6251SOL    HW219653   3.788   6.745   0.342
 6252SOL     OW19654   1.810   6.545   4.529
 6252SOL    HW119655   1.879   6.603   4.486
 6252SOL    HW219656   1.751   6.601   4.587
 6253SOL     OW19657   1.864   3.827   2.633
 6253SOL    HW119658   1.892   3.733   2.649
 6253SOL    HW219659   1.817   3.862   2.714
 6254SOL     OW19660   5.565   0.927   0.645
 6254SOL    HW119661   5.606   0.918   0.554
 6254SOL    HW219662   5.467   0.945   0.635
 6255SOL     OW19663   1.919   0.915   1.216
 6255SOL    HW119664   1.870   0.829   1.230
 6255SOL    HW219665   1.899   0.950   1.124
 6256SOL     OW19666   3.675   4.898   3.142
 6256SOL    HW119667   3.737   4.913   3.219
 6256SOL    HW219668   3.713   4.827   3.082
 6257SOL     OW19669   5.734   2.380   1.042
 6257SOL    HW119670   5.820   2.358   0.996
 6257SOL    HW219671   5.716   2.312   1.112
 6258SOL     OW19672   4.634   0.065   3.469
 6258SOL    HW119673   4.570   0.127   3.514
 6258SOL    HW219674   4.677   0.112   3.392
 6259SOL     OW19675   2.738   2.048   1.016
 6259SOL    HW119676   2.822   2.001   1.043
 6259SOL    HW219677   2.760   2.120   0.949
 6260SOL     OW19678   2.850   4.254   0.156
 6260SOL    HW119679   2.756   4.273   0.129
 6260SOL    HW219680   2.889   4.184   0.096
 6261SOL     OW19681   3.139   0.152   6.498
 6261SOL    HW119682   3.114   0.095   6.577
 6261SOL    HW219683   3.146   0.247   6.527
 6262SOL     OW19684   1.602   3.944   0.945
 6262SOL    HW119685   1.555   3.987   1.021
 6262SOL    HW219686   1.684   3.997   0.922
 6263SOL     OW19687   0.464   0.499   5.662
 6263SOL    HW119688   0.433   0.474   5.754
 6263SOL    HW219689   0.405   0.571   5.626
 6264SOL     OW19690   1.504   6.848   0.783
 6264SOL    HW119691   1.589   6.889   0.751
 6264SOL    HW219692   1.492   6.758   0.741
 6265SOL     OW19693   3.425   3.866   1.213
 6265SOL    HW119694   3.521   3.871   1.184
 6265SOL    HW219695   3.415   3.797   1.284
 6266SOL     OW19696   4.382   0.959   4.754
 6266SOL    HW119697   4.408   0.945   4.850
 6266SOL    HW219698   4.447   0.912   4.695
 6267SOL     OW19699   3.645   0.779   0.251
 6267SOL    HW119700   3.566   0.808   0.304
 6267SOL    HW219701   3.638   0.681   0.231
 6268SOL     OW19702   3.194   6.278   2.781
 6268SOL    HW119703   3.155   6.366   2.808
 6268SOL    HW219704   3.274   6.258   2.838
 6269SOL     OW19705   6.631   5.765   2.507
 6269SOL    HW119706   6.704   5.710   2.549
 6269SOL    HW219707   6.578   5.810   2.579
 6270SOL     OW19708   1.876   0.404   4.956
 6270SOL    HW119709   1.838   0.351   5.032
 6270SOL    HW219710   1.825   0.490   4.947
 6271SOL     OW19711   6.209   2.249   5.252
 6271SOL    HW119712   6.236   2.159   5.287
 6271SOL    HW219713   6.277   2.280   5.185
 6272SOL     OW19714   0.930   2.700   5.740
 6272SOL    HW119715   0.950   2.720   5.836
 6272SOL    HW219716   0.998   2.746   5.682
 6273SOL     OW19717   1.317   0.736   2.815
 6273SOL    HW119718   1.250   0.666   2.839
 6273SOL    HW219719   1.270   0.820   2.789
 6274SOL     OW19720   2.463   5.515   6.034
 6274SOL    HW119721   2.548   5.515   6.086
 6274SOL    HW219722   2.468   5.447   5.961
 6275SOL     OW19723   2.333   6.742   4.941
 6275SOL    HW119724   2.371   6.688   4.867
 6275SOL    HW219725   2.237   6.717   4.955
 6276SOL     OW19726   1.309   5.277   3.848
 6276SOL    HW119727   1.285   5.373   3.853
 6276SOL    HW219728   1.324   5.241   3.940
 6277SOL     OW19729   5.312   3.033   2.279
 6277SOL    HW119730   5.246   3.033   2.204
 6277SOL    HW219731   5.334   2.938   2.304
 6278SOL     OW19732   4.748   0.359   4.931
 6278SOL    HW119733   4.714   0.346   4.838
 6278SOL    HW219734   4.684   0.416   4.982
 6279SOL     OW19735   3.971   0.899   6.456
 6279SOL    HW119736   4.049   0.907   6.519
 6279SOL    HW219737   3.958   0.985   6.407
 6280SOL     OW19738   0.313   2.673   5.934
 6280SOL    HW119739   0.373   2.702   5.860
 6280SOL    HW219740   0.288   2.577   5.922
 6281SOL     OW19741   2.131   6.321   5.026
 6281SOL    HW119742   2.230   6.305   5.025
 6281SOL    HW219743   2.090   6.270   5.101
 6282SOL     OW19744   1.496   0.342   4.917
 6282SOL    HW119745   1.458   0.427   4.880
 6282SOL    HW219746   1.580   0.318   4.867
 6283SOL     OW19747   6.114   3.096   4.912
 6283SOL    HW119748   6.023   3.120   4.947
 6283SOL    HW219749   6.124   2.997   4.909
 6284SOL     OW19750   2.109   5.702   4.820
 6284SOL    HW119751   2.080   5.654   4.903
 6284SOL    HW219752   2.055   5.785   4.808
 6285SOL     OW19753   1.582   2.833   3.871
 6285SOL    HW119754   1.545   2.746   3.841
 6285SOL    HW219755   1.519   2.875   3.937
 6286SOL     OW19756   6.061   2.148   4.033
 6286SOL    HW119757   6.071   2.234   4.084
 6286SOL    HW219758   6.133   2.142   3.964
 6287SOL     OW19759   4.265   4.718   2.830
 6287SOL    HW119760   4.207   4.793   2.800
 6287SOL    HW219761   4.345   4.712   2.770
 6288SOL     OW19762   5.828   4.339   2.039
 6288SOL    HW119763   5.756   4.276   2.068
 6288SOL    HW219764   5.818   4.356   1.941
 6289SOL     OW19765   1.400   3.866   2.546
 6289SOL    HW119766   1.446   3.955   2.549
 6289SOL    HW219767   1.467   3.793   2.534
 6290SOL     OW19768   5.982   4.157   4.223
 6290SOL    HW119769   5.967   4.060   4.244
 6290SOL    HW219770   5.897   4.208   4.241
 6291SOL     OW19771   3.773   3.152   3.152
 6291SOL    HW119772   3.791   3.081   3.083
 6291SOL    HW219773   3.859   3.181   3.193
 6292SOL     OW19774   0.631   2.704   3.348
 6292SOL    HW119775   0.672   2.747   3.429
 6292SOL    HW219776   0.689   2.629   3.317
 6293SOL     OW19777   3.961   6.903   6.926
 6293SOL    HW119778   4.057   6.922   6.906
 6293SOL    HW219779   3.949   6.892   7.025
 6294SOL     OW19780   3.517   4.923   3.812
 6294SOL    HW119781   3.447   4.935   3.883
 6294SOL    HW219782   3.601   4.888   3.853
 6295SOL     OW19783   5.227   5.009   5.461
 6295SOL    HW119784   5.176   5.090   5.433
 6295SOL    HW219785   5.190   4.929   5.415
 6296SOL     OW19786   6.814   6.306   4.606
 6296SOL    HW119787   6.809   6.246   4.686
 6296SOL    HW219788   6.727   6.353   4.594
 6297SOL     OW19789   4.929   6.825   5.243
 6297SOL    HW119790   4.869   6.881   5.300
 6297SOL    HW219791   5.024   6.855   5.254
 6298SOL     OW19792   1.386   2.579   5.859
 6298SOL    HW119793   1.299   2.539   5.889
 6298SOL    HW219794   1.368   2.665   5.811
 6299SOL     OW19795   5.147   1.909   0.416
 6299SOL    HW119796   5.117   1.990   0.467
 6299SOL    HW219797   5.229   1.932   0.364
 6300SOL     OW19798   5.111   1.248   4.827
 6300SOL    HW119799   5.034   1.240   4.763
 6300SOL    HW219800   5.093   1.323   4.891
 6301SOL     OW19801   2.564   0.330   0.850
 6301SOL    HW119802   2.643   0.315   0.910
 6301SOL    HW219803   2.559   0.427   0.826
 6302SOL     OW19804   1.616   1.976   4.484
 6302SOL    HW119805   1.619   2.060   4.539
 6302SOL    HW219806   1.641   1.998   4.390
 6303SOL     OW19807   2.471   0.884   4.442
 6303SOL    HW119808   2.538   0.842   4.504
 6303SOL    HW219809   2.509   0.969   4.406
 6304SOL     OW19810   2.101   1.115   1.024
 6304SOL    HW119811   2.197   1.135   1.046
 6304SOL    HW219812   2.058   1.071   1.103
 6305SOL     OW19813   6.529   6.780   0.581
 6305SOL    HW119814   6.621   6.818   0.575
 6305SOL    HW219815   6.462   6.854   0.583
 6306SOL     OW19816   0.937   4.206   4.575
 6306SOL    HW119817   0.838   4.220   4.579
 6306SOL    HW219818   0.957   4.126   4.517
 6307SOL     OW19819   4.171   3.979   5.918
 6307SOL    HW119820   4.201   4.045   5.850
 6307SOL    HW219821   4.241   3.969   5.988
 6308SOL     OW19822   1.624   1.956   4.867
 6308SOL    HW119823   1.603   1.887   4.798
 6308SOL    HW219824   1.627   2.047   4.825
 6309SOL     OW19825   4.818   3.971   4.508
 6309SOL    HW119826   4.845   4.053   4.456
 6309SOL    HW219827   4.775   3.999   4.594
 6310SOL     OW19828   1.886   5.360   4.177
 6310SOL    HW119829   1.932   5.377   4.264
 6310SOL    HW219830   1.813   5.427   4.164
 6311SOL     OW19831   6.072   0.596   5.520
 6311SOL    HW119832   6.043   0.677   5.571
 6311SOL    HW219833   5.997   0.564   5.462
 6312SOL     OW19834   5.604   5.064   5.626
 6312SOL    HW119835   5.654   5.111   5.698
 6312SOL    HW219836   5.634   4.969   5.622
 6313SOL     OW19837   1.441   6.309   3.169
 6313SOL    HW119838   1.425   6.393   3.117
 6313SOL    HW219839   1.367   6.244   3.151
 6314SOL     OW19840   4.080   6.825   1.576
 6314SOL    HW119841   4.062   6.727   1.572
 6314SOL    HW219842   4.164   6.846   1.526
 6315SOL     OW19843   3.823   2.890   6.734
 6315SOL    HW119844   3.898   2.931   6.683
 6315SOL    HW219845   3.774   2.825   6.675
 6316SOL     OW19846   4.729   2.176   6.359
 6316SOL    HW119847   4.652   2.157   6.420
 6316SOL    HW219848   4.814   2.143   6.402
 6317SOL     OW19849   5.381   5.437   3.601
 6317SOL    HW119850   5.382   5.536   3.617
 6317SOL    HW219851   5.446   5.414   3.528
 6318SOL     OW19852   2.964   1.806   5.185
 6318SOL    HW119853   2.885   1.771   5.236
 6318SOL    HW219854   3.046   1.800   5.243
 6319SOL     OW19855   0.232   2.750   3.063
 6319SOL    HW119856   0.245   2.658   3.099
 6319SOL    HW219857   0.239   2.816   3.138
 6320SOL     OW19858   6.133   4.804   4.201
 6320SOL    HW119859   6.148   4.826   4.298
 6320SOL    HW219860   6.051   4.851   4.169
 6321SOL     OW19861   3.464   5.286   0.894
 6321SOL    HW119862   3.523   5.208   0.872
 6321SOL    HW219863   3.383   5.252   0.942
 6322SOL     OW19864   1.566   2.261   6.572
 6322SOL    HW119865   1.575   2.356   6.543
 6322SOL    HW219866   1.605   2.250   6.663
 6323SOL     OW19867   3.365   2.711   1.057
 6323SOL    HW119868   3.371   2.628   1.111
 6323SOL    HW219869   3.391   2.691   0.962
 6324SOL     OW19870   4.817   0.741   6.260
 6324SOL    HW119871   4.900   0.764   6.311
 6324SOL    HW219872   4.784   0.651   6.289
 6325SOL     OW19873   1.238   1.971   2.169
 6325SOL    HW119874   1.200   1.952   2.260
 6325SOL    HW219875   1.192   1.914   2.101
 6326SOL     OW19876   5.265   6.215   1.376
 6326SOL    HW119877   5.208   6.201   1.295
 6326SOL    HW219878   5.352   6.257   1.349
 6327SOL     OW19879   6.875   0.237   5.318
 6327SOL    HW119880   6.776   0.256   5.315
 6327SOL    HW219881   6.896   0.162   5.256
 6328SOL     OW19882   1.764   3.634   0.495
 6328SOL    HW119883   1.841   3.631   0.431
 6328SOL    HW219884   1.776   3.709   0.560
 6329SOL     OW19885   1.897   2.693   3.075
 6329SOL    HW119886   1.809   2.646   3.072
 6329SOL    HW219887   1.948   2.665   3.157
 6330SOL     OW19888   4.740   0.769   1.544
 6330SOL    HW119889   4.734   0.686   1.599
 6330SOL    HW219890   4.722   0.849   1.602
 6331SOL     OW19891   5.832   2.159   0.531
 6331SOL    HW119892   5.740   2.191   0.550
 6331SOL    HW219893   5.885   2.156   0.615
 6332SOL     OW19894   0.116   4.652   2.535
 6332SOL    HW119895   0.053   4.591   2.583
 6332SOL    HW219896   0.210   4.624   2.552
 6333SOL     OW19897   3.626   5.054   4.260
 6333SOL    HW119898   3.549   5.004   4.300
 6333SOL    HW219899   3.706   4.995   4.256
 6334SOL     OW19900   2.304   0.274   2.553
 6334SOL    HW119901   2.345   0.188   2.523
 6334SOL    HW219902   2.362   0.351   2.524
 6335SOL     OW19903   4.907   1.721   0.734
 6335SOL    HW119904   4.877   1.757   0.646
 6335SOL    HW219905   4.932   1.624   0.724
 6336SOL     OW19906   6.957   1.958   5.856
 6336SOL    HW119907   6.944   1.991   5.950
 6336SOL    HW219908   7.025   2.015   5.810
 6337SOL     OW19909   4.816   3.659   6.444
 6337SOL    HW119910   4.751   3.601   6.396
 6337SOL    HW219911   4.837   3.740   6.389
 6338SOL     OW19912   2.748   2.315   2.824
 6338SOL    HW119913   2.752   2.334   2.726
 6338SOL    HW219914   2.674   2.368   2.865
 6339SOL     OW19915   0.479   2.993   3.914
 6339SOL    HW119916   0.517   3.024   3.827
 6339SOL    HW219917   0.507   2.898   3.930
 6340SOL     OW19918   2.322   5.101   3.265
 6340SOL    HW119919   2.391   5.035   3.294
 6340SOL    HW219920   2.321   5.179   3.327
 6341SOL     OW19921   0.639   5.002   3.321
 6341SOL    HW119922   0.659   4.905   3.304
 6341SOL    HW219923   0.545   5.011   3.355
 6342SOL     OW19924   2.683   1.384   1.634
 6342SOL    HW119925   2.698   1.445   1.556
 6342SOL    HW219926   2.590   1.397   1.668
 6343SOL     OW19927   5.205   2.820   6.828
 6343SOL    HW119928   5.263   2.748   6.865
 6343SOL    HW219929   5.118   2.822   6.878
 6344SOL     OW19930   6.022   3.735   5.798
 6344SOL    HW119931   6.065   3.701   5.715
 6344SOL    HW219932   6.046   3.676   5.875
 6345SOL     OW19933   4.336   1.254   1.975
 6345SOL    HW119934   4.330   1.156   1.952
 6345SOL    HW219935   4.411   1.269   2.039
 6346SOL     OW19936   6.912   3.513   3.491
 6346SOL    HW119937   6.832   3.556   3.533
 6346SOL    HW219938   6.984   3.581   3.478
 6347SOL     OW19939   2.579   0.468   1.489
 6347SOL    HW119940   2.596   0.474   1.587
 6347SOL    HW219941   2.481   0.475   1.470
 6348SOL     OW19942   1.192   3.917   5.431
 6348SOL    HW119943   1.245   3.867   5.362
 6348SOL    HW219944   1.199   4.015   5.414
 6349SOL     OW19945   2.914   0.423   1.230
 6349SOL    HW119946   2.862   0.340   1.250
 6349SOL    HW219947   3.009   0.410   1.257
 6350SOL     OW19948   2.461   4.955   3.910
 6350SOL    HW119949   2.560   4.941   3.913
 6350SOL    HW219950   2.423   4.941   4.001
 6351SOL     OW19951   6.633   3.352   2.349
 6351SOL    HW119952   6.584   3.391   2.427
 6351SOL    HW219953   6.702   3.418   2.317
 6352SOL     OW19954   1.871   4.901   4.415
 6352SOL    HW119955   1.846   4.983   4.466
 6352SOL    HW219956   1.867   4.919   4.317
 6353SOL     OW19957   6.423   0.668   6.075
 6353SOL    HW119958   6.404   0.751   6.127
 6353SOL    HW219959   6.498   0.618   6.119
 6354SOL     OW19960   1.208   6.962   2.510
 6354SOL    HW119961   1.192   7.004   2.420
 6354SOL    HW219962   1.201   0.002   2.581
 6355SOL     OW19963   1.202   4.867   5.511
 6355SOL    HW119964   1.134   4.915   5.454
 6355SOL    HW219965   1.204   4.770   5.487
 6356SOL     OW19966   4.634   4.657   2.125
 6356SOL    HW119967   4.605   4.627   2.216
 6356SOL    HW219968   4.710   4.600   2.094
 6357SOL     OW19969   4.934   2.503   1.644
 6357SOL    HW119970   4.864   2.446   1.687
 6357SOL    HW219971   4.942   2.589   1.693
 6358SOL     OW19972   0.602   2.477   5.766
 6358SOL    HW119973   0.689   2.431   5.747
 6358SOL    HW219974   0.603   2.568   5.725
 6359SOL     OW19975   5.863   6.862   6.069
 6359SOL    HW119976   5.886   6.867   5.972
 6359SOL    HW219977   5.929   6.916   6.122
 6360SOL     OW19978   2.220   4.212   4.101
 6360SOL    HW119979   2.224   4.113   4.088
 6360SOL    HW219980   2.127   4.244   4.085
 6361SOL     OW19981   5.795   0.181   0.188
 6361SOL    HW119982   5.834   0.117   0.122
 6361SOL    HW219983   5.697   0.191   0.171
 6362SOL     OW19984   5.778   5.142   6.281
 6362SOL    HW119985   5.876   5.162   6.277
 6362SOL    HW219986   5.730   5.220   6.322
 6363SOL     OW19987   2.581   4.888   3.088
 6363SOL    HW119988   2.578   4.880   3.188
 6363SOL    HW219989   2.659   4.835   3.053
 6364SOL     OW19990   3.002   1.021   5.548
 6364SOL    HW119991   3.037   0.947   5.491
 6364SOL    HW219992   2.946   1.082   5.492
 6365SOL     OW19993   4.721   6.808   4.293
 6365SOL    HW119994   4.684   6.899   4.313
 6365SOL    HW219995   4.820   6.814   4.285
 6366SOL     OW19996   0.294   6.322   6.598
 6366SOL    HW119997   0.262   6.300   6.506
 6366SOL    HW219998   0.306   6.421   6.606
 6367SOL     OW19999   4.172   0.544   4.253
 6367SOL    HW120000   4.195   0.638   4.229
 6367SOL    HW220001   4.073   0.537   4.265
 6368SOL     OW20002   3.281   0.356   3.196
 6368SOL    HW120003   3.225   0.403   3.264
 6368SOL    HW220004   3.280   0.408   3.110
 6369SOL     OW20005   2.766   5.093   4.600
 6369SOL    HW120006   2.737   5.022   4.536
 6369SOL    HW220007   2.746   5.064   4.694
 6370SOL     OW20008   1.589   3.252   2.698
 6370SOL    HW120009   1.661   3.281   2.761
 6370SOL    HW220010   1.630   3.224   2.611
 6371SOL     OW20011   5.049   3.161   3.967
 6371SOL    HW120012   5.121   3.093   3.955
 6371SOL    HW220013   5.081   3.251   3.936
 6372SOL     OW20014   3.078   6.909   1.852
 6372SOL    HW120015   3.054   6.888   1.757
 6372SOL    HW220016   3.018   6.857   1.913
 6373SOL     OW20017   6.195   4.078   4.066
 6373SOL    HW120018   6.228   4.017   4.137
 6373SOL    HW220019   6.109   4.121   4.097
 6374SOL     OW20020   3.790   3.688   4.272
 6374SOL    HW120021   3.805   3.617   4.341
 6374SOL    HW220022   3.866   3.752   4.272
 6375SOL     OW20023   0.680   1.739   4.074
 6375SOL    HW120024   0.712   1.690   4.155
 6375SOL    HW220025   0.636   1.675   4.011
 6376SOL     OW20026   6.452   2.451   5.494
 6376SOL    HW120027   6.489   2.412   5.409
 6376SOL    HW220028   6.445   2.380   5.563
 6377SOL     OW20029   6.905   1.703   6.149
 6377SOL    HW120030   7.002   1.682   6.154
 6377SOL    HW220031   6.863   1.690   6.239
 6378SOL     OW20032   5.648   4.959   3.713
 6378SOL    HW120033   5.576   4.904   3.669
 6378SOL    HW220034   5.737   4.922   3.689
 6379SOL     OW20035   2.157   4.807   4.436
 6379SOL    HW120036   2.182   4.732   4.497
 6379SOL    HW220037   2.059   4.826   4.444
 6380SOL     OW20038   1.227   1.404   5.516
 6380SOL    HW120039   1.128   1.403   5.503
 6380SOL    HW220040   1.255   1.325   5.570
 6381SOL     OW20041   3.506   3.434   3.289
 6381SOL    HW120042   3.494   3.492   3.208
 6381SOL    HW220043   3.429   3.370   3.295
 6382SOL     OW20044   1.124   2.813   0.509
 6382SOL    HW120045   1.195   2.767   0.561
 6382SOL    HW220046   1.097   2.897   0.557
 6383SOL     OW20047   2.141   2.436   2.929
 6383SOL    HW120048   2.119   2.509   2.865
 6383SOL    HW220049   2.181   2.359   2.879
 6384SOL     OW20050   5.779   4.578   1.337
 6384SOL    HW120051   5.732   4.490   1.348
 6384SOL    HW220052   5.716   4.646   1.300
 6385SOL     OW20053   6.771   5.250   4.262
 6385SOL    HW120054   6.863   5.246   4.222
 6385SOL    HW220055   6.761   5.177   4.329
 6386SOL     OW20056   2.492   4.120   6.960
 6386SOL    HW120057   2.436   4.171   7.025
 6386SOL    HW220058   2.499   4.170   6.874
 6387SOL     OW20059   0.626   1.819   6.684
 6387SOL    HW120060   0.628   1.734   6.737
 6387SOL    HW220061   0.713   1.867   6.693
 6388SOL     OW20062   4.407   4.497   1.736
 6388SOL    HW120063   4.433   4.428   1.803
 6388SOL    HW220064   4.488   4.551   1.711
 6389SOL     OW20065   0.628   6.008   2.122
 6389SOL    HW120066   0.531   5.999   2.100
 6389SOL    HW220067   0.653   6.105   2.121
 6390SOL     OW20068   0.959   2.410   4.245
 6390SOL    HW120069   0.967   2.416   4.345
 6390SOL    HW220070   1.010   2.485   4.203
 6391SOL     OW20071   3.151   0.277   6.082
 6391SOL    HW120072   3.175   0.306   6.174
 6391SOL    HW220073   3.213   0.205   6.051
 6392SOL     OW20074   2.524   6.839   3.348
 6392SOL    HW120075   2.506   6.765   3.283
 6392SOL    HW220076   2.440   6.861   3.398
 6393SOL     OW20077   6.194   6.531   1.491
 6393SOL    HW120078   6.274   6.478   1.463
 6393SOL    HW220079   6.117   6.509   1.432
 6394SOL     OW20080   2.501   4.060   1.156
 6394SOL    HW120081   2.412   4.106   1.153
 6394SOL    HW220082   2.565   4.111   1.098
 6395SOL     OW20083   5.863   2.757   1.791
 6395SOL    HW120084   5.864   2.661   1.819
 6395SOL    HW220085   5.945   2.777   1.737
 6396SOL     OW20086   5.286   2.742   6.580
 6396SOL    HW120087   5.240   2.787   6.658
 6396SOL    HW220088   5.384   2.736   6.599
 6397SOL     OW20089   5.606   1.815   6.892
 6397SOL    HW120090   5.639   1.755   6.965
 6397SOL    HW220091   5.678   1.828   6.824
 6398SOL     OW20092   3.378   0.784   0.512
 6398SOL    HW120093   3.368   0.826   0.422
 6398SOL    HW220094   3.290   0.783   0.559
 6399SOL     OW20095   2.044   5.080   6.149
 6399SOL    HW120096   2.078   5.005   6.093
 6399SOL    HW220097   2.049   5.055   6.246
 6400SOL     OW20098   1.960   5.774   3.246
 6400SOL    HW120099   1.976   5.685   3.203
 6400SOL    HW220100   2.004   5.775   3.336
 6401SOL     OW20101   6.849   4.366   3.504
 6401SOL    HW120102   6.904   4.311   3.567
 6401SOL    HW220103   6.899   4.448   3.479
 6402SOL     OW20104   3.011   0.716   2.939
 6402SOL    HW120105   3.082   0.744   2.875
 6402SOL    HW220106   2.921   0.741   2.902
 6403SOL     OW20107   0.630   6.400   6.842
 6403SOL    HW120108   0.556   6.395   6.909
 6403SOL    HW220109   0.621   6.323   6.778
 6404SOL     OW20110   4.240   1.260   3.043
 6404SOL    HW120111   4.213   1.355   3.028
 6404SOL    HW220112   4.167   1.211   3.091
 6405SOL     OW20113   1.610   1.191   3.636
 6405SOL    HW120114   1.627   1.160   3.730
 6405SOL    HW220115   1.543   1.265   3.637
 6406SOL     OW20116   1.493   2.568   3.833
 6406SOL    HW120117   1.586   2.547   3.860
 6406SOL    HW220118   1.485   2.563   3.733
 6407SOL     OW20119   3.179   6.598   3.163
 6407SOL    HW120120   3.138   6.686   3.186
 6407SOL    HW220121   3.183   6.540   3.244
 6408SOL     OW20122   6.363   2.480   6.992
 6408SOL    HW120123   6.416   2.426   0.028
 6408SOL    HW220124   6.273   2.499   0.000
 6409SOL     OW20125   0.230   4.200   3.480
 6409SOL    HW120126   0.242   4.118   3.424
 6409SOL    HW220127   0.245   4.178   3.576
 6410SOL     OW20128   1.465   1.789   0.882
 6410SOL    HW120129   1.505   1.719   0.824
 6410SOL    HW220130   1.374   1.760   0.912
 6411SOL     OW20131   0.947   3.101   3.117
 6411SOL    HW120132   1.029   3.109   3.060
 6411SOL    HW220133   0.954   3.020   3.175
 6412SOL     OW20134   0.030   2.852   5.476
 6412SOL    HW120135   0.021   2.947   5.505
 6412SOL    HW220136   6.994   2.834   5.402
 6413SOL     OW20137   5.335   4.949   2.858
 6413SOL    HW120138   5.283   4.975   2.777
 6413SOL    HW220139   5.341   5.027   2.920
 6414SOL     OW20140   6.074   0.789   1.903
 6414SOL    HW120141   6.053   0.691   1.908
 6414SOL    HW220142   6.022   0.837   1.973
 6415SOL     OW20143   2.998   1.925   2.926
 6415SOL    HW120144   2.986   1.865   2.847
 6415SOL    HW220145   2.914   1.978   2.940
 6416SOL     OW20146   0.471   0.873   6.153
 6416SOL    HW120147   0.390   0.932   6.147
 6416SOL    HW220148   0.451   0.796   6.213
 6417SOL     OW20149   0.597   4.962   2.653
 6417SOL    HW120150   0.526   4.921   2.596
 6417SOL    HW220151   0.555   5.027   2.717
 6418SOL     OW20152   6.490   4.894   2.500
 6418SOL    HW120153   6.413   4.931   2.552
 6418SOL    HW220154   6.481   4.920   2.404
 6419SOL     OW20155   2.813   5.093   2.429
 6419SOL    HW120156   2.827   5.177   2.482
 6419SOL    HW220157   2.884   5.085   2.360
 6420SOL     OW20158   2.935   3.860   5.499
 6420SOL    HW120159   2.863   3.791   5.506
 6420SOL    HW220160   3.020   3.816   5.469
 6421SOL     OW20161   5.994   1.942   1.907
 6421SOL    HW120162   5.967   1.848   1.926
 6421SOL    HW220163   6.067   1.969   1.970
 6422SOL     OW20164   6.710   0.384   3.895
 6422SOL    HW120165   6.719   0.352   3.801
 6422SOL    HW220166   6.801   0.392   3.936
 6423SOL     OW20167   4.510   4.479   2.275
 6423SOL    HW120168   4.539   4.432   2.358
 6423SOL    HW220169   4.518   4.417   2.196
 6424SOL     OW20170   6.565   5.074   5.729
 6424SOL    HW120171   6.640   5.076   5.795
 6424SOL    HW220172   6.535   5.167   5.709
 6425SOL     OW20173   0.242   5.556   4.179
 6425SOL    HW120174   0.320   5.494   4.175
 6425SOL    HW220175   0.175   5.522   4.245
 6426SOL     OW20176   0.831   4.275   3.772
 6426SOL    HW120177   0.873   4.261   3.682
 6426SOL    HW220178   0.811   4.186   3.814
 6427SOL     OW20179   1.837   3.385   0.193
 6427SOL    HW120180   1.751   3.437   0.190
 6427SOL    HW220181   1.838   3.319   0.118
 6428SOL     OW20182   6.356   3.293   0.580
 6428SOL    HW120183   6.326   3.233   0.655
 6428SOL    HW220184   6.290   3.288   0.505
 6429SOL     OW20185   0.622   1.255   4.866
 6429SOL    HW120186   0.623   1.355   4.871
 6429SOL    HW220187   0.666   1.226   4.781
 6430SOL     OW20188   4.741   1.223   1.960
 6430SOL    HW120189   4.741   1.149   2.027
 6430SOL    HW220190   4.712   1.308   2.004
 6431SOL     OW20191   5.523   0.142   3.140
 6431SOL    HW120192   5.479   0.176   3.223
 6431SOL    HW220193   5.545   0.218   3.080
 6432SOL     OW20194   4.444   4.157   6.984
 6432SOL    HW120195   4.476   4.244   6.947
 6432SOL    HW220196   4.396   4.173   0.040
 6433SOL     OW20197   3.403   4.338   1.129
 6433SOL    HW120198   3.347   4.256   1.118
 6433SOL    HW220199   3.432   4.346   1.224
 6434SOL     OW20200   1.369   3.565   0.634
 6434SOL    HW120201   1.387   3.660   0.608
 6434SOL    HW220202   1.445   3.508   0.605
 6435SOL     OW20203   4.157   5.267   0.094
 6435SOL    HW120204   4.182   5.269   7.027
 6435SOL    HW220205   4.111   5.181   0.115
 6436SOL     OW20206   2.059   3.313   4.254
 6436SOL    HW120207   2.005   3.366   4.320
 6436SOL    HW220208   2.078   3.370   4.174
 6437SOL     OW20209   1.343   0.992   0.931
 6437SOL    HW120210   1.363   1.004   0.834
 6437SOL    HW220211   1.429   0.983   0.982
 6438SOL     OW20212   7.014   4.641   5.756
 6438SOL    HW120213   6.972   4.560   5.797
 6438SOL    HW220214   0.061   4.671   5.812
 6439SOL     OW20215   0.392   6.918   1.628
 6439SOL    HW120216   0.408   6.986   1.698
 6439SOL    HW220217   0.308   6.868   1.647
 6440SOL     OW20218   2.309   1.421   2.258
 6440SOL    HW120219   2.379   1.350   2.247
 6440SOL    HW220220   2.326   1.471   2.343
 6441SOL     OW20221   0.942   0.076   2.397
 6441SOL    HW120222   1.037   0.063   2.366
 6441SOL    HW220223   0.884   0.095   2.318
 6442SOL     OW20224   1.362   1.307   3.534
 6442SOL    HW120225   1.303   1.374   3.489
 6442SOL    HW220226   1.308   1.226   3.558
 6443SOL     OW20227   3.548   2.737   0.515
 6443SOL    HW120228   3.578   2.789   0.595
 6443SOL    HW220229   3.605   2.656   0.504
 6444SOL     OW20230   0.889   2.575   3.893
 6444SOL    HW120231   0.837   2.580   3.978
 6444SOL    HW220232   0.831   2.538   3.821
 6445SOL     OW20233   4.816   2.409   5.705
 6445SOL    HW120234   4.824   2.492   5.762
 6445SOL    HW220235   4.727   2.366   5.722
 6446SOL     OW20236   0.555   2.124   6.064
 6446SOL    HW120237   0.610   2.055   6.017
 6446SOL    HW220238   0.609   2.207   6.075
 6447SOL     OW20239   0.218   6.115   2.319
 6447SOL    HW120240   0.249   6.209   2.329
 6447SOL    HW220241   0.251   6.060   2.396
 6448SOL     OW20242   6.182   4.663   2.408
 6448SOL    HW120243   6.157   4.579   2.360
 6448SOL    HW220244   6.256   4.645   2.472
 6449SOL     OW20245   3.749   4.606   1.398
 6449SOL    HW120246   3.702   4.686   1.436
 6449SOL    HW220247   3.699   4.574   1.318
 6450SOL     OW20248   6.926   3.567   1.523
 6450SOL    HW120249   6.905   3.613   1.436
 6450SOL    HW220250   6.944   3.636   1.594
 6451SOL     OW20251   2.763   5.992   5.002
 6451SOL    HW120252   2.702   5.989   4.923
 6451SOL    HW220253   2.738   5.920   5.067
 6452SOL     OW20254   3.501   6.404   5.358
 6452SOL    HW120255   3.582   6.361   5.318
 6452SOL    HW220256   3.421   6.347   5.340
 6453SOL     OW20257   2.288   5.976   6.802
 6453SOL    HW120258   2.258   6.018   6.716
 6453SOL    HW220259   2.382   6.004   6.821
 6454SOL     OW20260   3.066   0.935   3.621
 6454SOL    HW120261   3.136   0.969   3.684
 6454SOL    HW220262   3.010   1.011   3.589
 6455SOL     OW20263   0.646   2.448   4.434
 6455SOL    HW120264   0.658   2.373   4.369
 6455SOL    HW220265   0.548   2.459   4.455
 6456SOL     OW20266   1.438   0.155   3.858
 6456SOL    HW120267   1.456   0.213   3.778
 6456SOL    HW220268   1.420   0.061   3.828
 6457SOL     OW20269   5.373   1.312   1.105
 6457SOL    HW120270   5.343   1.269   1.191
 6457SOL    HW220271   5.297   1.364   1.066
 6458SOL     OW20272   1.144   6.590   2.947
 6458SOL    HW120273   1.135   6.662   2.877
 6458SOL    HW220274   1.058   6.540   2.954
 6459SOL     OW20275   5.694   5.584   0.990
 6459SOL    HW120276   5.715   5.500   0.939
 6459SOL    HW220277   5.731   5.663   0.941
 6460SOL     OW20278   4.354   5.237   5.867
 6460SOL    HW120279   4.284   5.180   5.826
 6460SOL    HW220280   4.341   5.242   5.966
 6461SOL     OW20281   3.122   5.137   4.992
 6461SOL    HW120282   3.100   5.231   4.966
 6461SOL    HW220283   3.110   5.126   5.091
 6462SOL     OW20284   2.387   2.895   5.432
 6462SOL    HW120285   2.393   2.966   5.362
 6462SOL    HW220286   2.468   2.837   5.429
 6463SOL     OW20287   1.808   3.894   6.467
 6463SOL    HW120288   1.770   3.985   6.485
 6463SOL    HW220289   1.788   3.869   6.372
 6464SOL     OW20290   0.826   4.731   5.242
 6464SOL    HW120291   0.756   4.797   5.214
 6464SOL    HW220292   0.789   4.668   5.310
 6465SOL     OW20293   6.452   2.739   4.058
 6465SOL    HW120294   6.353   2.733   4.061
 6465SOL    HW220295   6.482   2.769   3.968
 6466SOL     OW20296   0.154   1.740   6.285
 6466SOL    HW120297   0.170   1.648   6.248
 6466SOL    HW220298   0.158   1.807   6.211
 6467SOL     OW20299   2.825   1.044   6.866
 6467SOL    HW120300   2.869   1.098   6.939
 6467SOL    HW220301   2.887   1.038   6.788
 6468SOL     OW20302   4.376   6.092   1.386
 6468SOL    HW120303   4.415   6.079   1.295
 6468SOL    HW220304   4.423   6.033   1.451
 6469SOL     OW20305   4.903   0.599   5.451
 6469SOL    HW120306   4.902   0.681   5.508
 6469SOL    HW220307   4.824   0.601   5.389
 6470SOL     OW20308   6.335   5.263   6.415
 6470SOL    HW120309   6.386   5.311   6.486
 6470SOL    HW220310   6.399   5.218   6.353
 6471SOL     OW20311   6.269   5.818   5.828
 6471SOL    HW120312   6.314   5.873   5.898
 6471SOL    HW220313   6.334   5.795   5.757
 6472SOL     OW20314   0.427   4.640   0.619
 6472SOL    HW120315   0.495   4.627   0.546
 6472SOL    HW220316   0.471   4.682   0.698
 6473SOL     OW20317   2.170   1.829   5.414
 6473SOL    HW120318   2.141   1.786   5.329
 6473SOL    HW220319   2.258   1.873   5.401
 6474SOL     OW20320   1.692   3.548   6.037
 6474SOL    HW120321   1.764   3.618   6.039
 6474SOL    HW220322   1.635   3.557   6.119
 6475SOL     OW20323   6.697   5.670   4.739
 6475SOL    HW120324   6.633   5.662   4.662
 6475SOL    HW220325   6.768   5.736   4.716
 6476SOL     OW20326   4.697   3.910   1.715
 6476SOL    HW120327   4.707   3.986   1.779
 6476SOL    HW220328   4.600   3.899   1.691
 6477SOL     OW20329   0.287   5.139   1.050
 6477SOL    HW120330   0.290   5.212   0.982
 6477SOL    HW220331   0.334   5.169   1.133
 6478SOL     OW20332   3.708   5.816   2.053
 6478SOL    HW120333   3.671   5.751   2.120
 6478SOL    HW220334   3.673   5.794   1.962
 6479SOL     OW20335   4.062   5.147   2.622
 6479SOL    HW120336   4.078   5.223   2.685
 6479SOL    HW220337   3.988   5.171   2.560
 6480SOL     OW20338   3.693   2.815   5.736
 6480SOL    HW120339   3.668   2.846   5.645
 6480SOL    HW220340   3.614   2.768   5.778
 6481SOL     OW20341   3.424   2.165   1.748
 6481SOL    HW120342   3.438   2.208   1.658
 6481SOL    HW220343   3.498   2.192   1.810
 6482SOL     OW20344   0.264   1.075   6.077
 6482SOL    HW120345   0.268   1.056   5.979
 6482SOL    HW220346   0.171   1.062   6.110
 6483SOL     OW20347   2.323   5.573   1.530
 6483SOL    HW120348   2.354   5.662   1.563
 6483SOL    HW220349   2.349   5.562   1.434
 6484SOL     OW20350   4.083   0.435   3.055
 6484SOL    HW120351   4.080   0.518   3.000
 6484SOL    HW220352   3.990   0.408   3.078
 6485SOL     OW20353   1.523   3.930   3.413
 6485SOL    HW120354   1.581   3.879   3.349
 6485SOL    HW220355   1.532   3.891   3.505
 6486SOL     OW20356   1.191   4.743   3.909
 6486SOL    HW120357   1.137   4.673   3.864
 6486SOL    HW220358   1.285   4.740   3.876
 6487SOL     OW20359   6.124   5.627   5.014
 6487SOL    HW120360   6.199   5.693   5.016
 6487SOL    HW220361   6.050   5.663   4.957
 6488SOL     OW20362   2.901   5.706   5.122
 6488SOL    HW120363   2.865   5.738   5.209
 6488SOL    HW220364   2.975   5.766   5.091
 6489SOL     OW20365   2.148   3.462   6.838
 6489SOL    HW120366   2.237   3.437   6.800
 6489SOL    HW220367   2.098   3.379   6.862
 6490SOL     OW20368   4.157   2.474   6.671
 6490SOL    HW120369   4.214   2.553   6.648
 6490SOL    HW220370   4.069   2.482   6.625
 6491SOL     OW20371   3.966   1.265   6.501
 6491SOL    HW120372   3.887   1.248   6.442
 6491SOL    HW220373   3.935   1.276   6.596
 6492SOL     OW20374   6.135   6.343   6.825
 6492SOL    HW120375   6.088   6.373   6.742
 6492SOL    HW220376   6.159   6.246   6.816
 6493SOL     OW20377   1.280   6.195   5.306
 6493SOL    HW120378   1.186   6.168   5.328
 6493SOL    HW220379   1.309   6.148   5.223
 6494SOL     OW20380   0.222   0.436   3.042
 6494SOL    HW120381   0.295   0.463   3.104
 6494SOL    HW220382   0.164   0.367   3.087
 6495SOL     OW20383   5.033   6.153   4.367
 6495SOL    HW120384   5.037   6.055   4.389
 6495SOL    HW220385   5.112   6.177   4.311
 6496SOL     OW20386   7.024   6.359   2.153
 6496SOL    HW120387   6.997   6.265   2.134
 6496SOL    HW220388   6.967   6.422   2.100
 6497SOL     OW20389   2.306   3.220   0.057
 6497SOL    HW120390   2.256   3.134   0.066
 6497SOL    HW220391   2.255   3.293   0.101
 6498SOL     OW20392   2.452   4.539   4.268
 6498SOL    HW120393   2.432   4.492   4.183
 6498SOL    HW220394   2.420   4.484   4.346
 6499SOL     OW20395   5.692   1.559   5.244
 6499SOL    HW120396   5.737   1.571   5.156
 6499SOL    HW220397   5.600   1.521   5.230
 6500SOL     OW20398   0.123   4.767   3.902
 6500SOL    HW120399   0.174   4.840   3.855
 6500SOL    HW220400   0.176   4.682   3.897
 6501SOL     OW20401   6.865   2.714   0.900
 6501SOL    HW120402   6.820   2.794   0.859
 6501SOL    HW220403   6.823   2.694   0.988
 6502SOL     OW20404   0.040   3.749   3.469
 6502SOL    HW120405   0.131   3.771   3.503
 6502SOL    HW220406   7.013   3.831   3.471
 6503SOL     OW20407   5.271   0.215   3.674
 6503SOL    HW120408   5.208   0.210   3.597
 6503SOL    HW220409   5.297   0.123   3.702
 6504SOL     OW20410   4.471   6.397   5.873
 6504SOL    HW120411   4.570   6.412   5.866
 6504SOL    HW220412   4.439   6.424   5.963
 6505SOL     OW20413   6.242   4.516   1.770
 6505SOL    HW120414   6.236   4.599   1.825
 6505SOL    HW220415   6.329   4.515   1.720
 6506SOL     OW20416   0.473   3.149   0.518
 6506SOL    HW120417   0.482   3.173   0.422
 6506SOL    HW220418   0.522   3.215   0.574
 6507SOL     OW20419   1.545   5.859   6.898
 6507SOL    HW120420   1.517   5.764   6.891
 6507SOL    HW220421   1.489   5.907   6.965
 6508SOL     OW20422   1.676   2.088   3.814
 6508SOL    HW120423   1.650   1.991   3.820
 6508SOL    HW220424   1.775   2.097   3.824
 6509SOL     OW20425   2.111   2.563   4.723
 6509SOL    HW120426   2.107   2.657   4.755
 6509SOL    HW220427   2.199   2.546   4.679
 6510SOL     OW20428   0.719   5.452   6.741
 6510SOL    HW120429   0.699   5.380   6.674
 6510SOL    HW220430   0.794   5.423   6.801
 6511SOL     OW20431   5.454   0.824   4.676
 6511SOL    HW120432   5.451   0.912   4.629
 6511SOL    HW220433   5.365   0.780   4.669
 6512SOL     OW20434   4.795   0.408   2.643
 6512SOL    HW120435   4.710   0.444   2.682
 6512SOL    HW220436   4.826   0.330   2.696
 6513SOL     OW20437   3.650   5.802   3.961
 6513SOL    HW120438   3.554   5.812   3.932
 6513SOL    HW220439   3.653   5.780   4.058
 6514SOL     OW20440   5.633   0.354   3.009
 6514SOL    HW120441   5.688   0.432   2.983
 6514SOL    HW220442   5.536   0.380   3.010
 6515SOL     OW20443   0.129   5.351   3.735
 6515SOL    HW120444   0.127   5.413   3.813
 6515SOL    HW220445   0.046   5.296   3.733
 6516SOL     OW20446   0.201   1.968   0.432
 6516SOL    HW120447   0.192   2.064   0.406
 6516SOL    HW220448   0.213   1.961   0.531
 6517SOL     OW20449   5.989   1.492   0.722
 6517SOL    HW120450   5.989   1.392   0.720
 6517SOL    HW220451   5.899   1.525   0.752
 6518SOL     OW20452   0.486   6.176   0.203
 6518SOL    HW120453   0.390   6.159   0.228
 6518SOL    HW220454   0.518   6.100   0.146
 6519SOL     OW20455   2.044   2.133   3.493
 6519SOL    HW120456   2.076   2.217   3.537
 6519SOL    HW220457   1.967   2.155   3.433
 6520SOL     OW20458   6.485   6.026   3.731
 6520SOL    HW120459   6.512   5.934   3.758
 6520SOL    HW220460   6.435   6.021   3.644
 6521SOL     OW20461   0.604   1.133   4.603
 6521SOL    HW120462   0.560   1.217   4.571
 6521SOL    HW220463   0.657   1.094   4.528
 6522SOL     OW20464   3.225   4.715   6.704
 6522SOL    HW120465   3.156   4.727   6.633
 6522SOL    HW220466   3.180   4.697   6.791
 6523SOL     OW20467   2.896   1.680   6.244
 6523SOL    HW120468   2.800   1.652   6.232
 6523SOL    HW220469   2.955   1.602   6.224
 6524SOL     OW20470   3.255   2.958   3.487
 6524SOL    HW120471   3.159   2.976   3.510
 6524SOL    HW220472   3.304   2.928   3.568
 6525SOL     OW20473   2.219   2.995   2.688
 6525SOL    HW120474   2.140   2.945   2.654
 6525SOL    HW220475   2.296   2.933   2.699
 6526SOL     OW20476   0.644   6.356   4.611
 6526SOL    HW120477   0.733   6.402   4.609
 6526SOL    HW220478   0.645   6.285   4.682
 6527SOL     OW20479   0.262   1.499   4.553
 6527SOL    HW120480   0.235   1.488   4.648
 6527SOL    HW220481   0.333   1.570   4.547
 6528SOL     OW20482   0.113   0.673   3.495
 6528SOL    HW120483   0.049   0.720   3.556
 6528SOL    HW220484   0.159   0.740   3.437
 6529SOL     OW20485   5.843   1.680   3.607
 6529SOL    HW120486   5.866   1.679   3.509
 6529SOL    HW220487   5.804   1.769   3.631
 6530SOL     OW20488   6.837   3.840   0.889
 6530SOL    HW120489   6.773   3.767   0.864
 6530SOL    HW220490   6.851   3.840   0.988
 6531SOL     OW20491   5.285   3.353   4.129
 6531SOL    HW120492   5.215   3.360   4.057
 6531SOL    HW220493   5.251   3.396   4.213
 6532SOL     OW20494   5.592   1.416   1.194
 6532SOL    HW120495   5.511   1.374   1.151
 6532SOL    HW220496   5.568   1.508   1.225
 6533SOL     OW20497   5.787   5.599   1.949
 6533SOL    HW120498   5.693   5.633   1.946
 6533SOL    HW220499   5.786   5.500   1.961
 6534SOL     OW20500   2.774   4.408   1.617
 6534SOL    HW120501   2.768   4.312   1.644
 6534SOL    HW220502   2.824   4.459   1.687
 6535SOL     OW20503   0.585   3.062   4.592
 6535SOL    HW120504   0.634   3.003   4.656
 6535SOL    HW220505   0.602   3.158   4.616
 6536SOL     OW20506   6.734   2.548   5.810
 6536SOL    HW120507   6.732   2.603   5.893
 6536SOL    HW220508   6.734   2.451   5.834
 6537SOL     OW20509   6.389   5.799   6.892
 6537SOL    HW120510   6.292   5.781   6.907
 6537SOL    HW220511   6.401   5.856   6.811
 6538SOL     OW20512   4.021   4.133   0.261
 6538SOL    HW120513   4.016   4.062   0.331
 6538SOL    HW220514   4.000   4.222   0.302
 6539SOL     OW20515   2.625   1.628   6.221
 6539SOL    HW120516   2.656   1.573   6.144
 6539SOL    HW220517   2.531   1.658   6.204
 6540SOL     OW20518   4.393   1.712   4.703
 6540SOL    HW120519   4.460   1.721   4.777
 6540SOL    HW220520   4.374   1.802   4.664
 6541SOL     OW20521   3.369   2.061   4.685
 6541SOL    HW120522   3.301   2.092   4.751
 6541SOL    HW220523   3.430   1.995   4.729
 6542SOL     OW20524   0.218   4.588   3.288
 6542SOL    HW120525   0.214   4.501   3.239
 6542SOL    HW220526   0.264   4.657   3.231
 6543SOL     OW20527   6.620   4.515   0.034
 6543SOL    HW120528   6.695   4.570   7.027
 6543SOL    HW220529   6.559   4.487   6.990
 6544SOL     OW20530   0.745   6.512   3.739
 6544SOL    HW120531   0.657   6.490   3.696
 6544SOL    HW220532   0.728   6.552   3.829
 6545SOL     OW20533   4.780   1.985   6.171
 6545SOL    HW120534   4.772   1.986   6.072
 6545SOL    HW220535   4.728   2.061   6.210
 6546SOL     OW20536   4.319   4.191   6.305
 6546SOL    HW120537   4.392   4.258   6.315
 6546SOL    HW220538   4.234   4.227   6.344
 6547SOL     OW20539   4.106   1.639   5.969
 6547SOL    HW120540   4.101   1.729   5.925
 6547SOL    HW220541   4.018   1.617   6.011
 6548SOL     OW20542   0.743   4.273   6.978
 6548SOL    HW120543   0.680   4.327   0.005
 6548SOL    HW220544   0.788   4.332   6.912
 6549SOL     OW20545   3.480   1.205   1.002
 6549SOL    HW120546   3.463   1.272   1.074
 6549SOL    HW220547   3.414   1.219   0.928
 6550SOL     OW20548   6.973   6.304   3.220
 6550SOL    HW120549   0.035   6.293   3.257
 6550SOL    HW220550   6.923   6.218   3.230
 6551SOL     OW20551   1.909   4.105   2.626
 6551SOL    HW120552   1.949   4.014   2.615
 6551SOL    HW220553   1.849   4.106   2.706
 6552SOL     OW20554   2.328   6.795   4.283
 6552SOL    HW120555   2.303   6.708   4.326
 6552SOL    HW220556   2.345   6.863   4.354
 6553SOL     OW20557   0.168   2.238   1.279
 6553SOL    HW120558   0.150   2.336   1.269
 6553SOL    HW220559   0.229   2.208   1.206
 6554SOL     OW20560   6.175   1.621   6.036
 6554SOL    HW120561   6.198   1.678   5.957
 6554SOL    HW220562   6.107   1.553   6.009
 6555SOL     OW20563   1.854   0.926   3.055
 6555SOL    HW120564   1.820   0.833   3.074
 6555SOL    HW220565   1.840   0.983   3.135
 6556SOL     OW20566   4.667   4.636   5.199
 6556SOL    HW120567   4.737   4.564   5.191
 6556SOL    HW220568   4.712   4.725   5.202
 6557SOL     OW20569   5.200   5.754   1.165
 6557SOL    HW120570   5.251   5.669   1.162
 6557SOL    HW220571   5.239   5.814   1.235
 6558SOL     OW20572   6.837   5.716   1.531
 6558SOL    HW120573   6.827   5.639   1.593
 6558SOL    HW220574   6.779   5.702   1.451
 6559SOL     OW20575   6.479   3.989   0.626
 6559SOL    HW120576   6.467   3.925   0.549
 6559SOL    HW220577   6.518   3.940   0.704
 6560SOL     OW20578   3.865   2.828   1.784
 6560SOL    HW120579   3.821   2.738   1.780
 6560SOL    HW220580   3.846   2.878   1.699
 6561SOL     OW20581   3.782   4.046   2.514
 6561SOL    HW120582   3.774   3.999   2.603
 6561SOL    HW220583   3.874   4.085   2.506
 6562SOL     OW20584   6.215   4.628   6.588
 6562SOL    HW120585   6.298   4.596   6.543
 6562SOL    HW220586   6.135   4.594   6.539
 6563SOL     OW20587   0.848   6.259   0.115
 6563SOL    HW120588   0.889   6.288   0.201
 6563SOL    HW220589   0.797   6.335   0.074
 6564SOL     OW20590   0.764   3.787   1.910
 6564SOL    HW120591   0.745   3.813   2.004
 6564SOL    HW220592   0.776   3.688   1.904
 6565SOL     OW20593   6.490   1.994   4.639
 6565SOL    HW120594   6.583   2.013   4.670
 6565SOL    HW220595   6.494   1.938   4.556
 6566SOL     OW20596   3.416   6.639   1.104
 6566SOL    HW120597   3.328   6.657   1.149
 6566SOL    HW220598   3.440   6.717   1.046
 6567SOL     OW20599   4.323   2.340   1.485
 6567SOL    HW120600   4.278   2.259   1.521
 6567SOL    HW220601   4.264   2.384   1.418
 6568SOL     OW20602   4.943   5.216   2.185
 6568SOL    HW120603   4.971   5.154   2.112
 6568SOL    HW220604   4.849   5.245   2.170
 6569SOL     OW20605   3.258   4.662   1.240
 6569SOL    HW120606   3.339   4.709   1.205
 6569SOL    HW220607   3.199   4.635   1.164
 6570SOL     OW20608   5.146   6.799   1.453
 6570SOL    HW120609   5.208   6.843   1.517
 6570SOL    HW220610   5.184   6.806   1.360
 6571SOL     OW20611   1.842   6.622   2.300
 6571SOL    HW120612   1.814   6.713   2.331
 6571SOL    HW220613   1.925   6.595   2.347
 6572SOL     OW20614   6.245   5.038   4.747
 6572SOL    HW120615   6.205   5.127   4.728
 6572SOL    HW220616   6.283   5.037   4.839
 6573SOL     OW20617   3.269   1.388   3.094
 6573SOL    HW120618   3.239   1.458   3.029
 6573SOL    HW220619   3.267   1.298   3.051
 6574SOL     OW20620   2.849   5.982   2.137
 6574SOL    HW120621   2.851   5.917   2.061
 6574SOL    HW220622   2.939   5.988   2.179
 6575SOL     OW20623   0.802   1.495   1.696
 6575SOL    HW120624   0.750   1.473   1.613
 6575SOL    HW220625   0.772   1.584   1.731
 6576SOL     OW20626   1.523   6.174   6.268
 6576SOL    HW120627   1.533   6.078   6.295
 6576SOL    HW220628   1.609   6.223   6.285
 6577SOL     OW20629   0.434   1.366   3.399
 6577SOL    HW120630   0.356   1.424   3.423
 6577SOL    HW220631   0.496   1.359   3.478
 6578SOL     OW20632   0.003   5.156   2.860
 6578SOL    HW120633   6.947   5.194   2.893
 6578SOL    HW220634   0.062   5.132   2.937
 6579SOL     OW20635   0.150   4.118   4.489
 6579SOL    HW120636   0.250   4.113   4.494
 6579SOL    HW220637   0.120   4.083   4.401
 6580SOL     OW20638   6.059   1.340   1.364
 6580SOL    HW120639   6.022   1.256   1.403
 6580SOL    HW220640   6.059   1.412   1.433
 6581SOL     OW20641   3.818   1.146   6.030
 6581SOL    HW120642   3.893   1.147   6.097
 6581SOL    HW220643   3.771   1.058   6.034
 6582SOL     OW20644   1.553   0.092   1.966
 6582SOL    HW120645   1.531   0.003   2.006
 6582SOL    HW220646   1.516   0.164   2.024
 6583SOL     OW20647   4.206   0.993   6.013
 6583SOL    HW120648   4.305   0.983   6.011
 6583SOL    HW220649   4.181   1.086   5.985
 6584SOL     OW20650   5.319   1.108   0.334
 6584SOL    HW120651   5.398   1.151   0.377
 6584SOL    HW220652   5.319   1.010   0.354
 6585SOL     OW20653   6.751   1.040   0.760
 6585SOL    HW120654   6.672   1.072   0.812
 6585SOL    HW220655   6.790   0.960   0.805
 6586SOL     OW20656   6.309   2.256   5.922
 6586SOL    HW120657   6.222   2.301   5.902
 6586SOL    HW220658   6.291   2.165   5.960
 6587SOL     OW20659   2.926   5.952   4.415
 6587SOL    HW120660   2.853   5.887   4.436
 6587SOL    HW220661   2.990   5.912   4.349
 6588SOL     OW20662   1.889   4.084   1.745
 6588SOL    HW120663   1.947   4.105   1.667
 6588SOL    HW220664   1.794   4.077   1.715
 6589SOL     OW20665   4.354   0.676   6.742
 6589SOL    HW120666   4.359   0.593   6.798
 6589SOL    HW220667   4.294   0.743   6.786
 6590SOL     OW20668   0.695   1.869   5.943
 6590SOL    HW120669   0.741   1.796   5.995
 6590SOL    HW220670   0.711   1.855   5.845
 6591SOL     OW20671   5.649   6.013   2.197
 6591SOL    HW120672   5.679   6.098   2.240
 6591SOL    HW220673   5.674   6.015   2.100
 6592SOL     OW20674   5.000   0.000   3.614
 6592SOL    HW120675   5.027   6.995   3.704
 6592SOL    HW220676   4.905   0.031   3.617
 6593SOL     OW20677   2.138   2.408   3.599
 6593SOL    HW120678   2.209   2.476   3.615
 6593SOL    HW220679   2.103   2.374   3.686
 6594SOL     OW20680   4.285   1.208   0.514
 6594SOL    HW120681   4.286   1.269   0.434
 6594SOL    HW220682   4.203   1.152   0.511
 6595SOL     OW20683   0.402   4.393   1.614
 6595SOL    HW120684   0.464   4.316   1.630
 6595SOL    HW220685   0.365   4.424   1.701
 6596SOL     OW20686   4.024   0.075   5.184
 6596SOL    HW120687   4.105   0.069   5.125
 6596SOL    HW220688   3.979   0.163   5.170
 6597SOL     OW20689   1.097   6.722   3.641
 6597SOL    HW120690   1.072   6.781   3.564
 6597SOL    HW220691   1.196   6.707   3.641
 6598SOL     OW20692   1.781   6.061   5.442
 6598SOL    HW120693   1.806   5.979   5.495
 6598SOL    HW220694   1.782   6.141   5.502
 6599SOL     OW20695   4.030   5.405   5.549
 6599SOL    HW120696   4.098   5.465   5.592
 6599SOL    HW220697   4.007   5.441   5.458
 6600SOL     OW20698   5.043   5.037   4.982
 6600SOL    HW120699   5.142   5.049   4.972
 6600SOL    HW220700   5.017   4.948   4.945
 6601SOL     OW20701   0.973   0.400   0.718
 6601SOL    HW120702   1.067   0.415   0.749
 6601SOL    HW220703   0.913   0.391   0.798
 6602SOL     OW20704   6.865   1.662   1.482
 6602SOL    HW120705   6.896   1.675   1.576
 6602SOL    HW220706   6.937   1.691   1.418
 6603SOL     OW20707   1.298   3.107   4.173
 6603SOL    HW120708   1.397   3.116   4.157
 6603SOL    HW220709   1.276   3.146   4.262
 6604SOL     OW20710   2.807   6.273   1.566
 6604SOL    HW120711   2.769   6.349   1.619
 6604SOL    HW220712   2.902   6.258   1.593
 6605SOL     OW20713   4.842   4.911   0.660
 6605SOL    HW120714   4.861   4.838   0.595
 6605SOL    HW220715   4.915   4.915   0.728
 6606SOL     OW20716   5.109   6.431   2.182
 6606SOL    HW120717   5.009   6.432   2.171
 6606SOL    HW220718   5.147   6.354   2.131
 6607SOL     OW20719   2.437   1.418   1.706
 6607SOL    HW120720   2.382   1.461   1.634
 6607SOL    HW220721   2.406   1.449   1.795
 6608SOL     OW20722   5.331   4.843   2.403
 6608SOL    HW120723   5.342   4.931   2.357
 6608SOL    HW220724   5.419   4.797   2.409
 6609SOL     OW20725   4.764   1.173   5.969
 6609SOL    HW120726   4.736   1.131   6.056
 6609SOL    HW220727   4.858   1.148   5.948
 6610SOL     OW20728   2.274   0.277   6.692
 6610SOL    HW120729   2.327   0.323   6.764
 6610SOL    HW220730   2.221   0.203   6.732
 6611SOL     OW20731   6.839   2.310   2.711
 6611SOL    HW120732   6.918   2.254   2.685
 6611SOL    HW220733   6.821   2.378   2.640
 6612SOL     OW20734   0.445   4.069   6.968
 6612SOL    HW120735   0.536   4.109   6.962
 6612SOL    HW220736   0.398   4.080   6.880
 6613SOL     OW20737   6.027   6.058   3.517
 6613SOL    HW120738   6.045   6.107   3.432
 6613SOL    HW220739   5.969   6.113   3.576
 6614SOL     OW20740   4.552   6.539   6.558
 6614SOL    HW120741   4.502   6.457   6.586
 6614SOL    HW220742   4.487   6.613   6.541
 6615SOL     OW20743   0.841   3.702   4.830
 6615SOL    HW120744   0.893   3.783   4.859
 6615SOL    HW220745   0.838   3.636   4.904
 6616SOL     OW20746   4.318   1.239   5.676
 6616SOL    HW120747   4.274   1.175   5.613
 6616SOL    HW220748   4.388   1.192   5.729
 6617SOL     OW20749   3.417   6.428   3.351
 6617SOL    HW120750   3.386   6.341   3.390
 6617SOL    HW220751   3.349   6.499   3.370
 6618SOL     OW20752   1.048   3.122   2.631
 6618SOL    HW120753   1.132   3.168   2.601
 6618SOL    HW220754   0.971   3.156   2.579
 6619SOL     OW20755   6.037   0.178   4.665
 6619SOL    HW120756   6.006   0.194   4.759
 6619SOL    HW220757   6.135   0.162   4.665
 6620SOL     OW20758   1.719   3.005   5.512
 6620SOL    HW120759   1.713   3.013   5.612
 6620SOL    HW220760   1.800   3.053   5.479
 6621SOL     OW20761   3.247   3.706   0.400
 6621SOL    HW120762   3.329   3.650   0.387
 6621SOL    HW220763   3.273   3.803   0.402
 6622SOL     OW20764   6.250   6.075   1.705
 6622SOL    HW120765   6.172   6.041   1.652
 6622SOL    HW220766   6.258   6.174   1.694
 6623SOL     OW20767   3.517   3.215   1.889
 6623SOL    HW120768   3.449   3.243   1.821
 6623SOL    HW220769   3.526   3.115   1.888
 6624SOL     OW20770   2.603   6.781   4.028
 6624SOL    HW120771   2.592   6.811   4.123
 6624SOL    HW220772   2.623   6.861   3.970
 6625SOL     OW20773   5.553   2.036   6.258
 6625SOL    HW120774   5.647   2.002   6.263
 6625SOL    HW220775   5.552   2.133   6.281
 6626SOL     OW20776   3.450   5.061   3.141
 6626SOL    HW120777   3.535   5.008   3.141
 6626SOL    HW220778   3.412   5.063   3.234
 6627SOL     OW20779   2.208   0.593   5.542
 6627SOL    HW120780   2.116   0.632   5.540
 6627SOL    HW220781   2.268   0.652   5.597
 6628SOL     OW20782   5.080   5.477   3.555
 6628SOL    HW120783   5.052   5.428   3.472
 6628SOL    HW220784   5.161   5.434   3.594
 6629SOL     OW20785   2.980   6.408   0.739
 6629SOL    HW120786   3.032   6.401   0.824
 6629SOL    HW220787   2.928   6.494   0.738
 6630SOL     OW20788   3.738   2.090   1.058
 6630SOL    HW120789   3.679   2.113   1.136
 6630SOL    HW220790   3.717   2.151   0.981
 6631SOL     OW20791   4.684   0.215   2.215
 6631SOL    HW120792   4.611   0.155   2.184
 6631SOL    HW220793   4.650   0.277   2.285
 6632SOL     OW20794   6.769   1.096   1.952
 6632SOL    HW120795   6.717   1.083   2.037
 6632SOL    HW220796   6.737   1.179   1.906
 6633SOL     OW20797   1.264   5.713   5.847
 6633SOL    HW120798   1.257   5.652   5.927
 6633SOL    HW220799   1.270   5.807   5.878
 6634SOL     OW20800   5.634   3.424   5.657
 6634SOL    HW120801   5.691   3.344   5.639
 6634SOL    HW220802   5.690   3.496   5.699
 6635SOL     OW20803   4.327   5.406   3.179
 6635SOL    HW120804   4.233   5.373   3.180
 6635SOL    HW220805   4.388   5.332   3.207
 6636SOL     OW20806   1.919   2.519   5.891
 6636SOL    HW120807   1.872   2.588   5.835
 6636SOL    HW220808   2.014   2.511   5.861
 6637SOL     OW20809   1.278   0.515   0.040
 6637SOL    HW120810   1.374   0.532   0.018
 6637SOL    HW220811   1.234   0.601   0.066
 6638SOL     OW20812   4.058   4.806   5.244
 6638SOL    HW120813   4.100   4.870   5.308
 6638SOL    HW220814   4.072   4.712   5.276
 6639SOL     OW20815   5.616   6.283   6.086
 6639SOL    HW120816   5.669   6.292   6.001
 6639SOL    HW220817   5.547   6.212   6.074
 6640SOL     OW20818   0.075   2.109   5.022
 6640SOL    HW120819   0.156   2.167   5.026
 6640SOL    HW220820   0.051   2.078   5.113
 6641SOL     OW20821   2.378   3.117   6.380
 6641SOL    HW120822   2.340   3.181   6.448
 6641SOL    HW220823   2.354   3.148   6.288
 6642SOL     OW20824   2.804   4.876   0.376
 6642SOL    HW120825   2.874   4.921   0.321
 6642SOL    HW220826   2.836   4.866   0.470
 6643SOL     OW20827   6.851   4.645   6.987
 6643SOL    HW120828   6.928   4.640   6.924
 6643SOL    HW220829   6.814   4.738   6.988
 6644SOL     OW20830   3.133   4.786   1.977
 6644SOL    HW120831   3.095   4.870   2.015
 6644SOL    HW220832   3.067   4.711   1.988
 6645SOL     OW20833   6.377   5.125   0.618
 6645SOL    HW120834   6.388   5.033   0.580
 6645SOL    HW220835   6.453   5.145   0.680
 6646SOL     OW20836   4.380   5.751   4.290
 6646SOL    HW120837   4.337   5.661   4.289
 6646SOL    HW220838   4.416   5.770   4.381
 6647SOL     OW20839   3.377   1.279   2.694
 6647SOL    HW120840   3.432   1.355   2.728
 6647SOL    HW220841   3.316   1.313   2.622
 6648SOL     OW20842   3.490   6.221   1.704
 6648SOL    HW120843   3.455   6.272   1.626
 6648SOL    HW220844   3.443   6.251   1.787
 6649SOL     OW20845   5.039   1.679   6.443
 6649SOL    HW120846   4.985   1.718   6.517
 6649SOL    HW220847   5.084   1.596   6.474
 6650SOL     OW20848   3.990   1.513   3.924
 6650SOL    HW120849   3.991   1.545   4.019
 6650SOL    HW220850   3.982   1.413   3.923
 6651SOL     OW20851   1.497   1.638   0.030
 6651SOL    HW120852   1.402   1.608   0.030
 6651SOL    HW220853   1.505   1.723   7.008
 6652SOL     OW20854   6.559   4.602   0.305
 6652SOL    HW120855   6.576   4.569   0.212
 6652SOL    HW220856   6.461   4.613   0.320
 6653SOL     OW20857   4.072   3.131   2.984
 6653SOL    HW120858   4.054   3.155   2.888
 6653SOL    HW220859   4.002   3.066   3.015
 6654SOL     OW20860   2.366   2.617   1.206
 6654SOL    HW120861   2.301   2.602   1.132
 6654SOL    HW220862   2.428   2.691   1.181
 6655SOL     OW20863   2.525   6.847   1.938
 6655SOL    HW120864   2.431   6.820   1.959
 6655SOL    HW220865   2.571   6.876   2.022
 6656SOL     OW20866   6.370   1.581   2.982
 6656SOL    HW120867   6.323   1.627   3.058
 6656SOL    HW220868   6.469   1.588   2.995
 6657SOL     OW20869   4.487   6.439   6.163
 6657SOL    HW120870   4.570   6.415   6.213
 6657SOL    HW220871   4.453   6.527   6.196
 6658SOL     OW20872   6.138   1.463   5.118
 6658SOL    HW120873   6.105   1.387   5.173
 6658SOL    HW220874   6.061   1.514   5.081
 6659SOL     OW20875   2.698   2.287   0.301
 6659SOL    HW120876   2.635   2.363   0.284
 6659SOL    HW220877   2.670   2.239   0.384
 6660SOL     OW20878   0.146   6.181   1.247
 6660SOL    HW120879   0.088   6.245   1.298
 6660SOL    HW220880   0.204   6.233   1.183
 6661SOL     OW20881   0.538   5.010   3.946
 6661SOL    HW120882   0.564   5.102   3.919
 6661SOL    HW220883   0.552   4.948   3.869
 6662SOL     OW20884   1.533   0.622   0.009
 6662SOL    HW120885   1.523   0.652   6.944
 6662SOL    HW220886   1.503   0.695   0.071
 6663SOL     OW20887   0.096   5.902   3.272
 6663SOL    HW120888   0.101   5.863   3.364
 6663SOL    HW220889   0.074   5.830   3.206
 6664SOL     OW20890   1.508   0.148   1.325
 6664SOL    HW120891   1.550   0.176   1.239
 6664SOL    HW220892   1.455   0.064   1.311
 6665SOL     OW20893   1.822   0.658   3.316
 6665SOL    HW120894   1.899   0.717   3.291
 6665SOL    HW220895   1.855   0.565   3.331
 6666SOL     OW20896   5.752   1.810   5.324
 6666SOL    HW120897   5.720   1.730   5.275
 6666SOL    HW220898   5.766   1.787   5.421
 6667SOL     OW20899   6.690   4.936   4.919
 6667SOL    HW120900   6.770   4.994   4.937
 6667SOL    HW220901   6.658   4.951   4.825
 6668SOL     OW20902   6.678   6.049   2.359
 6668SOL    HW120903   6.659   6.088   2.269
 6668SOL    HW220904   6.735   5.968   2.349
 6669SOL     OW20905   2.117   3.639   3.749
 6669SOL    HW120906   2.062   3.717   3.780
 6669SOL    HW220907   2.116   3.636   3.649
 6670SOL     OW20908   3.358   3.875   6.862
 6670SOL    HW120909   3.456   3.869   6.843
 6670SOL    HW220910   3.310   3.899   6.778
 6671SOL     OW20911   6.000   5.256   0.828
 6671SOL    HW120912   6.040   5.183   0.772
 6671SOL    HW220913   6.065   5.331   0.837
 6672SOL     OW20914   0.683   1.290   5.266
 6672SOL    HW120915   0.771   1.314   5.225
 6672SOL    HW220916   0.680   1.327   5.359
 6673SOL     OW20917   4.665   5.505   3.011
 6673SOL    HW120918   4.580   5.497   3.062
 6673SOL    HW220919   4.712   5.590   3.038
 6674SOL     OW20920   0.760   5.225   5.884
 6674SOL    HW120921   0.688   5.231   5.815
 6674SOL    HW220922   0.743   5.147   5.944
 6675SOL     OW20923   4.896   4.167   1.625
 6675SOL    HW120924   4.954   4.115   1.561
 6675SOL    HW220925   4.835   4.104   1.673
 6676SOL     OW20926   0.670   3.735   5.822
 6676SOL    HW120927   0.592   3.711   5.881
 6676SOL    HW220928   0.734   3.658   5.819
 6677SOL     OW20929   0.116   3.087   0.223
 6677SOL    HW120930   0.075   3.157   0.281
 6677SOL    HW220931   0.134   3.125   0.132
 6678SOL     OW20932   1.317   2.454   0.009
 6678SOL    HW120933   1.237   2.393   0.009
 6678SOL    HW220934   1.373   2.435   6.958
 6679SOL     OW20935   1.625   1.781   4.663
 6679SOL    HW120936   1.634   1.849   4.590
 6679SOL    HW220937   1.604   1.692   4.622
 6680SOL     OW20938   4.232   5.791   6.058
 6680SOL    HW120939   4.271   5.846   5.984
 6680SOL    HW220940   4.199   5.704   6.021
 6681SOL     OW20941   4.738   5.361   0.087
 6681SOL    HW120942   4.676   5.306   0.031
 6681SOL    HW220943   4.819   5.385   0.034
 6682SOL     OW20944   0.889   4.363   2.555
 6682SOL    HW120945   0.973   4.418   2.550
 6682SOL    HW220946   0.852   4.369   2.648
 6683SOL     OW20947   5.342   2.097   5.727
 6683SOL    HW120948   5.410   2.081   5.798
 6683SOL    HW220949   5.281   2.171   5.756
 6684SOL     OW20950   1.654   6.474   0.952
 6684SOL    HW120951   1.738   6.425   0.928
 6684SOL    HW220952   1.678   6.563   0.989
 6685SOL     OW20953   5.515   1.677   6.214
 6685SOL    HW120954   5.439   1.651   6.153
 6685SOL    HW220955   5.573   1.743   6.167
 6686SOL     OW20956   5.898   4.891   3.628
 6686SOL    HW120957   5.939   4.807   3.592
 6686SOL    HW220958   5.965   4.939   3.686
 6687SOL     OW20959   0.679   1.744   1.258
 6687SOL    HW120960   0.724   1.661   1.226
 6687SOL    HW220961   0.632   1.789   1.182
 6688SOL     OW20962   0.399   4.113   1.775
 6688SOL    HW120963   0.353   4.196   1.808
 6688SOL    HW220964   0.335   4.061   1.719
 6689SOL     OW20965   4.249   2.455   0.524
 6689SOL    HW120966   4.311   2.448   0.446
 6689SOL    HW220967   4.296   2.423   0.606
 6690SOL     OW20968   2.804   0.849   1.808
 6690SOL    HW120969   2.897   0.883   1.819
 6690SOL    HW220970   2.777   0.798   1.890
 6691SOL     OW20971   3.138   5.639   1.069
 6691SOL    HW120972   3.223   5.612   1.024
 6691SOL    HW220973   3.099   5.561   1.117
 6692SOL     OW20974   2.820   4.924   5.011
 6692SOL    HW120975   2.890   4.941   5.081
 6692SOL    HW220976   2.812   4.825   4.995
 6693SOL     OW20977   5.357   3.354   6.372
 6693SOL    HW120978   5.352   3.407   6.457
 6693SOL    HW220979   5.365   3.416   6.294
 6694SOL     OW20980   4.618   5.799   0.278
 6694SOL    HW120981   4.596   5.776   0.183
 6694SOL    HW220982   4.624   5.715   0.332
 6695SOL     OW20983   0.805   2.114   6.485
 6695SOL    HW120984   0.732   2.082   6.424
 6695SOL    HW220985   0.856   2.036   6.520
 6696SOL     OW20986   1.838   2.562   0.981
 6696SOL    HW120987   1.869   2.544   1.075
 6696SOL    HW220988   1.810   2.658   0.973
 6697SOL     OW20989   4.526   2.547   2.986
 6697SOL    HW120990   4.573   2.614   2.928
 6697SOL    HW220991   4.569   2.546   3.076
 6698SOL     OW20992   3.695   2.472   0.460
 6698SOL    HW120993   3.791   2.445   0.466
 6698SOL    HW220994   3.666   2.472   0.365
 6699SOL     OW20995   3.579   4.387   6.890
 6699SOL    HW120996   3.501   4.362   6.832
 6699SOL    HW220997   3.556   4.369   6.986
 6700SOL     OW20998   0.682   5.828   0.751
 6700SOL    HW120999   0.683   5.898   0.679
 6700SOL    HW221000   0.671   5.738   0.710
 6701SOL     OW21001   5.990   2.907   1.387
 6701SOL    HW121002   5.934   2.949   1.315
 6701SOL    HW221003   6.045   2.978   1.431
 6702SOL     OW21004   2.787   2.405   6.974
 6702SOL    HW121005   2.717   2.366   6.914
 6702SOL    HW221006   2.863   2.341   6.984
 6703SOL     OW21007   6.267   1.778   6.921
 6703SOL    HW121008   6.255   1.868   6.964
 6703SOL    HW221009   6.346   1.780   6.860
 6704SOL     OW21010   4.216   2.276   2.609
 6704SOL    HW121011   4.218   2.280   2.708
 6704SOL    HW221012   4.125   2.245   2.579
 6705SOL     OW21013   0.099   1.929   1.875
 6705SOL    HW121014   0.173   1.984   1.839
 6705SOL    HW221015   0.132   1.872   1.950
 6706SOL     OW21016   1.390   4.576   0.619
 6706SOL    HW121017   1.302   4.616   0.593
 6706SOL    HW221018   1.395   4.482   0.586
 6707SOL     OW21019   6.322   5.830   5.006
 6707SOL    HW121020   6.325   5.899   5.079
 6707SOL    HW221021   6.359   5.868   4.922
 6708SOL     OW21022   1.638   5.869   2.509
 6708SOL    HW121023   1.688   5.929   2.571
 6708SOL    HW221024   1.683   5.867   2.420
 6709SOL     OW21025   3.528   5.850   1.110
 6709SOL    HW121026   3.469   5.782   1.153
 6709SOL    HW221027   3.474   5.906   1.048
 6710SOL     OW21028   2.483   2.185   5.839
 6710SOL    HW121029   2.521   2.195   5.748
 6710SOL    HW221030   2.489   2.089   5.868
 6711SOL     OW21031   5.936   4.166   6.651
 6711SOL    HW121032   5.924   4.153   6.553
 6711SOL    HW221033   5.846   4.172   6.695
 6712SOL     OW21034   4.458   5.336   0.470
 6712SOL    HW121035   4.408   5.419   0.496
 6712SOL    HW221036   4.547   5.335   0.517
 6713SOL     OW21037   2.551   1.551   1.385
 6713SOL    HW121038   2.529   1.609   1.463
 6713SOL    HW221039   2.640   1.577   1.348
 6714SOL     OW21040   5.283   0.129   5.308
 6714SOL    HW121041   5.317   0.128   5.214
 6714SOL    HW221042   5.293   0.221   5.345
 6715SOL     OW21043   0.078   0.883   6.965
 6715SOL    HW121044   0.026   0.937   0.001
 6715SOL    HW221045   0.068   0.923   6.873
 6716SOL     OW21046   1.709   6.322   1.309
 6716SOL    HW121047   1.801   6.286   1.299
 6716SOL    HW221048   1.649   6.281   1.241
 6717SOL     OW21049   4.385   3.207   0.772
 6717SOL    HW121050   4.434   3.137   0.824
 6717SOL    HW221051   4.412   3.202   0.676
 6718SOL     OW21052   4.010   5.963   6.644
 6718SOL    HW121053   4.098   5.916   6.641
 6718SOL    HW221054   3.938   5.898   6.671
 6719SOL     OW21055   0.551   0.244   5.970
 6719SOL    HW121056   0.615   0.288   6.032
 6719SOL    HW221057   0.598   0.219   5.885
 6720SOL     OW21058   2.502   6.186   1.847
 6720SOL    HW121059   2.459   6.240   1.775
 6720SOL    HW221060   2.433   6.126   1.888
 6721SOL     OW21061   5.550   6.717   4.395
 6721SOL    HW121062   5.541   6.763   4.483
 6721SOL    HW221063   5.484   6.756   4.330
 6722SOL     OW21064   5.194   3.272   0.783
 6722SOL    HW121065   5.282   3.297   0.741
 6722SOL    HW221066   5.126   3.342   0.762
 6723SOL     OW21067   2.185   6.984   3.060
 6723SOL    HW121068   2.231   0.024   3.115
 6723SOL    HW221069   2.232   6.974   2.972
 6724SOL     OW21070   1.741   4.639   5.869
 6724SOL    HW121071   1.687   4.710   5.823
 6724SOL    HW221072   1.739   4.655   5.967
 6725SOL     OW21073   1.080   4.642   2.384
 6725SOL    HW121074   1.138   4.675   2.458
 6725SOL    HW221075   1.067   4.715   2.316
 6726SOL     OW21076   1.620   2.501   4.877
 6726SOL    HW121077   1.585   2.534   4.965
 6726SOL    HW221078   1.545   2.459   4.825
 6727SOL     OW21079   5.669   3.876   6.257
 6727SOL    HW121080   5.755   3.869   6.308
 6727SOL    HW221081   5.622   3.788   6.258
 6728SOL     OW21082   4.502   1.507   4.495
 6728SOL    HW121083   4.521   1.578   4.564
 6728SOL    HW221084   4.446   1.546   4.422
 6729SOL     OW21085   6.657   1.381   2.495
 6729SOL    HW121086   6.626   1.308   2.557
 6729SOL    HW221087   6.581   1.441   2.473
 6730SOL     OW21088   2.530   6.946   6.813
 6730SOL    HW121089   2.457   6.960   6.880
 6730SOL    HW221090   2.511   6.865   6.759
 6731SOL     OW21091   3.010   4.508   1.216
 6731SOL    HW121092   2.927   4.529   1.267
 6731SOL    HW221093   3.064   4.442   1.268
 6732SOL     OW21094   2.882   5.673   0.057
 6732SOL    HW121095   2.825   5.710   0.130
 6732SOL    HW221096   2.965   5.729   0.048
 6733SOL     OW21097   4.461   5.605   6.595
 6733SOL    HW121098   4.513   5.679   6.637
 6733SOL    HW221099   4.503   5.518   6.618
 6734SOL     OW21100   0.817   3.137   5.882
 6734SOL    HW121101   0.812   3.235   5.904
 6734SOL    HW221102   0.887   3.122   5.812
 6735SOL     OW21103   0.254   5.053   5.170
 6735SOL    HW121104   0.253   5.069   5.071
 6735SOL    HW221105   0.222   4.960   5.188
 6736SOL     OW21106   2.103   3.711   0.531
 6736SOL    HW121107   2.089   3.641   0.462
 6736SOL    HW221108   2.196   3.705   0.567
 6737SOL     OW21109   2.223   1.174   1.538
 6737SOL    HW121110   2.243   1.173   1.636
 6737SOL    HW221111   2.289   1.233   1.491
 6738SOL     OW21112   2.207   2.240   2.446
 6738SOL    HW121113   2.155   2.320   2.415
 6738SOL    HW221114   2.163   2.157   2.413
 6739SOL     OW21115   3.187   5.662   5.397
 6739SOL    HW121116   3.189   5.726   5.474
 6739SOL    HW221117   3.114   5.595   5.412
 6740SOL     OW21118   1.740   1.215   4.294
 6740SOL    HW121119   1.794   1.172   4.366
 6740SOL    HW221120   1.784   1.300   4.266
 6741SOL     OW21121   4.995   1.730   5.974
 6741SOL    HW121122   5.084   1.710   6.017
 6741SOL    HW221123   4.922   1.709   6.039
 6742SOL     OW21124   0.232   6.067   4.716
 6742SOL    HW121125   0.268   6.134   4.650
 6742SOL    HW221126   0.307   6.034   4.773
 6743SOL     OW21127   3.892   3.463   6.752
 6743SOL    HW121128   3.878   3.364   6.755
 6743SOL    HW221129   3.898   3.493   6.657
 6744SOL     OW21130   3.683   4.962   5.900
 6744SOL    HW121131   3.592   4.921   5.894
 6744SOL    HW221132   3.725   4.964   5.810
 6745SOL     OW21133   0.813   5.222   2.945
 6745SOL    HW121134   0.891   5.270   2.905
 6745SOL    HW221135   0.736   5.223   2.880
 6746SOL     OW21136   0.762   1.193   1.670
 6746SOL    HW121137   0.787   1.152   1.758
 6746SOL    HW221138   0.823   1.270   1.651
 6747SOL     OW21139   5.179   6.427   4.558
 6747SOL    HW121140   5.081   6.405   4.553
 6747SOL    HW221141   5.232   6.343   4.545
 6748SOL     OW21142   0.947   1.222   2.193
 6748SOL    HW121143   0.995   1.276   2.262
 6748SOL    HW221144   0.936   1.277   2.110
 6749SOL     OW21145   3.564   0.625   6.934
 6749SOL    HW121146   3.540   0.544   6.987
 6749SOL    HW221147   3.659   0.651   6.953
 6750SOL     OW21148   2.841   1.933   4.175
 6750SOL    HW121149   2.909   1.910   4.244
 6750SOL    HW221150   2.870   2.015   4.126
 6751SOL     OW21151   2.537   2.101   4.019
 6751SOL    HW121152   2.566   2.135   4.109
 6751SOL    HW221153   2.477   2.021   4.032
 6752SOL     OW21154   6.174   2.653   1.264
 6752SOL    HW121155   6.085   2.682   1.232
 6752SOL    HW221156   6.179   2.553   1.262
 6753SOL     OW21157   4.225   1.587   6.237
 6753SOL    HW121158   4.219   1.505   6.293
 6753SOL    HW221159   4.182   1.570   6.148
 6754SOL     OW21160   6.406   2.095   6.325
 6754SOL    HW121161   6.490   2.070   6.277
 6754SOL    HW221162   6.422   2.176   6.381
 6755SOL     OW21163   5.133   1.591   3.196
 6755SOL    HW121164   5.080   1.542   3.127
 6755SOL    HW221165   5.162   1.679   3.161
 6756SOL     OW21166   4.876   4.208   4.349
 6756SOL    HW121167   4.964   4.243   4.317
 6756SOL    HW221168   4.826   4.280   4.397
 6757SOL     OW21169   4.645   5.994   0.843
 6757SOL    HW121170   4.575   6.059   0.874
 6757SOL    HW221171   4.631   5.906   0.888
 6758SOL     OW21172   5.269   3.713   2.069
 6758SOL    HW121173   5.276   3.657   2.151
 6758SOL    HW221174   5.190   3.683   2.015
 6759SOL     OW21175   1.693   4.802   3.146
 6759SOL    HW121176   1.693   4.802   3.046
 6759SOL    HW221177   1.612   4.852   3.179
 6760SOL     OW21178   0.578   4.854   4.879
 6760SOL    HW121179   0.677   4.861   4.867
 6760SOL    HW221180   0.557   4.780   4.943
 6761SOL     OW21181   5.453   2.762   5.650
 6761SOL    HW121182   5.371   2.770   5.593
 6761SOL    HW221183   5.480   2.666   5.657
 6762SOL     OW21184   6.561   4.776   3.492
 6762SOL    HW121185   6.579   4.692   3.441
 6762SOL    HW221186   6.623   4.848   3.459
 6763SOL     OW21187   5.981   5.973   5.084
 6763SOL    HW121188   5.963   5.945   4.990
 6763SOL    HW221189   6.024   5.898   5.134
 6764SOL     OW21190   2.879   3.764   6.235
 6764SOL    HW121191   2.927   3.794   6.317
 6764SOL    HW221192   2.801   3.706   6.261
 6765SOL     OW21193   6.782   4.707   3.207
 6765SOL    HW121194   6.862   4.665   3.249
 6765SOL    HW221195   6.699   4.658   3.235
 6766SOL     OW21196   1.643   0.680   6.187
 6766SOL    HW121197   1.558   0.708   6.144
 6766SOL    HW221198   1.714   0.671   6.117
 6767SOL     OW21199   0.205   2.482   0.079
 6767SOL    HW121200   0.142   2.418   0.122
 6767SOL    HW221201   0.238   2.547   0.148
 6768SOL     OW21202   0.687   0.117   3.739
 6768SOL    HW121203   0.726   0.209   3.741
 6768SOL    HW221204   0.760   0.050   3.736
 6769SOL     OW21205   2.762   2.149   5.316
 6769SOL    HW121206   2.740   2.064   5.363
 6769SOL    HW221207   2.779   2.130   5.219
 6770SOL     OW21208   0.359   2.575   3.654
 6770SOL    HW121209   0.456   2.552   3.660
 6770SOL    HW221210   0.316   2.518   3.584
 6771SOL     OW21211   3.601   2.045   3.507
 6771SOL    HW121212   3.653   2.043   3.422
 6771SOL    HW221213   3.662   2.025   3.584
 6772SOL     OW21214   6.159   1.597   2.812
 6772SOL    HW121215   6.213   1.571   2.892
 6772SOL    HW221216   6.151   1.518   2.751
 6773SOL     OW21217   0.057   5.877   1.652
 6773SOL    HW121218   7.012   5.939   1.627
 6773SOL    HW221219   0.139   5.931   1.674
 6774SOL     OW21220   1.598   1.962   5.130
 6774SOL    HW121221   1.621   1.869   5.159
 6774SOL    HW221222   1.610   1.970   5.031
 6775SOL     OW21223   0.704   1.828   4.519
 6775SOL    HW121224   0.661   1.917   4.533
 6775SOL    HW221225   0.793   1.827   4.565
 6776SOL     OW21226   3.990   4.279   1.651
 6776SOL    HW121227   3.903   4.296   1.605
 6776SOL    HW221228   4.052   4.356   1.635
 6777SOL     OW21229   4.565   5.668   1.559
 6777SOL    HW121230   4.516   5.631   1.638
 6777SOL    HW221231   4.662   5.648   1.569
 6778SOL     OW21232   6.115   3.805   2.754
 6778SOL    HW121233   6.115   3.781   2.657
 6778SOL    HW221234   6.146   3.899   2.764
 6779SOL     OW21235   6.100   4.147   5.979
 6779SOL    HW121236   6.088   4.051   6.005
 6779SOL    HW221237   6.167   4.154   5.905
 6780SOL     OW21238   2.732   2.401   3.304
 6780SOL    HW121239   2.672   2.481   3.296
 6780SOL    HW221240   2.723   2.362   3.395
 6781SOL     OW21241   6.619   1.426   4.059
 6781SOL    HW121242   6.599   1.409   4.155
 6781SOL    HW221243   6.535   1.422   4.006
 6782SOL     OW21244   6.561   2.100   3.778
 6782SOL    HW121245   6.494   2.033   3.747
 6782SOL    HW221246   6.653   2.066   3.759
 6783SOL     OW21247   1.175   4.974   5.163
 6783SOL    HW121248   1.127   4.985   5.250
 6783SOL    HW221249   1.252   5.037   5.160
 6784SOL     OW21250   1.741   3.482   1.445
 6784SOL    HW121251   1.817   3.544   1.464
 6784SOL    HW221252   1.770   3.387   1.462
 6785SOL     OW21253   5.382   4.658   4.560
 6785SOL    HW121254   5.456   4.625   4.619
 6785SOL    HW221255   5.413   4.740   4.511
 6786SOL     OW21256   6.619   2.205   0.756
 6786SOL    HW121257   6.625   2.108   0.781
 6786SOL    HW221258   6.524   2.230   0.740
 6787SOL     OW21259   3.655   2.361   6.806
 6787SOL    HW121260   3.727   2.419   6.844
 6787SOL    HW221261   3.692   2.270   6.787
 6788SOL     OW21262   0.574   4.064   4.011
 6788SOL    HW121263   0.546   4.078   3.916
 6788SOL    HW221264   0.600   4.152   4.051
 6789SOL     OW21265   6.734   3.709   4.003
 6789SOL    HW121266   6.673   3.773   3.956
 6789SOL    HW221267   6.781   3.653   3.935
 6790SOL     OW21268   0.976   4.761   6.220
 6790SOL    HW121269   0.954   4.765   6.123
 6790SOL    HW221270   0.892   4.762   6.274
 6791SOL     OW21271   4.265   1.284   3.924
 6791SOL    HW121272   4.332   1.321   3.989
 6791SOL    HW221273   4.296   1.303   3.831
 6792SOL     OW21274   4.190   0.027   5.417
 6792SOL    HW121275   4.141   0.055   5.335
 6792SOL    HW221276   4.262   6.992   5.393
 6793SOL     OW21277   2.310   3.525   0.326
 6793SOL    HW121278   2.395   3.473   0.314
 6793SOL    HW221279   2.233   3.470   0.295
 6794SOL     OW21280   4.517   1.599   5.704
 6794SOL    HW121281   4.616   1.591   5.713
 6794SOL    HW221282   4.474   1.594   5.794
 6795SOL     OW21283   0.848   0.791   1.381
 6795SOL    HW121284   0.804   0.881   1.386
 6795SOL    HW221285   0.941   0.797   1.416
 6796SOL     OW21286   5.855   1.514   2.347
 6796SOL    HW121287   5.866   1.421   2.314
 6796SOL    HW221288   5.787   1.516   2.421
 6797SOL     OW21289   0.390   1.969   1.857
 6797SOL    HW121290   0.461   2.008   1.799
 6797SOL    HW221291   0.417   1.980   1.953
 6798SOL     OW21292   5.563   0.330   2.049
 6798SOL    HW121293   5.567   0.418   2.002
 6798SOL    HW221294   5.472   0.290   2.039
 6799SOL     OW21295   5.233   0.423   3.322
 6799SOL    HW121296   5.270   0.344   3.372
 6799SOL    HW221297   5.219   0.499   3.385
 6800SOL     OW21298   7.027   1.361   1.365
 6800SOL    HW121299   7.022   1.266   1.396
 6800SOL    HW221300   0.093   1.388   1.356
 6801SOL     OW21301   1.074   6.009   5.129
 6801SOL    HW121302   1.034   6.029   5.219
 6801SOL    HW221303   1.084   5.910   5.119
 6802SOL     OW21304   3.487   5.627   1.482
 6802SOL    HW121305   3.449   5.592   1.397
 6802SOL    HW221306   3.587   5.630   1.475
 6803SOL     OW21307   5.010   4.385   6.340
 6803SOL    HW121308   5.071   4.403   6.263
 6803SOL    HW221309   5.063   4.388   6.425
 6804SOL     OW21310   2.594   4.652   2.750
 6804SOL    HW121311   2.660   4.720   2.717
 6804SOL    HW221312   2.559   4.599   2.672
 6805SOL     OW21313   7.015   4.286   5.579
 6805SOL    HW121314   6.975   4.217   5.640
 6805SOL    HW221315   0.015   4.242   5.494
 6806SOL     OW21316   6.875   1.011   3.220
 6806SOL    HW121317   6.961   1.063   3.219
 6806SOL    HW221318   6.882   0.935   3.155
 6807SOL     OW21319   3.601   3.638   1.854
 6807SOL    HW121320   3.556   3.696   1.922
 6807SOL    HW221321   3.616   3.547   1.892
 6808SOL     OW21322   4.043   1.499   4.347
 6808SOL    HW121323   4.086   1.471   4.432
 6808SOL    HW221324   4.078   1.588   4.319
 6809SOL     OW21325   5.611   4.203   2.116
 6809SOL    HW121326   5.579   4.170   2.028
 6809SOL    HW221327   5.641   4.125   2.172
 6810SOL     OW21328   2.703   1.217   3.702
 6810SOL    HW121329   2.620   1.236   3.753
 6810SOL    HW221330   2.765   1.161   3.758
 6811SOL     OW21331   6.310   1.854   2.260
 6811SOL    HW121332   6.239   1.913   2.222
 6811SOL    HW221333   6.272   1.798   2.333
 6812SOL     OW21334   2.952   3.999   5.000
 6812SOL    HW121335   2.877   4.062   4.977
 6812SOL    HW221336   3.034   4.052   5.022
 6813SOL     OW21337   5.801   3.607   1.973
 6813SOL    HW121338   5.711   3.623   1.933
 6813SOL    HW221339   5.836   3.693   2.010
 6814SOL     OW21340   4.921   1.355   6.259
 6814SOL    HW121341   4.916   1.391   6.166
 6814SOL    HW221342   5.008   1.308   6.272
 6815SOL     OW21343   2.585   5.151   6.516
 6815SOL    HW121344   2.657   5.184   6.577
 6815SOL    HW221345   2.535   5.229   6.478
 6816SOL     OW21346   0.596   1.973   3.963
 6816SOL    HW121347   0.643   1.898   4.009
 6816SOL    HW221348   0.654   2.010   3.891
 6817SOL     OW21349   3.424   2.077   2.121
 6817SOL    HW121350   3.486   2.121   2.056
 6817SOL    HW221351   3.445   1.979   2.126
 6818SOL     OW21352   2.046   6.511   6.257
 6818SOL    HW121353   1.997   6.483   6.174
 6818SOL    HW221354   2.021   6.604   6.281
 6819SOL     OW21355   4.387   4.711   2.368
 6819SOL    HW121356   4.425   4.623   2.338
 6819SOL    HW221357   4.434   4.786   2.321
 6820SOL     OW21358   2.763   6.204   1.087
 6820SOL    HW121359   2.677   6.232   1.130
 6820SOL    HW221360   2.749   6.197   0.988
 6821SOL     OW21361   4.580   2.919   5.211
 6821SOL    HW121362   4.652   2.981   5.181
 6821SOL    HW221363   4.501   2.972   5.242
 6822SOL     OW21364   6.944   2.242   6.421
 6822SOL    HW121365   7.028   2.237   6.366
 6822SOL    HW221366   6.882   2.310   6.381
 6823SOL     OW21367   5.789   3.577   6.773
 6823SOL    HW121368   5.787   3.536   6.682
 6823SOL    HW221369   5.782   3.505   6.842
 6824SOL     OW21370   0.998   2.296   6.425
 6824SOL    HW121371   1.073   2.234   6.402
 6824SOL    HW221372   0.914   2.244   6.439
 6825SOL     OW21373   6.160   5.808   1.873
 6825SOL    HW121374   6.222   5.731   1.891
 6825SOL    HW221375   6.212   5.894   1.878
 6826SOL     OW21376   0.789   3.453   3.606
 6826SOL    HW121377   0.889   3.451   3.606
 6826SOL    HW221378   0.755   3.400   3.529
 6827SOL     OW21379   4.572   6.083   4.614
 6827SOL    HW121380   4.596   6.175   4.645
 6827SOL    HW221381   4.616   6.015   4.673
 6828SOL     OW21382   3.434   1.824   2.703
 6828SOL    HW121383   3.522   1.778   2.714
 6828SOL    HW221384   3.375   1.803   2.781
 6829SOL     OW21385   5.478   6.865   4.634
 6829SOL    HW121386   5.422   6.785   4.658
 6829SOL    HW221387   5.495   6.919   4.716
 6830SOL     OW21388   4.995   0.255   2.823
 6830SOL    HW121389   5.001   0.208   2.911
 6830SOL    HW221390   5.073   0.316   2.812
 6831SOL     OW21391   1.439   1.554   6.609
 6831SOL    HW121392   1.342   1.563   6.629
 6831SOL    HW221393   1.453   1.476   6.547
 6832SOL     OW21394   3.243   2.334   0.433
 6832SOL    HW121395   3.163   2.378   0.475
 6832SOL    HW221396   3.326   2.379   0.466
 6833SOL     OW21397   3.042   5.321   5.849
 6833SOL    HW121398   3.058   5.243   5.910
 6833SOL    HW221399   2.999   5.289   5.765
 6834SOL     OW21400   5.093   0.042   0.492
 6834SOL    HW121401   5.168   0.042   0.557
 6834SOL    HW221402   5.087   6.983   0.448
 6835SOL     OW21403   2.553   2.175   4.617
 6835SOL    HW121404   2.537   2.149   4.522
 6835SOL    HW221405   2.466   2.193   4.663
 6836SOL     OW21406   1.818   4.971   6.510
 6836SOL    HW121407   1.768   4.907   6.452
 6836SOL    HW221408   1.773   4.978   6.599
 6837SOL     OW21409   0.943   0.567   1.772
 6837SOL    HW121410   0.870   0.544   1.836
 6837SOL    HW221411   0.909   0.554   1.678
 6838SOL     OW21412   2.724   4.638   5.302
 6838SOL    HW121413   2.666   4.569   5.259
 6838SOL    HW221414   2.810   4.646   5.253
 6839SOL     OW21415   5.708   2.842   3.799
 6839SOL    HW121416   5.718   2.936   3.767
 6839SOL    HW221417   5.790   2.816   3.852
 6840SOL     OW21418   2.829   6.584   5.027
 6840SOL    HW121419   2.918   6.550   5.056
 6840SOL    HW221420   2.781   6.623   5.106
 6841SOL     OW21421   4.191   5.620   1.449
 6841SOL    HW121422   4.274   5.584   1.406
 6841SOL    HW221423   4.125   5.645   1.378
 6842SOL     OW21424   0.492   4.225   6.651
 6842SOL    HW121425   0.438   4.142   6.658
 6842SOL    HW221426   0.583   4.209   6.689
 6843SOL     OW21427   3.941   1.952   2.011
 6843SOL    HW121428   3.921   2.012   2.088
 6843SOL    HW221429   3.855   1.918   1.972
 6844SOL     OW21430   4.775   5.072   4.046
 6844SOL    HW121431   4.844   5.031   3.987
 6844SOL    HW221432   4.723   5.140   3.995
 6845SOL     OW21433   4.513   4.951   2.248
 6845SOL    HW121434   4.605   4.939   2.285
 6845SOL    HW221435   4.486   5.047   2.256
 6846SOL     OW21436   3.656   3.105   2.730
 6846SOL    HW121437   3.717   3.110   2.650
 6846SOL    HW221438   3.565   3.138   2.704
 6847SOL     OW21439   5.361   3.615   1.642
 6847SOL    HW121440   5.428   3.579   1.578
 6847SOL    HW221441   5.275   3.565   1.632
 6848SOL     OW21442   0.763   5.562   4.284
 6848SOL    HW121443   0.863   5.561   4.276
 6848SOL    HW221444   0.728   5.649   4.250
 6849SOL     OW21445   3.425   5.749   3.758
 6849SOL    HW121446   3.516   5.787   3.745
 6849SOL    HW221447   3.403   5.689   3.680
 6850SOL     OW21448   5.418   2.654   2.852
 6850SOL    HW121449   5.492   2.595   2.821
 6850SOL    HW221450   5.351   2.665   2.778
 6851SOL     OW21451   1.695   5.248   5.939
 6851SOL    HW121452   1.699   5.167   5.880
 6851SOL    HW221453   1.749   5.232   6.021
 6852SOL     OW21454   1.146   4.006   2.023
 6852SOL    HW121455   1.128   3.915   1.986
 6852SOL    HW221456   1.243   4.027   2.016
 6853SOL     OW21457   0.657   4.379   5.739
 6853SOL    HW121458   0.668   4.288   5.698
 6853SOL    HW221459   0.720   4.442   5.694
 6854SOL     OW21460   0.184   1.911   6.079
 6854SOL    HW121461   0.186   1.888   5.982
 6854SOL    HW221462   0.217   2.004   6.092
 6855SOL     OW21463   3.329   6.580   2.528
 6855SOL    HW121464   3.313   6.660   2.471
 6855SOL    HW221465   3.242   6.533   2.544
 6856SOL     OW21466   6.024   4.034   4.704
 6856SOL    HW121467   5.968   4.109   4.737
 6856SOL    HW221468   6.110   4.070   4.667
 6857SOL     OW21469   2.609   2.394   5.988
 6857SOL    HW121470   2.555   2.331   5.932
 6857SOL    HW221471   2.706   2.373   5.977
 6858SOL     OW21472   4.048   3.652   4.745
 6858SOL    HW121473   3.992   3.685   4.670
 6858SOL    HW221474   4.070   3.555   4.731
 6859SOL     OW21475   2.750   6.921   0.818
 6859SOL    HW121476   2.762   6.874   0.905
 6859SOL    HW221477   2.654   6.947   0.808
 6860SOL     OW21478   6.019   4.492   1.190
 6860SOL    HW121479   6.110   4.531   1.204
 6860SOL    HW221480   5.953   4.542   1.246
 6861SOL     OW21481   5.746   6.077   6.645
 6861SOL    HW121482   5.771   6.135   6.723
 6861SOL    HW221483   5.744   5.981   6.674
 6862SOL     OW21484   3.122   5.430   4.933
 6862SOL    HW121485   3.087   5.412   4.841
 6862SOL    HW221486   3.048   5.465   4.990
 6863SOL     OW21487   5.122   1.863   4.136
 6863SOL    HW121488   5.071   1.910   4.207
 6863SOL    HW221489   5.206   1.914   4.116
 6864SOL     OW21490   2.936   6.229   3.347
 6864SOL    HW121491   2.908   6.138   3.379
 6864SOL    HW221492   2.953   6.288   3.426
 6865SOL     OW21493   6.438   4.103   4.784
 6865SOL    HW121494   6.519   4.158   4.765
 6865SOL    HW221495   6.415   4.109   4.881
 6866SOL     OW21496   6.596   3.741   2.156
 6866SOL    HW121497   6.635   3.829   2.130
 6866SOL    HW221498   6.498   3.742   2.137
 6867SOL     OW21499   2.368   4.339   2.217
 6867SOL    HW121500   2.299   4.379   2.278
 6867SOL    HW221501   2.344   4.245   2.196
 6868SOL     OW21502   2.157   6.119   4.784
 6868SOL    HW121503   2.145   6.192   4.851
 6868SOL    HW221504   2.080   6.119   4.720
 6869SOL     OW21505   5.292   1.799   5.863
 6869SOL    HW121506   5.324   1.864   5.932
 6869SOL    HW221507   5.230   1.845   5.800
 6870SOL     OW21508   5.598   3.645   3.032
 6870SOL    HW121509   5.570   3.686   2.945
 6870SOL    HW221510   5.697   3.651   3.041
 6871SOL     OW21511   6.303   4.646   1.189
 6871SOL    HW121512   6.383   4.586   1.197
 6871SOL    HW221513   6.300   4.685   1.098
 6872SOL     OW21514   2.214   3.053   0.586
 6872SOL    HW121515   2.285   3.046   0.516
 6872SOL    HW221516   2.185   2.961   0.614
 6873SOL     OW21517   5.853   3.137   5.946
 6873SOL    HW121518   5.805   3.074   6.007
 6873SOL    HW221519   5.828   3.231   5.967
 6874SOL     OW21520   0.200   2.941   3.840
 6874SOL    HW121521   0.286   2.981   3.872
 6874SOL    HW221522   0.219   2.880   3.763
 6875SOL     OW21523   1.566   1.434   2.702
 6875SOL    HW121524   1.606   1.343   2.713
 6875SOL    HW221525   1.570   1.461   2.606
 6876SOL     OW21526   3.645   5.855   0.064
 6876SOL    HW121527   3.637   5.936   0.122
 6876SOL    HW221528   3.721   5.798   0.096
 6877SOL     OW21529   2.415   3.847   6.940
 6877SOL    HW121530   2.338   3.811   6.994
 6877SOL    HW221531   2.418   3.946   6.948
 6878SOL     OW21532   1.965   1.765   5.101
 6878SOL    HW121533   1.989   1.670   5.120
 6878SOL    HW221534   1.889   1.793   5.159
 6879SOL     OW21535   0.161   2.207   6.897
 6879SOL    HW121536   0.193   2.180   6.987
 6879SOL    HW221537   0.103   2.134   6.860
 6880SOL     OW21538   2.114   3.968   5.209
 6880SOL    HW121539   2.153   3.893   5.263
 6880SOL    HW221540   2.175   3.990   5.133
 6881SOL     OW21541   0.205   4.635   1.613
 6881SOL    HW121542   0.302   4.656   1.605
 6881SOL    HW221543   0.169   4.607   1.524
 6882SOL     OW21544   2.270   0.878   5.458
 6882SOL    HW121545   2.337   0.899   5.529
 6882SOL    HW221546   2.178   0.902   5.491
 6883SOL     OW21547   3.877   0.519   1.263
 6883SOL    HW121548   3.871   0.444   1.329
 6883SOL    HW221549   3.852   0.486   1.172
 6884SOL     OW21550   2.436   4.476   4.770
 6884SOL    HW121551   2.451   4.539   4.846
 6884SOL    HW221552   2.393   4.392   4.804
 6885SOL     OW21553   2.773   6.143   3.640
 6885SOL    HW121554   2.858   6.103   3.674
 6885SOL    HW221555   2.792   6.235   3.605
 6886SOL     OW21556   5.307   1.040   2.528
 6886SOL    HW121557   5.241   1.017   2.600
 6886SOL    HW221558   5.374   1.105   2.563
 6887SOL     OW21559   5.728   0.327   5.138
 6887SOL    HW121560   5.675   0.409   5.158
 6887SOL    HW221561   5.797   0.347   5.069
 6888SOL     OW21562   6.199   0.415   4.783
 6888SOL    HW121563   6.291   0.399   4.818
 6888SOL    HW221564   6.197   0.394   4.685
 6889SOL     OW21565   1.350   3.512   6.466
 6889SOL    HW121566   1.284   3.455   6.514
 6889SOL    HW221567   1.306   3.597   6.436
 6890SOL     OW21568   2.360   0.040   1.143
 6890SOL    HW121569   2.326   0.110   1.205
 6890SOL    HW221570   2.398   0.083   1.061
 6891SOL     OW21571   2.157   3.806   4.469
 6891SOL    HW121572   2.096   3.860   4.525
 6891SOL    HW221573   2.174   3.718   4.514
 6892SOL     OW21574   3.791   0.116   4.078
 6892SOL    HW121575   3.824   0.056   4.005
 6892SOL    HW221576   3.723   0.179   4.040
 6893SOL     OW21577   5.792   5.767   3.583
 6893SOL    HW121578   5.888   5.752   3.607
 6893SOL    HW221579   5.773   5.726   3.494
 6894SOL     OW21580   5.929   5.610   0.183
 6894SOL    HW121581   5.849   5.669   0.173
 6894SOL    HW221582   6.012   5.666   0.184
 6895SOL     OW21583   2.745   3.610   0.160
 6895SOL    HW121584   2.838   3.635   0.135
 6895SOL    HW221585   2.695   3.691   0.189
 6896SOL     OW21586   3.751   0.802   3.379
 6896SOL    HW121587   3.826   0.851   3.424
 6896SOL    HW221588   3.784   0.759   3.296
 6897SOL     OW21589   3.357   3.513   0.647
 6897SOL    HW121590   3.456   3.507   0.661
 6897SOL    HW221591   3.338   3.522   0.549
 6898SOL     OW21592   4.071   1.074   1.873
 6898SOL    HW121593   4.054   1.169   1.899
 6898SOL    HW221594   4.129   1.072   1.791
 6899SOL     OW21595   4.948   6.828   6.198
 6899SOL    HW121596   4.968   6.767   6.275
 6899SOL    HW221597   4.920   6.918   6.233
 6900SOL     OW21598   5.567   0.718   6.004
 6900SOL    HW121599   5.645   0.659   5.984
 6900SOL    HW221600   5.591   0.781   6.078
 6901SOL     OW21601   1.279   0.081   6.238
 6901SOL    HW121602   1.320   0.136   6.311
 6901SOL    HW221603   1.195   0.125   6.206
 6902SOL     OW21604   0.825   6.544   0.049
 6902SOL    HW121605   0.733   6.537   0.086
 6902SOL    HW221606   0.837   6.634   0.006
 6903SOL     OW21607   3.812   4.021   0.556
 6903SOL    HW121608   3.908   4.018   0.529
 6903SOL    HW221609   3.772   3.930   0.542
 6904SOL     OW21610   6.408   0.872   4.080
 6904SOL    HW121611   6.393   0.777   4.108
 6904SOL    HW221612   6.499   0.881   4.039
 6905SOL     OW21613   6.397   6.397   1.351
 6905SOL    HW121614   6.362   6.360   1.266
 6905SOL    HW221615   6.464   6.334   1.391
 6906SOL     OW21616   3.774   1.108   3.805
 6906SOL    HW121617   3.865   1.143   3.827
 6906SOL    HW221618   3.704   1.164   3.850
 6907SOL     OW21619   3.623   0.993   1.909
 6907SOL    HW121620   3.713   0.950   1.912
 6907SOL    HW221621   3.557   0.935   1.955
 6908SOL     OW21622   1.289   6.481   5.520
 6908SOL    HW121623   1.220   6.418   5.555
 6908SOL    HW221624   1.372   6.430   5.496
 6909SOL     OW21625   4.485   4.456   0.676
 6909SOL    HW121626   4.559   4.401   0.639
 6909SOL    HW221627   4.502   4.476   0.773
 6910SOL     OW21628   6.364   1.751   1.867
 6910SOL    HW121629   6.322   1.836   1.897
 6910SOL    HW221630   6.462   1.764   1.853
 6911SOL     OW21631   4.362   0.079   3.804
 6911SOL    HW121632   4.422   0.067   3.883
 6911SOL    HW221633   4.373   0.171   3.767
 6912SOL     OW21634   4.841   4.779   1.075
 6912SOL    HW121635   4.904   4.820   1.009
 6912SOL    HW221636   4.770   4.846   1.099
 6913SOL     OW21637   4.841   4.956   4.284
 6913SOL    HW121638   4.780   5.001   4.219
 6913SOL    HW221639   4.790   4.887   4.335
 6914SOL     OW21640   6.016   4.960   6.442
 6914SOL    HW121641   6.070   5.007   6.511
 6914SOL    HW221642   5.957   4.892   6.486
 6915SOL     OW21643   0.846   4.700   2.530
 6915SOL    HW121644   0.938   4.691   2.490
 6915SOL    HW221645   0.850   4.678   2.627
 6916SOL     OW21646   6.767   4.220   6.948
 6916SOL    HW121647   6.765   4.153   7.023
 6916SOL    HW221648   6.688   4.281   6.957
 6917SOL     OW21649   3.948   6.262   5.972
 6917SOL    HW121650   4.023   6.311   5.927
 6917SOL    HW221651   3.955   6.164   5.952
 6918SOL     OW21652   0.327   3.961   4.048
 6918SOL    HW121653   0.316   3.957   4.147
 6918SOL    HW221654   0.416   4.002   4.026
 6919SOL     OW21655   2.311   6.254   2.421
 6919SOL    HW121656   2.388   6.312   2.397
 6919SOL    HW221657   2.332   6.203   2.504
 6920SOL     OW21658   5.308   5.205   4.312
 6920SOL    HW121659   5.260   5.205   4.225
 6920SOL    HW221660   5.243   5.190   4.386
 6921SOL     OW21661   6.233   6.599   3.560
 6921SOL    HW121662   6.308   6.548   3.603
 6921SOL    HW221663   6.166   6.623   3.629
 6922SOL     OW21664   2.389   6.369   6.855
 6922SOL    HW121665   2.321   6.305   6.891
 6922SOL    HW221666   2.480   6.336   6.878
 6923SOL     OW21667   4.448   6.896   3.638
 6923SOL    HW121668   4.409   6.969   3.694
 6923SOL    HW221669   4.546   6.910   3.626
 6924SOL     OW21670   1.072   4.909   0.296
 6924SOL    HW121671   1.143   4.840   0.312
 6924SOL    HW221672   1.026   4.890   0.210
 6925SOL     OW21673   4.212   6.081   3.614
 6925SOL    HW121674   4.128   6.033   3.639
 6925SOL    HW221675   4.291   6.026   3.643
 6926SOL     OW21676   4.021   3.768   3.693
 6926SOL    HW121677   3.936   3.738   3.737
 6926SOL    HW221678   4.002   3.794   3.599
 6927SOL     OW21679   5.028   3.615   6.679
 6927SOL    HW121680   5.044   3.527   6.724
 6927SOL    HW221681   4.991   3.600   6.587
 6928SOL     OW21682   4.293   0.364   6.655
 6928SOL    HW121683   4.348   0.394   6.733
 6928SOL    HW221684   4.328   0.406   6.571
 6929SOL     OW21685   4.581   6.031   6.888
 6929SOL    HW121686   4.657   5.968   6.900
 6929SOL    HW221687   4.531   6.008   6.804
 6930SOL     OW21688   0.953   6.687   2.028
 6930SOL    HW121689   1.007   6.691   1.944
 6930SOL    HW221690   0.861   6.654   2.007
 6931SOL     OW21691   0.612   0.267   1.672
 6931SOL    HW121692   0.686   0.324   1.635
 6931SOL    HW221693   0.625   0.256   1.770
 6932SOL     OW21694   2.582   1.199   6.845
 6932SOL    HW121695   2.678   1.179   6.829
 6932SOL    HW221696   2.540   1.233   6.761
 6933SOL     OW21697   3.553   5.846   4.970
 6933SOL    HW121698   3.501   5.810   5.047
 6933SOL    HW221699   3.592   5.771   4.918
 6934SOL     OW21700   5.187   2.791   0.101
 6934SOL    HW121701   5.120   2.846   0.051
 6934SOL    HW221702   5.164   2.694   0.092
 6935SOL     OW21703   3.980   5.967   3.751
 6935SOL    HW121704   3.951   5.940   3.843
 6935SOL    HW221705   3.943   6.058   3.730
 6936SOL     OW21706   0.478   2.401   1.863
 6936SOL    HW121707   0.467   2.390   1.764
 6936SOL    HW221708   0.403   2.354   1.910
 6937SOL     OW21709   4.156   6.401   5.868
 6937SOL    HW121710   4.173   6.481   5.810
 6937SOL    HW221711   4.221   6.329   5.845
 6938SOL     OW21712   5.052   3.360   5.955
 6938SOL    HW121713   5.030   3.407   6.041
 6938SOL    HW221714   5.084   3.427   5.888
 6939SOL     OW21715   0.418   4.546   2.059
 6939SOL    HW121716   0.508   4.530   2.099
 6939SOL    HW221717   0.416   4.636   2.015
 6940SOL     OW21718   4.819   0.432   6.168
 6940SOL    HW121719   4.779   0.484   6.092
 6940SOL    HW221720   4.917   0.453   6.174
 6941SOL     OW21721   3.261   2.992   2.570
 6941SOL    HW121722   3.252   3.083   2.531
 6941SOL    HW221723   3.303   2.931   2.502
 6942SOL     OW21724   0.337   2.777   0.662
 6942SOL    HW121725   0.431   2.752   0.641
 6942SOL    HW221726   0.335   2.837   0.742
 6943SOL     OW21727   5.403   6.096   6.078
 6943SOL    HW121728   5.387   6.083   6.176
 6943SOL    HW221729   5.364   6.018   6.028
 6944SOL     OW21730   0.915   5.770   5.641
 6944SOL    HW121731   0.867   5.758   5.728
 6944SOL    HW221732   0.912   5.684   5.589
 6945SOL     OW21733   6.214   3.249   6.376
 6945SOL    HW121734   6.119   3.253   6.345
 6945SOL    HW221735   6.232   3.159   6.416
 6946SOL     OW21736   5.896   4.576   3.173
 6946SOL    HW121737   5.924   4.610   3.262
 6946SOL    HW221738   5.911   4.646   3.104
 6947SOL     OW21739   3.639   6.773   3.397
 6947SOL    HW121740   3.568   6.758   3.329
 6947SOL    HW221741   3.728   6.746   3.359
 6948SOL     OW21742   5.087   0.401   0.401
 6948SOL    HW121743   5.077   0.302   0.390
 6948SOL    HW221744   5.003   0.439   0.440
 6949SOL     OW21745   4.769   6.522   3.334
 6949SOL    HW121746   4.725   6.496   3.248
 6949SOL    HW221747   4.866   6.541   3.318
 6950SOL     OW21748   2.130   0.812   3.608
 6950SOL    HW121749   2.178   0.727   3.588
 6950SOL    HW221750   2.087   0.846   3.524
 6951SOL     OW21751   6.567   6.295   6.127
 6951SOL    HW121752   6.654   6.310   6.081
 6951SOL    HW221753   6.496   6.353   6.086
 6952SOL     OW21754   6.884   5.246   3.667
 6952SOL    HW121755   6.901   5.225   3.571
 6952SOL    HW221756   6.799   5.298   3.675
 6953SOL     OW21757   5.159   0.703   6.136
 6953SOL    HW121758   5.133   0.637   6.207
 6953SOL    HW221759   5.252   0.734   6.152
 6954SOL     OW21760   0.217   2.871   4.382
 6954SOL    HW121761   0.268   2.957   4.387
 6954SOL    HW221762   0.184   2.857   4.289
 6955SOL     OW21763   0.649   6.297   1.556
 6955SOL    HW121764   0.683   6.236   1.628
 6955SOL    HW221765   0.657   6.392   1.586
 6956SOL     OW21766   4.909   5.487   1.975
 6956SOL    HW121767   4.856   5.523   2.052
 6956SOL    HW221768   4.876   5.395   1.952
 6957SOL     OW21769   6.716   4.558   2.094
 6957SOL    HW121770   6.736   4.489   2.025
 6957SOL    HW221771   6.802   4.597   2.128
 6958SOL     OW21772   2.138   2.198   6.166
 6958SOL    HW121773   2.194   2.183   6.084
 6958SOL    HW221774   2.047   2.227   6.139
 6959SOL     OW21775   3.418   1.640   4.732
 6959SOL    HW121776   3.419   1.548   4.772
 6959SOL    HW221777   3.323   1.671   4.723
 6960SOL     OW21778   6.993   5.017   0.133
 6960SOL    HW121779   6.986   4.978   0.041
 6960SOL    HW221780   6.935   4.965   0.196
 6961SOL     OW21781   0.707   2.048   3.425
 6961SOL    HW121782   0.699   2.022   3.329
 6961SOL    HW221783   0.716   2.148   3.431
 6962SOL     OW21784   5.399   5.521   2.710
 6962SOL    HW121785   5.425   5.572   2.792
 6962SOL    HW221786   5.456   5.550   2.633
 6963SOL     OW21787   0.208   5.162   1.608
 6963SOL    HW121788   0.115   5.182   1.642
 6963SOL    HW221789   0.269   5.237   1.635
 6964SOL     OW21790   4.798   5.119   5.324
 6964SOL    HW121791   4.746   5.171   5.256
 6964SOL    HW221792   4.757   5.134   5.414
 6965SOL     OW21793   6.625   3.375   6.289
 6965SOL    HW121794   6.549   3.405   6.347
 6965SOL    HW221795   6.599   3.289   6.245
 6966SOL     OW21796   5.226   2.967   2.730
 6966SOL    HW121797   5.212   3.009   2.641
 6966SOL    HW221798   5.140   2.927   2.762
 6967SOL     OW21799   1.411   2.273   6.330
 6967SOL    HW121800   1.440   2.234   6.417
 6967SOL    HW221801   1.491   2.289   6.272
 6968SOL     OW21802   4.514   6.070   1.154
 6968SOL    HW121803   4.605   6.097   1.123
 6968SOL    HW221804   4.518   5.977   1.191
 6969SOL     OW21805   3.503   1.201   1.762
 6969SOL    HW121806   3.571   1.140   1.803
 6969SOL    HW221807   3.540   1.240   1.677
 6970SOL     OW21808   4.116   4.726   0.678
 6970SOL    HW121809   4.133   4.689   0.586
 6970SOL    HW221810   4.089   4.822   0.671
 6971SOL     OW21811   6.330   2.585   1.659
 6971SOL    HW121812   6.325   2.661   1.724
 6971SOL    HW221813   6.277   2.508   1.694
 6972SOL     OW21814   5.643   4.541   3.843
 6972SOL    HW121815   5.543   4.549   3.848
 6972SOL    HW221816   5.671   4.450   3.875
 6973SOL     OW21817   1.485   4.613   4.534
 6973SOL    HW121818   1.460   4.709   4.547
 6973SOL    HW221819   1.403   4.557   4.539
 6974SOL     OW21820   3.858   3.660   3.395
 6974SOL    HW121821   3.808   3.745   3.379
 6974SOL    HW221822   3.798   3.594   3.440
 6975SOL     OW21823   3.721   0.347   5.718
 6975SOL    HW121824   3.725   0.347   5.618
 6975SOL    HW221825   3.814   0.333   5.754
 6976SOL     OW21826   3.323   4.968   6.729
 6976SOL    HW121827   3.414   5.005   6.712
 6976SOL    HW221828   3.317   4.876   6.690
 6977SOL     OW21829   4.418   1.737   2.164
 6977SOL    HW121830   4.434   1.753   2.066
 6977SOL    HW221831   4.377   1.819   2.205
 6978SOL     OW21832   6.902   0.702   1.983
 6978SOL    HW121833   6.916   0.776   1.918
 6978SOL    HW221834   6.882   0.617   1.933
 6979SOL     OW21835   1.462   5.078   2.224
 6979SOL    HW121836   1.513   4.993   2.222
 6979SOL    HW221837   1.525   5.155   2.234
 6980SOL     OW21838   2.332   1.085   3.439
 6980SOL    HW121839   2.251   1.118   3.389
 6980SOL    HW221840   2.368   1.003   3.395
 6981SOL     OW21841   2.729   4.001   0.013
 6981SOL    HW121842   2.733   3.912   6.996
 6981SOL    HW221843   2.636   4.037   0.008
 6982SOL     OW21844   1.124   0.999   4.195
 6982SOL    HW121845   1.172   0.934   4.135
 6982SOL    HW221846   1.180   1.080   4.208
 6983SOL     OW21847   0.046   0.563   4.410
 6983SOL    HW121848   0.144   0.573   4.394
 6983SOL    HW221849   0.007   0.501   4.342
 6984SOL     OW21850   1.979   1.988   5.504
 6984SOL    HW121851   1.925   2.034   5.433
 6984SOL    HW221852   2.046   1.929   5.460
 6985SOL     OW21853   3.997   5.734   2.077
 6985SOL    HW121854   4.025   5.742   2.173
 6985SOL    HW221855   3.900   5.754   2.069
 6986SOL     OW21856   1.907   6.317   6.094
 6986SOL    HW121857   1.860   6.356   6.015
 6986SOL    HW221858   1.927   6.220   6.076
 6987SOL     OW21859   0.248   2.418   6.232
 6987SOL    HW121860   0.236   2.370   6.318
 6987SOL    HW221861   0.159   2.431   6.188
 6988SOL     OW21862   5.224   1.506   4.663
 6988SOL    HW121863   5.272   1.579   4.614
 6988SOL    HW221864   5.265   1.494   4.753
 6989SOL     OW21865   0.803   1.658   3.589
 6989SOL    HW121866   0.855   1.606   3.657
 6989SOL    HW221867   0.837   1.637   3.497
 6990SOL     OW21868   4.786   2.265   0.388
 6990SOL    HW121869   4.694   2.305   0.384
 6990SOL    HW221870   4.803   2.214   0.304
 6991SOL     OW21871   2.519   4.622   5.001
 6991SOL    HW121872   2.611   4.637   4.966
 6991SOL    HW221873   2.522   4.564   5.082
 6992SOL     OW21874   6.182   6.422   4.761
 6992SOL    HW121875   6.240   6.393   4.837
 6992SOL    HW221876   6.165   6.343   4.701
 6993SOL     OW21877   6.581   6.642   3.447
 6993SOL    HW121878   6.553   6.591   3.528
 6993SOL    HW221879   6.545   6.735   3.451
 6994SOL     OW21880   1.149   3.777   5.848
 6994SOL    HW121881   1.131   3.850   5.913
 6994SOL    HW221882   1.139   3.688   5.893
 6995SOL     OW21883   5.836   5.590   4.754
 6995SOL    HW121884   5.747   5.551   4.777
 6995SOL    HW221885   5.870   5.550   4.669
 6996SOL     OW21886   2.711   0.549   4.947
 6996SOL    HW121887   2.796   0.599   4.936
 6996SOL    HW221888   2.706   0.476   4.879
 6997SOL     OW21889   4.593   6.338   4.712
 6997SOL    HW121890   4.509   6.382   4.742
 6997SOL    HW221891   4.647   6.404   4.658
 6998SOL     OW21892   1.785   2.856   1.500
 6998SOL    HW121893   1.829   2.901   1.577
 6998SOL    HW221894   1.828   2.887   1.415
 6999SOL     OW21895   2.343   1.691   6.158
 6999SOL    HW121896   2.347   1.789   6.173
 6999SOL    HW221897   2.305   1.673   6.067
 7000SOL     OW21898   0.768   5.956   2.398
 7000SOL    HW121899   0.861   5.982   2.423
 7000SOL    HW221900   0.715   6.038   2.375
 7001SOL     OW21901   2.480   2.468   5.573
 7001SOL    HW121902   2.512   2.406   5.502
 7001SOL    HW221903   2.383   2.450   5.592
 7002SOL     OW21904   2.759   4.703   3.746
 7002SOL    HW121905   2.700   4.718   3.826
 7002SOL    HW221906   2.848   4.745   3.762
 7003SOL     OW21907   2.831   0.209   6.610
 7003SOL    HW121908   2.863   0.125   6.567
 7003SOL    HW221909   2.766   0.255   6.550
 7004SOL     OW21910   2.034   4.231   1.937
 7004SOL    HW121911   2.116   4.265   1.890
 7004SOL    HW221912   1.966   4.202   1.869
 7005SOL     OW21913   6.528   6.022   5.572
 7005SOL    HW121914   6.612   6.058   5.532
 7005SOL    HW221915   6.477   6.097   5.616
 7006SOL     OW21916   4.676   4.265   4.919
 7006SOL    HW121917   4.672   4.221   4.830
 7006SOL    HW221918   4.754   4.229   4.971
 7007SOL     OW21919   4.701   6.616   2.956
 7007SOL    HW121920   4.605   6.644   2.962
 7007SOL    HW221921   4.710   6.522   2.989
 7008SOL     OW21922   2.097   4.914   4.710
 7008SOL    HW121923   2.113   4.900   4.613
 7008SOL    HW221924   2.074   5.010   4.727
 7009SOL     OW21925   6.483   5.429   2.757
 7009SOL    HW121926   6.490   5.518   2.801
 7009SOL    HW221927   6.432   5.367   2.817
 7010SOL     OW21928   3.603   4.670   6.227
 7010SOL    HW121929   3.679   4.667   6.162
 7010SOL    HW221930   3.633   4.636   6.316
 7011SOL     OW21931   1.625   6.902   5.155
 7011SOL    HW121932   1.685   6.898   5.235
 7011SOL    HW221933   1.579   6.991   5.152
 7012SOL     OW21934   1.166   0.284   1.975
 7012SOL    HW121935   1.234   0.355   1.993
 7012SOL    HW221936   1.185   0.241   1.887
 7013SOL     OW21937   0.933   6.821   1.294
 7013SOL    HW121938   1.026   6.790   1.274
 7013SOL    HW221939   0.870   6.743   1.287
 7014SOL     OW21940   4.066   4.086   0.975
 7014SOL    HW121941   4.067   4.026   0.895
 7014SOL    HW221942   4.016   4.041   1.049
 7015SOL     OW21943   5.477   3.553   2.326
 7015SOL    HW121944   5.570   3.565   2.294
 7015SOL    HW221945   5.452   3.456   2.321
 7016SOL     OW21946   4.666   5.305   2.191
 7016SOL    HW121947   4.587   5.279   2.136
 7016SOL    HW221948   4.678   5.405   2.187
 7017SOL     OW21949   2.703   1.021   3.165
 7017SOL    HW121950   2.770   0.947   3.171
 7017SOL    HW221951   2.703   1.073   3.251
 7018SOL     OW21952   6.983   4.140   4.987
 7018SOL    HW121953   0.010   4.097   4.917
 7018SOL    HW221954   6.887   4.130   4.963
 7019SOL     OW21955   2.430   4.563   6.661
 7019SOL    HW121956   2.374   4.571   6.743
 7019SOL    HW221957   2.450   4.654   6.625
 7020SOL     OW21958   5.600   0.302   0.464
 7020SOL    HW121959   5.697   0.328   0.460
 7020SOL    HW221960   5.544   0.382   0.441
 7021SOL     OW21961   2.887   1.143   4.441
 7021SOL    HW121962   2.907   1.233   4.403
 7021SOL    HW221963   2.788   1.125   4.434
 7022SOL     OW21964   5.002   3.481   0.732
 7022SOL    HW121965   4.916   3.525   0.705
 7022SOL    HW221966   5.061   3.549   0.776
 7023SOL     OW21967   6.520   2.644   2.607
 7023SOL    HW121968   6.456   2.674   2.678
 7023SOL    HW221969   6.479   2.658   2.517
 7024SOL     OW21970   1.864   5.837   6.514
 7024SOL    HW121971   1.803   5.900   6.467
 7024SOL    HW221972   1.895   5.767   6.450
 7025SOL     OW21973   2.884   1.948   6.480
 7025SOL    HW121974   2.946   1.870   6.467
 7025SOL    HW221975   2.797   1.929   6.434
 7026SOL     OW21976   3.068   1.319   2.334
 7026SOL    HW121977   3.103   1.313   2.241
 7026SOL    HW221978   2.968   1.314   2.333
 7027SOL     OW21979   4.052   5.563   3.164
 7027SOL    HW121980   4.060   5.634   3.094
 7027SOL    HW221981   3.971   5.580   3.220
 7028SOL     OW21982   4.810   6.579   3.835
 7028SOL    HW121983   4.764   6.580   3.746
 7028SOL    HW221984   4.904   6.611   3.825
 7029SOL     OW21985   2.867   6.463   6.433
 7029SOL    HW121986   2.929   6.398   6.389
 7029SOL    HW221987   2.777   6.459   6.390
 7030SOL     OW21988   0.357   3.844   5.711
 7030SOL    HW121989   0.407   3.773   5.760
 7030SOL    HW221990   0.284   3.880   5.769
 7031SOL     OW21991   2.357   5.841   4.030
 7031SOL    HW121992   2.406   5.838   4.117
 7031SOL    HW221993   2.288   5.913   4.032
 7032SOL     OW21994   4.604   6.915   2.992
 7032SOL    HW121995   4.578   7.001   3.036
 7032SOL    HW221996   4.601   6.927   2.892
 7033SOL     OW21997   6.804   1.207   4.050
 7033SOL    HW121998   6.870   1.236   3.981
 7033SOL    HW221999   6.743   1.283   4.072
 7034SOL     OW22000   5.138   0.171   2.468
 7034SOL    HW122001   5.178   0.114   2.395
 7034SOL    HW222002   5.143   0.122   2.555
 7035SOL     OW22003   0.951   6.677   2.710
 7035SOL    HW122004   0.997   6.641   2.629
 7035SOL    HW222005   0.853   6.686   2.691
 7036SOL     OW22006   6.428   5.558   1.542
 7036SOL    HW122007   6.393   5.476   1.497
 7036SOL    HW222008   6.361   5.631   1.536
 7037SOL     OW22009   0.505   6.617   5.889
 7037SOL    HW122010   0.430   6.553   5.905
 7037SOL    HW222011   0.592   6.571   5.908
 7038SOL     OW22012   1.401   4.449   3.841
 7038SOL    HW122013   1.420   4.471   3.746
 7038SOL    HW222014   1.450   4.512   3.901
 7039SOL     OW22015   3.454   7.026   6.999
 7039SOL    HW122016   3.399   6.943   6.991
 7039SOL    HW222017   3.395   0.077   6.991
 7040SOL     OW22018   4.821   2.681   5.912
 7040SOL    HW122019   4.884   2.694   5.836
 7040SOL    HW222020   4.731   2.716   5.887
 7041SOL     OW22021   1.200   1.271   3.251
 7041SOL    HW122022   1.124   1.252   3.189
 7041SOL    HW222023   1.240   1.185   3.281
 7042SOL     OW22024   4.855   5.282   6.511
 7042SOL    HW122025   4.891   5.375   6.502
 7042SOL    HW222026   4.808   5.256   6.427
 7043SOL     OW22027   1.902   3.108   3.281
 7043SOL    HW122028   1.855   3.194   3.259
 7043SOL    HW222029   1.918   3.104   3.380
 7044SOL     OW22030   4.618   4.855   3.097
 7044SOL    HW122031   4.581   4.917   3.167
 7044SOL    HW222032   4.545   4.795   3.064
 7045SOL     OW22033   4.906   6.759   0.929
 7045SOL    HW122034   4.816   6.733   0.964
 7045SOL    HW222035   4.922   6.856   0.949
 7046SOL     OW22036   3.755   1.527   4.402
 7046SOL    HW122037   3.717   1.455   4.459
 7046SOL    HW222038   3.851   1.507   4.382
 7047SOL     OW22039   0.670   2.083   2.985
 7047SOL    HW122040   0.575   2.086   2.955
 7047SOL    HW222041   0.729   2.121   2.912
 7048SOL     OW22042   1.414   5.691   0.862
 7048SOL    HW122043   1.389   5.758   0.792
 7048SOL    HW222044   1.420   5.600   0.821
 7049SOL     OW22045   2.286   0.753   0.904
 7049SOL    HW122046   2.330   0.789   0.986
 7049SOL    HW222047   2.297   0.654   0.901
 7050SOL     OW22048   3.740   4.047   4.324
 7050SOL    HW122049   3.828   4.025   4.366
 7050SOL    HW222050   3.756   4.087   4.233
 7051SOL     OW22051   0.039   0.677   1.391
 7051SOL    HW122052   0.058   0.659   1.487
 7051SOL    HW222053   6.983   0.633   1.364
 7052SOL     OW22054   6.803   1.810   4.795
 7052SOL    HW122055   6.784   1.889   4.737
 7052SOL    HW222056   6.798   1.726   4.740
 7053SOL     OW22057   0.150   3.986   6.470
 7053SOL    HW122058   0.195   3.907   6.429
 7053SOL    HW222059   0.055   3.963   6.492
 7054SOL     OW22060   0.554   6.415   1.318
 7054SOL    HW122061   0.473   6.472   1.335
 7054SOL    HW222062   0.583   6.372   1.403
 7055SOL     OW22063   4.310   7.012   5.796
 7055SOL    HW122064   4.267   0.019   5.878
 7055SOL    HW222065   4.353   0.056   5.745
 7056SOL     OW22066   5.495   4.856   3.316
 7056SOL    HW122067   5.548   4.772   3.314
 7056SOL    HW222068   5.555   4.933   3.342
 7057SOL     OW22069   0.689   3.976   4.714
 7057SOL    HW122070   0.678   3.894   4.770
 7057SOL    HW222071   0.767   3.963   4.651
 7058SOL     OW22072   0.005   5.315   5.098
 7058SOL    HW122073   6.958   5.316   5.162
 7058SOL    HW222074   0.090   5.329   5.147
 7059SOL     OW22075   0.421   0.080   1.867
 7059SOL    HW122076   0.335   0.131   1.862
 7059SOL    HW222077   0.496   0.143   1.883
 7060SOL     OW22078   3.472   0.167   1.799
 7060SOL    HW122079   3.539   0.113   1.850
 7060SOL    HW222080   3.411   0.106   1.748
 7061SOL     OW22081   0.434   2.131   3.572
 7061SOL    HW122082   0.491   2.049   3.579
 7061SOL    HW222083   0.406   2.160   3.664
 7062SOL     OW22084   6.026   2.145   5.614
 7062SOL    HW122085   6.018   2.191   5.526
 7062SOL    HW222086   6.012   2.212   5.688
 7063SOL     OW22087   1.662   6.399   0.531
 7063SOL    HW122088   1.710   6.387   0.444
 7063SOL    HW222089   1.617   6.314   0.557
 7064SOL     OW22090   4.513   2.200   1.666
 7064SOL    HW122091   4.566   2.135   1.720
 7064SOL    HW222092   4.432   2.156   1.629
 7065SOL     OW22093   4.882   4.257   1.253
 7065SOL    HW122094   4.945   4.227   1.181
 7065SOL    HW222095   4.865   4.355   1.242
 7066SOL     OW22096   3.672   1.057   0.446
 7066SOL    HW122097   3.590   1.057   0.501
 7066SOL    HW222098   3.653   1.102   0.358
 7067SOL     OW22099   0.845   3.430   5.534
 7067SOL    HW122100   0.828   3.331   5.530
 7067SOL    HW222101   0.786   3.477   5.469
 7068SOL     OW22102   1.373   2.984   3.093
 7068SOL    HW122103   1.386   2.968   3.191
 7068SOL    HW222104   1.327   2.905   3.052
 7069SOL     OW22105   6.076   3.874   4.916
 7069SOL    HW122106   6.075   3.937   4.994
 7069SOL    HW222107   6.084   3.927   4.831
 7070SOL     OW22108   6.439   5.355   5.078
 7070SOL    HW122109   6.465   5.420   5.007
 7070SOL    HW222110   6.521   5.308   5.111
 7071SOL     OW22111   0.746   6.198   5.394
 7071SOL    HW122112   0.736   6.173   5.491
 7071SOL    HW222113   0.708   6.125   5.337
 7072SOL     OW22114   0.030   6.867   5.974
 7072SOL    HW122115   6.985   6.826   5.922
 7072SOL    HW222116   0.115   6.817   5.956
 7073SOL     OW22117   6.677   1.090   4.839
 7073SOL    HW122118   6.676   1.098   4.939
 7073SOL    HW222119   6.754   1.032   4.812
 7074SOL     OW22120   3.637   3.283   2.133
 7074SOL    HW122121   3.689   3.359   2.096
 7074SOL    HW222122   3.575   3.247   2.063
 7075SOL     OW22123   1.625   6.121   4.509
 7075SOL    HW122124   1.560   6.076   4.448
 7075SOL    HW222125   1.718   6.107   4.474
 7076SOL     OW22126   3.310   1.857   6.985
 7076SOL    HW122127   3.321   1.761   7.011
 7076SOL    HW222128   3.215   1.885   7.000
 7077SOL     OW22129   2.358   5.787   5.501
 7077SOL    HW122130   2.296   5.795   5.423
 7077SOL    HW222131   2.338   5.704   5.552
 7078SOL     OW22132   6.029   0.246   2.777
 7078SOL    HW122133   6.116   0.226   2.732
 7078SOL    HW222134   5.960   0.181   2.745
 7079SOL     OW22135   6.753   6.315   5.909
 7079SOL    HW122136   6.849   6.344   5.903
 7079SOL    HW222137   6.704   6.347   5.828
 7080SOL     OW22138   3.739   1.993   3.726
 7080SOL    HW122139   3.813   1.928   3.712
 7080SOL    HW222140   3.722   2.004   3.824
 7081SOL     OW22141   3.757   1.336   5.205
 7081SOL    HW122142   3.802   1.398   5.269
 7081SOL    HW222143   3.674   1.299   5.246
 7082SOL     OW22144   5.436   6.822   0.467
 7082SOL    HW122145   5.423   6.879   0.548
 7082SOL    HW222146   5.533   6.800   0.456
 7083SOL     OW22147   2.859   0.934   6.159
 7083SOL    HW122148   2.845   1.003   6.088
 7083SOL    HW222149   2.771   0.895   6.186
 7084SOL     OW22150   0.077   6.646   5.565
 7084SOL    HW122151   0.157   6.707   5.564
 7084SOL    HW222152   0.066   6.608   5.656
 7085SOL     OW22153   1.807   2.041   3.007
 7085SOL    HW122154   1.754   1.992   3.077
 7085SOL    HW222155   1.778   2.010   2.916
 7086SOL     OW22156   5.530   1.023   6.158
 7086SOL    HW122157   5.619   1.021   6.112
 7086SOL    HW222158   5.538   1.075   6.244
 7087SOL     OW22159   0.758   2.926   4.749
 7087SOL    HW122160   0.829   2.993   4.769
 7087SOL    HW222161   0.800   2.835   4.741
 7088SOL     OW22162   4.748   2.769   4.103
 7088SOL    HW122163   4.710   2.788   4.013
 7088SOL    HW222164   4.745   2.670   4.120
 7089SOL     OW22165   3.147   2.914   6.249
 7089SOL    HW122166   3.102   2.932   6.162
 7089SOL    HW222167   3.120   2.824   6.282
 7090SOL     OW22168   2.295   1.522   5.892
 7090SOL    HW122169   2.237   1.449   5.855
 7090SOL    HW222170   2.317   1.587   5.820
 7091SOL     OW22171   0.255   1.467   6.469
 7091SOL    HW122172   0.170   1.437   6.424
 7091SOL    HW222173   0.233   1.506   6.558
 7092SOL     OW22174   4.433   3.134   0.270
 7092SOL    HW122175   4.361   3.067   0.254
 7092SOL    HW222176   4.407   3.222   0.229
 7093SOL     OW22177   3.519   3.686   4.368
 7093SOL    HW122178   3.617   3.690   4.387
 7093SOL    HW222179   3.502   3.620   4.295
 7094SOL     OW22180   0.833   6.596   5.687
 7094SOL    HW122181   0.810   6.507   5.648
 7094SOL    HW222182   0.798   6.668   5.627
 7095SOL     OW22183   2.543   2.690   6.920
 7095SOL    HW122184   2.618   2.715   6.859
 7095SOL    HW222185   2.457   2.725   6.883
 7096SOL     OW22186   5.560   2.184   3.525
 7096SOL    HW122187   5.494   2.178   3.600
 7096SOL    HW222188   5.624   2.259   3.543
 7097SOL     OW22189   6.860   0.505   1.784
 7097SOL    HW122190   6.957   0.487   1.771
 7097SOL    HW222191   6.832   0.580   1.723
 7098SOL     OW22192   1.495   5.902   4.791
 7098SOL    HW122193   1.454   5.879   4.703
 7098SOL    HW222194   1.535   5.993   4.786
 7099SOL     OW22195   1.439   1.067   4.865
 7099SOL    HW122196   1.486   1.145   4.823
 7099SOL    HW222197   1.471   1.055   4.959
 7100SOL     OW22198   5.396   3.589   1.030
 7100SOL    HW122199   5.406   3.600   1.129
 7100SOL    HW222200   5.480   3.553   0.991
 7101SOL     OW22201   3.014   0.607   4.488
 7101SOL    HW122202   2.922   0.635   4.460
 7101SOL    HW222203   3.081   0.643   4.423
 7102SOL     OW22204   4.701   1.030   0.756
 7102SOL    HW122205   4.701   1.116   0.808
 7102SOL    HW222206   4.649   1.042   0.671
 7103SOL     OW22207   4.206   5.414   0.320
 7103SOL    HW122208   4.164   5.370   0.241
 7103SOL    HW222209   4.304   5.396   0.320
 7104SOL     OW22210   1.309   3.651   4.454
 7104SOL    HW122211   1.378   3.581   4.444
 7104SOL    HW222212   1.350   3.741   4.437
 7105SOL     OW22213   3.569   2.878   5.486
 7105SOL    HW122214   3.499   2.947   5.503
 7105SOL    HW222215   3.543   2.823   5.407
 7106SOL     OW22216   3.563   3.045   3.334
 7106SOL    HW122217   3.475   3.032   3.288
 7106SOL    HW222218   3.631   3.077   3.269
 7107SOL     OW22219   2.568   0.841   0.689
 7107SOL    HW122220   2.534   0.861   0.598
 7107SOL    HW222221   2.666   0.821   0.684
 7108SOL     OW22222   4.437   6.584   1.140
 7108SOL    HW122223   4.350   6.597   1.092
 7108SOL    HW222224   4.424   6.604   1.237
 7109SOL     OW22225   3.408   6.978   6.261
 7109SOL    HW122226   3.314   7.009   6.244
 7109SOL    HW222227   3.413   6.879   6.245
 7110SOL     OW22228   5.464   5.376   3.908
 7110SOL    HW122229   5.498   5.429   3.830
 7110SOL    HW222230   5.366   5.359   3.896
 7111SOL     OW22231   0.898   3.202   4.797
 7111SOL    HW122232   0.991   3.211   4.763
 7111SOL    HW222233   0.837   3.262   4.745
 7112SOL     OW22234   1.653   5.519   4.478
 7112SOL    HW122235   1.640   5.452   4.405
 7112SOL    HW222236   1.649   5.473   4.567
 7113SOL     OW22237   3.475   4.131   4.343
 7113SOL    HW122238   3.408   4.061   4.322
 7113SOL    HW222239   3.566   4.090   4.349
 7114SOL     OW22240   4.150   0.349   1.510
 7114SOL    HW122241   4.165   0.310   1.601
 7114SOL    HW222242   4.222   0.317   1.448
 7115SOL     OW22243   5.302   2.389   1.779
 7115SOL    HW122244   5.264   2.346   1.697
 7115SOL    HW222245   5.228   2.435   1.829
 7116SOL     OW22246   5.715   3.601   3.587
 7116SOL    HW122247   5.725   3.665   3.663
 7116SOL    HW222248   5.653   3.641   3.519
 7117SOL     OW22249   0.226   6.685   4.081
 7117SOL    HW122250   0.198   6.601   4.128
 7117SOL    HW222251   0.288   6.737   4.140
 7118SOL     OW22252   5.268   2.983   0.646
 7118SOL    HW122253   5.192   2.991   0.582
 7118SOL    HW222254   5.236   3.007   0.738
 7119SOL     OW22255   5.000   1.220   3.064
 7119SOL    HW122256   4.997   1.314   3.030
 7119SOL    HW222257   5.094   1.189   3.069
 7120SOL     OW22258   4.086   1.702   2.459
 7120SOL    HW122259   4.025   1.751   2.397
 7120SOL    HW222260   4.149   1.645   2.406
 7121SOL     OW22261   2.112   0.462   3.374
 7121SOL    HW122262   2.058   0.394   3.423
 7121SOL    HW222263   2.088   0.460   3.277
 7122SOL     OW22264   6.638   0.396   6.999
 7122SOL    HW122265   6.606   0.441   6.916
 7122SOL    HW222266   6.560   0.363   0.022
 7123SOL     OW22267   3.457   5.544   1.217
 7123SOL    HW122268   3.525   5.501   1.158
 7123SOL    HW222269   3.367   5.537   1.174
 7124SOL     OW22270   1.060   4.391   0.742
 7124SOL    HW122271   1.077   4.485   0.712
 7124SOL    HW222272   1.105   4.327   0.678
 7125SOL     OW22273   6.408   6.210   0.969
 7125SOL    HW122274   6.418   6.147   0.892
 7125SOL    HW222275   6.458   6.174   1.048
 7126SOL     OW22276   2.558   3.905   0.818
 7126SOL    HW122277   2.650   3.888   0.853
 7126SOL    HW222278   2.510   3.967   0.880
 7127SOL     OW22279   2.847   5.156   4.292
 7127SOL    HW122280   2.815   5.072   4.337
 7127SOL    HW222281   2.893   5.132   4.206
 7128SOL     OW22282   3.282   4.585   0.222
 7128SOL    HW122283   3.338   4.550   0.298
 7128SOL    HW222284   3.210   4.519   0.201
 7129SOL     OW22285   2.913   0.744   0.826
 7129SOL    HW122286   2.942   0.689   0.905
 7129SOL    HW222287   2.847   0.813   0.856
 7130SOL     OW22288   3.118   4.899   4.386
 7130SOL    HW122289   3.082   4.863   4.472
 7130SOL    HW222290   3.132   4.998   4.395
 7131SOL     OW22291   2.507   1.695   0.603
 7131SOL    HW122292   2.445   1.679   0.679
 7131SOL    HW222293   2.536   1.791   0.603
 7132SOL     OW22294   4.057   3.644   2.264
 7132SOL    HW122295   3.996   3.569   2.288
 7132SOL    HW222296   4.004   3.722   2.230
 7133SOL     OW22297   5.235   4.635   3.329
 7133SOL    HW122298   5.221   4.692   3.248
 7133SOL    HW222299   5.152   4.636   3.385
 7134SOL     OW22300   6.274   5.975   3.933
 7134SOL    HW122301   6.178   5.947   3.945
 7134SOL    HW222302   6.302   5.960   3.838
 7135SOL     OW22303   1.061   1.283   3.798
 7135SOL    HW122304   1.033   1.220   3.870
 7135SOL    HW222305   1.069   1.232   3.712
 7136SOL     OW22306   1.573   1.597   0.699
 7136SOL    HW122307   1.593   1.499   0.706
 7136SOL    HW222308   1.595   1.629   0.607
 7137SOL     OW22309   4.218   1.461   4.545
 7137SOL    HW122310   4.263   1.526   4.606
 7137SOL    HW222311   4.287   1.412   4.492
 7138SOL     OW22312   2.791   2.743   1.225
 7138SOL    HW122313   2.838   2.799   1.293
 7138SOL    HW222314   2.825   2.768   1.134
 7139SOL     OW22315   4.903   3.278   2.031
 7139SOL    HW122316   4.841   3.200   2.034
 7139SOL    HW222317   4.890   3.329   1.946
 7140SOL     OW22318   5.913   3.115   5.182
 7140SOL    HW122319   5.998   3.165   5.198
 7140SOL    HW222320   5.848   3.136   5.255
 7141SOL     OW22321   3.368   0.223   1.061
 7141SOL    HW122322   3.321   0.302   1.099
 7141SOL    HW222323   3.393   0.242   0.966
 7142SOL     OW22324   4.116   6.610   3.523
 7142SOL    HW122325   4.072   6.688   3.477
 7142SOL    HW222326   4.144   6.542   3.455
 7143SOL     OW22327   1.628   3.137   6.172
 7143SOL    HW122328   1.532   3.125   6.198
 7143SOL    HW222329   1.633   3.169   6.077
 7144SOL     OW22330   0.967   0.757   3.133
 7144SOL    HW122331   0.878   0.737   3.093
 7144SOL    HW222332   1.002   0.674   3.178
 7145SOL     OW22333   3.762   6.233   6.166
 7145SOL    HW122334   3.704   6.313   6.177
 7145SOL    HW222335   3.834   6.253   6.099
 7146SOL     OW22336   1.892   0.226   0.471
 7146SOL    HW122337   1.985   0.202   0.443
 7146SOL    HW222338   1.874   0.321   0.448
 7147SOL     OW22339   6.257   0.231   3.943
 7147SOL    HW122340   6.201   0.187   3.873
 7147SOL    HW222341   6.350   0.194   3.940
 7148SOL     OW22342   1.104   5.895   1.468
 7148SOL    HW122343   1.162   5.873   1.390
 7148SOL    HW222344   1.050   5.976   1.447
 7149SOL     OW22345   6.928   0.244   3.380
 7149SOL    HW122346   6.994   0.184   3.333
 7149SOL    HW222347   6.871   0.290   3.312
 7150SOL     OW22348   4.913   3.189   1.478
 7150SOL    HW122349   4.822   3.197   1.517
 7150SOL    HW222350   4.952   3.100   1.503
 7151SOL     OW22351   1.475   5.445   1.002
 7151SOL    HW122352   1.557   5.455   1.058
 7151SOL    HW222353   1.496   5.388   0.922
 7152SOL     OW22354   0.254   3.115   5.884
 7152SOL    HW122355   0.314   3.127   5.963
 7152SOL    HW222356   0.189   3.042   5.903
 7153SOL     OW22357   3.647   6.350   4.890
 7153SOL    HW122358   3.574   6.366   4.824
 7153SOL    HW222359   3.613   6.291   4.964
 7154SOL     OW22360   4.053   5.768   4.703
 7154SOL    HW122361   4.051   5.821   4.618
 7154SOL    HW222362   4.085   5.675   4.684
 7155SOL     OW22363   1.682   6.035   1.510
 7155SOL    HW122364   1.744   6.081   1.573
 7155SOL    HW222365   1.720   6.038   1.418
 7156SOL     OW22366   0.539   4.993   4.594
 7156SOL    HW122367   0.502   4.923   4.533
 7156SOL    HW222368   0.525   4.964   4.689
 7157SOL     OW22369   6.413   5.276   0.882
 7157SOL    HW122370   6.461   5.337   0.945
 7157SOL    HW222371   6.343   5.328   0.833
 7158SOL     OW22372   0.378   6.998   3.593
 7158SOL    HW122373   0.294   7.006   3.647
 7158SOL    HW222374   0.354   6.976   3.498
 7159SOL     OW22375   0.264   4.313   1.887
 7159SOL    HW122376   0.226   4.252   1.956
 7159SOL    HW222377   0.289   4.400   1.929
 7160SOL     OW22378   6.747   0.679   2.570
 7160SOL    HW122379   6.686   0.620   2.622
 7160SOL    HW222380   6.770   0.635   2.483
 7161SOL     OW22381   3.230   4.075   3.960
 7161SOL    HW122382   3.256   3.978   3.955
 7161SOL    HW222383   3.211   4.109   3.868
 7162SOL     OW22384   3.053   5.849   5.555
 7162SOL    HW122385   2.997   5.767   5.568
 7162SOL    HW222386   2.994   5.927   5.534
 7163SOL     OW22387   3.690   6.984   4.269
 7163SOL    HW122388   3.695   0.013   4.188
 7163SOL    HW222389   3.687   0.011   4.351
 7164SOL     OW22390   1.361   1.937   3.026
 7164SOL    HW122391   1.337   2.007   3.093
 7164SOL    HW222392   1.295   1.862   3.032
 7165SOL     OW22393   5.977   0.504   1.026
 7165SOL    HW122394   5.897   0.465   1.072
 7165SOL    HW222395   5.994   0.596   1.061
 7166SOL     OW22396   5.402   4.369   1.518
 7166SOL    HW122397   5.394   4.291   1.581
 7166SOL    HW222398   5.320   4.374   1.460
 7167SOL     OW22399   5.113   3.912   4.971
 7167SOL    HW122400   5.191   3.862   5.008
 7167SOL    HW222401   5.072   3.860   4.896
 7168SOL     OW22402   1.173   1.932   4.356
 7168SOL    HW122403   1.192   1.981   4.441
 7168SOL    HW222404   1.171   1.834   4.373
 7169SOL     OW22405   1.471   3.269   5.297
 7169SOL    HW122406   1.413   3.331   5.244
 7169SOL    HW222407   1.503   3.316   5.380
 7170SOL     OW22408   4.265   5.113   3.414
 7170SOL    HW122409   4.261   5.067   3.325
 7170SOL    HW222410   4.235   5.208   3.404
 7171SOL     OW22411   5.799   3.653   6.064
 7171SOL    HW122412   5.725   3.679   6.126
 7171SOL    HW222413   5.769   3.668   5.970
 7172SOL     OW22414   1.535   6.994   6.669
 7172SOL    HW122415   1.601   0.007   6.731
 7172SOL    HW222416   1.574   6.991   6.576
 7173SOL     OW22417   0.146   4.801   5.139
 7173SOL    HW122418   0.106   4.714   5.169
 7173SOL    HW222419   0.144   4.805   5.039
 7174SOL     OW22420   1.169   5.411   6.992
 7174SOL    HW122421   1.230   5.396   0.040
 7174SOL    HW222422   1.181   5.505   6.959
 7175SOL     OW22423   5.427   2.925   1.042
 7175SOL    HW122424   5.390   3.012   1.074
 7175SOL    HW222425   5.504   2.942   0.981
 7176SOL     OW22426   0.506   5.420   2.652
 7176SOL    HW122427   0.583   5.359   2.632
 7176SOL    HW222428   0.447   5.427   2.571
 7177SOL     OW22429   1.836   6.268   3.915
 7177SOL    HW122430   1.840   6.344   3.979
 7177SOL    HW222431   1.929   6.241   3.889
 7178SOL     OW22432   2.183   2.457   5.842
 7178SOL    HW122433   2.182   2.378   5.903
 7178SOL    HW222434   2.227   2.535   5.888
 7179SOL     OW22435   2.116   3.030   5.879
 7179SOL    HW122436   2.047   3.100   5.900
 7179SOL    HW222437   2.089   2.943   5.920
 7180SOL     OW22438   0.977   5.370   5.993
 7180SOL    HW122439   0.975   5.440   6.064
 7180SOL    HW222440   0.885   5.339   5.975
 7181SOL     OW22441   3.733   0.009   0.468
 7181SOL    HW122442   3.759   7.013   0.562
 7181SOL    HW222443   3.715   6.955   0.416
 7182SOL     OW22444   1.636   3.567   5.769
 7182SOL    HW122445   1.629   3.588   5.866
 7182SOL    HW222446   1.637   3.652   5.716
 7183SOL     OW22447   1.701   5.010   2.422
 7183SOL    HW122448   1.752   5.021   2.507
 7183SOL    HW222449   1.692   4.913   2.399
 7184SOL     OW22450   0.331   6.951   3.323
 7184SOL    HW122451   0.305   0.017   3.316
 7184SOL    HW222452   0.324   6.907   3.234
 7185SOL     OW22453   5.197   2.537   6.385
 7185SOL    HW122454   5.230   2.540   6.291
 7185SOL    HW222455   5.264   2.490   6.442
 7186SOL     OW22456   6.857   7.001   5.223
 7186SOL    HW122457   6.922   6.953   5.282
 7186SOL    HW222458   6.767   6.958   5.232
 7187SOL     OW22459   1.915   4.496   1.695
 7187SOL    HW122460   1.848   4.556   1.739
 7187SOL    HW222461   1.867   4.435   1.631
 7188SOL     OW22462   5.988   0.014   0.897
 7188SOL    HW122463   5.893   7.012   0.897
 7188SOL    HW222464   6.018   0.032   0.990
 7189SOL     OW22465   6.644   1.413   6.536
 7189SOL    HW122466   6.645   1.415   6.635
 7189SOL    HW222467   6.630   1.319   6.504
 7190SOL     OW22468   5.261   3.583   3.690
 7190SOL    HW122469   5.273   3.579   3.591
 7190SOL    HW222470   5.349   3.598   3.734
 7191SOL     OW22471   0.436   3.710   2.724
 7191SOL    HW122472   0.355   3.750   2.680
 7191SOL    HW222473   0.432   3.729   2.823
 7192SOL     OW22474   2.030   6.409   5.323
 7192SOL    HW122475   1.981   6.453   5.398
 7192SOL    HW222476   2.076   6.478   5.268
 7193SOL     OW22477   2.967   2.160   3.907
 7193SOL    HW122478   2.956   2.205   3.996
 7193SOL    HW222479   3.064   2.157   3.883
 7194SOL     OW22480   2.146   1.931   1.175
 7194SOL    HW122481   2.208   1.880   1.235
 7194SOL    HW222482   2.199   1.974   1.101
 7195SOL     OW22483   0.215   4.943   0.204
 7195SOL    HW122484   0.130   4.984   0.169
 7195SOL    HW222485   0.222   4.849   0.173
 7196SOL     OW22486   2.945   3.188   2.792
 7196SOL    HW122487   3.027   3.180   2.850
 7196SOL    HW222488   2.969   3.169   2.697
 7197SOL     OW22489   6.366   2.514   6.012
 7197SOL    HW122490   6.359   2.424   5.969
 7197SOL    HW222491   6.275   2.557   6.013
 7198SOL     OW22492   1.211   0.301   5.799
 7198SOL    HW122493   1.183   0.206   5.819
 7198SOL    HW222494   1.173   0.361   5.869
 7199SOL     OW22495   1.177   0.845   2.394
 7199SOL    HW122496   1.166   0.779   2.319
 7199SOL    HW222497   1.273   0.850   2.420
 7200SOL     OW22498   2.793   0.330   0.079
 7200SOL    HW122499   2.715   0.393   0.079
 7200SOL    HW222500   2.764   0.241   0.115
 7201SOL     OW22501   1.765   5.125   3.289
 7201SOL    HW122502   1.751   5.026   3.298
 7201SOL    HW222503   1.698   5.162   3.225
 7202SOL     OW22504   3.762   0.267   6.330
 7202SOL    HW122505   3.677   0.217   6.313
 7202SOL    HW222506   3.777   0.274   6.429
 7203SOL     OW22507   5.951   0.863   0.760
 7203SOL    HW122508   6.051   0.870   0.767
 7203SOL    HW222509   5.908   0.919   0.830
 7204SOL     OW22510   6.208   6.796   4.241
 7204SOL    HW122511   6.215   6.892   4.269
 7204SOL    HW222512   6.151   6.746   4.305
 7205SOL     OW22513   1.405   5.845   2.908
 7205SOL    HW122514   1.453   5.761   2.883
 7205SOL    HW222515   1.344   5.871   2.833
 7206SOL     OW22516   0.405   1.129   1.323
 7206SOL    HW122517   0.435   1.108   1.416
 7206SOL    HW222518   0.310   1.102   1.311
 7207SOL     OW22519   3.879   0.318   1.442
 7207SOL    HW122520   3.816   0.280   1.510
 7207SOL    HW222521   3.968   0.273   1.450
 7208SOL     OW22522   3.827   6.768   4.333
 7208SOL    HW122523   3.765   6.830   4.285
 7208SOL    HW222524   3.884   6.820   4.397
 7209SOL     OW22525   2.945   3.567   3.703
 7209SOL    HW122526   2.978   3.476   3.730
 7209SOL    HW222527   2.938   3.572   3.603
 7210SOL     OW22528   5.137   1.494   3.459
 7210SOL    HW122529   5.098   1.573   3.506
 7210SOL    HW222530   5.148   1.516   3.362
 7211SOL     OW22531   0.995   5.989   3.473
 7211SOL    HW122532   0.921   6.033   3.522
 7211SOL    HW222533   1.077   5.988   3.530
 7212SOL     OW22534   0.592   5.772   4.182
 7212SOL    HW122535   0.541   5.805   4.262
 7212SOL    HW222536   0.616   5.850   4.125
 7213SOL     OW22537   5.304   6.774   5.028
 7213SOL    HW122538   5.252   6.715   5.090
 7213SOL    HW222539   5.356   6.718   4.963
 7214SOL     OW22540   2.258   5.433   4.488
 7214SOL    HW122541   2.305   5.351   4.455
 7214SOL    HW222542   2.270   5.441   4.587
 7215SOL     OW22543   0.617   3.346   4.650
 7215SOL    HW122544   0.568   3.430   4.626
 7215SOL    HW222545   0.705   3.345   4.603
 7216SOL     OW22546   3.326   5.000   7.015
 7216SOL    HW122547   3.335   4.977   6.918
 7216SOL    HW222548   3.263   4.935   0.029
 7217SOL     OW22549   1.735   4.677   1.813
 7217SOL    HW122550   1.644   4.639   1.828
 7217SOL    HW222551   1.749   4.756   1.873
 7218SOL     OW22552   4.690   2.632   5.501
 7218SOL    HW122553   4.639   2.714   5.528
 7218SOL    HW222554   4.742   2.598   5.579
 7219SOL     OW22555   4.388   6.534   3.207
 7219SOL    HW122556   4.396   6.580   3.119
 7219SOL    HW222557   4.426   6.593   3.279
 7220SOL     OW22558   6.510   6.879   3.541
 7220SOL    HW122559   6.447   6.886   3.618
 7220SOL    HW222560   6.604   6.874   3.575
 7221SOL     OW22561   5.440   4.822   5.430
 7221SOL    HW122562   5.534   4.840   5.401
 7221SOL    HW222563   5.386   4.906   5.422
 7222SOL     OW22564   6.626   6.230   0.497
 7222SOL    HW122565   6.647   6.286   0.577
 7222SOL    HW222566   6.653   6.280   0.414
 7223SOL     OW22567   2.986   1.931   1.119
 7223SOL    HW122568   3.075   1.961   1.085
 7223SOL    HW222569   2.993   1.838   1.155
 7224SOL     OW22570   5.634   2.045   4.652
 7224SOL    HW122571   5.573   2.123   4.670
 7224SOL    HW222572   5.626   2.020   4.555
 7225SOL     OW22573   1.787   5.609   6.936
 7225SOL    HW122574   1.746   5.539   6.876
 7225SOL    HW222575   1.818   5.686   6.880
 7226SOL     OW22576   0.350   0.250   0.585
 7226SOL    HW122577   0.448   0.259   0.570
 7226SOL    HW222578   0.320   0.319   0.651
 7227SOL     OW22579   0.692   2.520   6.912
 7227SOL    HW122580   0.739   2.569   6.986
 7227SOL    HW222581   0.594   2.519   6.930
 7228SOL     OW22582   0.181   0.277   1.887
 7228SOL    HW122583   0.200   0.344   1.959
 7228SOL    HW222584   0.109   0.215   1.917
 7229SOL     OW22585   0.818   0.240   4.065
 7229SOL    HW122586   0.837   0.310   4.134
 7229SOL    HW222587   0.899   0.224   4.010
 7230SOL     OW22588   4.388   5.298   4.727
 7230SOL    HW122589   4.310   5.354   4.698
 7230SOL    HW222590   4.371   5.202   4.703
 7231SOL     OW22591   4.804   1.329   6.760
 7231SOL    HW122592   4.836   1.362   6.671
 7231SOL    HW222593   4.872   1.352   6.830
 7232SOL     OW22594   3.952   5.184   2.963
 7232SOL    HW122595   3.889   5.199   3.040
 7232SOL    HW222596   4.003   5.100   2.979
 7233SOL     OW22597   0.499   2.880   4.939
 7233SOL    HW122598   0.473   2.791   4.977
 7233SOL    HW222599   0.583   2.871   4.887
 7234SOL     OW22600   5.657   2.753   1.973
 7234SOL    HW122601   5.707   2.721   2.053
 7234SOL    HW222602   5.721   2.776   1.899
 7235SOL     OW22603   6.350   3.724   4.185
 7235SOL    HW122604   6.433   3.669   4.173
 7235SOL    HW222605   6.270   3.664   4.182
 7236SOL     OW22606   3.470   1.758   3.189
 7236SOL    HW122607   3.386   1.751   3.244
 7236SOL    HW222608   3.468   1.845   3.138
 7237SOL     OW22609   6.815   6.471   5.374
 7237SOL    HW122610   6.869   6.388   5.365
 7237SOL    HW222611   6.824   6.526   5.291
 7238SOL     OW22612   2.620   1.117   2.015
 7238SOL    HW122613   2.714   1.109   1.982
 7238SOL    HW222614   2.575   1.028   2.012
 7239SOL     OW22615   1.621   1.600   3.475
 7239SOL    HW122616   1.704   1.605   3.531
 7239SOL    HW222617   1.624   1.518   3.418
 7240SOL     OW22618   3.042   4.605   0.582
 7240SOL    HW122619   3.074   4.555   0.662
 7240SOL    HW222620   3.113   4.603   0.511
 7241SOL     OW22621   3.593   0.506   5.920
 7241SOL    HW122622   3.641   0.495   6.007
 7241SOL    HW222623   3.633   0.442   5.853
 7242SOL     OW22624   5.704   4.336   7.016
 7242SOL    HW122625   5.779   4.291   6.966
 7242SOL    HW222626   5.643   4.380   6.950
 7243SOL     OW22627   1.201   4.852   6.396
 7243SOL    HW122628   1.283   4.900   6.365
 7243SOL    HW222629   1.161   4.800   6.320
 7244SOL     OW22630   4.960   1.456   0.686
 7244SOL    HW122631   4.875   1.426   0.645
 7244SOL    HW222632   5.035   1.396   0.657
 7245SOL     OW22633   0.165   2.629   5.148
 7245SOL    HW122634   0.090   2.661   5.091
 7245SOL    HW222635   0.130   2.595   5.235
 7246SOL     OW22636   6.625   6.730   5.029
 7246SOL    HW122637   6.555   6.801   5.024
 7246SOL    HW222638   6.643   6.695   4.937
 7247SOL     OW22639   2.737   6.208   2.026
 7247SOL    HW122640   2.748   6.120   2.072
 7247SOL    HW222641   2.660   6.203   1.962
 7248SOL     OW22642   3.657   0.985   4.074
 7248SOL    HW122643   3.707   1.068   4.100
 7248SOL    HW222644   3.715   0.928   4.017
 7249SOL     OW22645   5.594   4.270   0.930
 7249SOL    HW122646   5.577   4.325   0.848
 7249SOL    HW222647   5.683   4.295   0.969
 7250SOL     OW22648   2.454   4.850   6.540
 7250SOL    HW122649   2.503   4.908   6.605
 7250SOL    HW222650   2.495   4.859   6.449
 7251SOL     OW22651   6.456   6.710   5.270
 7251SOL    HW122652   6.512   6.706   5.188
 7251SOL    HW222653   6.416   6.620   5.288
 7252SOL     OW22654   3.257   3.266   4.756
 7252SOL    HW122655   3.165   3.264   4.793
 7252SOL    HW222656   3.286   3.361   4.744
 7253SOL     OW22657   2.053   5.965   0.534
 7253SOL    HW122658   2.065   6.018   0.618
 7253SOL    HW222659   1.985   5.894   0.549
 7254SOL     OW22660   3.549   5.333   4.227
 7254SOL    HW122661   3.457   5.363   4.250
 7254SOL    HW222662   3.549   5.234   4.213
 7255SOL     OW22663   3.008   3.124   1.684
 7255SOL    HW122664   3.081   3.110   1.751
 7255SOL    HW222665   3.040   3.185   1.612
 7256SOL     OW22666   4.386   5.012   4.646
 7256SOL    HW122667   4.451   5.018   4.570
 7256SOL    HW222668   4.404   4.929   4.698
 7257SOL     OW22669   6.353   2.554   3.185
 7257SOL    HW122670   6.411   2.580   3.107
 7257SOL    HW222671   6.389   2.470   3.226
 7258SOL     OW22672   4.176   0.566   4.592
 7258SOL    HW122673   4.091   0.515   4.606
 7258SOL    HW222674   4.159   0.663   4.608
 7259SOL     OW22675   2.680   3.763   6.937
 7259SOL    HW122676   2.593   3.813   6.931
 7259SOL    HW222677   2.662   3.668   6.961
 7260SOL     OW22678   3.459   2.129   2.868
 7260SOL    HW122679   3.389   2.187   2.910
 7260SOL    HW222680   3.433   2.108   2.774
 7261SOL     OW22681   2.327   3.285   1.703
 7261SOL    HW122682   2.413   3.235   1.717
 7261SOL    HW222683   2.316   3.354   1.775
 7262SOL     OW22684   5.474   2.263   4.610
 7262SOL    HW122685   5.458   2.247   4.512
 7262SOL    HW222686   5.521   2.350   4.622
 7263SOL     OW22687   1.367   5.714   1.528
 7263SOL    HW122688   1.321   5.708   1.617
 7263SOL    HW222689   1.304   5.688   1.455
 7264SOL     OW22690   6.757   1.017   6.753
 7264SOL    HW122691   6.795   1.086   6.815
 7264SOL    HW222692   6.831   0.967   6.710
 7265SOL     OW22693   5.316   5.163   6.237
 7265SOL    HW122694   5.313   5.117   6.147
 7265SOL    HW222695   5.333   5.260   6.224
 7266SOL     OW22696   5.183   0.446   1.245
 7266SOL    HW122697   5.119   0.369   1.251
 7266SOL    HW222698   5.204   0.479   1.337
 7267SOL     OW22699   0.010   4.016   4.724
 7267SOL    HW122700   0.069   4.044   4.649
 7267SOL    HW222701   6.959   3.970   4.688
 7268SOL     OW22702   4.262   5.961   1.745
 7268SOL    HW122703   4.321   5.945   1.666
 7268SOL    HW222704   4.308   6.023   1.808
 7269SOL     OW22705   0.691   5.539   1.840
 7269SOL    HW122706   0.663   5.524   1.745
 7269SOL    HW222707   0.666   5.631   1.868
 7270SOL     OW22708   2.206   1.696   3.252
 7270SOL    HW122709   2.201   1.760   3.175
 7270SOL    HW222710   2.288   1.639   3.243
 7271SOL     OW22711   0.211   3.824   2.553
 7271SOL    HW122712   0.144   3.883   2.599
 7271SOL    HW222713   0.292   3.879   2.530
 7272SOL     OW22714   4.845   3.011   2.658
 7272SOL    HW122715   4.817   3.084   2.720
 7272SOL    HW222716   4.878   2.933   2.711
 7273SOL     OW22717   5.761   4.364   1.766
 7273SOL    HW122718   5.846   4.377   1.715
 7273SOL    HW222719   5.699   4.441   1.748
 7274SOL     OW22720   0.323   4.964   5.908
 7274SOL    HW122721   0.239   4.945   5.958
 7274SOL    HW222722   0.364   4.879   5.877
 7275SOL     OW22723   7.004   0.644   6.852
 7275SOL    HW122724   0.025   0.568   6.893
 7275SOL    HW222725   7.026   0.728   6.901
 7276SOL     OW22726   2.123   2.127   4.060
 7276SOL    HW122727   2.184   2.087   4.128
 7276SOL    HW222728   2.170   2.201   4.011
 7277SOL     OW22729   4.658   1.359   5.450
 7277SOL    HW122730   4.688   1.359   5.545
 7277SOL    HW222731   4.562   1.383   5.444
 7278SOL     OW22732   3.850   1.359   3.523
 7278SOL    HW122733   3.903   1.278   3.550
 7278SOL    HW222734   3.780   1.378   3.592
 7279SOL     OW22735   4.314   4.343   0.493
 7279SOL    HW122736   4.363   4.394   0.563
 7279SOL    HW222737   4.219   4.331   0.521
 7280SOL     OW22738   5.176   1.987   5.201
 7280SOL    HW122739   5.273   2.011   5.195
 7280SOL    HW222740   5.144   2.000   5.295
 7281SOL     OW22741   3.692   6.378   1.273
 7281SOL    HW122742   3.736   6.461   1.239
 7281SOL    HW222743   3.696   6.307   1.203
 7282SOL     OW22744   6.557   5.496   2.215
 7282SOL    HW122745   6.619   5.473   2.290
 7282SOL    HW222746   6.536   5.594   2.218
 7283SOL     OW22747   3.237   5.734   2.388
 7283SOL    HW122748   3.172   5.665   2.356
 7283SOL    HW222749   3.328   5.715   2.350
 7284SOL     OW22750   6.578   2.502   3.897
 7284SOL    HW122751   6.603   2.448   3.817
 7284SOL    HW222752   6.482   2.530   3.890
 7285SOL     OW22753   4.908   3.011   1.773
 7285SOL    HW122754   4.868   3.018   1.864
 7285SOL    HW222755   4.841   3.037   1.704
 7286SOL     OW22756   0.723   1.474   0.669
 7286SOL    HW122757   0.807   1.494   0.618
 7286SOL    HW222758   0.657   1.430   0.608
 7287SOL     OW22759   1.094   2.311   3.525
 7287SOL    HW122760   1.087   2.256   3.608
 7287SOL    HW222761   1.135   2.399   3.545
 7288SOL     OW22762   3.175   2.111   2.996
 7288SOL    HW122763   3.126   2.172   3.058
 7288SOL    HW222764   3.119   2.030   2.978
 7289SOL     OW22765   6.163   2.283   1.943
 7289SOL    HW122766   6.248   2.330   1.966
 7289SOL    HW222767   6.086   2.332   1.984
 7290SOL     OW22768   4.156   1.742   4.854
 7290SOL    HW122769   4.179   1.836   4.879
 7290SOL    HW222770   4.227   1.704   4.795
 7291SOL     OW22771   3.363   0.344   6.924
 7291SOL    HW122772   3.450   0.295   6.927
 7291SOL    HW222773   3.322   0.335   6.834
 7292SOL     OW22774   1.799   0.370   3.381
 7292SOL    HW122775   1.808   0.271   3.393
 7292SOL    HW222776   1.716   0.389   3.328
 7293SOL     OW22777   1.309   0.371   5.580
 7293SOL    HW122778   1.326   0.469   5.571
 7293SOL    HW222779   1.255   0.353   5.662
 7294SOL     OW22780   3.198   4.911   1.591
 7294SOL    HW122781   3.169   4.885   1.499
 7294SOL    HW222782   3.250   4.836   1.632
 7295SOL     OW22783   6.274   5.381   2.211
 7295SOL    HW122784   6.364   5.424   2.225
 7295SOL    HW222785   6.271   5.340   2.120
 7296SOL     OW22786   4.128   4.925   2.759
 7296SOL    HW122787   4.121   5.013   2.712
 7296SOL    HW222788   4.044   4.873   2.746
 7297SOL     OW22789   3.075   6.248   1.646
 7297SOL    HW122790   3.149   6.311   1.621
 7297SOL    HW222791   3.050   6.262   1.742
 7298SOL     OW22792   5.103   5.999   6.277
 7298SOL    HW122793   5.021   6.002   6.334
 7298SOL    HW222794   5.093   6.063   6.201
 7299SOL     OW22795   1.245   3.149   0.041
 7299SOL    HW122796   1.275   3.071   0.095
 7299SOL    HW222797   1.236   3.122   6.975
 7300SOL     OW22798   0.813   4.896   1.530
 7300SOL    HW122799   0.764   4.979   1.558
 7300SOL    HW222800   0.782   4.819   1.585
 7301SOL     OW22801   5.545   0.012   5.317
 7301SOL    HW122802   5.539   0.003   5.416
 7301SOL    HW222803   5.479   0.080   5.286
 7302SOL     OW22804   4.951   2.627   6.148
 7302SOL    HW122805   4.896   2.558   6.196
 7302SOL    HW222806   4.905   2.652   6.063
 7303SOL     OW22807   2.179   0.997   0.783
 7303SOL    HW122808   2.204   0.906   0.818
 7303SOL    HW222809   2.138   1.051   0.856
 7304SOL     OW22810   3.128   5.074   2.002
 7304SOL    HW122811   3.065   5.063   1.926
 7304SOL    HW222812   3.215   5.112   1.969
 7305SOL     OW22813   6.052   2.235   0.085
 7305SOL    HW122814   6.042   2.158   0.022
 7305SOL    HW222815   6.044   2.202   0.179
 7306SOL     OW22816   2.645   1.138   1.465
 7306SOL    HW122817   2.697   1.053   1.455
 7306SOL    HW222818   2.667   1.182   1.552
 7307SOL     OW22819   2.343   6.410   1.400
 7307SOL    HW122820   2.376   6.365   1.316
 7307SOL    HW222821   2.314   6.503   1.378
 7308SOL     OW22822   4.998   0.567   1.864
 7308SOL    HW122823   4.917   0.623   1.878
 7308SOL    HW222824   5.026   0.573   1.768
 7309SOL     OW22825   2.029   5.304   2.505
 7309SOL    HW122826   2.001   5.322   2.600
 7309SOL    HW222827   2.127   5.319   2.495
 7310SOL     OW22828   1.727   2.601   0.168
 7310SOL    HW122829   1.716   2.681   0.226
 7310SOL    HW222830   1.651   2.538   0.182
 7311SOL     OW22831   0.448   0.236   0.142
 7311SOL    HW122832   0.367   0.263   0.195
 7311SOL    HW222833   0.463   0.302   0.068
 7312SOL     OW22834   6.936   2.228   5.970
 7312SOL    HW122835   6.854   2.225   5.914
 7312SOL    HW222836   6.936   2.150   6.033
 7313SOL     OW22837   2.523   0.581   1.735
 7313SOL    HW122838   2.550   0.564   1.830
 7313SOL    HW222839   2.532   0.679   1.716
 7314SOL     OW22840   0.161   4.518   6.823
 7314SOL    HW122841   0.142   4.443   6.886
 7314SOL    HW222842   0.218   4.485   6.748
 7315SOL     OW22843   0.532   5.187   1.868
 7315SOL    HW122844   0.478   5.187   1.952
 7315SOL    HW222845   0.629   5.201   1.890
 7316SOL     OW22846   3.059   2.193   6.447
 7316SOL    HW122847   2.974   2.162   6.406
 7316SOL    HW222848   3.136   2.165   6.389
 7317SOL     OW22849   3.574   1.543   1.573
 7317SOL    HW122850   3.633   1.541   1.653
 7317SOL    HW222851   3.491   1.489   1.592
 7318SOL     OW22852   3.679   0.039   2.008
 7318SOL    HW122853   3.755   0.009   1.950
 7318SOL    HW222854   3.658   6.997   2.074
 7319SOL     OW22855   6.376   4.864   0.513
 7319SOL    HW122856   6.346   4.768   0.520
 7319SOL    HW222857   6.374   4.892   0.417
 7320SOL     OW22858   6.800   3.485   1.103
 7320SOL    HW122859   6.881   3.500   1.045
 7320SOL    HW222860   6.797   3.555   1.174
 7321SOL     OW22861   2.512   5.766   6.222
 7321SOL    HW122862   2.485   5.803   6.311
 7321SOL    HW222863   2.435   5.717   6.181
 7322SOL     OW22864   0.466   1.902   2.159
 7322SOL    HW122865   0.445   1.910   2.256
 7322SOL    HW222866   0.537   1.833   2.145
 7323SOL     OW22867   1.460   1.641   1.145
 7323SOL    HW122868   1.361   1.653   1.152
 7323SOL    HW222869   1.505   1.729   1.133
 7324SOL     OW22870   5.963   4.662   3.465
 7324SOL    HW122871   5.881   4.614   3.498
 7324SOL    HW222872   6.044   4.612   3.495
 7325SOL     OW22873   3.930   0.522   5.957
 7325SOL    HW122874   3.871   0.447   5.989
 7325SOL    HW222875   3.876   0.586   5.903
 7326SOL     OW22876   2.674   0.904   6.472
 7326SOL    HW122877   2.577   0.928   6.467
 7326SOL    HW222878   2.694   0.833   6.404
 7327SOL     OW22879   6.060   3.927   3.620
 7327SOL    HW122880   6.042   3.970   3.708
 7327SOL    HW222881   6.030   3.987   3.546
 7328SOL     OW22882   4.119   5.296   5.159
 7328SOL    HW122883   4.088   5.362   5.227
 7328SOL    HW222884   4.169   5.222   5.205
 7329SOL     OW22885   2.509   3.007   0.554
 7329SOL    HW122886   2.572   3.070   0.599
 7329SOL    HW222887   2.489   3.040   0.462
 7330SOL     OW22888   3.584   2.753   1.643
 7330SOL    HW122889   3.647   2.683   1.676
 7330SOL    HW222890   3.525   2.714   1.572
 7331SOL     OW22891   4.382   0.154   1.647
 7331SOL    HW122892   4.356   0.210   1.725
 7331SOL    HW222893   4.346   0.061   1.659
 7332SOL     OW22894   3.512   4.041   0.149
 7332SOL    HW122895   3.535   4.071   0.242
 7332SOL    HW222896   3.591   3.995   0.109
 7333SOL     OW22897   6.428   2.674   1.967
 7333SOL    HW122898   6.462   2.741   1.902
 7333SOL    HW222899   6.499   2.651   2.033
 7334SOL     OW22900   2.872   6.950   5.453
 7334SOL    HW122901   2.924   6.992   5.379
 7334SOL    HW222902   2.913   6.974   5.541
 7335SOL     OW22903   6.888   3.130   2.752
 7335SOL    HW122904   6.822   3.130   2.676
 7335SOL    HW222905   6.846   3.086   2.832
 7336SOL     OW22906   1.774   5.932   0.841
 7336SOL    HW122907   1.681   5.940   0.876
 7336SOL    HW222908   1.771   5.899   0.747
 7337SOL     OW22909   2.480   2.472   2.183
 7337SOL    HW122910   2.387   2.442   2.160
 7337SOL    HW222911   2.484   2.498   2.279
 7338SOL     OW22912   5.712   3.277   1.457
 7338SOL    HW122913   5.711   3.355   1.520
 7338SOL    HW222914   5.671   3.197   1.502
 7339SOL     OW22915   6.674   5.796   5.228
 7339SOL    HW122916   6.618   5.733   5.282
 7339SOL    HW222917   6.764   5.755   5.212
 7340SOL     OW22918   2.606   0.751   6.814
 7340SOL    HW122919   2.513   0.785   6.828
 7340SOL    HW222920   2.670   0.827   6.819
 7341SOL     OW22921   0.193   4.999   3.797
 7341SOL    HW122922   0.270   4.977   3.737
 7341SOL    HW222923   0.193   5.097   3.818
 7342SOL     OW22924   6.710   0.324   0.318
 7342SOL    HW122925   6.637   0.289   0.260
 7342SOL    HW222926   6.725   0.262   0.396
 7343SOL     OW22927   6.005   4.320   2.665
 7343SOL    HW122928   5.935   4.385   2.694
 7343SOL    HW222929   5.973   4.227   2.680
 7344SOL     OW22930   1.896   6.701   6.622
 7344SOL    HW122931   1.896   6.773   6.552
 7344SOL    HW222932   1.816   6.713   6.681
 7345SOL     OW22933   4.130   5.117   5.762
 7345SOL    HW122934   4.148   5.149   5.669
 7345SOL    HW222935   4.043   5.153   5.794
 7346SOL     OW22936   3.722   4.595   0.922
 7346SOL    HW122937   3.724   4.517   0.860
 7346SOL    HW222938   3.782   4.667   0.887
 7347SOL     OW22939   6.237   2.179   2.405
 7347SOL    HW122940   6.302   2.251   2.431
 7347SOL    HW222941   6.195   2.203   2.317
 7348SOL     OW22942   0.972   2.844   3.900
 7348SOL    HW122943   0.936   2.751   3.904
 7348SOL    HW222944   1.021   2.865   3.985
 7349SOL     OW22945   3.537   2.109   1.250
 7349SOL    HW122946   3.462   2.175   1.246
 7349SOL    HW222947   3.504   2.019   1.221
 7350SOL     OW22948   0.626   2.529   3.612
 7350SOL    HW122949   0.695   2.462   3.637
 7350SOL    HW222950   0.585   2.504   3.524
 7351SOL     OW22951   4.272   4.735   6.265
 7351SOL    HW122952   4.340   4.719   6.337
 7351SOL    HW222953   4.212   4.656   6.258
 7352SOL     OW22954   1.557   1.987   2.506
 7352SOL    HW122955   1.587   1.897   2.475
 7352SOL    HW222956   1.484   1.977   2.573
 7353SOL     OW22957   6.094   1.749   4.803
 7353SOL    HW122958   6.162   1.770   4.872
 7353SOL    HW222959   6.104   1.812   4.726
 7354SOL     OW22960   6.642   6.803   6.417
 7354SOL    HW122961   6.640   6.894   6.457
 7354SOL    HW222962   6.733   6.787   6.376
 7355SOL     OW22963   0.849   5.684   1.539
 7355SOL    HW122964   0.880   5.732   1.457
 7355SOL    HW222965   0.876   5.588   1.533
 7356SOL     OW22966   6.030   1.884   6.505
 7356SOL    HW122967   5.983   1.829   6.574
 7356SOL    HW222968   6.129   1.869   6.513
 7357SOL     OW22969   5.008   1.230   6.903
 7357SOL    HW122970   5.054   1.318   6.907
 7357SOL    HW222971   5.062   1.166   6.848
 7358SOL     OW22972   3.453   1.997   3.818
 7358SOL    HW122973   3.533   2.052   3.795
 7358SOL    HW222974   3.460   1.908   3.773
 7359SOL     OW22975   3.973   3.178   2.737
 7359SOL    HW122976   3.919   3.099   2.710
 7359SOL    HW222977   3.918   3.261   2.728
 7360SOL     OW22978   1.224   2.132   5.414
 7360SOL    HW122979   1.253   2.139   5.510
 7360SOL    HW222980   1.304   2.141   5.355
 7361SOL     OW22981   5.457   6.453   1.231
 7361SOL    HW122982   5.481   6.360   1.259
 7361SOL    HW222983   5.527   6.489   1.170
 7362SOL     OW22984   1.467   6.632   5.068
 7362SOL    HW122985   1.390   6.645   5.131
 7362SOL    HW222986   1.545   6.686   5.100
 7363SOL     OW22987   5.774   2.488   6.950
 7363SOL    HW122988   5.852   2.517   6.895
 7363SOL    HW222989   5.800   2.487   0.017
 7364SOL     OW22990   4.213   6.745   1.054
 7364SOL    HW122991   4.298   6.799   1.045
 7364SOL    HW222992   4.184   6.745   1.149
 7365SOL     OW22993   2.900   0.483   2.627
 7365SOL    HW122994   2.983   0.444   2.587
 7365SOL    HW222995   2.880   0.437   2.714
 7366SOL     OW22996   0.695   5.591   6.429
 7366SOL    HW122997   0.610   5.642   6.421
 7366SOL    HW222998   0.674   5.496   6.452
 7367SOL     OW22999   5.395   3.624   1.289
 7367SOL    HW123000   5.468   3.663   1.344
 7367SOL    HW223001   5.312   3.678   1.301
 7368SOL     OW23002   3.181   3.269   4.438
 7368SOL    HW123003   3.096   3.299   4.481
 7368SOL    HW223004   3.236   3.349   4.414
 7369SOL     OW23005   5.177   4.029   0.931
 7369SOL    HW123006   5.205   4.112   0.882
 7369SOL    HW223007   5.250   3.960   0.924
 7370SOL     OW23008   2.244   6.865   0.440
 7370SOL    HW123009   2.229   6.893   0.346
 7370SOL    HW223010   2.267   6.945   0.495
 7371SOL     OW23011   2.933   5.143   4.031
 7371SOL    HW123012   2.911   5.227   3.982
 7371SOL    HW223013   3.022   5.109   4.001
 7372SOL     OW23014   3.894   0.410   5.302
 7372SOL    HW123015   3.855   0.350   5.232
 7372SOL    HW223016   3.880   0.368   5.392
 7373SOL     OW23017   4.011   0.673   3.735
 7373SOL    HW123018   3.983   0.585   3.696
 7373SOL    HW223019   4.070   0.656   3.815
 7374SOL     OW23020   1.694   2.986   5.774
 7374SOL    HW123021   1.730   2.960   5.863
 7374SOL    HW223022   1.620   3.052   5.785
 7375SOL     OW23023   0.983   1.175   4.985
 7375SOL    HW123024   0.935   1.262   4.998
 7375SOL    HW223025   1.061   1.170   5.048
 7376SOL     OW23026   2.782   3.192   6.913
 7376SOL    HW123027   2.701   3.159   6.961
 7376SOL    HW223028   2.852   3.120   6.913
 7377SOL     OW23029   4.745   4.442   1.969
 7377SOL    HW123030   4.662   4.400   2.005
 7377SOL    HW223031   4.821   4.378   1.976
 7378SOL     OW23032   0.334   2.140   5.133
 7378SOL    HW123033   0.393   2.212   5.097
 7378SOL    HW223034   0.380   2.096   5.210
 7379SOL     OW23035   4.052   1.042   2.153
 7379SOL    HW123036   4.040   1.140   2.166
 7379SOL    HW223037   4.078   1.023   2.058
 7380SOL     OW23038   6.537   2.936   5.761
 7380SOL    HW123039   6.605   2.929   5.835
 7380SOL    HW223040   6.573   2.891   5.679
 7381SOL     OW23041   4.839   3.035   2.282
 7381SOL    HW123042   4.806   3.032   2.188
 7381SOL    HW223043   4.848   3.130   2.311
 7382SOL     OW23044   0.662   4.223   4.627
 7382SOL    HW123045   0.676   4.131   4.663
 7382SOL    HW223046   0.633   4.283   4.701
 7383SOL     OW23047   0.361   6.165   2.003
 7383SOL    HW123048   0.313   6.184   2.088
 7383SOL    HW223049   0.357   6.067   1.983
 7384SOL     OW23050   5.033   6.885   2.480
 7384SOL    HW123051   5.096   6.896   2.403
 7384SOL    HW223052   4.949   6.841   2.449
 7385SOL     OW23053   4.609   5.957   2.074
 7385SOL    HW123054   4.603   5.953   2.174
 7385SOL    HW223055   4.649   5.872   2.040
 7386SOL     OW23056   1.129   2.468   5.878
 7386SOL    HW123057   1.084   2.530   5.942
 7386SOL    HW223058   1.144   2.380   5.923
 7387SOL     OW23059   3.996   5.463   4.291
 7387SOL    HW123060   3.957   5.389   4.237
 7387SOL    HW223061   4.085   5.489   4.252
 7388SOL     OW23062   6.958   5.235   4.077
 7388SOL    HW123063   0.006   5.255   4.017
 7388SOL    HW223064   6.921   5.145   4.054
 7389SOL     OW23065   1.375   4.044   0.048
 7389SOL    HW123066   1.474   4.034   0.052
 7389SOL    HW223067   1.331   3.963   0.088
 7390SOL     OW23068   0.396   1.659   6.858
 7390SOL    HW123069   0.313   1.617   6.895
 7390SOL    HW223070   0.433   1.725   6.925
 7391SOL     OW23071   5.960   3.667   6.269
 7391SOL    HW123072   5.922   3.647   6.179
 7391SOL    HW223073   6.044   3.721   6.258
 7392SOL     OW23074   1.728   5.630   5.430
 7392SOL    HW123075   1.632   5.632   5.458
 7392SOL    HW223076   1.761   5.536   5.429
 7393SOL     OW23077   6.002   5.471   2.171
 7393SOL    HW123078   5.980   5.568   2.180
 7393SOL    HW223079   6.096   5.455   2.202
 7394SOL     OW23080   3.661   3.337   6.518
 7394SOL    HW123081   3.654   3.416   6.578
 7394SOL    HW223082   3.706   3.363   6.432
 7395SOL     OW23083   0.455   0.339   6.273
 7395SOL    HW123084   0.542   0.342   6.223
 7395SOL    HW223085   0.469   0.299   6.363
 7396SOL     OW23086   1.700   0.638   5.761
 7396SOL    HW123087   1.619   0.580   5.767
 7396SOL    HW223088   1.671   0.734   5.753
 7397SOL     OW23089   6.410   4.408   4.950
 7397SOL    HW123090   6.324   4.358   4.946
 7397SOL    HW223091   6.443   4.426   4.858
 7398SOL     OW23092   4.516   5.538   3.862
 7398SOL    HW123093   4.537   5.587   3.947
 7398SOL    HW223094   4.565   5.580   3.786
 7399SOL     OW23095   6.536   4.000   5.661
 7399SOL    HW123096   6.519   4.031   5.754
 7399SOL    HW223097   6.478   4.051   5.598
 7400SOL     OW23098   3.015   4.143   7.012
 7400SOL    HW123099   3.069   4.062   0.003
 7400SOL    HW223100   2.973   4.135   6.921
 7401SOL     OW23101   0.242   1.209   3.987
 7401SOL    HW123102   0.201   1.300   3.998
 7401SOL    HW223103   0.240   1.161   4.075
 7402SOL     OW23104   2.131   0.067   3.596
 7402SOL    HW123105   2.206   0.081   3.661
 7402SOL    HW223106   2.058   0.133   3.616
 7403SOL     OW23107   1.706   3.092   3.564
 7403SOL    HW123108   1.795   3.050   3.584
 7403SOL    HW223109   1.720   3.186   3.535
 7404SOL     OW23110   1.819   0.507   0.971
 7404SOL    HW123111   1.866   0.419   0.968
 7404SOL    HW223112   1.884   0.581   0.957
 7405SOL     OW23113   2.034   5.148   5.042
 7405SOL    HW123114   1.950   5.180   5.085
 7405SOL    HW223115   2.113   5.178   5.096
 7406SOL     OW23116   1.608   3.572   2.289
 7406SOL    HW123117   1.687   3.559   2.229
 7406SOL    HW223118   1.538   3.624   2.241
 7407SOL     OW23119   0.258   5.796   5.165
 7407SOL    HW123120   0.184   5.852   5.129
 7407SOL    HW223121   0.342   5.814   5.113
 7408SOL     OW23122   1.888   4.086   5.730
 7408SOL    HW123123   1.904   4.180   5.701
 7408SOL    HW223124   1.861   4.030   5.651
 7409SOL     OW23125   0.936   0.916   5.007
 7409SOL    HW123126   0.946   1.015   4.996
 7409SOL    HW223127   0.861   0.884   4.949
 7410SOL     OW23128   0.070   4.549   1.108
 7410SOL    HW123129   0.036   4.614   1.176
 7410SOL    HW223130   0.166   4.529   1.126
 7411SOL     OW23131   2.617   6.841   4.334
 7411SOL    HW123132   2.518   6.853   4.328
 7411SOL    HW223133   2.639   6.775   4.405
 7412SOL     OW23134   2.331   0.720   0.547
 7412SOL    HW123135   2.354   0.732   0.644
 7412SOL    HW223136   2.375   0.793   0.494
 7413SOL     OW23137   0.241   3.367   4.154
 7413SOL    HW123138   0.165   3.307   4.130
 7413SOL    HW223139   0.208   3.442   4.211
 7414SOL     OW23140   6.389   0.009   2.163
 7414SOL    HW123141   6.362   6.963   2.102
 7414SOL    HW223142   6.310   0.039   2.216
 7415SOL     OW23143   1.788   3.356   2.838
 7415SOL    HW123144   1.838   3.271   2.848
 7415SOL    HW223145   1.804   3.415   2.917
 7416SOL     OW23146   3.732   1.326   4.621
 7416SOL    HW123147   3.810   1.374   4.662
 7416SOL    HW223148   3.765   1.245   4.572
 7417SOL     OW23149   1.495   0.107   6.055
 7417SOL    HW123150   1.489   0.069   5.963
 7417SOL    HW223151   1.404   0.106   6.097
 7418SOL     OW23152   2.649   4.177   1.366
 7418SOL    HW123153   2.597   4.240   1.424
 7418SOL    HW223154   2.586   4.123   1.310
 7419SOL     OW23155   5.887   1.956   4.547
 7419SOL    HW123156   5.979   1.994   4.536
 7419SOL    HW223157   5.836   2.011   4.613
 7420SOL     OW23158   6.498   6.481   2.062
 7420SOL    HW123159   6.453   6.499   1.974
 7420SOL    HW223160   6.431   6.445   2.127
 7421SOL     OW23161   3.656   3.970   1.661
 7421SOL    HW123162   3.719   3.896   1.684
 7421SOL    HW223163   3.661   4.041   1.731
 7422SOL     OW23164   0.178   3.633   1.214
 7422SOL    HW123165   0.273   3.637   1.244
 7422SOL    HW223166   0.133   3.553   1.253
 7423SOL     OW23167   2.191   4.678   6.323
 7423SOL    HW123168   2.198   4.722   6.412
 7423SOL    HW223169   2.101   4.698   6.283
 7424SOL     OW23170   5.847   1.724   4.363
 7424SOL    HW123171   5.850   1.819   4.395
 7424SOL    HW223172   5.892   1.665   4.429
 7425SOL     OW23173   3.828   4.588   6.081
 7425SOL    HW123174   3.774   4.519   6.033
 7425SOL    HW223175   3.908   4.613   6.026
 7426SOL     OW23176   0.177   2.089   0.127
 7426SOL    HW123177   0.191   2.151   0.205
 7426SOL    HW223178   0.123   2.010   0.157
 7427SOL     OW23179   3.066   6.037   4.612
 7427SOL    HW123180   3.096   5.969   4.679
 7427SOL    HW223181   2.986   6.002   4.563
 7428SOL     OW23182   3.620   2.151   5.459
 7428SOL    HW123183   3.671   2.228   5.497
 7428SOL    HW223184   3.562   2.184   5.384
 7429SOL     OW23185   7.018   0.131   2.598
 7429SOL    HW123186   6.983   0.133   2.505
 7429SOL    HW223187   6.954   0.083   2.657
 7430SOL     OW23188   6.638   4.100   5.044
 7430SOL    HW123189   6.670   4.188   5.008
 7430SOL    HW223190   6.678   4.083   5.133
 7431SOL     OW23191   0.752   3.604   1.478
 7431SOL    HW123192   0.775   3.679   1.417
 7431SOL    HW223193   0.703   3.640   1.558
 7432SOL     OW23194   0.447   6.386   3.724
 7432SOL    HW123195   0.444   6.354   3.630
 7432SOL    HW223196   0.427   6.484   3.726
 7433SOL     OW23197   6.494   5.483   1.069
 7433SOL    HW123198   6.415   5.532   1.104
 7433SOL    HW223199   6.553   5.547   1.019
 7434SOL     OW23200   2.879   1.829   6.940
 7434SOL    HW123201   2.964   1.848   6.893
 7434SOL    HW223202   2.897   1.814   0.008
 7435SOL     OW23203   3.401   6.714   6.200
 7435SOL    HW123204   3.477   6.679   6.145
 7435SOL    HW223205   3.325   6.649   6.196
 7436SOL     OW23206   5.869   3.111   6.945
 7436SOL    HW123207   5.968   3.096   6.935
 7436SOL    HW223208   5.836   3.058   7.023
 7437SOL     OW23209   6.916   5.170   6.218
 7437SOL    HW123210   6.831   5.195   6.171
 7437SOL    HW223211   6.994   5.210   6.169
 7438SOL     OW23212   0.956   4.213   2.083
 7438SOL    HW123213   1.022   4.162   2.028
 7438SOL    HW223214   1.003   4.288   2.130
 7439SOL     OW23215   2.317   0.244   3.734
 7439SOL    HW123216   2.317   0.343   3.720
 7439SOL    HW223217   2.344   0.224   3.828
 7440SOL     OW23218   1.159   3.289   4.726
 7440SOL    HW123219   1.152   3.373   4.672
 7440SOL    HW223220   1.215   3.307   4.807
 7441SOL     OW23221   4.984   1.190   3.727
 7441SOL    HW123222   4.995   1.098   3.690
 7441SOL    HW223223   4.944   1.249   3.657
 7442SOL     OW23224   1.165   1.581   6.622
 7442SOL    HW123225   1.096   1.542   6.561
 7442SOL    HW223226   1.120   1.631   6.696
 7443SOL     OW23227   6.912   1.726   0.839
 7443SOL    HW123228   6.858   1.660   0.890
 7443SOL    HW223229   6.993   1.682   0.802
 7444SOL     OW23230   6.937   3.047   6.541
 7444SOL    HW123231   6.924   2.979   6.469
 7444SOL    HW223232   6.855   3.050   6.598
 7445SOL     OW23233   5.219   1.748   1.531
 7445SOL    HW123234   5.210   1.835   1.483
 7445SOL    HW223235   5.140   1.734   1.590
 7446SOL     OW23236   6.356   4.148   6.971
 7446SOL    HW123237   6.396   4.133   0.032
 7446SOL    HW223238   6.307   4.066   6.942
 7447SOL     OW23239   1.960   4.652   0.170
 7447SOL    HW123240   1.911   4.700   0.243
 7447SOL    HW223241   2.057   4.647   0.193
 7448SOL     OW23242   5.418   6.908   5.941
 7448SOL    HW123243   5.351   6.843   5.905
 7448SOL    HW223244   5.392   7.001   5.913
 7449SOL     OW23245   4.628   2.425   1.992
 7449SOL    HW123246   4.533   2.408   2.017
 7449SOL    HW223247   4.678   2.462   2.070
 7450SOL     OW23248   4.782   2.962   2.943
 7450SOL    HW123249   4.793   3.056   2.975
 7450SOL    HW223250   4.738   2.907   3.013
 7451SOL     OW23251   1.547   0.899   4.633
 7451SOL    HW123252   1.631   0.886   4.580
 7451SOL    HW223253   1.551   0.987   4.681
 7452SOL     OW23254   1.850   0.687   5.254
 7452SOL    HW123255   1.897   0.751   5.193
 7452SOL    HW223256   1.910   0.609   5.273
 7453SOL     OW23257   5.906   6.398   4.782
 7453SOL    HW123258   5.879   6.373   4.875
 7453SOL    HW223259   5.996   6.441   4.783
 7454SOL     OW23260   0.573   3.542   1.108
 7454SOL    HW123261   0.498   3.549   1.042
 7454SOL    HW223262   0.541   3.570   1.198
 7455SOL     OW23263   5.361   2.138   0.679
 7455SOL    HW123264   5.351   2.230   0.718
 7455SOL    HW223265   5.294   2.126   0.607
 7456SOL     OW23266   1.416   3.028   4.796
 7456SOL    HW123267   1.340   3.067   4.744
 7456SOL    HW223268   1.418   3.068   4.888
 7457SOL     OW23269   5.618   0.793   5.492
 7457SOL    HW123270   5.589   0.758   5.581
 7457SOL    HW223271   5.685   0.731   5.452
 7458SOL     OW23272   2.843   6.759   0.313
 7458SOL    HW123273   2.751   6.771   0.351
 7458SOL    HW223274   2.858   6.826   0.240
 7459SOL     OW23275   4.686   0.202   5.900
 7459SOL    HW123276   4.684   0.296   5.867
 7459SOL    HW223277   4.773   0.184   5.946
 7460SOL     OW23278   2.360   4.624   0.739
 7460SOL    HW123279   2.261   4.633   0.746
 7460SOL    HW223280   2.402   4.664   0.821
 7461SOL     OW23281   5.337   1.223   6.105
 7461SOL    HW123282   5.390   1.139   6.117
 7461SOL    HW223283   5.382   1.281   6.037
 7462SOL     OW23284   2.343   2.071   1.785
 7462SOL    HW123285   2.262   2.069   1.844
 7462SOL    HW223286   2.389   2.160   1.795
 7463SOL     OW23287   3.605   3.054   1.320
 7463SOL    HW123288   3.526   2.993   1.318
 7463SOL    HW223289   3.663   3.036   1.240
 7464SOL     OW23290   3.392   6.088   0.403
 7464SOL    HW123291   3.424   6.127   0.317
 7464SOL    HW223292   3.304   6.044   0.389
 7465SOL     OW23293   1.816   0.075   1.149
 7465SOL    HW123294   1.754   0.103   1.222
 7465SOL    HW223295   1.851   0.156   1.103
 7466SOL     OW23296   0.553   0.768   6.596
 7466SOL    HW123297   0.567   0.698   6.526
 7466SOL    HW223298   0.640   0.814   6.615
 7467SOL     OW23299   6.940   2.198   1.176
 7467SOL    HW123300   7.019   2.203   1.237
 7467SOL    HW223301   6.936   2.107   1.135
 7468SOL     OW23302   4.858   2.460   2.170
 7468SOL    HW123303   4.808   2.545   2.184
 7468SOL    HW223304   4.912   2.440   2.252
 7469SOL     OW23305   0.968   6.778   6.059
 7469SOL    HW123306   1.067   6.777   6.074
 7469SOL    HW223307   0.949   6.783   5.961
 7470SOL     OW23308   0.395   2.335   2.812
 7470SOL    HW123309   0.407   2.239   2.788
 7470SOL    HW223310   0.301   2.363   2.794
 7471SOL     OW23311   6.534   6.361   4.755
 7471SOL    HW123312   6.468   6.338   4.826
 7471SOL    HW223313   6.616   6.399   4.797
 7472SOL     OW23314   4.061   6.973   4.467
 7472SOL    HW123315   4.140   6.926   4.427
 7472SOL    HW223316   4.068   6.971   4.566
 7473SOL     OW23317   0.667   3.826   3.976
 7473SOL    HW123318   0.752   3.839   3.925
 7473SOL    HW223319   0.615   3.911   3.976
 7474SOL     OW23320   2.912   1.105   3.861
 7474SOL    HW123321   2.911   1.021   3.916
 7474SOL    HW223322   2.971   1.173   3.904
 7475SOL     OW23323   4.874   0.521   2.196
 7475SOL    HW123324   4.894   0.462   2.274
 7475SOL    HW223325   4.939   0.502   2.122
 7476SOL     OW23326   4.558   6.169   4.947
 7476SOL    HW123327   4.641   6.140   4.994
 7476SOL    HW223328   4.582   6.203   4.856
 7477SOL     OW23329   4.354   0.745   4.185
 7477SOL    HW123330   4.396   0.709   4.268
 7477SOL    HW223331   4.415   0.810   4.142
 7478SOL     OW23332   3.169   3.649   6.338
 7478SOL    HW123333   3.120   3.662   6.424
 7478SOL    HW223334   3.203   3.555   6.333
 7479SOL     OW23335   3.913   1.320   0.601
 7479SOL    HW123336   3.925   1.304   0.699
 7479SOL    HW223337   3.950   1.242   0.550
 7480SOL     OW23338   6.175   5.690   1.531
 7480SOL    HW123339   6.139   5.780   1.509
 7480SOL    HW223340   6.130   5.655   1.613
 7481SOL     OW23341   5.501   5.301   0.861
 7481SOL    HW123342   5.597   5.310   0.836
 7481SOL    HW223343   5.467   5.387   0.899
 7482SOL     OW23344   3.752   0.795   1.636
 7482SOL    HW123345   3.652   0.793   1.632
 7482SOL    HW223346   3.781   0.830   1.725
 7483SOL     OW23347   3.691   1.767   4.211
 7483SOL    HW123348   3.651   1.845   4.259
 7483SOL    HW223349   3.693   1.688   4.272
 7484SOL     OW23350   0.746   6.606   1.641
 7484SOL    HW123351   0.750   6.600   1.741
 7484SOL    HW223352   0.835   6.578   1.603
 7485SOL     OW23353   2.993   6.729   5.698
 7485SOL    HW123354   2.894   6.716   5.706
 7485SOL    HW223355   3.035   6.644   5.664
 7486SOL     OW23356   3.223   6.918   5.123
 7486SOL    HW123357   3.297   6.867   5.168
 7486SOL    HW223358   3.193   6.992   5.182
 7487SOL     OW23359   2.285   6.855   2.792
 7487SOL    HW123360   2.199   6.813   2.763
 7487SOL    HW223361   2.358   6.787   2.791
 7488SOL     OW23362   2.618   6.876   5.435
 7488SOL    HW123363   2.706   6.922   5.444
 7488SOL    HW223364   2.595   6.831   5.521
 7489SOL     OW23365   4.789   2.397   4.920
 7489SOL    HW123366   4.878   2.367   4.956
 7489SOL    HW223367   4.775   2.357   4.830
 7490SOL     OW23368   6.964   0.783   0.580
 7490SOL    HW123369   6.928   0.745   0.666
 7490SOL    HW223370   6.962   0.712   0.510
 7491SOL     OW23371   0.595   5.448   5.977
 7491SOL    HW123372   0.672   5.406   5.930
 7491SOL    HW223373   0.592   5.416   6.072
 7492SOL     OW23374   2.075   2.000   5.748
 7492SOL    HW123375   2.022   1.992   5.664
 7492SOL    HW223376   2.044   1.931   5.813
 7493SOL     OW23377   6.359   4.905   6.118
 7493SOL    HW123378   6.320   4.831   6.173
 7493SOL    HW223379   6.287   4.945   6.060
 7494SOL     OW23380   5.387   0.977   2.229
 7494SOL    HW123381   5.400   0.991   2.327
 7494SOL    HW223382   5.357   1.063   2.187
 7495SOL     OW23383   1.699   1.501   1.190
 7495SOL    HW123384   1.769   1.548   1.244
 7495SOL    HW223385   1.623   1.563   1.173
 7496SOL     OW23386   1.758   4.863   6.075
 7496SOL    HW123387   1.761   4.923   5.995
 7496SOL    HW223388   1.676   4.882   6.128
 7497SOL     OW23389   2.804   5.261   1.986
 7497SOL    HW123390   2.737   5.241   1.915
 7497SOL    HW223391   2.888   5.296   1.944
 7498SOL     OW23392   3.115   0.985   4.479
 7498SOL    HW123393   3.042   1.042   4.442
 7498SOL    HW223394   3.128   0.905   4.419
 7499SOL     OW23395   6.015   0.079   3.980
 7499SOL    HW123396   5.915   0.079   3.975
 7499SOL    HW223397   6.052   0.072   3.887
 7500SOL     OW23398   3.833   5.820   2.418
 7500SOL    HW123399   3.812   5.818   2.516
 7500SOL    HW223400   3.920   5.773   2.402
 7501SOL     OW23401   0.818   3.734   3.596
 7501SOL    HW123402   0.901   3.752   3.544
 7501SOL    HW223403   0.787   3.640   3.578
 7502SOL     OW23404   1.843   1.220   5.501
 7502SOL    HW123405   1.743   1.226   5.502
 7502SOL    HW223406   1.871   1.139   5.451
 7503SOL     OW23407   2.687   0.731   6.233
 7503SOL    HW123408   2.752   0.663   6.266
 7503SOL    HW223409   2.643   0.697   6.150
 7504SOL     OW23410   4.046   6.565   3.798
 7504SOL    HW123411   4.071   6.634   3.731
 7504SOL    HW223412   3.996   6.608   3.873
 7505SOL     OW23413   2.762   1.017   5.025
 7505SOL    HW123414   2.729   1.072   4.948
 7505SOL    HW223415   2.830   0.952   4.993
 7506SOL     OW23416   3.648   0.642   2.467
 7506SOL    HW123417   3.729   0.673   2.417
 7506SOL    HW223418   3.653   0.673   2.562
 7507SOL     OW23419   0.251   6.619   6.586
 7507SOL    HW123420   0.279   6.598   6.492
 7507SOL    HW223421   0.265   6.717   6.604
 7508SOL     OW23422   5.614   6.632   2.295
 7508SOL    HW123423   5.527   6.638   2.344
 7508SOL    HW223424   5.675   6.705   2.327
 7509SOL     OW23425   5.100   4.375   0.488
 7509SOL    HW123426   5.073   4.285   0.453
 7509SOL    HW223427   5.027   4.412   0.545
 7510SOL     OW23428   3.088   4.030   4.504
 7510SOL    HW123429   3.119   4.121   4.533
 7510SOL    HW223430   3.141   4.001   4.424
 7511SOL     OW23431   1.581   0.444   2.422
 7511SOL    HW123432   1.655   0.390   2.460
 7511SOL    HW223433   1.518   0.471   2.494
 7512SOL     OW23434   3.067   3.933   1.544
 7512SOL    HW123435   3.016   4.011   1.507
 7512SOL    HW223436   3.119   3.890   1.470
 7513SOL     OW23437   1.815   2.651   6.715
 7513SOL    HW123438   1.779   2.719   6.780
 7513SOL    HW223439   1.886   2.597   6.759
 7514SOL     OW23440   3.000   6.262   1.942
 7514SOL    HW123441   2.912   6.250   1.988
 7514SOL    HW223442   3.052   6.177   1.946
 7515SOL     OW23443   0.905   0.391   2.995
 7515SOL    HW123444   0.815   0.347   2.993
 7515SOL    HW223445   0.976   0.322   3.008
 7516SOL     OW23446   6.829   6.354   4.284
 7516SOL    HW123447   6.752   6.407   4.318
 7516SOL    HW223448   6.873   6.306   4.359
 7517SOL     OW23449   6.817   3.688   1.297
 7517SOL    HW123450   6.745   3.754   1.317
 7517SOL    HW223451   6.887   3.730   1.240
 7518SOL     OW23452   3.911   5.722   3.566
 7518SOL    HW123453   3.884   5.638   3.613
 7518SOL    HW223454   3.957   5.783   3.631
 7519SOL     OW23455   1.119   6.625   4.300
 7519SOL    HW123456   1.094   6.612   4.396
 7519SOL    HW223457   1.149   6.538   4.261
 7520SOL     OW23458   1.915   0.667   2.586
 7520SOL    HW123459   2.003   0.711   2.608
 7520SOL    HW223460   1.903   0.664   2.487
 7521SOL     OW23461   4.454   4.493   5.445
 7521SOL    HW123462   4.550   4.472   5.465
 7521SOL    HW223463   4.398   4.475   5.526
 7522SOL     OW23464   2.460   1.294   6.618
 7522SOL    HW123465   2.446   1.239   6.536
 7522SOL    HW223466   2.372   1.323   6.655
 7523SOL     OW23467   6.201   0.064   5.378
 7523SOL    HW123468   6.121   0.112   5.343
 7523SOL    HW223469   6.206   0.075   5.477
 7524SOL     OW23470   7.026   1.762   6.533
 7524SOL    HW123471   0.058   1.738   6.458
 7524SOL    HW223472   0.048   1.797   6.610
 7525SOL     OW23473   2.005   6.850   6.946
 7525SOL    HW123474   1.930   6.791   6.914
 7525SOL    HW223475   1.975   6.945   6.944
 7526SOL     OW23476   2.925   3.258   3.994
 7526SOL    HW123477   2.878   3.319   4.057
 7526SOL    HW223478   2.997   3.209   4.042
 7527SOL     OW23479   5.062   4.448   2.127
 7527SOL    HW123480   5.071   4.548   2.124
 7527SOL    HW223481   5.145   4.408   2.165
 7528SOL     OW23482   4.416   2.484   0.289
 7528SOL    HW123483   4.331   2.469   0.239
 7528SOL    HW223484   4.430   2.582   0.302
 7529SOL     OW23485   4.838   1.494   3.364
 7529SOL    HW123486   4.925   1.532   3.395
 7529SOL    HW223487   4.803   1.431   3.434
 7530SOL     OW23488   6.979   3.214   2.411
 7530SOL    HW123489   6.977   3.145   2.339
 7530SOL    HW223490   6.904   3.198   2.475
 7531SOL     OW23491   4.204   2.002   3.966
 7531SOL    HW123492   4.121   1.947   3.981
 7531SOL    HW223493   4.180   2.083   3.912
 7532SOL     OW23494   5.456   5.297   1.888
 7532SOL    HW123495   5.385   5.276   1.822
 7532SOL    HW223496   5.430   5.377   1.942
 7533SOL     OW23497   1.668   1.388   3.290
 7533SOL    HW123498   1.583   1.356   3.248
 7533SOL    HW223499   1.746   1.348   3.241
 7534SOL     OW23500   3.841   6.157   5.069
 7534SOL    HW123501   3.810   6.112   4.984
 7534SOL    HW223502   3.879   6.247   5.047
 7535SOL     OW23503   2.328   1.833   5.770
 7535SOL    HW123504   2.407   1.870   5.819
 7535SOL    HW223505   2.250   1.829   5.831
 7536SOL     OW23506   4.795   4.883   5.152
 7536SOL    HW123507   4.826   4.961   5.206
 7536SOL    HW223508   4.854   4.804   5.169
 7537SOL     OW23509   1.957   4.302   5.016
 7537SOL    HW123510   1.999   4.272   5.102
 7537SOL    HW223511   2.010   4.377   4.977
 7538SOL     OW23512   3.245   3.375   2.515
 7538SOL    HW123513   3.304   3.343   2.589
 7538SOL    HW223514   3.253   3.315   2.436
 7539SOL     OW23515   2.398   2.674   5.106
 7539SOL    HW123516   2.434   2.766   5.123
 7539SOL    HW223517   2.310   2.663   5.154
 7540SOL     OW23518   3.370   0.635   6.510
 7540SOL    HW123519   3.464   0.666   6.500
 7540SOL    HW223520   3.351   0.619   6.607
 7541SOL     OW23521   6.457   3.451   5.610
 7541SOL    HW123522   6.464   3.551   5.603
 7541SOL    HW223523   6.547   3.414   5.634
 7542SOL     OW23524   1.195   0.027   5.825
 7542SOL    HW123525   1.125   7.020   5.763
 7542SOL    HW223526   1.285   7.022   5.799
 7543SOL     OW23527   3.970   1.777   0.660
 7543SOL    HW123528   4.013   1.850   0.713
 7543SOL    HW223529   4.038   1.707   0.638
 7544SOL     OW23530   0.015   2.451   3.012
 7544SOL    HW123531   7.009   2.361   3.039
 7544SOL    HW223532   0.099   2.470   3.062
 7545SOL     OW23533   4.438   6.591   2.909
 7545SOL    HW123534   4.492   6.516   2.872
 7545SOL    HW223535   4.380   6.629   2.837
 7546SOL     OW23536   4.642   0.961   6.869
 7546SOL    HW123537   4.702   0.995   6.942
 7546SOL    HW223538   4.579   0.893   6.908
 7547SOL     OW23539   4.088   6.969   0.445
 7547SOL    HW123540   4.027   6.940   0.518
 7547SOL    HW223541   4.039   0.000   0.382
 7548SOL     OW23542   2.021   1.809   0.595
 7548SOL    HW123543   1.924   1.804   0.569
 7548SOL    HW223544   2.071   1.735   0.550
 7549SOL     OW23545   5.940   1.896   2.296
 7549SOL    HW123546   5.934   1.883   2.395
 7549SOL    HW223547   5.923   1.809   2.250
 7550SOL     OW23548   2.135   6.038   2.377
 7550SOL    HW123549   2.172   6.131   2.387
 7550SOL    HW223550   2.207   5.976   2.350
 7551SOL     OW23551   4.853   3.716   0.152
 7551SOL    HW123552   4.755   3.737   0.161
 7551SOL    HW223553   4.864   3.638   0.090
 7552SOL     OW23554   2.827   5.746   4.122
 7552SOL    HW123555   2.803   5.824   4.063
 7552SOL    HW223556   2.860   5.671   4.066
 7553SOL     OW23557   3.814   4.710   5.765
 7553SOL    HW123558   3.742   4.648   5.798
 7553SOL    HW223559   3.774   4.775   5.701
 7554SOL     OW23560   4.681   2.599   0.534
 7554SOL    HW123561   4.664   2.516   0.587
 7554SOL    HW223562   4.610   2.609   0.464
 7555SOL     OW23563   0.596   5.550   5.257
 7555SOL    HW123564   0.582   5.622   5.325
 7555SOL    HW223565   0.507   5.518   5.224
 7556SOL     OW23566   0.490   3.233   5.733
 7556SOL    HW123567   0.432   3.229   5.651
 7556SOL    HW223568   0.489   3.145   5.779
 7557SOL     OW23569   5.256   3.951   6.230
 7557SOL    HW123570   5.334   3.977   6.173
 7557SOL    HW223571   5.287   3.937   6.324
 7558SOL     OW23572   2.262   2.439   4.051
 7558SOL    HW123573   2.337   2.424   3.987
 7558SOL    HW223574   2.297   2.484   4.133
 7559SOL     OW23575   6.195   5.443   1.419
 7559SOL    HW123576   6.169   5.531   1.457
 7559SOL    HW223577   6.176   5.371   1.485
 7560SOL     OW23578   4.858   6.954   0.038
 7560SOL    HW123579   4.833   6.903   6.985
 7560SOL    HW223580   4.953   6.985   0.030
 7561SOL     OW23581   0.771   3.956   0.598
 7561SOL    HW123582   0.703   3.958   0.524
 7561SOL    HW223583   0.858   3.923   0.562
 7562SOL     OW23584   5.512   6.360   4.467
 7562SOL    HW123585   5.543   6.448   4.506
 7562SOL    HW223586   5.499   6.370   4.368
 7563SOL     OW23587   3.040   0.085   1.533
 7563SOL    HW123588   3.138   0.101   1.540
 7563SOL    HW223589   3.020   7.018   1.550
 7564SOL     OW23590   4.733   0.854   3.190
 7564SOL    HW123591   4.733   0.829   3.286
 7564SOL    HW223592   4.810   0.810   3.144
 7565SOL     OW23593   4.518   4.667   6.465
 7565SOL    HW123594   4.617   4.661   6.453
 7565SOL    HW223595   4.498   4.707   6.555
 7566SOL     OW23596   0.853   4.861   3.900
 7566SOL    HW123597   0.926   4.930   3.894
 7566SOL    HW223598   0.830   4.846   3.996
 7567SOL     OW23599   2.088   3.650   5.897
 7567SOL    HW123600   2.157   3.679   5.963
 7567SOL    HW223601   2.103   3.554   5.872
 7568SOL     OW23602   5.653   5.382   4.119
 7568SOL    HW123603   5.595   5.393   4.038
 7568SOL    HW223604   5.614   5.312   4.178
 7569SOL     OW23605   4.452   5.990   6.651
 7569SOL    HW123606   4.478   5.982   6.554
 7569SOL    HW223607   4.393   6.070   6.662
 7570SOL     OW23608   5.524   4.343   5.279
 7570SOL    HW123609   5.430   4.312   5.264
 7570SOL    HW223610   5.555   4.395   5.200
 7571SOL     OW23611   5.120   4.060   1.893
 7571SOL    HW123612   5.045   3.999   1.922
 7571SOL    HW223613   5.193   4.057   1.961
 7572SOL     OW23614   4.703   0.471   4.313
 7572SOL    HW123615   4.661   0.404   4.252
 7572SOL    HW223616   4.786   0.432   4.353
 7573SOL     OW23617   5.984   6.230   4.198
 7573SOL    HW123618   5.913   6.173   4.239
 7573SOL    HW223619   5.991   6.316   4.248
 7574SOL     OW23620   5.723   1.498   4.045
 7574SOL    HW123621   5.766   1.487   4.135
 7574SOL    HW223622   5.790   1.532   3.980
 7575SOL     OW23623   4.510   0.806   5.827
 7575SOL    HW123624   4.556   0.777   5.911
 7575SOL    HW223625   4.434   0.744   5.807
 7576SOL     OW23626   5.650   5.265   0.110
 7576SOL    HW123627   5.664   5.242   0.206
 7576SOL    HW223628   5.737   5.263   0.062
 7577SOL     OW23629   6.616   0.020   4.790
 7577SOL    HW123630   6.636   0.073   4.708
 7577SOL    HW223631   6.698   0.015   4.847
 7578SOL     OW23632   1.842   6.481   4.069
 7578SOL    HW123633   1.749   6.485   4.106
 7578SOL    HW223634   1.884   6.571   4.075
 7579SOL     OW23635   4.371   2.401   2.044
 7579SOL    HW123636   4.298   2.333   2.038
 7579SOL    HW223637   4.388   2.422   2.141
 7580SOL     OW23638   1.273   3.972   3.321
 7580SOL    HW123639   1.253   3.934   3.231
 7580SOL    HW223640   1.370   3.960   3.342
 7581SOL     OW23641   4.531   1.533   0.347
 7581SOL    HW123642   4.512   1.628   0.372
 7581SOL    HW223643   4.615   1.529   0.293
 7582SOL     OW23644   3.468   1.762   0.770
 7582SOL    HW123645   3.476   1.741   0.672
 7582SOL    HW223646   3.554   1.800   0.803
 7583SOL     OW23647   6.120   3.825   1.951
 7583SOL    HW123648   6.065   3.905   1.976
 7583SOL    HW223649   6.179   3.849   1.873
 7584SOL     OW23650   2.335   6.896   0.930
 7584SOL    HW123651   2.344   6.885   1.029
 7584SOL    HW223652   2.363   6.988   0.903
 7585SOL     OW23653   1.430   4.157   6.243
 7585SOL    HW123654   1.520   4.192   6.217
 7585SOL    HW223655   1.417   4.066   6.203
 7586SOL     OW23656   2.496   0.526   2.517
 7586SOL    HW123657   2.537   0.440   2.485
 7586SOL    HW223658   2.507   0.533   2.616
 7587SOL     OW23659   2.190   1.732   6.835
 7587SOL    HW123660   2.286   1.719   6.808
 7587SOL    HW223661   2.133   1.666   6.785
 7588SOL     OW23662   0.776   4.667   1.954
 7588SOL    HW123663   0.739   4.623   2.036
 7588SOL    HW223664   0.798   4.762   1.974
 7589SOL     OW23665   5.897   5.812   0.558
 7589SOL    HW123666   5.930   5.886   0.499
 7589SOL    HW223667   5.814   5.772   0.519
 7590SOL     OW23668   2.497   1.505   5.678
 7590SOL    HW123669   2.451   1.469   5.597
 7590SOL    HW223670   2.525   1.600   5.661
 7591SOL     OW23671   0.182   5.371   0.401
 7591SOL    HW123672   0.191   5.277   0.366
 7591SOL    HW223673   0.090   5.404   0.383
 7592SOL     OW23674   7.006   4.943   6.915
 7592SOL    HW123675   6.974   5.026   6.870
 7592SOL    HW223676   7.023   4.872   6.847
 7593SOL     OW23677   6.017   2.466   6.785
 7593SOL    HW123678   6.098   2.521   6.764
 7593SOL    HW223679   6.044   2.373   6.806
 7594SOL     OW23680   0.970   5.114   2.524
 7594SOL    HW123681   0.907   5.068   2.461
 7594SOL    HW223682   1.062   5.114   2.484
 7595SOL     OW23683   0.311   2.889   6.647
 7595SOL    HW123684   0.235   2.858   6.590
 7595SOL    HW223685   0.330   2.985   6.627
 7596SOL     OW23686   5.014   5.192   2.720
 7596SOL    HW123687   5.062   5.115   2.678
 7596SOL    HW223688   5.071   5.274   2.715
 7597SOL     OW23689   3.099   5.999   1.884
 7597SOL    HW123690   3.179   5.940   1.897
 7597SOL    HW223691   3.026   5.946   1.841
 7598SOL     OW23692   6.244   0.705   2.766
 7598SOL    HW123693   6.254   0.722   2.668
 7598SOL    HW223694   6.284   0.616   2.788
 7599SOL     OW23695   5.479   1.217   3.736
 7599SOL    HW123696   5.499   1.236   3.832
 7599SOL    HW223697   5.416   1.286   3.701
 7600SOL     OW23698   1.351   0.658   2.159
 7600SOL    HW123699   1.322   0.717   2.083
 7600SOL    HW223700   1.439   0.689   2.195
 7601SOL     OW23701   1.726   5.695   3.788
 7601SOL    HW123702   1.677   5.714   3.703
 7601SOL    HW223703   1.779   5.611   3.778
 7602SOL     OW23704   2.138   4.210   4.617
 7602SOL    HW123705   2.040   4.215   4.602
 7602SOL    HW223706   2.186   4.212   4.529
 7603SOL     OW23707   1.384   6.660   6.536
 7603SOL    HW123708   1.315   6.589   6.551
 7603SOL    HW223709   1.392   6.716   6.618
 7604SOL     OW23710   2.782   5.971   3.953
 7604SOL    HW123711   2.840   5.964   3.872
 7604SOL    HW223712   2.686   5.969   3.926
 7605SOL     OW23713   1.546   6.014   0.128
 7605SOL    HW123714   1.478   6.084   0.106
 7605SOL    HW223715   1.635   6.041   0.091
 7606SOL     OW23716   0.254   2.772   1.887
 7606SOL    HW123717   0.190   2.756   1.962
 7606SOL    HW223718   0.329   2.706   1.891
 7607SOL     OW23719   3.953   0.147   6.821
 7607SOL    HW123720   3.958   0.073   6.888
 7607SOL    HW223721   4.035   0.146   6.764
 7608SOL     OW23722   3.561   4.068   3.794
 7608SOL    HW123723   3.496   3.992   3.807
 7608SOL    HW223724   3.544   4.138   3.863
 7609SOL     OW23725   6.876   3.261   3.387
 7609SOL    HW123726   6.869   3.180   3.445
 7609SOL    HW223727   6.901   3.340   3.444
 7610SOL     OW23728   6.271   0.813   0.755
 7610SOL    HW123729   6.268   0.899   0.705
 7610SOL    HW223730   6.266   0.831   0.853
 7611SOL     OW23731   0.803   2.019   0.187
 7611SOL    HW123732   0.857   1.956   0.243
 7611SOL    HW223733   0.711   2.027   0.226
 7612SOL     OW23734   4.244   2.014   4.285
 7612SOL    HW123735   4.200   2.030   4.197
 7612SOL    HW223736   4.282   2.100   4.320
 7613SOL     OW23737   4.956   2.135   1.718
 7613SOL    HW123738   4.918   2.075   1.648
 7613SOL    HW223739   4.891   2.208   1.739
 7614SOL     OW23740   4.031   2.504   1.617
 7614SOL    HW123741   4.085   2.584   1.643
 7614SOL    HW223742   4.011   2.449   1.698
 7615SOL     OW23743   5.388   4.822   6.597
 7615SOL    HW123744   5.292   4.800   6.612
 7615SOL    HW223745   5.427   4.759   6.529
 7616SOL     OW23746   1.087   4.402   4.287
 7616SOL    HW123747   1.166   4.384   4.228
 7616SOL    HW223748   1.003   4.384   4.237
 7617SOL     OW23749   2.869   5.610   3.405
 7617SOL    HW123750   2.802   5.538   3.385
 7617SOL    HW223751   2.845   5.692   3.353
 7618SOL     OW23752   1.247   2.037   6.542
 7618SOL    HW123753   1.302   1.956   6.562
 7618SOL    HW223754   1.219   2.081   6.628
 7619SOL     OW23755   5.460   3.403   5.291
 7619SOL    HW123756   5.499   3.359   5.210
 7619SOL    HW223757   5.496   3.496   5.299
 7620SOL     OW23758   3.785   6.785   0.947
 7620SOL    HW123759   3.763   6.695   0.911
 7620SOL    HW223760   3.716   6.813   1.014
 7621SOL     OW23761   0.925   1.090   0.531
 7621SOL    HW123762   1.024   1.099   0.518
 7621SOL    HW223763   0.882   1.071   0.443
 7622SOL     OW23764   5.470   3.354   1.811
 7622SOL    HW123765   5.528   3.280   1.843
 7622SOL    HW223766   5.374   3.334   1.834
 7623SOL     OW23767   4.711   5.127   6.333
 7623SOL    HW123768   4.780   5.103   6.266
 7623SOL    HW223769   4.655   5.047   6.354
 7624SOL     OW23770   0.642   2.247   4.259
 7624SOL    HW123771   0.644   2.227   4.161
 7624SOL    HW223772   0.684   2.172   4.309
 7625SOL     OW23773   4.943   0.835   0.839
 7625SOL    HW123774   5.041   0.827   0.855
 7625SOL    HW223775   4.921   0.929   0.813
 7626SOL     OW23776   0.364   6.632   5.275
 7626SOL    HW123777   0.451   6.659   5.317
 7626SOL    HW223778   0.360   6.668   5.182
 7627SOL     OW23779   6.373   2.925   0.543
 7627SOL    HW123780   6.357   2.995   0.613
 7627SOL    HW223781   6.451   2.869   0.568
 7628SOL     OW23782   3.421   0.946   1.108
 7628SOL    HW123783   3.355   1.021   1.115
 7628SOL    HW223784   3.486   0.967   1.035
 7629SOL     OW23785   6.090   6.877   2.519
 7629SOL    HW123786   6.161   6.927   2.569
 7629SOL    HW223787   6.007   6.872   2.575
 7630SOL     OW23788   5.989   6.321   2.069
 7630SOL    HW123789   6.040   6.244   2.107
 7630SOL    HW223790   5.954   6.377   2.144
 7631SOL     OW23791   1.128   1.820   5.684
 7631SOL    HW123792   1.136   1.847   5.588
 7631SOL    HW223793   1.178   1.735   5.698
 7632SOL     OW23794   3.710   2.184   1.430
 7632SOL    HW123795   3.630   2.165   1.374
 7632SOL    HW223796   3.759   2.099   1.449
 7633SOL     OW23797   5.547   2.662   0.309
 7633SOL    HW123798   5.514   2.752   0.280
 7633SOL    HW223799   5.617   2.630   0.245
 7634SOL     OW23800   0.967   1.553   2.200
 7634SOL    HW123801   0.991   1.497   2.279
 7634SOL    HW223802   0.896   1.619   2.225
 7635SOL     OW23803   2.503   5.421   5.166
 7635SOL    HW123804   2.579   5.423   5.101
 7635SOL    HW223805   2.530   5.370   5.247
 7636SOL     OW23806   1.238   1.685   3.760
 7636SOL    HW123807   1.330   1.648   3.746
 7636SOL    HW223808   1.242   1.785   3.764
 7637SOL     OW23809   2.168   6.425   2.897
 7637SOL    HW123810   2.212   6.488   2.833
 7637SOL    HW223811   2.077   6.458   2.921
 7638SOL     OW23812   5.398   5.338   1.556
 7638SOL    HW123813   5.321   5.382   1.509
 7638SOL    HW223814   5.433   5.263   1.501
 7639SOL     OW23815   1.523   1.862   6.865
 7639SOL    HW123816   1.474   1.843   6.780
 7639SOL    HW223817   1.620   1.874   6.846
 7640SOL     OW23818   2.694   1.994   0.227
 7640SOL    HW123819   2.678   2.004   0.129
 7640SOL    HW223820   2.686   2.084   0.271
 7641SOL     OW23821   1.230   4.449   1.955
 7641SOL    HW123822   1.192   4.419   2.042
 7641SOL    HW223823   1.161   4.504   1.906
 7642SOL     OW23824   2.462   2.033   3.332
 7642SOL    HW123825   2.373   1.999   3.361
 7642SOL    HW223826   2.461   2.133   3.330
 7643SOL     OW23827   4.955   2.451   3.350
 7643SOL    HW123828   4.910   2.525   3.399
 7643SOL    HW223829   4.930   2.364   3.392
 7644SOL     OW23830   6.454   2.337   2.433
 7644SOL    HW123831   6.482   2.408   2.497
 7644SOL    HW223832   6.440   2.376   2.343
 7645SOL     OW23833   4.643   4.819   6.063
 7645SOL    HW123834   4.694   4.904   6.047
 7645SOL    HW223835   4.556   4.823   6.014
 7646SOL     OW23836   2.027   2.053   2.305
 7646SOL    HW123837   1.974   2.045   2.390
 7646SOL    HW223838   1.998   1.982   2.241
 7647SOL     OW23839   1.052   3.378   1.089
 7647SOL    HW123840   0.985   3.423   1.149
 7647SOL    HW223841   1.132   3.352   1.143
 7648SOL     OW23842   4.143   2.218   3.834
 7648SOL    HW123843   4.050   2.247   3.812
 7648SOL    HW223844   4.203   2.239   3.757
 7649SOL     OW23845   0.964   0.750   2.612
 7649SOL    HW123846   0.896   0.781   2.545
 7649SOL    HW223847   1.018   0.828   2.643
 7650SOL     OW23848   6.271   3.090   1.835
 7650SOL    HW123849   6.197   3.076   1.768
 7650SOL    HW223850   6.267   3.018   1.904
 7651SOL     OW23851   2.265   0.043   6.276
 7651SOL    HW123852   2.251   0.126   6.330
 7651SOL    HW223853   2.178   0.010   6.241
 7652SOL     OW23854   0.063   3.577   4.241
 7652SOL    HW123855   0.030   3.667   4.213
 7652SOL    HW223856   7.016   3.513   4.243
 7653SOL     OW23857   2.027   1.332   0.883
 7653SOL    HW123858   2.074   1.263   0.939
 7653SOL    HW223859   1.930   1.308   0.877
 7654SOL     OW23860   5.212   2.846   3.141
 7654SOL    HW123861   5.191   2.879   3.233
 7654SOL    HW223862   5.278   2.907   3.098
 7655SOL     OW23863   3.671   0.337   3.953
 7655SOL    HW123864   3.650   0.433   3.968
 7655SOL    HW223865   3.712   0.325   3.863
 7656SOL     OW23866   1.082   5.997   6.136
 7656SOL    HW123867   1.103   6.033   6.227
 7656SOL    HW223868   0.982   5.991   6.124
 7657SOL     OW23869   2.867   2.275   3.088
 7657SOL    HW123870   2.818   2.295   3.003
 7657SOL    HW223871   2.846   2.345   3.156
 7658SOL     OW23872   4.541   6.792   5.740
 7658SOL    HW123873   4.535   6.860   5.667
 7658SOL    HW223874   4.516   6.834   5.827
 7659SOL     OW23875   5.494   6.733   6.552
 7659SOL    HW123876   5.570   6.771   6.605
 7659SOL    HW223877   5.529   6.695   6.467
 7660SOL     OW23878   6.288   5.983   4.409
 7660SOL    HW123879   6.383   5.988   4.437
 7660SOL    HW223880   6.280   6.013   4.314
 7661SOL     OW23881   6.026   1.812   4.051
 7661SOL    HW123882   5.974   1.801   4.135
 7661SOL    HW223883   6.087   1.890   4.059
 7662SOL     OW23884   1.380   2.372   2.216
 7662SOL    HW123885   1.394   2.334   2.125
 7662SOL    HW223886   1.294   2.423   2.218
 7663SOL     OW23887   6.408   6.217   6.353
 7663SOL    HW123888   6.440   6.240   6.261
 7663SOL    HW223889   6.468   6.260   6.420
 7664SOL     OW23890   3.068   6.902   2.796
 7664SOL    HW123891   3.153   6.870   2.839
 7664SOL    HW223892   3.039   6.835   2.728
 7665SOL     OW23893   3.537   0.282   3.536
 7665SOL    HW123894   3.583   0.358   3.581
 7665SOL    HW223895   3.528   0.301   3.438
 7666SOL     OW23896   7.009   6.725   1.403
 7666SOL    HW123897   0.040   6.694   1.476
 7666SOL    HW223898   0.022   6.709   1.314
 7667SOL     OW23899   5.451   5.916   0.543
 7667SOL    HW123900   5.370   5.954   0.588
 7667SOL    HW223901   5.527   5.914   0.608
 7668SOL     OW23902   3.013   4.250   0.929
 7668SOL    HW123903   2.955   4.253   1.011
 7668SOL    HW223904   2.956   4.235   0.848
 7669SOL     OW23905   5.088   1.678   4.965
 7669SOL    HW123906   5.060   1.728   4.883
 7669SOL    HW223907   5.188   1.667   4.965
 7670SOL     OW23908   1.528   5.759   6.506
 7670SOL    HW123909   1.576   5.701   6.571
 7670SOL    HW223910   1.449   5.709   6.469
 7671SOL     OW23911   4.024   1.092   4.311
 7671SOL    HW123912   4.099   1.113   4.374
 7671SOL    HW223913   4.061   1.054   4.227
 7672SOL     OW23914   5.770   6.627   3.690
 7672SOL    HW123915   5.805   6.719   3.707
 7672SOL    HW223916   5.696   6.607   3.755
 7673SOL     OW23917   2.196   4.922   0.515
 7673SOL    HW123918   2.237   4.963   0.596
 7673SOL    HW223919   2.256   4.851   0.479
 7674SOL     OW23920   6.833   2.324   4.230
 7674SOL    HW123921   6.864   2.417   4.211
 7674SOL    HW223922   6.752   2.304   4.175
 7675SOL     OW23923   5.156   0.712   2.862
 7675SOL    HW123924   5.144   0.774   2.784
 7675SOL    HW223925   5.095   0.633   2.851
 7676SOL     OW23926   0.327   1.915   0.698
 7676SOL    HW123927   0.380   1.844   0.653
 7676SOL    HW223928   0.387   1.991   0.725
 7677SOL     OW23929   1.601   3.213   1.713
 7677SOL    HW123930   1.653   3.247   1.635
 7677SOL    HW223931   1.622   3.116   1.728
 7678SOL     OW23932   1.548   1.074   6.290
 7678SOL    HW123933   1.592   1.002   6.344
 7678SOL    HW223934   1.617   1.138   6.258
 7679SOL     OW23935   1.213   6.327   4.828
 7679SOL    HW123936   1.307   6.319   4.861
 7679SOL    HW223937   1.166   6.398   4.880
 7680SOL     OW23938   1.949   2.985   0.015
 7680SOL    HW123939   1.947   2.930   6.961
 7680SOL    HW223940   2.043   2.993   0.048
 7681SOL     OW23941   3.268   0.353   0.142
 7681SOL    HW123942   3.306   0.378   0.053
 7681SOL    HW223943   3.342   0.328   0.204
 7682SOL     OW23944   2.710   0.147   1.948
 7682SOL    HW123945   2.671   0.153   1.856
 7682SOL    HW223946   2.798   0.099   1.944
 7683SOL     OW23947   0.042   2.249   3.692
 7683SOL    HW123948   0.060   2.268   3.596
 7683SOL    HW223949   0.101   2.307   3.749
 7684SOL     OW23950   5.706   2.236   6.976
 7684SOL    HW123951   5.742   2.329   6.972
 7684SOL    HW223952   5.669   2.218   0.037
 7685SOL     OW23953   3.841   2.743   6.964
 7685SOL    HW123954   3.868   2.821   7.020
 7685SOL    HW223955   3.815   2.774   6.873
 7686SOL     OW23956   4.450   0.126   3.208
 7686SOL    HW123957   4.382   0.195   3.185
 7686SOL    HW223958   4.421   0.077   3.290
 7687SOL     OW23959   5.518   5.722   5.273
 7687SOL    HW123960   5.491   5.799   5.331
 7687SOL    HW223961   5.618   5.716   5.271
 7688SOL     OW23962   6.984   0.270   6.414
 7688SOL    HW123963   0.017   0.196   6.437
 7688SOL    HW223964   0.005   0.349   6.380
 7689SOL     OW23965   5.351   5.719   3.717
 7689SOL    HW123966   5.317   5.801   3.671
 7689SOL    HW223967   5.381   5.742   3.810
 7690SOL     OW23968   5.862   5.262   2.268
 7690SOL    HW123969   5.863   5.351   2.224
 7690SOL    HW223970   5.904   5.194   2.209
 7691SOL     OW23971   4.754   2.962   4.338
 7691SOL    HW123972   4.735   2.901   4.260
 7691SOL    HW223973   4.801   3.044   4.305
 7692SOL     OW23974   0.539   0.144   1.172
 7692SOL    HW123975   0.537   0.095   1.259
 7692SOL    HW223976   0.624   0.123   1.124
 7693SOL     OW23977   4.289   0.879   0.288
 7693SOL    HW123978   4.319   0.828   0.369
 7693SOL    HW223979   4.189   0.873   0.281
 7694SOL     OW23980   1.231   4.648   4.210
 7694SOL    HW123981   1.234   4.565   4.266
 7694SOL    HW223982   1.244   4.624   4.114
 7695SOL     OW23983   4.106   0.228   1.008
 7695SOL    HW123984   4.180   0.209   0.944
 7695SOL    HW223985   4.126   0.312   1.059
 7696SOL     OW23986   6.659   1.953   4.230
 7696SOL    HW123987   6.680   2.049   4.250
 7696SOL    HW223988   6.727   1.894   4.273
 7697SOL     OW23989   2.476   0.925   3.026
 7697SOL    HW123990   2.504   0.872   2.946
 7697SOL    HW223991   2.553   0.932   3.090
 7698SOL     OW23992   0.357   2.857   4.641
 7698SOL    HW123993   0.322   2.843   4.548
 7698SOL    HW223994   0.426   2.929   4.641
 7699SOL     OW23995   3.297   5.445   6.787
 7699SOL    HW123996   3.350   5.374   6.834
 7699SOL    HW223997   3.330   5.535   6.815
 7700SOL     OW23998   5.119   6.637   5.517
 7700SOL    HW123999   5.176   6.592   5.586
 7700SOL    HW224000   5.169   6.713   5.476
 7701SOL     OW24001   5.933   1.321   6.639
 7701SOL    HW124002   5.856   1.381   6.615
 7701SOL    HW224003   5.992   1.310   6.559
 7702SOL     OW24004   3.542   5.847   6.052
 7702SOL    HW124005   3.554   5.761   6.003
 7702SOL    HW224006   3.631   5.878   6.087
 7703SOL     OW24007   6.414   1.301   4.905
 7703SOL    HW124008   6.324   1.328   4.871
 7703SOL    HW224009   6.453   1.232   4.844
 7704SOL     OW24010   4.218   4.942   5.464
 7704SOL    HW124011   4.229   4.911   5.558
 7704SOL    HW224012   4.142   5.007   5.459
 7705SOL     OW24013   3.315   4.458   5.605
 7705SOL    HW124014   3.338   4.474   5.508
 7705SOL    HW224015   3.228   4.503   5.626
 7706SOL     OW24016   5.291   0.873   5.614
 7706SOL    HW124017   5.333   0.962   5.597
 7706SOL    HW224018   5.357   0.813   5.659
 7707SOL     OW24019   0.257   5.938   6.859
 7707SOL    HW124020   0.214   5.850   6.841
 7707SOL    HW224021   0.277   5.984   6.772
 7708SOL     OW24022   4.828   6.083   4.789
 7708SOL    HW124023   4.863   6.139   4.714
 7708SOL    HW224024   4.808   5.991   4.756
 7709SOL     OW24025   5.625   3.291   2.155
 7709SOL    HW124026   5.635   3.191   2.154
 7709SOL    HW224027   5.528   3.315   2.162
 7710SOL     OW24028   2.066   0.571   1.193
 7710SOL    HW124029   2.154   0.612   1.216
 7710SOL    HW224030   2.026   0.619   1.115
 7711SOL     OW24031   6.433   5.993   4.808
 7711SOL    HW124032   6.432   6.082   4.854
 7711SOL    HW224033   6.489   5.999   4.725
 7712SOL     OW24034   6.588   4.887   1.379
 7712SOL    HW124035   6.536   4.916   1.299
 7712SOL    HW224036   6.684   4.913   1.367
 7713SOL     OW24037   2.041   3.924   0.920
 7713SOL    HW124038   1.996   3.974   0.994
 7713SOL    HW224039   2.091   3.847   0.959
 7714SOL     OW24040   6.911   5.079   4.955
 7714SOL    HW124041   7.004   5.099   4.985
 7714SOL    HW224042   6.857   5.163   4.952
 7715SOL     OW24043   4.992   1.254   1.355
 7715SOL    HW124044   5.071   1.311   1.379
 7715SOL    HW224045   5.013   1.200   1.274
 7716SOL     OW24046   5.304   3.197   3.299
 7716SOL    HW124047   5.295   3.285   3.346
 7716SOL    HW224048   5.386   3.198   3.243
 7717SOL     OW24049   2.770   1.423   4.569
 7717SOL    HW124050   2.865   1.453   4.576
 7717SOL    HW224051   2.718   1.491   4.517
 7718SOL     OW24052   1.546   2.259   3.651
 7718SOL    HW124053   1.596   2.313   3.583
 7718SOL    HW224054   1.611   2.206   3.705
 7719SOL     OW24055   7.003   3.350   3.925
 7719SOL    HW124056   7.004   3.315   4.018
 7719SOL    HW224057   0.024   3.287   3.865
 7720SOL     OW24058   0.090   6.635   0.514
 7720SOL    HW124059   0.039   6.715   0.480
 7720SOL    HW224060   0.116   6.651   0.609
 7721SOL     OW24061   1.844   3.986   2.986
 7721SOL    HW124062   1.830   4.034   3.073
 7721SOL    HW224063   1.773   4.013   2.921
 7722SOL     OW24064   0.339   5.414   2.433
 7722SOL    HW124065   0.394   5.348   2.382
 7722SOL    HW224066   0.251   5.373   2.456
 7723SOL     OW24067   6.764   4.046   0.700
 7723SOL    HW124068   6.825   3.973   0.732
 7723SOL    HW224069   6.818   4.126   0.674
 7724SOL     OW24070   2.332   4.783   2.104
 7724SOL    HW124071   2.323   4.818   2.197
 7724SOL    HW224072   2.269   4.707   2.090
 7725SOL     OW24073   5.006   2.672   3.155
 7725SOL    HW124074   5.043   2.606   3.221
 7725SOL    HW224075   5.077   2.737   3.129
 7726SOL     OW24076   0.111   4.882   4.161
 7726SOL    HW124077   0.103   4.866   4.062
 7726SOL    HW224078   0.207   4.899   4.184
 7727SOL     OW24079   5.907   2.046   3.454
 7727SOL    HW124080   5.849   2.050   3.536
 7727SOL    HW224081   5.864   1.986   3.386
 7728SOL     OW24082   1.207   3.868   3.084
 7728SOL    HW124083   1.126   3.814   3.061
 7728SOL    HW224084   1.256   3.893   3.001
 7729SOL     OW24085   6.166   2.355   1.678
 7729SOL    HW124086   6.078   2.347   1.632
 7729SOL    HW224087   6.161   2.314   1.769
 7730SOL     OW24088   6.018   6.027   2.416
 7730SOL    HW124089   6.079   5.992   2.487
 7730SOL    HW224090   5.964   5.952   2.378
 7731SOL     OW24091   5.785   1.197   1.135
 7731SOL    HW124092   5.704   1.241   1.176
 7731SOL    HW224093   5.864   1.258   1.146
 7732SOL     OW24094   4.532   6.274   0.634
 7732SOL    HW124095   4.505   6.195   0.579
 7732SOL    HW224096   4.475   6.279   0.716
 7733SOL     OW24097   4.554   6.455   1.569
 7733SOL    HW124098   4.609   6.381   1.531
 7733SOL    HW224099   4.558   6.452   1.669
 7734SOL     OW24100   1.574   3.822   3.149
 7734SOL    HW124101   1.592   3.909   3.103
 7734SOL    HW224102   1.527   3.761   3.086
 7735SOL     OW24103   4.104   4.757   6.691
 7735SOL    HW124104   4.018   4.735   6.645
 7735SOL    HW224105   4.094   4.741   6.789
 7736SOL     OW24106   5.371   4.398   0.539
 7736SOL    HW124107   5.386   4.304   0.571
 7736SOL    HW224108   5.278   4.406   0.504
 7737SOL     OW24109   4.448   1.372   0.881
 7737SOL    HW124110   4.426   1.423   0.798
 7737SOL    HW224111   4.365   1.331   0.918
 7738SOL     OW24112   2.242   5.976   0.186
 7738SOL    HW124113   2.173   5.908   0.162
 7738SOL    HW224114   2.297   5.943   0.264
 7739SOL     OW24115   0.084   1.718   1.376
 7739SOL    HW124116   0.134   1.804   1.375
 7739SOL    HW224117   0.145   1.644   1.348
 7740SOL     OW24118   0.484   0.348   2.813
 7740SOL    HW124119   0.472   0.446   2.801
 7740SOL    HW224120   0.414   0.314   2.876
 7741SOL     OW24121   1.397   5.601   4.691
 7741SOL    HW124122   1.469   5.553   4.742
 7741SOL    HW224123   1.434   5.685   4.652
 7742SOL     OW24124   6.339   1.917   3.709
 7742SOL    HW124125   6.304   1.982   3.642
 7742SOL    HW224126   6.264   1.858   3.740
 7743SOL     OW24127   4.556   3.133   6.106
 7743SOL    HW124128   4.605   3.048   6.085
 7743SOL    HW224129   4.542   3.140   6.204
 7744SOL     OW24130   0.117   6.334   4.007
 7744SOL    HW124131   0.025   6.294   4.006
 7744SOL    HW224132   0.156   6.332   3.915
 7745SOL     OW24133   3.431   2.511   6.038
 7745SOL    HW124134   3.466   2.418   6.047
 7745SOL    HW224135   3.388   2.539   6.124
 7746SOL     OW24136   2.368   0.109   7.007
 7746SOL    HW124137   2.408   0.173   6.941
 7746SOL    HW224138   2.290   0.153   0.023
 7747SOL     OW24139   5.144   6.597   0.903
 7747SOL    HW124140   5.062   6.653   0.911
 7747SOL    HW224141   5.174   6.568   0.994
 7748SOL     OW24142   3.290   4.008   5.447
 7748SOL    HW124143   3.271   3.965   5.359
 7748SOL    HW224144   3.372   3.967   5.488
 7749SOL     OW24145   4.481   3.332   5.949
 7749SOL    HW124146   4.383   3.318   5.940
 7749SOL    HW224147   4.521   3.257   6.002
 7750SOL     OW24148   0.626   6.134   1.134
 7750SOL    HW124149   0.716   6.103   1.106
 7750SOL    HW224150   0.635   6.201   1.208
 7751SOL     OW24151   1.571   1.447   2.170
 7751SOL    HW124152   1.547   1.542   2.187
 7751SOL    HW224153   1.496   1.401   2.122
 7752SOL     OW24154   4.871   0.366   4.515
 7752SOL    HW124155   4.879   0.267   4.498
 7752SOL    HW224156   4.815   0.381   4.597
 7753SOL     OW24157   2.038   1.399   4.483
 7753SOL    HW124158   2.091   1.314   4.477
 7753SOL    HW224159   2.027   1.437   4.391
 7754SOL     OW24160   3.892   6.273   1.450
 7754SOL    HW124161   3.863   6.178   1.440
 7754SOL    HW224162   3.817   6.334   1.423
 7755SOL     OW24163   1.434   3.870   6.379
 7755SOL    HW124164   1.447   3.969   6.380
 7755SOL    HW224165   1.520   3.826   6.351
 7756SOL     OW24166   2.310   6.163   0.963
 7756SOL    HW124167   2.265   6.103   0.897
 7756SOL    HW224168   2.387   6.114   1.005
 7757SOL     OW24169   6.882   4.633   1.668
 7757SOL    HW124170   6.945   4.701   1.632
 7757SOL    HW224171   6.801   4.627   1.609
 7758SOL     OW24172   1.630   0.847   6.428
 7758SOL    HW124173   1.661   0.795   6.349
 7758SOL    HW224174   1.709   0.878   6.481
 7759SOL     OW24175   2.223   2.434   5.580
 7759SOL    HW124176   2.203   2.339   5.555
 7759SOL    HW224177   2.206   2.446   5.678
 7760SOL     OW24178   4.734   1.733   2.182
 7760SOL    HW124179   4.776   1.814   2.224
 7760SOL    HW224180   4.635   1.739   2.189
 7761SOL     OW24181   5.450   4.979   4.139
 7761SOL    HW124182   5.507   5.022   4.069
 7761SOL    HW224183   5.355   4.978   4.108
 7762SOL     OW24184   0.504   0.419   4.272
 7762SOL    HW124185   0.494   0.459   4.181
 7762SOL    HW224186   0.599   0.431   4.303
 7763SOL     OW24187   2.490   0.245   5.294
 7763SOL    HW124188   2.586   0.225   5.314
 7763SOL    HW224189   2.473   0.229   5.197
 7764SOL     OW24190   3.266   3.857   5.208
 7764SOL    HW124191   3.224   3.931   5.156
 7764SOL    HW224192   3.195   3.810   5.262
 7765SOL     OW24193   6.872   3.421   4.307
 7765SOL    HW124194   6.784   3.464   4.289
 7765SOL    HW224195   6.868   3.370   4.393
 7766SOL     OW24196   0.651   4.566   0.428
 7766SOL    HW124197   0.664   4.470   0.452
 7766SOL    HW224198   0.708   4.589   0.349
 7767SOL     OW24199   4.146   0.015   2.140
 7767SOL    HW124200   4.118   6.962   2.188
 7767SOL    HW224201   4.092   0.092   2.173
 7768SOL     OW24202   4.508   4.536   2.858
 7768SOL    HW124203   4.460   4.566   2.940
 7768SOL    HW224204   4.472   4.585   2.779
 7769SOL     OW24205   4.031   2.243   5.206
 7769SOL    HW124206   3.956   2.211   5.148
 7769SOL    HW224207   4.095   2.297   5.150
 7770SOL     OW24208   1.096   3.032   5.082
 7770SOL    HW124209   1.173   3.087   5.115
 7770SOL    HW224210   1.036   3.009   5.159
 7771SOL     OW24211   3.022   2.617   6.341
 7771SOL    HW124212   3.004   2.522   6.369
 7771SOL    HW224213   2.938   2.671   6.352
 7772SOL     OW24214   5.081   1.111   1.108
 7772SOL    HW124215   5.101   1.190   1.050
 7772SOL    HW224216   5.128   1.030   1.072
 7773SOL     OW24217   3.292   6.191   0.009
 7773SOL    HW124218   3.335   6.275   0.043
 7773SOL    HW224219   3.332   6.167   6.951
 7774SOL     OW24220   5.160   2.288   3.129
 7774SOL    HW124221   5.225   2.229   3.178
 7774SOL    HW224222   5.198   2.380   3.122
 7775SOL     OW24223   3.857   0.660   6.971
 7775SOL    HW124224   3.884   0.655   6.874
 7775SOL    HW224225   3.907   0.590   7.022
 7776SOL     OW24226   0.529   6.622   5.493
 7776SOL    HW124227   0.549   6.548   5.557
 7776SOL    HW224228   0.505   6.705   5.544
 7777SOL     OW24229   5.848   5.205   3.898
 7777SOL    HW124230   5.786   5.268   3.945
 7777SOL    HW224231   5.854   5.230   3.801
 7778SOL     OW24232   6.269   3.730   2.987
 7778SOL    HW124233   6.292   3.771   3.075
 7778SOL    HW224234   6.186   3.772   2.951
 7779SOL     OW24235   3.282   6.262   2.540
 7779SOL    HW124236   3.255   6.266   2.636
 7779SOL    HW224237   3.365   6.207   2.531
 7780SOL     OW24238   6.783   5.292   5.851
 7780SOL    HW124239   6.770   5.367   5.786
 7780SOL    HW224240   6.829   5.216   5.805
 7781SOL     OW24241   1.760   2.805   0.353
 7781SOL    HW124242   1.850   2.786   0.392
 7781SOL    HW224243   1.756   2.900   0.324
 7782SOL     OW24244   6.622   4.847   2.902
 7782SOL    HW124245   6.576   4.763   2.930
 7782SOL    HW224246   6.712   4.853   2.946
 7783SOL     OW24247   1.025   6.979   5.611
 7783SOL    HW124248   1.050   0.028   5.555
 7783SOL    HW224249   0.934   6.946   5.585
 7784SOL     OW24250   2.654   2.095   2.302
 7784SOL    HW124251   2.583   2.086   2.233
 7784SOL    HW224252   2.685   2.190   2.307
 7785SOL     OW24253   1.720   6.278   2.354
 7785SOL    HW124254   1.734   6.257   2.451
 7785SOL    HW224255   1.667   6.362   2.346
 7786SOL     OW24256   4.429   0.893   6.576
 7786SOL    HW124257   4.510   0.946   6.600
 7786SOL    HW224258   4.431   0.805   6.623
 7787SOL     OW24259   2.862   3.489   0.639
 7787SOL    HW124260   2.824   3.488   0.731
 7787SOL    HW224261   2.955   3.453   0.641
 7788SOL     OW24262   1.740   5.255   1.950
 7788SOL    HW124263   1.827   5.215   1.980
 7788SOL    HW224264   1.691   5.189   1.893
 7789SOL     OW24265   3.524   0.373   6.569
 7789SOL    HW124266   3.621   0.366   6.592
 7789SOL    HW224267   3.507   0.328   6.481
 7790SOL     OW24268   5.955   5.231   2.719
 7790SOL    HW124269   6.001   5.241   2.807
 7790SOL    HW224270   5.857   5.244   2.731
 7791SOL     OW24271   2.129   5.718   1.650
 7791SOL    HW124272   2.182   5.662   1.585
 7791SOL    HW224273   2.091   5.659   1.721
 7792SOL     OW24274   0.734   1.414   2.791
 7792SOL    HW124275   0.816   1.461   2.823
 7792SOL    HW224276   0.656   1.476   2.795
 7793SOL     OW24277   4.267   1.870   0.155
 7793SOL    HW124278   4.349   1.925   0.171
 7793SOL    HW224279   4.290   1.795   0.092
 7794SOL     OW24280   0.930   5.773   2.759
 7794SOL    HW124281   0.865   5.705   2.794
 7794SOL    HW224282   0.882   5.838   2.701
 7795SOL     OW24283   3.214   5.670   5.917
 7795SOL    HW124284   3.221   5.631   5.825
 7795SOL    HW224285   3.280   5.624   5.977
 7796SOL     OW24286   3.427   3.124   5.763
 7796SOL    HW124287   3.428   3.040   5.817
 7796SOL    HW224288   3.516   3.169   5.769
 7797SOL     OW24289   0.606   5.127   3.087
 7797SOL    HW124290   0.604   5.067   3.167
 7797SOL    HW224291   0.700   5.143   3.059
 7798SOL     OW24292   0.547   1.724   1.847
 7798SOL    HW124293   0.619   1.761   1.788
 7798SOL    HW224294   0.460   1.770   1.827
 7799SOL     OW24295   2.843   6.310   2.745
 7799SOL    HW124296   2.851   6.219   2.785
 7799SOL    HW224297   2.884   6.311   2.654
 7800SOL     OW24298   1.115   6.092   1.071
 7800SOL    HW124299   1.128   5.994   1.060
 7800SOL    HW224300   1.131   6.118   1.166
 7801SOL     OW24301   1.377   2.534   2.596
 7801SOL    HW124302   1.451   2.509   2.534
 7801SOL    HW224303   1.290   2.527   2.548
 7802SOL     OW24304   6.744   4.337   5.802
 7802SOL    HW124305   6.661   4.292   5.836
 7802SOL    HW224306   6.818   4.325   5.867
 7803SOL     OW24307   5.516   2.497   5.681
 7803SOL    HW124308   5.465   2.461   5.759
 7803SOL    HW224309   5.554   2.421   5.628
 7804SOL     OW24310   2.270   2.156   4.633
 7804SOL    HW124311   2.203   2.175   4.704
 7804SOL    HW224312   2.230   2.176   4.543
 7805SOL     OW24313   5.369   2.713   2.019
 7805SOL    HW124314   5.318   2.719   1.934
 7805SOL    HW224315   5.465   2.738   2.003
 7806SOL     OW24316   6.418   2.801   5.467
 7806SOL    HW124317   6.393   2.704   5.469
 7806SOL    HW224318   6.354   2.852   5.524
 7807SOL     OW24319   2.147   4.896   5.972
 7807SOL    HW124320   2.226   4.836   5.958
 7807SOL    HW224321   2.095   4.903   5.887
 7808SOL     OW24322   5.107   3.986   2.952
 7808SOL    HW124323   5.124   3.929   2.871
 7808SOL    HW224324   5.078   4.077   2.923
 7809SOL     OW24325   5.225   4.910   3.731
 7809SOL    HW124326   5.315   4.867   3.732
 7809SOL    HW224327   5.230   4.995   3.679
 7810SOL     OW24328   4.276   6.198   4.958
 7810SOL    HW124329   4.257   6.121   4.898
 7810SOL    HW224330   4.374   6.218   4.956
 7811SOL     OW24331   1.268   5.837   2.251
 7811SOL    HW124332   1.354   5.787   2.246
 7811SOL    HW224333   1.274   5.908   2.321
 7812SOL     OW24334   2.536   2.604   5.807
 7812SOL    HW124335   2.557   2.527   5.868
 7812SOL    HW224336   2.520   2.569   5.714
 7813SOL     OW24337   5.326   2.811   1.479
 7813SOL    HW124338   5.419   2.826   1.445
 7813SOL    HW224339   5.281   2.899   1.490
 7814SOL     OW24340   6.442   3.213   2.195
 7814SOL    HW124341   6.399   3.265   2.121
 7814SOL    HW224342   6.486   3.276   2.259
 7815SOL     OW24343   6.045   2.873   5.472
 7815SOL    HW124344   6.058   2.780   5.507
 7815SOL    HW224345   6.020   2.870   5.375
 7816SOL     OW24346   0.318   1.558   5.471
 7816SOL    HW124347   0.337   1.460   5.469
 7816SOL    HW224348   0.297   1.590   5.379
 7817SOL     OW24349   3.052   3.735   5.761
 7817SOL    HW124350   2.995   3.804   5.806
 7817SOL    HW224351   3.005   3.702   5.679
 7818SOL     OW24352   4.987   1.765   1.687
 7818SOL    HW124353   4.982   1.820   1.770
 7818SOL    HW224354   4.960   1.671   1.708
 7819SOL     OW24355   0.796   3.462   3.938
 7819SOL    HW124356   0.849   3.382   3.912
 7819SOL    HW224357   0.746   3.496   3.859
 7820SOL     OW24358   1.919   0.700   5.561
 7820SOL    HW124359   1.862   0.677   5.640
 7820SOL    HW224360   1.862   0.723   5.483
 7821SOL     OW24361   6.171   5.746   0.207
 7821SOL    HW124362   6.222   5.820   0.162
 7821SOL    HW224363   6.223   5.661   0.200
 7822SOL     OW24364   1.247   1.107   5.061
 7822SOL    HW124365   1.266   1.098   4.964
 7822SOL    HW224366   1.331   1.135   5.109
 7823SOL     OW24367   1.447   4.206   6.685
 7823SOL    HW124368   1.376   4.190   6.753
 7823SOL    HW224369   1.502   4.123   6.674
 7824SOL     OW24370   5.483   1.990   2.846
 7824SOL    HW124371   5.513   1.954   2.758
 7824SOL    HW224372   5.521   2.082   2.860
 7825SOL     OW24373   2.481   2.853   1.141
 7825SOL    HW124374   2.516   2.903   1.220
 7825SOL    HW224375   2.531   2.880   1.059
 7826SOL     OW24376   5.694   0.959   0.385
 7826SOL    HW124377   5.668   0.879   0.331
 7826SOL    HW224378   5.791   0.952   0.409
 7827SOL     OW24379   4.643   4.882   1.957
 7827SOL    HW124380   4.570   4.939   1.919
 7827SOL    HW224381   4.621   4.859   2.051
 7828SOL     OW24382   1.294   6.328   0.601
 7828SOL    HW124383   1.303   6.309   0.504
 7828SOL    HW224384   1.378   6.301   0.648
 7829SOL     OW24385   2.760   3.016   1.721
 7829SOL    HW124386   2.851   3.055   1.705
 7829SOL    HW224387   2.770   2.925   1.761
 7830SOL     OW24388   6.001   3.397   6.604
 7830SOL    HW124389   5.927   3.435   6.547
 7830SOL    HW224390   6.039   3.470   6.661
 7831SOL     OW24391   1.125   3.497   0.521
 7831SOL    HW124392   1.046   3.559   0.524
 7831SOL    HW224393   1.190   3.522   0.593
 7832SOL     OW24394   2.723   1.919   5.426
 7832SOL    HW124395   2.791   1.863   5.473
 7832SOL    HW224396   2.631   1.884   5.446
 7833SOL     OW24397   0.314   7.015   0.594
 7833SOL    HW124398   0.278   6.991   0.504
 7833SOL    HW224399   0.352   0.077   0.591
 7834SOL     OW24400   0.537   0.636   2.263
 7834SOL    HW124401   0.586   0.705   2.210
 7834SOL    HW224402   0.457   0.677   2.306
 7835SOL     OW24403   2.271   2.868   4.851
 7835SOL    HW124404   2.282   2.771   4.875
 7835SOL    HW224405   2.325   2.925   4.912
 7836SOL     OW24406   3.035   6.748   6.339
 7836SOL    HW124407   3.061   6.703   6.424
 7836SOL    HW224408   3.068   6.694   6.261
 7837SOL     OW24409   5.922   6.690   2.653
 7837SOL    HW124410   5.906   6.593   2.634
 7837SOL    HW224411   5.853   6.745   2.607
 7838SOL     OW24412   4.290   6.850   4.335
 7838SOL    HW124413   4.317   6.792   4.412
 7838SOL    HW224414   4.366   6.858   4.271
 7839SOL     OW24415   5.799   4.371   4.305
 7839SOL    HW124416   5.739   4.347   4.381
 7839SOL    HW224417   5.813   4.470   4.304
 7840SOL     OW24418   5.002   2.874   4.140
 7840SOL    HW124419   4.925   2.816   4.113
 7840SOL    HW224420   4.967   2.953   4.190
 7841SOL     OW24421   6.414   2.141   6.985
 7841SOL    HW124422   6.341   2.208   6.999
 7841SOL    HW224423   6.500   2.177   7.021
 7842SOL     OW24424   1.680   1.610   3.043
 7842SOL    HW124425   1.668   1.577   3.137
 7842SOL    HW224426   1.686   1.710   3.044
 7843SOL     OW24427   5.706   3.945   0.809
 7843SOL    HW124428   5.693   3.851   0.778
 7843SOL    HW224429   5.724   3.945   0.907
 7844SOL     OW24430   4.202   0.762   3.328
 7844SOL    HW124431   4.258   0.841   3.351
 7844SOL    HW224432   4.261   0.685   3.303
 7845SOL     OW24433   0.256   0.921   4.100
 7845SOL    HW124434   0.292   0.938   4.009
 7845SOL    HW224435   0.326   0.940   4.168
 7846SOL     OW24436   2.538   0.867   1.715
 7846SOL    HW124437   2.624   0.873   1.767
 7846SOL    HW224438   2.497   0.958   1.708
 7847SOL     OW24439   0.386   0.912   0.643
 7847SOL    HW124440   0.335   0.844   0.694
 7847SOL    HW224441   0.328   0.992   0.626
 7848SOL     OW24442   4.157   4.254   1.393
 7848SOL    HW124443   4.110   4.296   1.315
 7848SOL    HW224444   4.089   4.222   1.459
 7849SOL     OW24445   4.964   3.361   4.379
 7849SOL    HW124446   4.925   3.412   4.302
 7849SOL    HW224447   5.061   3.384   4.388
 7850SOL     OW24448   6.736   1.200   4.407
 7850SOL    HW124449   6.822   1.251   4.413
 7850SOL    HW224450   6.743   1.132   4.334
 7851SOL     OW24451   6.334   6.582   0.504
 7851SOL    HW124452   6.414   6.642   0.510
 7851SOL    HW224453   6.254   6.635   0.476
 7852SOL     OW24454   2.904   6.591   6.905
 7852SOL    HW124455   2.997   6.578   6.873
 7852SOL    HW224456   2.859   6.661   6.850
 7853SOL     OW24457   2.915   1.347   0.558
 7853SOL    HW124458   2.961   1.278   0.502
 7853SOL    HW224459   2.894   1.426   0.501
 7854SOL     OW24460   3.556   3.614   2.604
 7854SOL    HW124461   3.549   3.569   2.515
 7854SOL    HW224462   3.468   3.656   2.627
 7855SOL     OW24463   4.293   5.284   6.151
 7855SOL    HW124464   4.363   5.355   6.163
 7855SOL    HW224465   4.316   5.204   6.206
 7856SOL     OW24466   5.903   4.252   4.864
 7856SOL    HW124467   5.913   4.325   4.796
 7856SOL    HW224468   5.987   4.246   4.918
 7857SOL     OW24469   6.039   2.296   5.931
 7857SOL    HW124470   5.957   2.247   5.961
 7857SOL    HW224471   6.015   2.390   5.908
 7858SOL     OW24472   6.380   4.168   3.577
 7858SOL    HW124473   6.457   4.219   3.537
 7858SOL    HW224474   6.303   4.229   3.593
 7859SOL     OW24475   0.830   4.696   6.598
 7859SOL    HW124476   0.808   4.643   6.680
 7859SOL    HW224477   0.771   4.666   6.523
 7860SOL     OW24478   4.175   6.588   1.878
 7860SOL    HW124479   4.110   6.662   1.895
 7860SOL    HW224480   4.263   6.611   1.919
 7861SOL     OW24481   4.713   5.342   1.482
 7861SOL    HW124482   4.707   5.350   1.582
 7861SOL    HW224483   4.764   5.259   1.458
 7862SOL     OW24484   3.054   4.239   1.724
 7862SOL    HW124485   2.994   4.215   1.648
 7862SOL    HW224486   3.026   4.327   1.761
 7863SOL     OW24487   6.422   6.147   2.886
 7863SOL    HW124488   6.403   6.146   2.984
 7863SOL    HW224489   6.340   6.174   2.836
 7864SOL     OW24490   0.341   5.933   5.423
 7864SOL    HW124491   0.289   5.933   5.509
 7864SOL    HW224492   0.282   5.904   5.348
 7865SOL     OW24493   3.624   6.252   3.515
 7865SOL    HW124494   3.617   6.352   3.509
 7865SOL    HW224495   3.535   6.211   3.497
 7866SOL     OW24496   2.540   1.765   3.167
 7866SOL    HW124497   2.603   1.709   3.219
 7866SOL    HW224498   2.508   1.841   3.224
 7867SOL     OW24499   6.084   6.092   2.139
 7867SOL    HW124500   6.088   6.068   2.236
 7867SOL    HW224501   6.170   6.067   2.094
 7868SOL     OW24502   5.530   6.192   1.265
 7868SOL    HW124503   5.600   6.178   1.335
 7868SOL    HW224504   5.505   6.103   1.225
 7869SOL     OW24505   6.728   3.312   1.331
 7869SOL    HW124506   6.800   3.340   1.267
 7869SOL    HW224507   6.769   3.290   1.419
 7870SOL     OW24508   6.651   5.094   3.824
 7870SOL    HW124509   6.620   5.188   3.813
 7870SOL    HW224510   6.751   5.091   3.822
 7871SOL     OW24511   5.807   3.206   3.485
 7871SOL    HW124512   5.844   3.294   3.455
 7871SOL    HW224513   5.882   3.147   3.514
 7872SOL     OW24514   0.565   3.865   3.540
 7872SOL    HW124515   0.641   3.816   3.582
 7872SOL    HW224516   0.559   3.842   3.443
 7873SOL     OW24517   6.818   0.223   6.056
 7873SOL    HW124518   6.765   0.142   6.031
 7873SOL    HW224519   6.895   0.196   6.113
 7874SOL     OW24520   6.555   1.342   0.336
 7874SOL    HW124521   6.459   1.324   0.314
 7874SOL    HW224522   6.562   1.429   0.386
 7875SOL     OW24523   5.232   4.292   6.871
 7875SOL    HW124524   5.261   4.246   6.955
 7875SOL    HW224525   5.252   4.390   6.878
 7876SOL     OW24526   6.480   0.442   4.490
 7876SOL    HW124527   6.386   0.412   4.475
 7876SOL    HW224528   6.541   0.394   4.428
 7877SOL     OW24529   0.019   2.403   3.448
 7877SOL    HW124530   6.984   2.372   3.378
 7877SOL    HW224531   0.112   2.384   3.418
 7878SOL     OW24532   4.466   4.710   2.663
 7878SOL    HW124533   4.438   4.682   2.571
 7878SOL    HW224534   4.505   4.803   2.659
 7879SOL     OW24535   5.277   6.229   3.424
 7879SOL    HW124536   5.346   6.161   3.401
 7879SOL    HW224537   5.322   6.312   3.457
 7880SOL     OW24538   0.426   6.381   0.041
 7880SOL    HW124539   0.440   6.299   0.097
 7880SOL    HW224540   0.463   6.461   0.090
 7881SOL     OW24541   6.654   3.858   4.915
 7881SOL    HW124542   6.657   3.948   4.958
 7881SOL    HW224543   6.559   3.829   4.904
 7882SOL     OW24544   0.971   2.827   2.630
 7882SOL    HW124545   1.047   2.844   2.693
 7882SOL    HW224546   0.988   2.876   2.544
 7883SOL     OW24547   2.669   1.031   2.860
 7883SOL    HW124548   2.712   1.120   2.876
 7883SOL    HW224549   2.627   0.999   2.945
 7884SOL     OW24550   1.463   4.790   3.762
 7884SOL    HW124551   1.445   4.743   3.676
 7884SOL    HW224552   1.427   4.883   3.757
 7885SOL     OW24553   5.912   5.635   2.930
 7885SOL    HW124554   6.001   5.669   2.899
 7885SOL    HW224555   5.917   5.535   2.938
 7886SOL     OW24556   5.028   3.408   1.371
 7886SOL    HW124557   4.958   3.479   1.368
 7886SOL    HW224558   4.988   3.323   1.406
 7887SOL     OW24559   3.472   3.554   6.160
 7887SOL    HW124560   3.480   3.593   6.069
 7887SOL    HW224561   3.387   3.501   6.167
 7888SOL     OW24562   6.215   1.601   4.103
 7888SOL    HW124563   6.170   1.683   4.069
 7888SOL    HW224564   6.170   1.570   4.186
 7889SOL     OW24565   6.241   5.302   0.464
 7889SOL    HW124566   6.285   5.234   0.522
 7889SOL    HW224567   6.275   5.393   0.487
 7890SOL     OW24568   1.175   2.733   4.415
 7890SOL    HW124569   1.250   2.798   4.423
 7890SOL    HW224570   1.106   2.753   4.484
 7891SOL     OW24571   0.512   2.692   4.270
 7891SOL    HW124572   0.444   2.765   4.266
 7891SOL    HW224573   0.569   2.703   4.351
 7892SOL     OW24574   1.817   2.654   4.732
 7892SOL    HW124575   1.757   2.619   4.804
 7892SOL    HW224576   1.897   2.697   4.774
 7893SOL     OW24577   6.377   0.274   1.999
 7893SOL    HW124578   6.403   0.259   1.904
 7893SOL    HW224579   6.372   0.186   2.047
 7894SOL     OW24580   2.293   1.635   6.447
 7894SOL    HW124581   2.296   1.655   6.349
 7894SOL    HW224582   2.291   1.536   6.461
 7895SOL     OW24583   3.769   5.534   3.716
 7895SOL    HW124584   3.711   5.554   3.795
 7895SOL    HW224585   3.778   5.435   3.705
 7896SOL     OW24586   4.236   2.683   1.679
 7896SOL    HW124587   4.298   2.761   1.669
 7896SOL    HW224588   4.285   2.607   1.724
 7897SOL     OW24589   3.569   4.302   6.388
 7897SOL    HW124590   3.563   4.300   6.288
 7897SOL    HW224591   3.601   4.392   6.417
 7898SOL     OW24592   4.708   0.060   4.356
 7898SOL    HW124593   4.683   0.116   4.276
 7898SOL    HW224594   4.803   0.077   4.381
 7899SOL     OW24595   5.268   5.497   1.259
 7899SOL    HW124596   5.358   5.476   1.296
 7899SOL    HW224597   5.204   5.510   1.335
 7900SOL     OW24598   0.505   4.295   0.810
 7900SOL    HW124599   0.519   4.220   0.745
 7900SOL    HW224600   0.417   4.338   0.793
 7901SOL     OW24601   5.396   0.805   6.233
 7901SOL    HW124602   5.450   0.881   6.197
 7901SOL    HW224603   5.408   0.799   6.333
 7902SOL     OW24604   6.923   6.461   2.973
 7902SOL    HW124605   6.930   6.437   3.070
 7902SOL    HW224606   6.903   6.378   2.920
 7903SOL     OW24607   3.172   1.688   3.965
 7903SOL    HW124608   3.112   1.749   3.914
 7903SOL    HW224609   3.235   1.742   4.021
 7904SOL     OW24610   5.985   0.810   2.261
 7904SOL    HW124611   6.007   0.907   2.273
 7904SOL    HW224612   6.000   0.762   2.348
 7905SOL     OW24613   5.730   1.106   0.755
 7905SOL    HW124614   5.660   1.135   0.820
 7905SOL    HW224615   5.703   1.019   0.714
 7906SOL     OW24616   1.873   4.912   1.524
 7906SOL    HW124617   1.905   4.904   1.619
 7906SOL    HW224618   1.927   4.980   1.476
 7907SOL     OW24619   5.965   0.762   2.787
 7907SOL    HW124620   6.053   0.723   2.761
 7907SOL    HW224621   5.901   0.754   2.710
 7908SOL     OW24622   0.382   1.278   6.658
 7908SOL    HW124623   0.322   1.354   6.632
 7908SOL    HW224624   0.436   1.250   6.579
 7909SOL     OW24625   5.421   4.696   2.772
 7909SOL    HW124626   5.398   4.787   2.807
 7909SOL    HW224627   5.507   4.665   2.815
 7910SOL     OW24628   1.897   3.421   0.736
 7910SOL    HW124629   1.889   3.521   0.736
 7910SOL    HW224630   1.967   3.393   0.670
 7911SOL     OW24631   0.862   3.897   1.523
 7911SOL    HW124632   0.856   3.976   1.585
 7911SOL    HW224633   0.906   3.821   1.571
 7912SOL     OW24634   5.254   5.526   0.194
 7912SOL    HW124635   5.225   5.455   0.130
 7912SOL    HW224636   5.239   5.494   0.288
 7913SOL     OW24637   0.894   4.101   0.821
 7913SOL    HW124638   0.983   4.144   0.808
 7913SOL    HW224639   0.870   4.048   0.739
 7914SOL     OW24640   6.900   5.080   5.728
 7914SOL    HW124641   6.934   5.084   5.634
 7914SOL    HW224642   6.855   4.992   5.743
 7915SOL     OW24643   3.838   0.342   3.080
 7915SOL    HW124644   3.764   0.288   3.121
 7915SOL    HW224645   3.813   0.439   3.082
 7916SOL     OW24646   0.515   6.778   4.744
 7916SOL    HW124647   0.586   6.722   4.787
 7916SOL    HW224648   0.554   6.866   4.717
 7917SOL     OW24649   3.882   2.456   6.585
 7917SOL    HW124650   3.876   2.465   6.684
 7917SOL    HW224651   3.848   2.365   6.558
 7918SOL     OW24652   2.077   1.241   5.102
 7918SOL    HW124653   2.130   1.167   5.143
 7918SOL    HW224654   2.067   1.223   5.004
 7919SOL     OW24655   1.064   5.040   3.748
 7919SOL    HW124656   1.129   5.098   3.700
 7919SOL    HW224657   1.095   5.025   3.842
 7920SOL     OW24658   5.131   1.024   1.493
 7920SOL    HW124659   5.063   1.081   1.539
 7920SOL    HW224660   5.087   0.939   1.462
 7921SOL     OW24661   5.168   1.995   1.418
 7921SOL    HW124662   5.188   2.070   1.481
 7921SOL    HW224663   5.081   2.013   1.371
 7922SOL     OW24664   1.021   6.723   6.670
 7922SOL    HW124665   1.094   6.688   6.729
 7922SOL    HW224666   0.985   6.648   6.615
 7923SOL     OW24667   3.815   2.328   6.044
 7923SOL    HW124668   3.838   2.391   6.118
 7923SOL    HW224669   3.804   2.378   5.959
 7924SOL     OW24670   6.029   6.684   1.262
 7924SOL    HW124671   6.015   6.768   1.313
 7924SOL    HW224672   6.122   6.682   1.225
 7925SOL     OW24673   2.509   6.432   0.271
 7925SOL    HW124674   2.458   6.373   0.208
 7925SOL    HW224675   2.576   6.485   0.220
 7926SOL     OW24676   5.684   0.762   6.452
 7926SOL    HW124677   5.688   0.692   6.381
 7926SOL    HW224678   5.743   0.838   6.427
 7927SOL     OW24679   5.446   6.843   1.947
 7927SOL    HW124680   5.364   6.797   1.983
 7927SOL    HW224681   5.475   6.914   2.011
 7928SOL     OW24682   0.182   0.888   3.314
 7928SOL    HW124683   0.277   0.916   3.328
 7928SOL    HW224684   0.166   0.870   3.217
 7929SOL     OW24685   4.752   3.489   6.678
 7929SOL    HW124686   4.652   3.488   6.672
 7929SOL    HW224687   4.788   3.560   6.617
 7930SOL     OW24688   3.616   5.674   6.364
 7930SOL    HW124689   3.532   5.655   6.315
 7930SOL    HW224690   3.694   5.644   6.309
 7931SOL     OW24691   2.983   2.415   0.565
 7931SOL    HW124692   2.889   2.436   0.592
 7931SOL    HW224693   2.998   2.445   0.471
 7932SOL     OW24694   6.861   5.398   0.913
 7932SOL    HW124695   6.913   5.329   0.962
 7932SOL    HW224696   6.902   5.413   0.823
 7933SOL     OW24697   6.328   0.566   5.476
 7933SOL    HW124698   6.388   0.632   5.430
 7933SOL    HW224699   6.237   0.605   5.486
 7934SOL     OW24700   1.740   4.768   0.881
 7934SOL    HW124701   1.698   4.683   0.912
 7934SOL    HW224702   1.772   4.757   0.786
 7935SOL     OW24703   5.610   4.062   2.349
 7935SOL    HW124704   5.620   4.159   2.374
 7935SOL    HW224705   5.546   4.018   2.412
 7936SOL     OW24706   3.183   6.115   3.932
 7936SOL    HW124707   3.275   6.092   3.963
 7936SOL    HW224708   3.173   6.215   3.930
 7937SOL     OW24709   1.983   6.151   5.217
 7937SOL    HW124710   1.966   6.243   5.252
 7937SOL    HW224711   1.935   6.084   5.274
 7938SOL     OW24712   5.544   0.834   5.002
 7938SOL    HW124713   5.476   0.798   5.066
 7938SOL    HW224714   5.510   0.825   4.909
 7939SOL     OW24715   0.755   1.677   5.568
 7939SOL    HW124716   0.818   1.685   5.491
 7939SOL    HW224717   0.697   1.759   5.572
 7940SOL     OW24718   4.105   2.026   2.405
 7940SOL    HW124719   4.069   2.034   2.312
 7940SOL    HW224720   4.046   2.077   2.468
 7941SOL     OW24721   4.093   6.562   3.151
 7941SOL    HW124722   4.184   6.591   3.181
 7941SOL    HW224723   4.042   6.526   3.229
 7942SOL     OW24724   1.042   2.781   1.985
 7942SOL    HW124725   1.014   2.783   2.081
 7942SOL    HW224726   1.079   2.691   1.964
 7943SOL     OW24727   2.467   4.716   5.497
 7943SOL    HW124728   2.387   4.713   5.437
 7943SOL    HW224729   2.548   4.687   5.447
 7944SOL     OW24730   1.032   2.617   1.130
 7944SOL    HW124731   1.014   2.557   1.051
 7944SOL    HW224732   1.130   2.637   1.136
 7945SOL     OW24733   6.522   5.408   3.313
 7945SOL    HW124734   6.485   5.470   3.383
 7945SOL    HW224735   6.569   5.462   3.243
 7946SOL     OW24736   3.701   0.136   5.422
 7946SOL    HW124737   3.782   0.165   5.474
 7946SOL    HW224738   3.730   0.082   5.343
 7947SOL     OW24739   1.949   2.869   5.173
 7947SOL    HW124740   1.868   2.829   5.214
 7947SOL    HW224741   2.019   2.799   5.159
 7948SOL     OW24742   1.471   4.508   2.164
 7948SOL    HW124743   1.382   4.500   2.209
 7948SOL    HW224744   1.535   4.442   2.204
 7949SOL     OW24745   4.814   4.550   5.741
 7949SOL    HW124746   4.722   4.585   5.758
 7949SOL    HW224747   4.826   4.463   5.789
 7950SOL     OW24748   5.291   5.593   5.446
 7950SOL    HW124749   5.303   5.497   5.471
 7950SOL    HW224750   5.323   5.651   5.520
 7951SOL     OW24751   2.971   5.357   2.206
 7951SOL    HW124752   2.996   5.262   2.186
 7951SOL    HW224753   2.883   5.379   2.163
 7952SOL     OW24754   5.965   3.896   6.782
 7952SOL    HW124755   5.975   3.811   6.731
 7952SOL    HW224756   5.876   3.937   6.760
 7953SOL     OW24757   4.104   1.591   0.954
 7953SOL    HW124758   4.150   1.618   0.869
 7953SOL    HW224759   4.026   1.652   0.969
 7954SOL     OW24760   3.946   3.854   6.720
 7954SOL    HW124761   4.008   3.859   6.642
 7954SOL    HW224762   3.860   3.899   6.697
 7955SOL     OW24763   2.056   1.747   6.232
 7955SOL    HW124764   2.078   1.691   6.152
 7955SOL    HW224765   2.133   1.808   6.251
 7956SOL     OW24766   5.938   1.549   1.734
 7956SOL    HW124767   5.956   1.587   1.824
 7956SOL    HW224768   5.857   1.491   1.738
 7957SOL     OW24769   4.311   0.636   5.717
 7957SOL    HW124770   4.265   0.549   5.702
 7957SOL    HW224771   4.244   0.705   5.746
 7958SOL     OW24772   5.821   3.524   6.447
 7958SOL    HW124773   5.730   3.564   6.450
 7958SOL    HW224774   5.869   3.557   6.365
 7959SOL     OW24775   5.005   0.604   5.951
 7959SOL    HW124776   4.993   0.653   5.865
 7959SOL    HW224777   5.050   0.663   6.018
 7960SOL     OW24778   0.108   0.952   6.312
 7960SOL    HW124779   0.185   0.990   6.363
 7960SOL    HW224780   0.026   1.007   6.329
 7961SOL     OW24781   6.752   6.420   0.299
 7961SOL    HW124782   6.703   6.386   0.219
 7961SOL    HW224783   6.747   6.520   0.301
 7962SOL     OW24784   6.710   0.199   6.403
 7962SOL    HW124785   6.708   0.145   6.319
 7962SOL    HW224786   6.803   0.230   6.420
 7963SOL     OW24787   6.237   4.121   4.517
 7963SOL    HW124788   6.298   4.200   4.521
 7963SOL    HW224789   6.271   4.056   4.449
 7964SOL     OW24790   6.855   2.903   1.489
 7964SOL    HW124791   6.923   2.954   1.542
 7964SOL    HW224792   6.764   2.940   1.506
 7965SOL     OW24793   4.835   2.672   0.132
 7965SOL    HW124794   4.779   2.590   0.145
 7965SOL    HW224795   4.808   2.741   0.199
 7966SOL     OW24796   3.903   4.007   5.903
 7966SOL    HW124797   4.000   3.987   5.912
 7966SOL    HW224798   3.891   4.096   5.859
 7967SOL     OW24799   1.685   5.291   2.248
 7967SOL    HW124800   1.762   5.238   2.284
 7967SOL    HW224801   1.691   5.296   2.148
 7968SOL     OW24802   6.742   1.578   4.639
 7968SOL    HW124803   6.711   1.486   4.662
 7968SOL    HW224804   6.667   1.630   4.599
 7969SOL     OW24805   4.847   6.143   0.350
 7969SOL    HW124806   4.827   6.230   0.306
 7969SOL    HW224807   4.818   6.147   0.446
 7970SOL     OW24808   6.087   3.120   2.594
 7970SOL    HW124809   6.141   3.098   2.512
 7970SOL    HW224810   6.079   3.219   2.603
 7971SOL     OW24811   3.125   1.697   1.237
 7971SOL    HW124812   3.154   1.750   1.316
 7971SOL    HW224813   3.142   1.600   1.254
 7972SOL     OW24814   4.205   3.309   1.863
 7972SOL    HW124815   4.176   3.353   1.948
 7972SOL    HW224816   4.195   3.210   1.870
 7973SOL     OW24817   6.006   3.690   3.836
 7973SOL    HW124818   6.000   3.711   3.738
 7973SOL    HW224819   6.101   3.693   3.865
 7974SOL     OW24820   6.423   1.504   5.075
 7974SOL    HW124821   6.329   1.520   5.107
 7974SOL    HW224822   6.423   1.428   5.010
 7975SOL     OW24823   4.211   1.385   0.307
 7975SOL    HW124824   4.132   1.345   0.261
 7975SOL    HW224825   4.259   1.446   0.243
 7976SOL     OW24826   1.056   0.150   6.069
 7976SOL    HW124827   0.976   0.129   6.126
 7976SOL    HW224828   1.071   0.075   6.005
 7977SOL     OW24829   5.658   5.977   2.554
 7977SOL    HW124830   5.567   5.999   2.519
 7977SOL    HW224831   5.677   5.880   2.538
 7978SOL     OW24832   0.511   3.867   0.954
 7978SOL    HW124833   0.510   3.941   1.021
 7978SOL    HW224834   0.593   3.812   0.965
 7979SOL     OW24835   1.907   3.677   5.009
 7979SOL    HW124836   1.852   3.613   4.956
 7979SOL    HW224837   1.960   3.626   5.077
 7980SOL     OW24838   3.535   4.597   5.733
 7980SOL    HW124839   3.478   4.528   5.689
 7980SOL    HW224840   3.484   4.683   5.742
 7981SOL     OW24841   2.037   5.520   3.440
 7981SOL    HW124842   2.006   5.431   3.475
 7981SOL    HW224843   2.046   5.515   3.341
 7982SOL     OW24844   1.009   1.455   6.013
 7982SOL    HW124845   0.987   1.362   5.983
 7982SOL    HW224846   1.055   1.504   5.939
 7983SOL     OW24847   5.358   1.171   1.328
 7983SOL    HW124848   5.442   1.118   1.317
 7983SOL    HW224849   5.287   1.113   1.368
 7984SOL     OW24850   0.746   1.788   1.688
 7984SOL    HW124851   0.845   1.792   1.679
 7984SOL    HW224852   0.703   1.836   1.611
 7985SOL     OW24853   2.126   2.107   5.235
 7985SOL    HW124854   2.218   2.145   5.229
 7985SOL    HW224855   2.093   2.084   5.143
 7986SOL     OW24856   3.886   1.751   4.671
 7986SOL    HW124857   3.885   1.703   4.584
 7986SOL    HW224858   3.836   1.698   4.740
 7987SOL     OW24859   1.427   3.854   0.696
 7987SOL    HW124860   1.381   3.805   0.770
 7987SOL    HW224861   1.526   3.857   0.714
 7988SOL     OW24862   6.931   0.898   1.781
 7988SOL    HW124863   6.906   0.888   1.685
 7988SOL    HW224864   6.882   0.975   1.821
 7989SOL     OW24865   1.633   4.102   0.239
 7989SOL    HW124866   1.639   4.045   0.321
 7989SOL    HW224867   1.645   4.198   0.264
 7990SOL     OW24868   2.345   6.533   4.756
 7990SOL    HW124869   2.424   6.478   4.783
 7990SOL    HW224870   2.266   6.473   4.742
 7991SOL     OW24871   5.352   1.725   4.539
 7991SOL    HW124872   5.418   1.742   4.465
 7991SOL    HW224873   5.376   1.783   4.617
 7992SOL     OW24874   2.648   0.460   0.317
 7992SOL    HW124875   2.660   0.368   0.353
 7992SOL    HW224876   2.620   0.522   0.391
 7993SOL     OW24877   0.036   0.284   2.220
 7993SOL    HW124878   7.005   0.227   2.274
 7993SOL    HW224879   7.017   0.318   2.140
 7994SOL     OW24880   5.068   0.808   3.368
 7994SOL    HW124881   5.143   0.874   3.371
 7994SOL    HW224882   5.059   0.773   3.275
 7995SOL     OW24883   6.184   4.654   2.813
 7995SOL    HW124884   6.114   4.681   2.748
 7995SOL    HW224885   6.180   4.556   2.830
 7996SOL     OW24886   3.999   0.262   3.807
 7996SOL    HW124887   3.930   0.190   3.817
 7996SOL    HW224888   4.086   0.221   3.779
 7997SOL     OW24889   0.878   2.085   6.953
 7997SOL    HW124890   0.860   2.170   6.904
 7997SOL    HW224891   0.897   2.106   0.019
 7998SOL     OW24892   2.949   0.320   6.846
 7998SOL    HW124893   2.919   0.284   6.758
 7998SOL    HW224894   2.889   0.285   6.918
 7999SOL     OW24895   1.150   1.799   6.097
 7999SOL    HW124896   1.080   1.865   6.122
 7999SOL    HW224897   1.189   1.758   6.179
 8000SOL     OW24898   6.139   6.638   6.488
 8000SOL    HW124899   6.204   6.714   6.483
 8000SOL    HW224900   6.120   6.617   6.584
 8001SOL     OW24901   4.664   0.001   1.092
 8001SOL    HW124902   4.672   0.024   1.189
 8001SOL    HW224903   4.737   0.046   1.041
 8002SOL     OW24904   0.473   1.065   5.405
 8002SOL    HW124905   0.493   1.066   5.503
 8002SOL    HW224906   0.420   1.147   5.382
 8003SOL     OW24907   2.027   6.934   2.195
 8003SOL    HW124908   1.940   6.897   2.162
 8003SOL    HW224909   2.039   7.028   2.162
 8004SOL     OW24910   1.989   2.874   3.478
 8004SOL    HW124911   2.054   2.861   3.404
 8004SOL    HW224912   1.930   2.794   3.486
 8005SOL     OW24913   2.655   7.029   3.905
 8005SOL    HW124914   2.712   0.081   3.896
 8005SOL    HW224915   2.580   0.018   3.969
 8006SOL     OW24916   3.348   5.450   5.104
 8006SOL    HW124917   3.363   5.549   5.097
 8006SOL    HW224918   3.256   5.428   5.070
 8007SOL     OW24919   5.864   1.601   6.301
 8007SOL    HW124920   5.783   1.635   6.349
 8007SOL    HW224921   5.911   1.678   6.257
 8008SOL     OW24922   3.750   6.477   6.956
 8008SOL    HW124923   3.706   6.422   6.885
 8008SOL    HW224924   3.706   6.567   6.960
 8009SOL     OW24925   4.808   1.588   1.084
 8009SOL    HW124926   4.843   1.626   1.169
 8009SOL    HW224927   4.821   1.654   1.010
 8010SOL     OW24928   3.078   2.574   5.527
 8010SOL    HW124929   3.049   2.492   5.477
 8010SOL    HW224930   3.125   2.547   5.611
 8011SOL     OW24931   3.666   1.953   1.918
 8011SOL    HW124932   3.670   2.046   1.954
 8011SOL    HW224933   3.661   1.956   1.818
 8012SOL     OW24934   0.631   2.776   6.008
 8012SOL    HW124935   0.696   2.829   6.062
 8012SOL    HW224936   0.579   2.715   6.068
 8013SOL     OW24937   1.018   2.546   3.238
 8013SOL    HW124938   1.061   2.456   3.237
 8013SOL    HW224939   1.056   2.602   3.165
 8014SOL     OW24940   1.726   6.964   3.675
 8014SOL    HW124941   1.681   7.011   3.599
 8014SOL    HW224942   1.770   0.002   3.734
 8015SOL     OW24943   1.783   0.285   6.006
 8015SOL    HW124944   1.858   0.219   6.015
 8015SOL    HW224945   1.819   0.377   6.017
 8016SOL     OW24946   3.521   1.882   4.844
 8016SOL    HW124947   3.587   1.866   4.917
 8016SOL    HW224948   3.501   1.795   4.798
 8017SOL     OW24949   6.768   6.729   0.295
 8017SOL    HW124950   6.852   6.754   0.247
 8017SOL    HW224951   6.771   6.767   0.387
 8018SOL     OW24952   3.688   2.064   6.754
 8018SOL    HW124953   3.735   1.979   6.779
 8018SOL    HW224954   3.595   2.062   6.792
 8019SOL     OW24955   2.367   3.765   0.612
 8019SOL    HW124956   2.393   3.814   0.695
 8019SOL    HW224957   2.448   3.746   0.557
 8020SOL     OW24958   5.917   6.877   5.767
 8020SOL    HW124959   5.911   6.963   5.718
 8020SOL    HW224960   5.826   6.848   5.796
 8021SOL     OW24961   2.407   2.143   2.100
 8021SOL    HW124962   2.310   2.164   2.108
 8021SOL    HW224963   2.453   2.215   2.047
 8022SOL     OW24964   5.913   0.752   1.389
 8022SOL    HW124965   5.937   0.656   1.406
 8022SOL    HW224966   5.903   0.800   1.476
 8023SOL     OW24967   5.682   5.566   3.054
 8023SOL    HW124968   5.757   5.614   3.007
 8023SOL    HW224969   5.709   5.472   3.072
 8024SOL     OW24970   1.625   5.912   6.309
 8024SOL    HW124971   1.624   5.859   6.224
 8024SOL    HW224972   1.587   5.857   6.383
 8025SOL     OW24973   2.227   4.640   1.602
 8025SOL    HW124974   2.265   4.719   1.649
 8025SOL    HW224975   2.127   4.640   1.612
 8026SOL     OW24976   0.052   4.470   0.846
 8026SOL    HW124977   7.002   4.411   0.835
 8026SOL    HW224978   0.061   4.496   0.942
 8027SOL     OW24979   3.985   6.689   5.277
 8027SOL    HW124980   3.957   6.740   5.359
 8027SOL    HW224981   3.908   6.636   5.243
 8028SOL     OW24982   2.563   6.095   4.362
 8028SOL    HW124983   2.517   6.008   4.343
 8028SOL    HW224984   2.605   6.130   4.278
 8029SOL     OW24985   5.021   1.931   1.901
 8029SOL    HW124986   5.110   1.965   1.932
 8029SOL    HW224987   4.967   2.008   1.866
 8030SOL     OW24988   6.279   5.018   0.980
 8030SOL    HW124989   6.269   4.945   0.911
 8030SOL    HW224990   6.304   5.103   0.934
 8031SOL     OW24991   5.432   0.189   3.393
 8031SOL    HW124992   5.520   0.224   3.425
 8031SOL    HW224993   5.396   0.124   3.460
 8032SOL     OW24994   5.157   3.761   1.330
 8032SOL    HW124995   5.211   3.827   1.278
 8032SOL    HW224996   5.149   3.792   1.425
 8033SOL     OW24997   4.095   3.568   0.263
 8033SOL    HW124998   4.073   3.604   0.354
 8033SOL    HW224999   4.125   3.473   0.272
 8034SOL     OW25000   5.634   0.568   5.202
 8034SOL    HW125001   5.550   0.622   5.213
 8034SOL    HW225002   5.708   0.626   5.170
 8035SOL     OW25003   4.381   0.864   2.593
 8035SOL    HW125004   4.367   0.807   2.674
 8035SOL    HW225005   4.292   0.895   2.559
 8036SOL     OW25006   6.513   2.856   3.820
 8036SOL    HW125007   6.488   2.899   3.733
 8036SOL    HW225008   6.591   2.795   3.807
 8037SOL     OW25009   1.369   2.733   0.060
 8037SOL    HW125010   1.355   2.636   0.083
 8037SOL    HW225011   1.384   2.785   0.145
 8038SOL     OW25012   5.728   6.280   1.988
 8038SOL    HW125013   5.693   6.192   1.957
 8038SOL    HW225014   5.827   6.274   2.003
 8039SOL     OW25015   0.411   2.641   5.036
 8039SOL    HW125016   0.319   2.643   5.076
 8039SOL    HW225017   0.478   2.629   5.109
 8040SOL     OW25018   1.984   6.041   6.037
 8040SOL    HW125019   2.079   6.020   6.014
 8040SOL    HW225020   1.963   6.004   6.128
 8041SOL     OW25021   3.113   1.526   2.926
 8041SOL    HW125022   3.098   1.452   2.860
 8041SOL    HW225023   3.025   1.554   2.964
 8042SOL     OW25024   4.421   4.145   6.010
 8042SOL    HW125025   4.338   4.189   6.045
 8042SOL    HW225026   4.418   4.144   5.910
 8043SOL     OW25027   4.848   5.074   1.539
 8043SOL    HW125028   4.776   5.031   1.593
 8043SOL    HW225029   4.897   5.004   1.487
 8044SOL     OW25030   4.165   3.734   1.044
 8044SOL    HW125031   4.183   3.685   0.959
 8044SOL    HW225032   4.071   3.768   1.043
 8045SOL     OW25033   0.024   1.328   2.985
 8045SOL    HW125034   0.054   1.275   2.906
 8045SOL    HW225035   0.053   1.282   3.069
 8046SOL     OW25036   0.411   4.981   1.737
 8046SOL    HW125037   0.344   5.030   1.680
 8046SOL    HW225038   0.465   5.047   1.788
 8047SOL     OW25039   3.770   6.823   6.197
 8047SOL    HW125040   3.737   6.897   6.257
 8047SOL    HW225041   3.870   6.823   6.198
 8048SOL     OW25042   4.097   2.913   0.650
 8048SOL    HW125043   4.190   2.904   0.687
 8048SOL    HW225044   4.041   2.838   0.682
 8049SOL     OW25045   1.327   6.575   0.330
 8049SOL    HW125046   1.300   6.541   0.420
 8049SOL    HW225047   1.247   6.578   0.270
 8050SOL     OW25048   1.558   4.254   4.341
 8050SOL    HW125049   1.475   4.308   4.331
 8050SOL    HW225050   1.628   4.287   4.278
 8051SOL     OW25051   5.051   5.895   4.442
 8051SOL    HW125052   5.116   5.833   4.486
 8051SOL    HW225053   4.990   5.842   4.383
 8052SOL     OW25054   2.631   1.414   1.980
 8052SOL    HW125055   2.698   1.413   1.906
 8052SOL    HW225056   2.608   1.320   2.005
 8053SOL     OW25057   2.855   3.154   5.517
 8053SOL    HW125058   2.798   3.213   5.574
 8053SOL    HW225059   2.797   3.095   5.461
 8054SOL     OW25060   6.047   4.403   5.173
 8054SOL    HW125061   6.077   4.462   5.248
 8054SOL    HW225062   6.005   4.458   5.102
 8055SOL     OW25063   0.095   0.390   5.276
 8055SOL    HW125064   0.012   0.386   5.332
 8055SOL    HW225065   0.127   0.297   5.256
 8056SOL     OW25066   2.599   6.738   3.717
 8056SOL    HW125067   2.593   6.750   3.816
 8056SOL    HW225068   2.678   6.680   3.695
 8057SOL     OW25069   2.506   1.838   1.845
 8057SOL    HW125070   2.587   1.872   1.893
 8057SOL    HW225071   2.439   1.911   1.835
 8058SOL     OW25072   2.775   6.654   3.144
 8058SOL    HW125073   2.866   6.694   3.143
 8058SOL    HW225074   2.711   6.714   3.096
 8059SOL     OW25075   3.357   1.398   5.585
 8059SOL    HW125076   3.357   1.331   5.660
 8059SOL    HW225077   3.265   1.437   5.576
 8060SOL     OW25078   6.881   0.558   5.801
 8060SOL    HW125079   6.808   0.627   5.803
 8060SOL    HW225080   6.845   0.474   5.760
 8061SOL     OW25081   0.360   0.838   2.376
 8061SOL    HW125082   0.282   0.792   2.418
 8061SOL    HW225083   0.331   0.928   2.343
 8062SOL     OW25084   3.956   5.352   4.602
 8062SOL    HW125085   3.960   5.252   4.606
 8062SOL    HW225086   3.902   5.379   4.522
 8063SOL     OW25087   3.472   0.656   2.899
 8063SOL    HW125088   3.476   0.711   2.982
 8063SOL    HW225089   3.483   0.559   2.922
 8064SOL     OW25090   6.617   2.782   0.540
 8064SOL    HW125091   6.670   2.783   0.456
 8064SOL    HW225092   6.673   2.814   0.616
 8065SOL     OW25093   3.640   0.174   4.509
 8065SOL    HW125094   3.598   0.251   4.557
 8065SOL    HW225095   3.577   0.096   4.511
 8066SOL     OW25096   6.439   1.095   4.725
 8066SOL    HW125097   6.532   1.078   4.758
 8066SOL    HW225098   6.430   1.059   4.632
 8067SOL     OW25099   5.202   3.004   3.632
 8067SOL    HW125100   5.211   2.990   3.731
 8067SOL    HW225101   5.190   3.102   3.614
 8068SOL     OW25102   0.568   5.045   1.113
 8068SOL    HW125103   0.529   4.960   1.078
 8068SOL    HW225104   0.617   5.092   1.039
 8069SOL     OW25105   3.022   5.055   2.240
 8069SOL    HW125106   3.088   5.015   2.304
 8069SOL    HW225107   3.067   5.075   2.154
 8070SOL     OW25108   3.952   4.440   0.825
 8070SOL    HW125109   3.930   4.343   0.827
 8070SOL    HW225110   3.945   4.478   0.917
 8071SOL     OW25111   4.126   6.778   5.068
 8071SOL    HW125112   4.078   6.752   5.152
 8071SOL    HW225113   4.197   6.844   5.091
 8072SOL     OW25114   3.030   2.782   0.174
 8072SOL    HW125115   3.097   2.746   0.110
 8072SOL    HW225116   2.951   2.721   0.179
 8073SOL     OW25117   3.277   0.063   5.973
 8073SOL    HW125118   3.321   0.119   5.903
 8073SOL    HW225119   3.292   6.996   5.952
 8074SOL     OW25120   1.801   1.014   0.966
 8074SOL    HW125121   1.782   1.112   0.961
 8074SOL    HW225122   1.821   0.979   0.875
 8075SOL     OW25123   0.576   6.890   0.124
 8075SOL    HW125124   0.582   6.958   0.197
 8075SOL    HW225125   0.651   6.904   0.060
 8076SOL     OW25126   0.127   0.056   6.433
 8076SOL    HW125127   0.098   0.053   6.337
 8076SOL    HW225128   0.216   0.011   6.441
 8077SOL     OW25129   4.008   6.040   1.918
 8077SOL    HW125130   3.923   6.066   1.963
 8077SOL    HW225131   4.029   6.107   1.846
 8078SOL     OW25132   0.842   1.661   0.941
 8078SOL    HW125133   0.820   1.732   0.874
 8078SOL    HW225134   0.869   1.577   0.893
 8079SOL     OW25135   0.145   1.454   4.260
 8079SOL    HW125136   0.194   1.482   4.343
 8079SOL    HW225137   0.048   1.475   4.270
 8080SOL     OW25138   1.431   2.545   1.865
 8080SOL    HW125139   1.411   2.448   1.856
 8080SOL    HW225140   1.531   2.558   1.863
 8081SOL     OW25141   6.257   4.474   5.710
 8081SOL    HW125142   6.323   4.505   5.778
 8081SOL    HW225143   6.201   4.551   5.681
 8082SOL     OW25144   3.138   0.525   2.078
 8082SOL    HW125145   3.090   0.472   2.007
 8082SOL    HW225146   3.145   0.470   2.161
 8083SOL     OW25147   5.672   3.135   3.727
 8083SOL    HW125148   5.726   3.186   3.660
 8083SOL    HW225149   5.577   3.167   3.725
 8084SOL     OW25150   2.745   0.640   5.534
 8084SOL    HW125151   2.772   0.585   5.613
 8084SOL    HW225152   2.729   0.734   5.564
 8085SOL     OW25153   6.600   6.601   3.050
 8085SOL    HW125154   6.587   6.518   2.996
 8085SOL    HW225155   6.511   6.636   3.079
 8086SOL     OW25156   6.837   0.884   1.502
 8086SOL    HW125157   6.830   0.835   1.415
 8086SOL    HW225158   6.799   0.976   1.491
 8087SOL     OW25159   1.346   0.839   6.524
 8087SOL    HW125160   1.436   0.862   6.488
 8087SOL    HW225161   1.294   0.790   6.455
 8088SOL     OW25162   5.949   0.032   6.990
 8088SOL    HW125163   5.878   6.997   6.963
 8088SOL    HW225164   6.039   7.017   6.982
 8089SOL     OW25165   5.766   2.650   6.326
 8089SOL    HW125166   5.741   2.741   6.359
 8089SOL    HW225167   5.810   2.599   6.399
 8090SOL     OW25168   3.656   1.409   6.177
 8090SOL    HW125169   3.567   1.366   6.193
 8090SOL    HW225170   3.674   1.415   6.079
 8091SOL     OW25171   1.257   4.112   4.177
 8091SOL    HW125172   1.285   4.026   4.136
 8091SOL    HW225173   1.246   4.100   4.275
 8092SOL     OW25174   4.643   1.959   5.306
 8092SOL    HW125175   4.660   1.863   5.285
 8092SOL    HW225176   4.633   2.011   5.221
 8093SOL     OW25177   3.320   5.654   2.957
 8093SOL    HW125178   3.367   5.726   2.906
 8093SOL    HW225179   3.265   5.599   2.895
 8094SOL     OW25180   0.629   3.799   5.557
 8094SOL    HW125181   0.641   3.790   5.656
 8094SOL    HW225182   0.536   3.827   5.536
 8095SOL     OW25183   0.792   5.242   4.790
 8095SOL    HW125184   0.839   5.208   4.709
 8095SOL    HW225185   0.860   5.270   4.858
 8096SOL     OW25186   1.162   0.464   2.339
 8096SOL    HW125187   1.146   0.471   2.437
 8096SOL    HW225188   1.258   0.483   2.320
 8097SOL     OW25189   3.963   0.279   4.755
 8097SOL    HW125190   3.916   0.350   4.702
 8097SOL    HW225191   4.000   0.320   4.839
 8098SOL     OW25192   1.543   6.690   3.498
 8098SOL    HW125193   1.617   6.642   3.545
 8098SOL    HW225194   1.580   6.742   3.421
 8099SOL     OW25195   4.348   6.211   4.522
 8099SOL    HW125196   4.318   6.180   4.432
 8099SOL    HW225197   4.421   6.152   4.556
 8100SOL     OW25198   6.509   1.444   6.774
 8100SOL    HW125199   6.427   1.481   6.729
 8100SOL    HW225200   6.499   1.345   6.785
 8101SOL     OW25201   2.268   5.032   0.784
 8101SOL    HW125202   2.331   5.078   0.846
 8101SOL    HW225203   2.202   5.099   0.748
 8102SOL     OW25204   0.886   3.706   4.173
 8102SOL    HW125205   0.974   3.750   4.154
 8102SOL    HW225206   0.822   3.726   4.099
 8103SOL     OW25207   3.511   0.366   2.117
 8103SOL    HW125208   3.462   0.280   2.113
 8103SOL    HW225209   3.512   0.399   2.212
 8104SOL     OW25210   2.042   0.078   5.333
 8104SOL    HW125211   2.127   0.120   5.365
 8104SOL    HW225212   2.011   0.009   5.399
 8105SOL     OW25213   0.134   2.435   2.754
 8105SOL    HW125214   0.097   2.438   2.846
 8105SOL    HW225215   0.069   2.478   2.690
 8106SOL     OW25216   2.696   6.617   3.424
 8106SOL    HW125217   2.733   6.612   3.331
 8106SOL    HW225218   2.625   6.688   3.427
 8107SOL     OW25219   0.901   5.949   4.272
 8107SOL    HW125220   0.902   5.951   4.372
 8107SOL    HW225221   0.956   5.872   4.240
 8108SOL     OW25222   6.732   1.567   6.959
 8108SOL    HW125223   6.802   1.630   6.926
 8108SOL    HW225224   6.659   1.559   6.891
 8109SOL     OW25225   0.074   4.407   6.475
 8109SOL    HW125226   0.061   4.310   6.454
 8109SOL    HW225227   0.162   4.420   6.520
 8110SOL     OW25228   4.161   4.476   1.636
 8110SOL    HW125229   4.260   4.486   1.641
 8110SOL    HW225230   4.126   4.533   1.562
 8111SOL     OW25231   5.086   1.036   4.115
 8111SOL    HW125232   5.165   0.986   4.078
 8111SOL    HW225233   5.112   1.131   4.133
 8112SOL     OW25234   1.483   3.437   4.393
 8112SOL    HW125235   1.530   3.454   4.480
 8112SOL    HW225236   1.541   3.380   4.335
 8113SOL     OW25237   6.440   3.558   0.667
 8113SOL    HW125238   6.395   3.486   0.614
 8113SOL    HW225239   6.371   3.616   0.711
 8114SOL     OW25240   1.056   3.490   2.040
 8114SOL    HW125241   1.036   3.508   2.137
 8114SOL    HW225242   1.026   3.399   2.016
 8115SOL     OW25243   3.215   6.284   5.647
 8115SOL    HW125244   3.265   6.246   5.569
 8115SOL    HW225245   3.234   6.229   5.728
 8116SOL     OW25246   4.481   5.014   0.289
 8116SOL    HW125247   4.552   5.084   0.285
 8116SOL    HW225248   4.467   4.986   0.384
 8117SOL     OW25249   2.369   0.075   3.214
 8117SOL    HW125250   2.348   0.137   3.289
 8117SOL    HW225251   2.468   0.063   3.207
 8118SOL     OW25252   6.260   3.859   6.519
 8118SOL    HW125253   6.327   3.811   6.575
 8118SOL    HW225254   6.232   3.943   6.565
 8119SOL     OW25255   4.977   6.317   6.011
 8119SOL    HW125256   4.937   6.407   5.989
 8119SOL    HW225257   5.029   6.284   5.933
 8120SOL     OW25258   2.841   4.598   0.263
 8120SOL    HW125259   2.752   4.593   0.219
 8120SOL    HW225260   2.853   4.689   0.303
 8121SOL     OW25261   1.060   4.909   2.165
 8121SOL    HW125262   0.990   4.923   2.095
 8121SOL    HW225263   1.136   4.856   2.126
 8122SOL     OW25264   0.880   4.411   3.099
 8122SOL    HW125265   0.849   4.401   3.005
 8122SOL    HW225266   0.979   4.405   3.103
 8123SOL     OW25267   6.881   1.173   6.960
 8123SOL    HW125268   6.810   1.224   7.009
 8123SOL    HW225269   6.937   1.121   7.025
 8124SOL     OW25270   5.466   6.403   3.567
 8124SOL    HW125271   5.530   6.387   3.492
 8124SOL    HW225272   5.465   6.323   3.627
 8125SOL     OW25273   1.185   0.962   2.689
 8125SOL    HW125274   1.230   0.994   2.606
 8125SOL    HW225275   1.091   0.997   2.692
 8126SOL     OW25276   4.924   4.915   3.590
 8126SOL    HW125277   4.970   4.831   3.560
 8126SOL    HW225278   4.991   4.988   3.601
 8127SOL     OW25279   2.836   3.000   6.327
 8127SOL    HW125280   2.795   3.042   6.408
 8127SOL    HW225281   2.765   2.957   6.272
 8128SOL     OW25282   2.963   2.057   2.022
 8128SOL    HW125283   2.939   2.146   2.062
 8128SOL    HW225284   3.023   2.072   1.943
 8129SOL     OW25285   2.564   2.100   7.004
 8129SOL    HW125286   2.622   2.044   6.944
 8129SOL    HW225287   2.561   2.194   6.969
 8130SOL     OW25288   1.428   6.451   6.768
 8130SOL    HW125289   1.365   6.375   6.786
 8130SOL    HW225290   1.466   6.442   6.676
 8131SOL     OW25291   2.728   2.111   1.545
 8131SOL    HW125292   2.793   2.099   1.469
 8131SOL    HW225293   2.765   2.177   1.610
 8132SOL     OW25294   5.623   6.371   4.800
 8132SOL    HW125295   5.703   6.399   4.747
 8132SOL    HW225296   5.653   6.333   4.888
 8133SOL     OW25297   3.647   5.553   2.136
 8133SOL    HW125298   3.585   5.559   2.058
 8133SOL    HW225299   3.614   5.484   2.200
 8134SOL     OW25300   6.887   1.123   6.300
 8134SOL    HW125301   6.923   1.181   6.373
 8134SOL    HW225302   6.917   1.158   6.212
 8135SOL     OW25303   1.706   1.007   1.458
 8135SOL    HW125304   1.673   0.918   1.492
 8135SOL    HW225305   1.722   1.068   1.535
 8136SOL     OW25306   5.619   5.303   2.373
 8136SOL    HW125307   5.581   5.376   2.316
 8136SOL    HW225308   5.697   5.262   2.327
 8137SOL     OW25309   2.881   1.155   5.256
 8137SOL    HW125310   2.856   1.082   5.192
 8137SOL    HW225311   2.967   1.197   5.227
 8138SOL     OW25312   5.439   0.991   1.557
 8138SOL    HW125313   5.469   0.898   1.534
 8138SOL    HW225314   5.341   0.990   1.576
 8139SOL     OW25315   0.622   1.323   2.312
 8139SOL    HW125316   0.721   1.328   2.321
 8139SOL    HW225317   0.596   1.238   2.267
 8140SOL     OW25318   4.838   1.036   4.833
 8140SOL    HW125319   4.779   1.094   4.888
 8140SOL    HW225320   4.862   1.084   4.748
 8141SOL     OW25321   4.574   5.538   6.002
 8141SOL    HW125322   4.580   5.478   5.922
 8141SOL    HW225323   4.610   5.628   5.979
 8142SOL     OW25324   6.409   5.067   6.972
 8142SOL    HW125325   6.328   5.011   6.958
 8142SOL    HW225326   6.384   5.164   6.972
 8143SOL     OW25327   6.362   4.877   0.231
 8143SOL    HW125328   6.335   4.808   0.164
 8143SOL    HW225329   6.461   4.888   0.230
 8144SOL     OW25330   5.364   7.028   6.885
 8144SOL    HW125331   5.370   6.999   6.790
 8144SOL    HW225332   5.268   0.010   6.910
 8145SOL     OW25333   5.804   5.674   2.487
 8145SOL    HW125334   5.837   5.708   2.576
 8145SOL    HW225335   5.839   5.733   2.414
 8146SOL     OW25336   3.699   1.774   5.036
 8146SOL    HW125337   3.780   1.715   5.031
 8146SOL    HW225338   3.710   1.840   5.110
 8147SOL     OW25339   6.007   2.239   3.257
 8147SOL    HW125340   5.940   2.214   3.327
 8147SOL    HW225341   6.063   2.315   3.290
 8148SOL     OW25342   5.760   4.073   2.626
 8148SOL    HW125343   5.794   4.090   2.718
 8148SOL    HW225344   5.750   3.975   2.611
 8149SOL     OW25345   3.032   5.764   2.693
 8149SOL    HW125346   3.110   5.725   2.644
 8149SOL    HW225347   2.992   5.695   2.753
 8150SOL     OW25348   6.886   4.915   0.376
 8150SOL    HW125349   6.916   4.826   0.411
 8150SOL    HW225350   6.868   4.976   0.453
 8151SOL     OW25351   0.274   2.425   3.075
 8151SOL    HW125352   0.283   2.326   3.077
 8151SOL    HW225353   0.345   2.464   3.017
 8152SOL     OW25354   0.983   1.544   2.868
 8152SOL    HW125355   1.070   1.573   2.909
 8152SOL    HW225356   0.990   1.549   2.769
 8153SOL     OW25357   3.424   6.999   2.840
 8153SOL    HW125358   3.476   0.024   2.774
 8153SOL    HW225359   3.488   6.955   2.904
 8154SOL     OW25360   2.227   5.929   4.365
 8154SOL    HW125361   2.211   5.883   4.278
 8154SOL    HW225362   2.315   5.899   4.403
 8155SOL     OW25363   2.930   3.276   2.025
 8155SOL    HW125364   2.880   3.190   2.013
 8155SOL    HW225365   2.892   3.345   1.963
 8156SOL     OW25366   6.245   0.091   5.654
 8156SOL    HW125367   6.148   0.068   5.662
 8156SOL    HW225368   6.255   0.190   5.649
 8157SOL     OW25369   5.708   5.976   5.987
 8157SOL    HW125370   5.630   5.956   6.045
 8157SOL    HW225371   5.684   5.960   5.891
 8158SOL     OW25372   1.416   5.894   0.652
 8158SOL    HW125373   1.373   5.924   0.567
 8158SOL    HW225374   1.514   5.884   0.638
 8159SOL     OW25375   2.293   5.494   2.238
 8159SOL    HW125376   2.234   5.572   2.220
 8159SOL    HW225377   2.318   5.450   2.152
 8160SOL     OW25378   4.526   1.550   1.068
 8160SOL    HW125379   4.623   1.536   1.089
 8160SOL    HW225380   4.500   1.492   0.992
 8161SOL     OW25381   4.886   0.947   1.217
 8161SOL    HW125382   4.800   0.942   1.165
 8161SOL    HW225383   4.948   1.012   1.172
 8162SOL     OW25384   6.059   6.689   6.789
 8162SOL    HW125385   6.109   6.775   6.803
 8162SOL    HW225386   6.106   6.615   6.838
 8163SOL     OW25387   2.681   4.189   5.317
 8163SOL    HW125388   2.715   4.215   5.407
 8163SOL    HW225389   2.680   4.089   5.310
 8164SOL     OW25390   6.036   3.392   1.147
 8164SOL    HW125391   5.998   3.349   1.229
 8164SOL    HW225392   6.130   3.423   1.166
 8165SOL     OW25393   1.945   4.380   1.272
 8165SOL    HW125394   1.851   4.352   1.293
 8165SOL    HW225395   1.984   4.428   1.350
 8166SOL     OW25396   2.386   1.120   1.759
 8166SOL    HW125397   2.310   1.122   1.823
 8166SOL    HW225398   2.436   1.207   1.764
 8167SOL     OW25399   5.515   2.374   3.747
 8167SOL    HW125400   5.475   2.455   3.704
 8167SOL    HW225401   5.615   2.379   3.744
 8168SOL     OW25402   3.568   1.847   2.366
 8168SOL    HW125403   3.471   1.835   2.388
 8168SOL    HW225404   3.601   1.765   2.319
 8169SOL     OW25405   4.270   3.421   0.925
 8169SOL    HW125406   4.322   3.348   0.881
 8169SOL    HW225407   4.197   3.380   0.981
 8170SOL     OW25408   1.442   5.980   3.632
 8170SOL    HW125409   1.492   6.048   3.685
 8170SOL    HW225410   1.505   5.909   3.602
 8171SOL     OW25411   0.467   2.197   6.860
 8171SOL    HW125412   0.525   2.196   6.779
 8171SOL    HW225413   0.375   2.165   6.836
 8172SOL     OW25414   6.852   0.713   0.833
 8172SOL    HW125415   6.764   0.705   0.787
 8172SOL    HW225416   6.838   0.750   0.925
 8173SOL     OW25417   3.581   2.654   6.996
 8173SOL    HW125418   3.539   2.660   6.905
 8173SOL    HW225419   3.673   2.693   6.993
 8174SOL     OW25420   5.522   1.954   0.985
 8174SOL    HW125421   5.440   1.941   1.039
 8174SOL    HW225422   5.525   2.048   0.950
 8175SOL     OW25423   6.624   2.563   6.865
 8175SOL    HW125424   6.533   2.532   6.890
 8175SOL    HW225425   6.685   2.554   6.945
 8176SOL     OW25426   3.316   5.894   2.070
 8176SOL    HW125427   3.345   5.964   2.005
 8176SOL    HW225428   3.376   5.895   2.150
 8177SOL     OW25429   2.011   6.257   3.495
 8177SOL    HW125430   1.979   6.168   3.529
 8177SOL    HW225431   2.005   6.258   3.396
 8178SOL     OW25432   1.968   0.163   6.261
 8178SOL    HW125433   1.991   0.255   6.291
 8178SOL    HW225434   1.878   0.138   6.297
 8179SOL     OW25435   3.187   3.095   6.984
 8179SOL    HW125436   3.109   3.032   6.994
 8179SOL    HW225437   3.272   3.043   6.987
 8180SOL     OW25438   6.775   0.167   4.088
 8180SOL    HW125439   6.707   0.200   4.023
 8180SOL    HW225440   6.791   0.237   4.158
 8181SOL     OW25441   2.567   2.362   3.060
 8181SOL    HW125442   2.473   2.397   3.067
 8181SOL    HW225443   2.616   2.381   3.146
 8182SOL     OW25444   3.321   2.034   5.761
 8182SOL    HW125445   3.250   2.081   5.709
 8182SOL    HW225446   3.388   1.996   5.698
 8183SOL     OW25447   0.970   3.018   5.329
 8183SOL    HW125448   0.905   2.950   5.362
 8183SOL    HW225449   0.938   3.110   5.353
 8184SOL     OW25450   6.540   0.774   5.658
 8184SOL    HW125451   6.593   0.716   5.596
 8184SOL    HW225452   6.489   0.842   5.604
 8185SOL     OW25453   3.140   0.568   0.493
 8185SOL    HW125454   3.197   0.578   0.411
 8185SOL    HW225455   3.063   0.507   0.472
 8186SOL     OW25456   3.479   6.042   5.336
 8186SOL    HW125457   3.565   6.058   5.385
 8186SOL    HW225458   3.439   5.955   5.366
 8187SOL     OW25459   1.459   1.465   5.388
 8187SOL    HW125460   1.370   1.459   5.433
 8187SOL    HW225461   1.447   1.452   5.289
 8188SOL     OW25462   5.139   1.326   2.527
 8188SOL    HW125463   5.063   1.347   2.466
 8188SOL    HW225464   5.112   1.252   2.589
 8189SOL     OW25465   5.491   4.383   2.524
 8189SOL    HW125466   5.443   4.471   2.522
 8189SOL    HW225467   5.558   4.380   2.450
 8190SOL     OW25468   5.464   3.904   3.923
 8190SOL    HW125469   5.430   3.844   3.995
 8190SOL    HW225470   5.397   3.910   3.849
 8191SOL     OW25471   1.022   5.640   3.906
 8191SOL    HW125472   0.936   5.588   3.912
 8191SOL    HW225473   1.059   5.631   3.814
 8192SOL     OW25474   2.748   5.708   1.231
 8192SOL    HW125475   2.789   5.756   1.153
 8192SOL    HW225476   2.727   5.774   1.304
 8193SOL     OW25477   5.988   6.213   5.248
 8193SOL    HW125478   5.900   6.239   5.286
 8193SOL    HW225479   5.975   6.144   5.177
 8194SOL     OW25480   6.394   1.548   0.007
 8194SOL    HW125481   6.411   1.465   6.983
 8194SOL    HW225482   6.383   1.626   6.975
 8195SOL     OW25483   0.035   0.527   0.680
 8195SOL    HW125484   0.121   0.485   0.711
 8195SOL    HW225485   7.012   0.558   0.759
 8196SOL     OW25486   3.643   6.339   5.839
 8196SOL    HW125487   3.660   6.288   5.924
 8196SOL    HW225488   3.549   6.371   5.838
 8197SOL     OW25489   6.552   0.650   6.458
 8197SOL    HW125490   6.586   0.706   6.534
 8197SOL    HW225491   6.588   0.685   6.372
 8198SOL     OW25492   2.470   6.674   2.729
 8198SOL    HW125493   2.549   6.628   2.769
 8198SOL    HW225494   2.497   6.717   2.642
 8199SOL     OW25495   0.568   3.993   0.402
 8199SOL    HW125496   0.494   3.948   0.452
 8199SOL    HW225497   0.557   3.977   0.304
 8200SOL     OW25498   4.594   4.232   1.607
 8200SOL    HW125499   4.590   4.207   1.704
 8200SOL    HW225500   4.519   4.295   1.586
 8201SOL     OW25501   5.034   0.977   5.022
 8201SOL    HW125502   4.954   1.004   4.967
 8201SOL    HW225503   5.092   1.056   5.038
 8202SOL     OW25504   1.595   4.972   4.104
 8202SOL    HW125505   1.585   5.070   4.121
 8202SOL    HW225506   1.678   4.938   4.148
 8203SOL     OW25507   4.915   3.669   1.330
 8203SOL    HW125508   5.008   3.692   1.357
 8203SOL    HW225509   4.905   3.680   1.231
 8204SOL     OW25510   3.667   6.916   2.227
 8204SOL    HW125511   3.659   6.896   2.324
 8204SOL    HW225512   3.665   6.831   2.175
 8205SOL     OW25513   5.729   5.327   1.855
 8205SOL    HW125514   5.634   5.301   1.867
 8205SOL    HW225515   5.787   5.245   1.853
 8206SOL     OW25516   4.110   2.191   5.876
 8206SOL    HW125517   4.109   2.220   5.780
 8206SOL    HW225518   4.020   2.204   5.916
 8207SOL     OW25519   3.108   4.891   5.686
 8207SOL    HW125520   3.121   4.798   5.651
 8207SOL    HW225521   3.045   4.890   5.763
 8208SOL     OW25522   2.011   5.558   1.831
 8208SOL    HW125523   2.064   5.479   1.800
 8208SOL    HW225524   1.941   5.529   1.896
 8209SOL     OW25525   1.900   1.013   5.312
 8209SOL    HW125526   1.969   1.013   5.240
 8209SOL    HW225527   1.815   0.975   5.277
 8210SOL     OW25528   1.842   0.855   0.733
 8210SOL    HW125529   1.885   0.914   0.664
 8210SOL    HW225530   1.750   0.831   0.703
 8211SOL     OW25531   3.228   3.504   4.297
 8211SOL    HW125532   3.176   3.496   4.212
 8211SOL    HW225533   3.326   3.497   4.278
 8212SOL     OW25534   2.382   0.140   0.872
 8212SOL    HW125535   2.298   0.172   0.828
 8212SOL    HW225536   2.456   0.207   0.857
 8213SOL     OW25537   4.339   4.646   2.053
 8213SOL    HW125538   4.438   4.655   2.043
 8213SOL    HW225539   4.318   4.556   2.093
 8214SOL     OW25540   2.912   5.515   3.964
 8214SOL    HW125541   3.010   5.504   3.983
 8214SOL    HW225542   2.900   5.552   3.872
 8215SOL     OW25543   3.808   6.263   0.080
 8215SOL    HW125544   3.873   6.265   0.156
 8215SOL    HW225545   3.804   6.354   0.039
 8216SOL     OW25546   4.847   6.304   2.675
 8216SOL    HW125547   4.858   6.205   2.687
 8216SOL    HW225548   4.927   6.341   2.627
 8217SOL     OW25549   2.294   4.279   2.876
 8217SOL    HW125550   2.285   4.238   2.967
 8217SOL    HW225551   2.282   4.208   2.806
 8218SOL     OW25552   1.483   0.212   4.598
 8218SOL    HW125553   1.551   0.282   4.576
 8218SOL    HW225554   1.392   0.253   4.599
 8219SOL     OW25555   3.858   3.797   1.735
 8219SOL    HW125556   3.858   3.702   1.765
 8219SOL    HW225557   3.925   3.809   1.662
 8220SOL     OW25558   3.444   4.074   4.869
 8220SOL    HW125559   3.402   3.985   4.851
 8220SOL    HW225560   3.460   4.121   4.782
 8221SOL     OW25561   6.244   3.494   3.516
 8221SOL    HW125562   6.252   3.487   3.417
 8221SOL    HW225563   6.147   3.493   3.542
 8222SOL     OW25564   6.070   2.782   1.625
 8222SOL    HW125565   6.036   2.810   1.535
 8222SOL    HW225566   6.122   2.696   1.615
 8223SOL     OW25567   6.962   5.563   5.640
 8223SOL    HW125568   6.940   5.478   5.592
 8223SOL    HW225569   7.008   5.625   5.577
 8224SOL     OW25570   4.343   2.100   0.522
 8224SOL    HW125571   4.365   2.129   0.616
 8224SOL    HW225572   4.309   2.006   0.523
 8225SOL     OW25573   4.591   1.181   6.698
 8225SOL    HW125574   4.666   1.248   6.704
 8225SOL    HW225575   4.610   1.105   6.760
 8226SOL     OW25576   3.458   0.898   6.730
 8226SOL    HW125577   3.482   0.974   6.670
 8226SOL    HW225578   3.427   0.821   6.675
 8227SOL     OW25579   5.895   1.603   2.782
 8227SOL    HW125580   5.992   1.609   2.804
 8227SOL    HW225581   5.841   1.613   2.867
 8228SOL     OW25582   0.904   1.097   5.624
 8228SOL    HW125583   0.941   1.168   5.564
 8228SOL    HW225584   0.812   1.122   5.653
 8229SOL     OW25585   3.868   4.890   1.381
 8229SOL    HW125586   3.770   4.911   1.390
 8229SOL    HW225587   3.883   4.839   1.296
 8230SOL     OW25588   4.199   0.482   5.996
 8230SOL    HW125589   4.222   0.454   5.903
 8230SOL    HW225590   4.105   0.518   5.998
 8231SOL     OW25591   3.073   0.940   1.828
 8231SOL    HW125592   3.164   0.982   1.837
 8231SOL    HW225593   3.063   0.868   1.896
 8232SOL     OW25594   4.406   0.403   2.141
 8232SOL    HW125595   4.384   0.365   2.231
 8232SOL    HW225596   4.474   0.475   2.151
 8233SOL     OW25597   0.587   0.781   5.227
 8233SOL    HW125598   0.632   0.860   5.269
 8233SOL    HW225599   0.647   0.701   5.235
 8234SOL     OW25600   2.528   3.102   6.996
 8234SOL    HW125601   2.528   3.017   0.018
 8234SOL    HW225602   2.459   3.164   0.004
 8235SOL     OW25603   6.722   5.271   0.130
 8235SOL    HW125604   6.636   5.248   0.176
 8235SOL    HW225605   6.798   5.262   0.195
 8236SOL     OW25606   1.036   6.348   6.217
 8236SOL    HW125607   0.982   6.426   6.248
 8236SOL    HW225608   1.070   6.364   6.124
 8237SOL     OW25609   4.784   5.485   6.197
 8237SOL    HW125610   4.830   5.398   6.176
 8237SOL    HW225611   4.733   5.515   6.117
 8238SOL     OW25612   2.531   4.863   0.616
 8238SOL    HW125613   2.581   4.819   0.691
 8238SOL    HW225614   2.445   4.900   0.651
 8239SOL     OW25615   0.772   1.520   5.794
 8239SOL    HW125616   0.821   1.575   5.862
 8239SOL    HW225617   0.754   1.576   5.713
 8240SOL     OW25618   3.768   3.253   4.713
 8240SOL    HW125619   3.727   3.209   4.792
 8240SOL    HW225620   3.867   3.261   4.727
 8241SOL     OW25621   1.126   3.687   6.674
 8241SOL    HW125622   1.212   3.729   6.703
 8241SOL    HW225623   1.050   3.748   6.695
 8242SOL     OW25624   1.129   3.942   4.627
 8242SOL    HW125625   1.059   4.000   4.669
 8242SOL    HW225626   1.116   3.847   4.657
 8243SOL     OW25627   0.722   4.541   5.408
 8243SOL    HW125628   0.794   4.473   5.427
 8243SOL    HW225629   0.634   4.505   5.438
 8244SOL     OW25630   1.038   0.229   3.906
 8244SOL    HW125631   1.043   0.196   3.812
 8244SOL    HW225632   1.122   0.278   3.929
 8245SOL     OW25633   5.311   1.243   3.959
 8245SOL    HW125634   5.395   1.287   3.992
 8245SOL    HW225635   5.283   1.287   3.873
 8246SOL     OW25636   0.894   4.387   6.769
 8246SOL    HW125637   0.924   4.311   6.711
 8246SOL    HW225638   0.882   4.469   6.712
 8247SOL     OW25639   2.920   5.067   3.550
 8247SOL    HW125640   2.842   5.030   3.600
 8247SOL    HW225641   2.935   5.162   3.577
 8248SOL     OW25642   0.621   5.791   2.832
 8248SOL    HW125643   0.663   5.702   2.811
 8248SOL    HW225644   0.606   5.842   2.747
 8249SOL     OW25645   1.894   1.893   5.997
 8249SOL    HW125646   1.831   1.933   5.931
 8249SOL    HW225647   1.890   1.944   6.083
 8250SOL     OW25648   1.766   1.645   6.494
 8250SOL    HW125649   1.733   1.616   6.584
 8250SOL    HW225650   1.775   1.745   6.493
 8251SOL     OW25651   6.606   2.770   5.087
 8251SOL    HW125652   6.624   2.864   5.114
 8251SOL    HW225653   6.572   2.769   4.992
 8252SOL     OW25654   2.066   2.293   6.535
 8252SOL    HW125655   2.007   2.367   6.502
 8252SOL    HW225656   2.160   2.327   6.545
 8253SOL     OW25657   3.506   5.998   6.935
 8253SOL    HW125658   3.580   6.014   6.870
 8253SOL    HW225659   3.535   5.930   7.002
 8254SOL     OW25660   5.762   5.380   0.809
 8254SOL    HW125661   5.756   5.405   0.713
 8254SOL    HW225662   5.852   5.339   0.828
 8255SOL     OW25663   0.328   0.011   5.730
 8255SOL    HW125664   0.276   6.959   5.755
 8255SOL    HW225665   0.282   0.059   5.656
 8256SOL     OW25666   1.762   6.272   2.618
 8256SOL    HW125667   1.788   6.184   2.657
 8256SOL    HW225668   1.692   6.315   2.675
 8257SOL     OW25669   5.227   4.056   4.153
 8257SOL    HW125670   5.215   4.080   4.057
 8257SOL    HW225671   5.189   4.129   4.211
 8258SOL     OW25672   6.267   3.320   1.969
 8258SOL    HW125673   6.262   3.231   1.923
 8258SOL    HW225674   6.311   3.387   1.910
 8259SOL     OW25675   4.570   2.422   4.400
 8259SOL    HW125676   4.574   2.516   4.434
 8259SOL    HW225677   4.597   2.359   4.474
 8260SOL     OW25678   2.925   7.014   0.626
 8260SOL    HW125679   2.874   6.991   0.708
 8260SOL    HW225680   2.984   6.938   0.600
 8261SOL     OW25681   5.155   0.158   3.445
 8261SOL    HW125682   5.201   0.103   3.375
 8261SOL    HW225683   5.076   0.107   3.480
 8262SOL     OW25684   0.064   3.908   1.447
 8262SOL    HW125685   0.016   3.988   1.410
 8262SOL    HW225686   0.080   3.842   1.373
 8263SOL     OW25687   6.705   2.224   0.025
 8263SOL    HW125688   6.726   2.129   0.048
 8263SOL    HW225689   6.779   2.263   7.000
 8264SOL     OW25690   2.023   6.725   2.714
 8264SOL    HW125691   2.017   6.649   2.649
 8264SOL    HW225692   1.971   6.803   2.678
 8265SOL     OW25693   5.287   0.845   0.637
 8265SOL    HW125694   5.200   0.858   0.590
 8265SOL    HW225695   5.303   0.747   0.651
 8266SOL     OW25696   2.319   6.813   3.734
 8266SOL    HW125697   2.409   6.796   3.694
 8266SOL    HW225698   2.322   6.796   3.832
 8267SOL     OW25699   0.796   4.043   3.127
 8267SOL    HW125700   0.745   4.123   3.096
 8267SOL    HW225701   0.891   4.070   3.145
 8268SOL     OW25702   3.265   3.879   6.579
 8268SOL    HW125703   3.212   3.956   6.543
 8268SOL    HW225704   3.340   3.858   6.516
 8269SOL     OW25705   4.350   2.402   2.835
 8269SOL    HW125706   4.406   2.462   2.892
 8269SOL    HW225707   4.408   2.358   2.766
 8270SOL     OW25708   3.990   7.010   5.729
 8270SOL    HW125709   4.083   7.000   5.694
 8270SOL    HW225710   3.953   6.920   5.751
 8271SOL     OW25711   4.578   6.365   4.315
 8271SOL    HW125712   4.660   6.400   4.271
 8271SOL    HW225713   4.593   6.363   4.414
 8272SOL     OW25714   0.564   6.861   1.916
 8272SOL    HW125715   0.656   6.895   1.896
 8272SOL    HW225716   0.499   6.937   1.912
 8273SOL     OW25717   2.962   6.517   0.153
 8273SOL    HW125718   2.960   6.507   0.054
 8273SOL    HW225719   2.921   6.604   0.180
 8274SOL     OW25720   4.750   5.772   6.865
 8274SOL    HW125721   4.733   5.676   6.845
 8274SOL    HW225722   4.800   5.814   6.789
 8275SOL     OW25723   6.282   0.615   4.191
 8275SOL    HW125724   6.306   0.654   4.280
 8275SOL    HW225725   6.183   0.597   4.188
 8276SOL     OW25726   6.689   2.842   6.836
 8276SOL    HW125727   6.655   2.754   6.803
 8276SOL    HW225728   6.763   2.828   6.902
 8277SOL     OW25729   0.824   5.960   6.064
 8277SOL    HW125730   0.763   5.971   5.986
 8277SOL    HW225731   0.848   5.864   6.075
 8278SOL     OW25732   3.680   1.646   6.896
 8278SOL    HW125733   3.732   1.731   6.902
 8278SOL    HW225734   3.634   1.641   6.807
 8279SOL     OW25735   4.401   5.984   6.374
 8279SOL    HW125736   4.393   6.054   6.303
 8279SOL    HW225737   4.413   5.894   6.332
 8280SOL     OW25738   5.259   2.616   0.597
 8280SOL    HW125739   5.278   2.667   0.681
 8280SOL    HW225740   5.211   2.674   0.532
 8281SOL     OW25741   2.063   5.022   0.061
 8281SOL    HW125742   2.132   4.963   0.102
 8281SOL    HW225743   2.003   4.967   0.003
 8282SOL     OW25744   2.727   3.114   1.252
 8282SOL    HW125745   2.663   3.063   1.309
 8282SOL    HW225746   2.734   3.071   1.162
 8283SOL     OW25747   0.343   4.983   3.336
 8283SOL    HW125748   0.251   4.977   3.375
 8283SOL    HW225749   0.360   4.904   3.276
 8284SOL     OW25750   1.984   1.770   1.765
 8284SOL    HW125751   2.043   1.690   1.761
 8284SOL    HW225752   2.035   1.848   1.803
 8285SOL     OW25753   3.256   4.400   5.996
 8285SOL    HW125754   3.187   4.466   5.966
 8285SOL    HW225755   3.214   4.311   6.007
 8286SOL     OW25756   5.574   1.232   4.686
 8286SOL    HW125757   5.511   1.161   4.655
 8286SOL    HW225758   5.664   1.217   4.645
 8287SOL     OW25759   1.220   0.324   3.493
 8287SOL    HW125760   1.125   0.314   3.521
 8287SOL    HW225761   1.233   0.286   3.402
 8288SOL     OW25762   1.580   1.134   2.467
 8288SOL    HW125763   1.630   1.143   2.553
 8288SOL    HW225764   1.640   1.161   2.391
 8289SOL     OW25765   6.436   1.954   5.704
 8289SOL    HW125766   6.381   1.871   5.710
 8289SOL    HW225767   6.521   1.941   5.755
 8290SOL     OW25768   3.754   2.565   1.722
 8290SOL    HW125769   3.706   2.491   1.769
 8290SOL    HW225770   3.816   2.526   1.653
 8291SOL     OW25771   5.434   6.375   6.285
 8291SOL    HW125772   5.506   6.329   6.232
 8291SOL    HW225773   5.468   6.463   6.318
 8292SOL     OW25774   1.383   4.233   4.803
 8292SOL    HW125775   1.299   4.199   4.761
 8292SOL    HW225776   1.462   4.203   4.749
 8293SOL     OW25777   2.715   5.216   2.678
 8293SOL    HW125778   2.656   5.180   2.606
 8293SOL    HW225779   2.728   5.147   2.749
 8294SOL     OW25780   6.788   3.606   6.247
 8294SOL    HW125781   6.810   3.625   6.343
 8294SOL    HW225782   6.711   3.543   6.242
 8295SOL     OW25783   4.825   4.090   2.764
 8295SOL    HW125784   4.731   4.058   2.782
 8295SOL    HW225785   4.838   4.102   2.666
 8296SOL     OW25786   3.396   6.147   0.846
 8296SOL    HW125787   3.395   6.149   0.946
 8296SOL    HW225788   3.367   6.236   0.811
 8297SOL     OW25789   6.667   4.530   2.845
 8297SOL    HW125790   6.663   4.432   2.827
 8297SOL    HW225791   6.577   4.562   2.872
 8298SOL     OW25792   6.831   0.512   6.664
 8298SOL    HW125793   6.899   0.530   6.735
 8298SOL    HW225794   6.872   0.528   6.574
 8299SOL     OW25795   0.524   3.975   1.437
 8299SOL    HW125796   0.453   3.923   1.484
 8299SOL    HW225797   0.581   4.021   1.505
 8300SOL     OW25798   6.260   5.053   3.338
 8300SOL    HW125799   6.249   5.106   3.253
 8300SOL    HW225800   6.191   4.981   3.340
 8301SOL     OW25801   4.176   6.495   0.587
 8301SOL    HW125802   4.145   6.424   0.651
 8301SOL    HW225803   4.186   6.582   0.635
 8302SOL     OW25804   3.385   6.470   4.471
 8302SOL    HW125805   3.476   6.431   4.485
 8302SOL    HW225806   3.394   6.568   4.451
 8303SOL     OW25807   6.492   0.071   2.512
 8303SOL    HW125808   6.572   0.015   2.533
 8303SOL    HW225809   6.412   0.013   2.501
 8304SOL     OW25810   6.286   3.744   3.897
 8304SOL    HW125811   6.308   3.744   3.994
 8304SOL    HW225812   6.296   3.836   3.860
 8305SOL     OW25813   4.812   5.754   4.321
 8305SOL    HW125814   4.747   5.823   4.352
 8305SOL    HW225815   4.790   5.666   4.365
 8306SOL     OW25816   5.885   1.255   2.374
 8306SOL    HW125817   5.960   1.208   2.419
 8306SOL    HW225818   5.799   1.207   2.393
 8307SOL     OW25819   1.834   4.691   2.157
 8307SOL    HW125820   1.915   4.725   2.110
 8307SOL    HW225821   1.829   4.592   2.148
 8308SOL     OW25822   0.774   5.187   0.136
 8308SOL    HW125823   0.695   5.157   0.190
 8308SOL    HW225824   0.850   5.123   0.151
 8309SOL     OW25825   6.637   4.198   4.461
 8309SOL    HW125826   6.644   4.099   4.456
 8309SOL    HW225827   6.546   4.228   4.432
 8310SOL     OW25828   0.797   6.821   0.367
 8310SOL    HW125829   0.716   6.868   0.404
 8310SOL    HW225830   0.782   6.723   0.368
 8311SOL     OW25831   5.816   6.686   4.306
 8311SOL    HW125832   5.839   6.600   4.261
 8311SOL    HW225833   5.720   6.686   4.332
 8312SOL     OW25834   5.052   0.845   6.863
 8312SOL    HW125835   5.087   0.837   6.956
 8312SOL    HW225836   5.128   0.843   6.798
 8313SOL     OW25837   4.517   1.143   4.530
 8313SOL    HW125838   4.573   1.182   4.604
 8313SOL    HW225839   4.560   1.059   4.496
 8314SOL     OW25840   4.745   6.038   5.718
 8314SOL    HW125841   4.766   6.127   5.679
 8314SOL    HW225842   4.700   6.050   5.806
 8315SOL     OW25843   3.664   2.914   4.282
 8315SOL    HW125844   3.665   2.818   4.312
 8315SOL    HW225845   3.757   2.946   4.269
 8316SOL     OW25846   0.846   2.752   7.023
 8316SOL    HW125847   0.868   2.697   0.073
 8316SOL    HW225848   0.908   2.729   6.948
 8317SOL     OW25849   1.639   2.233   4.052
 8317SOL    HW125850   1.715   2.298   4.048
 8317SOL    HW225851   1.637   2.180   3.967
 8318SOL     OW25852   3.559   6.980   6.483
 8318SOL    HW125853   3.501   0.005   6.544
 8318SOL    HW225854   3.514   6.972   6.393
 8319SOL     OW25855   2.079   0.451   6.278
 8319SOL    HW125856   2.069   0.550   6.289
 8319SOL    HW225857   2.156   0.431   6.217
 8320SOL     OW25858   3.371   3.491   4.632
 8320SOL    HW125859   3.281   3.522   4.602
 8320SOL    HW225860   3.431   3.569   4.647
 8321SOL     OW25861   6.962   6.913   0.145
 8321SOL    HW125862   6.997   6.978   0.213
 8321SOL    HW225863   7.022   6.834   0.139
 8322SOL     OW25864   6.966   1.013   0.130
 8322SOL    HW125865   6.895   0.968   0.183
 8322SOL    HW225866   0.021   1.017   0.183
 8323SOL     OW25867   4.968   4.480   0.781
 8323SOL    HW125868   4.943   4.409   0.846
 8323SOL    HW225869   4.897   4.550   0.778
 8324SOL     OW25870   6.184   6.395   6.373
 8324SOL    HW125871   6.164   6.484   6.413
 8324SOL    HW225872   6.279   6.393   6.340
 8325SOL     OW25873   1.165   5.664   5.347
 8325SOL    HW125874   1.085   5.722   5.367
 8325SOL    HW225875   1.206   5.633   5.433
 8326SOL     OW25876   1.770   3.707   1.705
 8326SOL    HW125877   1.790   3.755   1.791
 8326SOL    HW225878   1.852   3.662   1.671
 8327SOL     OW25879   1.080   0.308   5.006
 8327SOL    HW125880   1.102   0.219   4.967
 8327SOL    HW225881   1.010   0.353   4.950
 8328SOL     OW25882   1.363   6.832   6.295
 8328SOL    HW125883   1.288   6.891   6.267
 8328SOL    HW225884   1.328   6.759   6.354
 8329SOL     OW25885   1.152   2.858   5.628
 8329SOL    HW125886   1.227   2.841   5.692
 8329SOL    HW225887   1.182   2.836   5.535
 8330SOL     OW25888   3.629   0.725   6.532
 8330SOL    HW125889   3.649   0.766   6.621
 8330SOL    HW225890   3.714   0.712   6.481
 8331SOL     OW25891   1.983   2.216   0.124
 8331SOL    HW125892   1.897   2.167   0.106
 8331SOL    HW225893   1.965   2.314   0.126
 8332SOL     OW25894   5.707   4.746   2.083
 8332SOL    HW125895   5.761   4.697   2.014
 8332SOL    HW225896   5.719   4.844   2.071
 8333SOL     OW25897   3.081   4.840   1.348
 8333SOL    HW125898   3.127   4.761   1.308
 8333SOL    HW225899   3.018   4.810   1.419
 8334SOL     OW25900   3.294   2.128   6.306
 8334SOL    HW125901   3.278   2.107   6.209
 8334SOL    HW225902   3.310   2.043   6.356
 8335SOL     OW25903   5.315   2.990   6.139
 8335SOL    HW125904   5.233   3.046   6.150
 8335SOL    HW225905   5.380   3.037   6.080
 8336SOL     OW25906   1.158   3.617   2.894
 8336SOL    HW125907   1.129   3.521   2.887
 8336SOL    HW225908   1.081   3.672   2.925
 8337SOL     OW25909   0.469   0.897   4.282
 8337SOL    HW125910   0.547   0.956   4.262
 8337SOL    HW225911   0.412   0.940   4.352
 8338SOL     OW25912   3.835   5.205   2.476
 8338SOL    HW125913   3.761   5.172   2.534
 8338SOL    HW225914   3.817   5.179   2.381
 8339SOL     OW25915   6.757   0.548   0.440
 8339SOL    HW125916   6.762   0.469   0.379
 8339SOL    HW225917   6.788   0.521   0.532
 8340SOL     OW25918   5.419   2.449   0.469
 8340SOL    HW125919   5.354   2.501   0.524
 8340SOL    HW225920   5.476   2.513   0.416
 8341SOL     OW25921   3.830   0.877   0.101
 8341SOL    HW125922   3.759   0.862   0.169
 8341SOL    HW225923   3.831   0.801   0.036
 8342SOL     OW25924   4.344   6.553   0.009
 8342SOL    HW125925   4.294   6.531   0.093
 8342SOL    HW225926   4.435   6.511   0.014
 8343SOL     OW25927   6.912   4.059   3.981
 8343SOL    HW125928   6.826   4.050   3.931
 8343SOL    HW225929   6.968   3.978   3.965
 8344SOL     OW25930   1.030   5.333   4.909
 8344SOL    HW125931   1.102   5.302   4.971
 8344SOL    HW225932   1.058   5.418   4.865
 8345SOL     OW25933   4.592   0.735   2.455
 8345SOL    HW125934   4.669   0.798   2.441
 8345SOL    HW225935   4.512   0.787   2.484
 8346SOL     OW25936   4.539   2.859   5.555
 8346SOL    HW125937   4.452   2.823   5.588
 8346SOL    HW225938   4.559   2.945   5.600
 8347SOL     OW25939   2.280   0.424   6.087
 8347SOL    HW125940   2.318   0.516   6.098
 8347SOL    HW225941   2.353   0.357   6.083
 8348SOL     OW25942   3.962   6.394   1.871
 8348SOL    HW125943   3.951   6.327   1.797
 8348SOL    HW225944   4.045   6.448   1.854
 8349SOL     OW25945   1.227   6.473   2.157
 8349SOL    HW125946   1.168   6.553   2.156
 8349SOL    HW225947   1.185   6.399   2.105
 8350SOL     OW25948   2.752   0.484   6.439
 8350SOL    HW125949   2.664   0.452   6.404
 8350SOL    HW225950   2.822   0.477   6.368
 8351SOL     OW25951   0.337   4.613   3.792
 8351SOL    HW125952   0.328   4.523   3.834
 8351SOL    HW225953   0.425   4.654   3.820
 8352SOL     OW25954   2.679   5.527   1.645
 8352SOL    HW125955   2.619   5.604   1.667
 8352SOL    HW225956   2.625   5.453   1.603
 8353SOL     OW25957   0.983   3.763   2.442
 8353SOL    HW125958   0.960   3.830   2.372
 8353SOL    HW225959   1.082   3.759   2.453
 8354SOL     OW25960   3.285   6.875   3.991
 8354SOL    HW125961   3.310   6.849   3.897
 8354SOL    HW225962   3.225   6.955   3.988
 8355SOL     OW25963   1.799   6.299   5.608
 8355SOL    HW125964   1.780   6.309   5.706
 8355SOL    HW225965   1.853   6.377   5.576
 8356SOL     OW25966   1.566   5.676   1.364
 8356SOL    HW125967   1.644   5.636   1.413
 8356SOL    HW225968   1.487   5.681   1.425
 8357SOL     OW25969   4.080   5.589   5.934
 8357SOL    HW125970   4.040   5.512   5.984
 8357SOL    HW225971   4.120   5.555   5.848
 8358SOL     OW25972   1.078   2.459   5.353
 8358SOL    HW125973   1.161   2.463   5.409
 8358SOL    HW225974   1.026   2.544   5.365
 8359SOL     OW25975   3.431   1.750   5.189
 8359SOL    HW125976   3.505   1.707   5.137
 8359SOL    HW225977   3.466   1.780   5.278
 8360SOL     OW25978   5.407   6.441   0.301
 8360SOL    HW125979   5.458   6.391   0.230
 8360SOL    HW225980   5.334   6.494   0.258
 8361SOL     OW25981   2.863   6.954   0.055
 8361SOL    HW125982   2.953   6.987   0.084
 8361SOL    HW225983   2.847   6.982   6.990
 8362SOL     OW25984   6.617   3.195   0.721
 8362SOL    HW125985   6.592   3.223   0.814
 8362SOL    HW225986   6.535   3.169   0.670
 8363SOL     OW25987   3.058   1.994   0.119
 8363SOL    HW125988   3.027   2.059   0.188
 8363SOL    HW225989   3.073   1.905   0.161
 8364SOL     OW25990   0.741   2.997   4.037
 8364SOL    HW125991   0.655   2.947   4.035
 8364SOL    HW225992   0.810   2.947   3.984
 8365SOL     OW25993   2.246   2.608   2.397
 8365SOL    HW125994   2.153   2.578   2.419
 8365SOL    HW225995   2.242   2.696   2.350
 8366SOL     OW25996   4.911   6.059   0.857
 8366SOL    HW125997   4.980   5.992   0.885
 8366SOL    HW225998   4.823   6.014   0.846
 8367SOL     OW25999   4.438   5.272   5.005
 8367SOL    HW126000   4.512   5.335   5.030
 8367SOL    HW226001   4.410   5.288   4.911
 8368SOL     OW26002   1.217   6.004   0.056
 8368SOL    HW126003   1.170   5.917   0.075
 8368SOL    HW226004   1.201   6.068   0.131
 8369SOL     OW26005   1.476   1.750   0.402
 8369SOL    HW126006   1.518   1.785   0.485
 8369SOL    HW226007   1.381   1.782   0.396
 8370SOL     OW26008   2.950   2.172   0.278
 8370SOL    HW126009   2.851   2.179   0.266
 8370SOL    HW226010   2.990   2.263   0.280
 8371SOL     OW26011   1.614   3.940   5.939
 8371SOL    HW126012   1.695   3.995   5.961
 8371SOL    HW226013   1.604   3.934   5.839
 8372SOL     OW26014   1.977   6.304   2.179
 8372SOL    HW126015   1.888   6.294   2.224
 8372SOL    HW226016   2.048   6.316   2.249
 8373SOL     OW26017   0.268   0.938   4.480
 8373SOL    HW126018   0.171   0.958   4.488
 8373SOL    HW226019   0.317   0.976   4.557
 8374SOL     OW26020   1.270   1.003   4.543
 8374SOL    HW126021   1.333   0.982   4.618
 8374SOL    HW226022   1.235   0.917   4.504
 8375SOL     OW26023   4.011   1.272   5.679
 8375SOL    HW126024   4.056   1.253   5.592
 8375SOL    HW226025   4.023   1.368   5.703
 8376SOL     OW26026   2.034   0.896   3.349
 8376SOL    HW126027   2.084   0.888   3.262
 8376SOL    HW226028   1.957   0.959   3.337
 8377SOL     OW26029   5.518   5.623   6.835
 8377SOL    HW126030   5.441   5.623   6.771
 8377SOL    HW226031   5.517   5.539   6.889
 8378SOL     OW26032   5.605   5.993   3.548
 8378SOL    HW126033   5.655   5.911   3.577
 8378SOL    HW226034   5.530   5.967   3.487
 8379SOL     OW26035   5.517   1.668   2.138
 8379SOL    HW126036   5.463   1.621   2.069
 8379SOL    HW226037   5.539   1.760   2.106
 8380SOL     OW26038   6.359   5.536   0.238
 8380SOL    HW126039   6.345   5.556   0.335
 8380SOL    HW226040   6.444   5.577   0.207
 8381SOL     OW26041   0.322   1.810   2.768
 8381SOL    HW126042   0.294   1.789   2.862
 8381SOL    HW226043   0.261   1.764   2.704
 8382SOL     OW26044   2.784   0.001   6.806
 8382SOL    HW126045   2.690   6.996   6.805
 8382SOL    HW226046   2.791   0.080   6.745
 8383SOL     OW26047   2.894   6.756   4.520
 8383SOL    HW126048   2.948   6.674   4.501
 8383SOL    HW226049   2.822   6.734   4.585
 8384SOL     OW26050   0.184   2.041   0.920
 8384SOL    HW126051   0.222   1.970   0.860
 8384SOL    HW226052   0.091   2.016   0.946
 8385SOL     OW26053   4.567   3.437   0.711
 8385SOL    HW126054   4.492   3.375   0.734
 8385SOL    HW226055   4.649   3.412   0.763
 8386SOL     OW26056   1.984   5.932   1.690
 8386SOL    HW126057   2.036   5.849   1.667
 8386SOL    HW226058   1.979   5.942   1.789
 8387SOL     OW26059   2.520   1.623   1.126
 8387SOL    HW126060   2.503   1.564   1.204
 8387SOL    HW226061   2.484   1.715   1.145
 8388SOL     OW26062   3.193   6.433   0.287
 8388SOL    HW126063   3.160   6.366   0.354
 8388SOL    HW226064   3.115   6.470   0.237
 8389SOL     OW26065   1.134   2.643   5.093
 8389SOL    HW126066   1.104   2.614   5.184
 8389SOL    HW226067   1.085   2.726   5.067
 8390SOL     OW26068   2.286   0.745   5.823
 8390SOL    HW126069   2.238   0.830   5.844
 8390SOL    HW226070   2.235   0.668   5.863
 8391SOL     OW26071   5.298   5.450   2.049
 8391SOL    HW126072   5.216   5.422   2.098
 8391SOL    HW226073   5.367   5.480   2.114
 8392SOL     OW26074   5.772   5.752   5.073
 8392SOL    HW126075   5.762   5.653   5.079
 8392SOL    HW226076   5.846   5.781   5.134
 8393SOL     OW26077   6.635   6.339   3.300
 8393SOL    HW126078   6.684   6.425   3.289
 8393SOL    HW226079   6.630   6.315   3.398
 8394SOL     OW26080   0.870   1.973   2.689
 8394SOL    HW126081   0.922   1.905   2.741
 8394SOL    HW226082   0.867   2.059   2.740
 8395SOL     OW26083   0.233   6.318   4.638
 8395SOL    HW126084   0.153   6.314   4.579
 8395SOL    HW226085   0.308   6.365   4.590
 8396SOL     OW26086   4.674   4.306   2.909
 8396SOL    HW126087   4.640   4.389   2.866
 8396SOL    HW226088   4.741   4.262   2.849
 8397SOL     OW26089   2.004   6.464   2.514
 8397SOL    HW126090   1.957   6.377   2.523
 8397SOL    HW226091   2.098   6.456   2.546
 8398SOL     OW26092   3.970   1.578   0.054
 8398SOL    HW126093   3.893   1.548   7.028
 8398SOL    HW226094   3.951   1.560   0.150
 8399SOL     OW26095   5.963   5.961   0.045
 8399SOL    HW126096   5.960   5.878   7.019
 8399SOL    HW226097   5.878   6.013   0.032
 8400SOL     OW26098   0.109   0.565   2.802
 8400SOL    HW126099   0.070   0.657   2.800
 8400SOL    HW226100   0.150   0.549   2.892
 8401SOL     OW26101   3.809   3.794   6.284
 8401SOL    HW126102   3.808   3.730   6.207
 8401SOL    HW226103   3.787   3.886   6.250
 8402SOL     OW26104   3.922   1.978   6.465
 8402SOL    HW126105   3.852   1.944   6.402
 8402SOL    HW226106   3.946   1.906   6.531
 8403SOL     OW26107   1.294   1.388   3.929
 8403SOL    HW126108   1.198   1.363   3.916
 8403SOL    HW226109   1.324   1.444   3.852
 8404SOL     OW26110   4.648   6.344   5.471
 8404SOL    HW126111   4.652   6.444   5.463
 8404SOL    HW226112   4.708   6.314   5.545
 8405SOL     OW26113   0.509   2.504   6.466
 8405SOL    HW126114   0.486   2.600   6.480
 8405SOL    HW226115   0.567   2.495   6.384
 8406SOL     OW26116   4.516   1.799   0.766
 8406SOL    HW126117   4.460   1.882   0.765
 8406SOL    HW226118   4.590   1.810   0.833
 8407SOL     OW26119   5.635   4.252   3.908
 8407SOL    HW126120   5.606   4.182   3.974
 8407SOL    HW226121   5.608   4.224   3.816
 8408SOL     OW26122   5.407   0.772   3.687
 8408SOL    HW126123   5.444   0.699   3.745
 8408SOL    HW226124   5.341   0.826   3.739
 8409SOL     OW26125   1.101   1.988   4.100
 8409SOL    HW126126   1.040   1.911   4.081
 8409SOL    HW226127   1.150   1.971   4.185
 8410SOL     OW26128   5.356   6.875   1.657
 8410SOL    HW126129   5.420   6.860   1.581
 8410SOL    HW226130   5.400   6.851   1.743
 8411SOL     OW26131   1.573   5.230   4.151
 8411SOL    HW126132   1.632   5.302   4.114
 8411SOL    HW226133   1.477   5.257   4.142
 8412SOL     OW26134   4.560   2.484   1.501
 8412SOL    HW126135   4.501   2.407   1.475
 8412SOL    HW226136   4.524   2.527   1.584
 8413SOL     OW26137   4.060   4.989   0.659
 8413SOL    HW126138   4.003   5.024   0.733
 8413SOL    HW226139   4.104   5.066   0.612
 8414SOL     OW26140   3.641   6.702   2.439
 8414SOL    HW126141   3.678   6.655   2.360
 8414SOL    HW226142   3.547   6.671   2.456
 8415SOL     OW26143   0.347   4.587   3.523
 8415SOL    HW126144   0.270   4.597   3.460
 8415SOL    HW226145   0.317   4.606   3.617
 8416SOL     OW26146   5.304   4.076   2.102
 8416SOL    HW126147   5.328   4.003   2.167
 8416SOL    HW226148   5.325   4.165   2.143
 8417SOL     OW26149   2.734   6.478   5.735
 8417SOL    HW126150   2.739   6.379   5.747
 8417SOL    HW226151   2.694   6.519   5.816
 8418SOL     OW26152   6.009   5.996   2.895
 8418SOL    HW126153   6.058   5.910   2.879
 8418SOL    HW226154   5.945   6.011   2.820
 8419SOL     OW26155   4.937   0.134   2.114
 8419SOL    HW126156   4.981   0.200   2.054
 8419SOL    HW226157   4.854   0.175   2.152
 8420SOL     OW26158   4.324   0.398   0.171
 8420SOL    HW126159   4.259   0.334   0.210
 8420SOL    HW226160   4.416   0.379   0.207
 8421SOL     OW26161   1.926   0.421   1.854
 8421SOL    HW126162   1.921   0.370   1.940
 8421SOL    HW226163   1.989   0.498   1.865
 8422SOL     OW26164   5.676   6.159   6.899
 8422SOL    HW126165   5.741   6.220   6.946
 8422SOL    HW226166   5.622   6.212   6.834
 8423SOL     OW26167   3.847   5.065   6.957
 8423SOL    HW126168   3.780   4.994   6.941
 8423SOL    HW226169   3.914   5.065   6.882
 8424SOL     OW26170   3.684   2.103   2.450
 8424SOL    HW126171   3.628   2.052   2.384
 8424SOL    HW226172   3.623   2.149   2.515
 8425SOL     OW26173   6.758   5.300   1.472
 8425SOL    HW126174   6.848   5.319   1.434
 8425SOL    HW226175   6.742   5.361   1.551
 8426SOL     OW26176   3.468   3.153   3.568
 8426SOL    HW126177   3.511   3.110   3.489
 8426SOL    HW226178   3.432   3.083   3.630
 8427SOL     OW26179   1.756   4.151   6.506
 8427SOL    HW126180   1.776   4.239   6.548
 8427SOL    HW226181   1.732   4.165   6.410
 8428SOL     OW26182   0.191   4.224   2.132
 8428SOL    HW126183   0.163   4.317   2.156
 8428SOL    HW226184   0.213   4.174   2.216
 8429SOL     OW26185   2.822   4.762   4.107
 8429SOL    HW126186   2.771   4.696   4.053
 8429SOL    HW226187   2.817   4.737   4.204
 8430SOL     OW26188   4.719   4.997   2.877
 8430SOL    HW126189   4.814   5.024   2.897
 8430SOL    HW226190   4.680   4.952   2.957
 8431SOL     OW26191   3.275   5.257   1.314
 8431SOL    HW126192   3.216   5.179   1.336
 8431SOL    HW226193   3.316   5.292   1.398
 8432SOL     OW26194   4.456   5.484   6.256
 8432SOL    HW126195   4.518   5.501   6.180
 8432SOL    HW226196   4.495   5.414   6.317
 8433SOL     OW26197   1.020   2.559   6.463
 8433SOL    HW126198   0.935   2.572   6.515
 8433SOL    HW226199   1.033   2.462   6.444
 8434SOL     OW26200   3.976   6.640   5.608
 8434SOL    HW126201   4.046   6.659   5.677
 8434SOL    HW226202   3.891   6.614   5.654
 8435SOL     OW26203   4.436   2.203   1.263
 8435SOL    HW126204   4.404   2.109   1.249
 8435SOL    HW226205   4.380   2.247   1.333
 8436SOL     OW26206   3.906   4.850   2.610
 8436SOL    HW126207   3.815   4.867   2.572
 8436SOL    HW226208   3.962   4.804   2.541
 8437SOL     OW26209   0.516   1.121   1.569
 8437SOL    HW126210   0.489   1.031   1.601
 8437SOL    HW226211   0.605   1.145   1.607
 8438SOL     OW26212   2.908   4.840   2.439
 8438SOL    HW126213   2.848   4.920   2.431
 8438SOL    HW226214   2.913   4.794   2.350
 8439SOL     OW26215   6.539   5.735   2.032
 8439SOL    HW126216   6.510   5.761   2.124
 8439SOL    HW226217   6.471   5.673   1.993
 8440SOL     OW26218   0.383   1.068   2.078
 8440SOL    HW126219   0.369   1.152   2.026
 8440SOL    HW226220   0.474   1.068   2.117
 8441SOL     OW26221   5.558   5.868   6.215
 8441SOL    HW126222   5.615   5.825   6.285
 8441SOL    HW226223   5.491   5.928   6.258
 8442SOL     OW26224   2.850   3.901   6.726
 8442SOL    HW126225   2.768   3.885   6.780
 8442SOL    HW226226   2.875   3.998   6.731
 8443SOL     OW26227   0.899   0.372   3.375
 8443SOL    HW126228   0.902   0.381   3.275
 8443SOL    HW226229   0.809   0.399   3.408
 8444SOL     OW26230   3.459   6.068   4.007
 8444SOL    HW126231   3.536   6.009   4.033
 8444SOL    HW226232   3.487   6.164   4.015
 8445SOL     OW26233   3.472   5.171   2.656
 8445SOL    HW126234   3.494   5.211   2.567
 8445SOL    HW226235   3.557   5.154   2.706
 8446SOL     OW26236   5.390   6.194   3.118
 8446SOL    HW126237   5.298   6.231   3.106
 8446SOL    HW226238   5.457   6.262   3.087
 8447SOL     OW26239   5.600   2.449   1.861
 8447SOL    HW126240   5.506   2.479   1.841
 8447SOL    HW226241   5.608   2.351   1.846
 8448SOL     OW26242   0.343   3.892   6.215
 8448SOL    HW126243   0.436   3.861   6.196
 8448SOL    HW226244   0.278   3.834   6.166
 8449SOL     OW26245   0.369   3.460   5.056
 8449SOL    HW126246   0.396   3.547   5.014
 8449SOL    HW226247   0.404   3.384   5.002
 8450SOL     OW26248   2.062   6.718   2.987
 8450SOL    HW126249   2.042   6.705   2.889
 8450SOL    HW226250   2.093   6.811   3.002
 8451SOL     OW26251   3.901   2.680   0.727
 8451SOL    HW126252   3.838   2.757   0.710
 8451SOL    HW226253   3.852   2.608   0.776
 8452SOL     OW26254   0.134   6.996   1.748
 8452SOL    HW126255   0.087   6.981   1.662
 8452SOL    HW226256   0.070   0.002   1.816
 8453SOL     OW26257   6.765   4.903   6.491
 8453SOL    HW126258   6.826   4.898   6.412
 8453SOL    HW226259   6.671   4.910   6.459
 8454SOL     OW26260   1.757   6.878   2.384
 8454SOL    HW126261   1.794   6.911   2.471
 8454SOL    HW226262   1.734   6.956   2.326
 8455SOL     OW26263   4.823   1.534   1.435
 8455SOL    HW126264   4.856   1.449   1.392
 8455SOL    HW226265   4.890   1.566   1.501
 8456SOL     OW26266   5.901   5.568   3.900
 8456SOL    HW126267   5.907   5.662   3.931
 8456SOL    HW226268   5.990   5.524   3.908
 8457SOL     OW26269   6.431   6.989   5.268
 8457SOL    HW126270   6.410   6.892   5.269
 8457SOL    HW226271   6.348   0.013   5.283
 8458SOL     OW26272   1.844   1.289   0.281
 8458SOL    HW126273   1.755   1.306   0.239
 8458SOL    HW226274   1.833   1.276   0.379
 8459SOL     OW26275   3.908   6.332   2.128
 8459SOL    HW126276   3.927   6.347   2.031
 8459SOL    HW226277   3.846   6.254   2.138
 8460SOL     OW26278   4.351   2.786   6.695
 8460SOL    HW126279   4.253   2.784   6.715
 8460SOL    HW226280   4.402   2.776   6.780
 8461SOL     OW26281   0.370   3.712   1.808
 8461SOL    HW126282   0.393   3.761   1.892
 8461SOL    HW226283   0.454   3.681   1.763
 8462SOL     OW26284   3.838   3.398   0.512
 8462SOL    HW126285   3.876   3.488   0.489
 8462SOL    HW226286   3.913   3.335   0.534
 8463SOL     OW26287   6.511   2.328   0.166
 8463SOL    HW126288   6.601   2.307   0.129
 8463SOL    HW226289   6.499   2.281   0.253
 8464SOL     OW26290   0.176   3.356   6.206
 8464SOL    HW126291   0.156   3.261   6.184
 8464SOL    HW226292   0.273   3.374   6.192
 8465SOL     OW26293   3.049   2.642   0.805
 8465SOL    HW126294   3.032   2.544   0.792
 8465SOL    HW226295   2.970   2.683   0.851
 8466SOL     OW26296   5.787   0.562   5.433
 8466SOL    HW126297   5.729   0.571   5.352
 8466SOL    HW226298   5.773   0.471   5.474
 8467SOL     OW26299   3.849   0.871   0.530
 8467SOL    HW126300   3.791   0.949   0.509
 8467SOL    HW226301   3.810   0.818   0.605
 8468SOL     OW26302   6.257   3.527   6.235
 8468SOL    HW126303   6.162   3.550   6.253
 8468SOL    HW226304   6.302   3.500   6.320
 8469SOL     OW26305   3.710   2.931   6.359
 8469SOL    HW126306   3.622   2.960   6.395
 8469SOL    HW226307   3.697   2.854   6.296
 8470SOL     OW26308   1.060   5.150   0.486
 8470SOL    HW126309   1.045   5.175   0.582
 8470SOL    HW226310   1.088   5.054   0.481
 8471SOL     OW26311   3.647   0.752   4.952
 8471SOL    HW126312   3.571   0.699   4.916
 8471SOL    HW226313   3.681   0.710   5.036
 8472SOL     OW26314   6.138   1.794   5.825
 8472SOL    HW126315   6.056   1.825   5.776
 8472SOL    HW226316   6.196   1.743   5.762
 8473SOL     OW26317   4.433   4.565   6.787
 8473SOL    HW126318   4.394   4.557   6.879
 8473SOL    HW226319   4.437   4.475   6.745
 8474SOL     OW26320   3.052   3.884   3.006
 8474SOL    HW126321   3.091   3.802   2.964
 8474SOL    HW226322   2.958   3.864   3.035
 8475SOL     OW26323   0.562   3.372   1.487
 8475SOL    HW126324   0.616   3.450   1.457
 8475SOL    HW226325   0.469   3.402   1.508
 8476SOL     OW26326   6.539   0.485   0.915
 8476SOL    HW126327   6.442   0.503   0.930
 8476SOL    HW226328   6.585   0.569   0.887
 8477SOL     OW26329   5.496   5.693   1.983
 8477SOL    HW126330   5.470   5.787   1.959
 8477SOL    HW226331   5.451   5.630   1.920
 8478SOL     OW26332   1.085   0.874   5.638
 8478SOL    HW126333   0.992   0.910   5.641
 8478SOL    HW226334   1.101   0.830   5.550
 8479SOL     OW26335   1.818   2.351   1.253
 8479SOL    HW126336   1.909   2.361   1.292
 8479SOL    HW226337   1.820   2.282   1.180
 8480SOL     OW26338   4.968   2.824   6.957
 8480SOL    HW126339   4.925   2.747   7.005
 8480SOL    HW226340   4.912   2.906   6.969
 8481SOL     OW26341   3.795   2.151   4.321
 8481SOL    HW126342   3.835   2.194   4.402
 8481SOL    HW226343   3.722   2.089   4.349
 8482SOL     OW26344   4.308   1.184   0.049
 8482SOL    HW126345   4.239   1.112   0.058
 8482SOL    HW226346   4.384   1.166   0.111
 8483SOL     OW26347   3.484   5.837   3.405
 8483SOL    HW126348   3.499   5.802   3.312
 8483SOL    HW226349   3.471   5.936   3.401
 8484SOL     OW26350   6.262   6.063   5.193
 8484SOL    HW126351   6.170   6.036   5.166
 8484SOL    HW226352   6.259   6.100   5.286
 8485SOL     OW26353   3.993   2.393   0.277
 8485SOL    HW126354   4.062   2.324   0.301
 8485SOL    HW226355   3.984   2.459   0.351
 8486SOL     OW26356   2.103   1.242   2.191
 8486SOL    HW126357   2.053   1.248   2.278
 8486SOL    HW226358   2.179   1.307   2.192
 8487SOL     OW26359   5.088   1.446   6.004
 8487SOL    HW126360   5.077   1.347   5.994
 8487SOL    HW226361   5.015   1.492   5.953
 8488SOL     OW26362   5.960   5.397   3.034
 8488SOL    HW126363   5.868   5.361   3.045
 8488SOL    HW226364   6.013   5.379   3.117
 8489SOL     OW26365   6.105   0.519   1.489
 8489SOL    HW126366   6.049   0.460   1.547
 8489SOL    HW226367   6.163   0.577   1.546
 8490SOL     OW26368   3.333   6.827   5.942
 8490SOL    HW126369   3.364   6.757   5.877
 8490SOL    HW226370   3.390   6.823   6.024
 8491SOL     OW26371   2.372   6.128   2.655
 8491SOL    HW126372   2.398   6.033   2.638
 8491SOL    HW226373   2.337   6.136   2.749
 8492SOL     OW26374   6.183   4.359   3.649
 8492SOL    HW126375   6.220   4.442   3.606
 8492SOL    HW226376   6.148   4.381   3.740
 8493SOL     OW26377   2.409   1.148   0.311
 8493SOL    HW126378   2.458   1.189   0.234
 8493SOL    HW226379   2.317   1.122   0.282
 8494SOL     OW26380   5.326   4.658   1.983
 8494SOL    HW126381   5.376   4.727   1.932
 8494SOL    HW226382   5.232   4.689   1.998
 8495SOL     OW26383   6.893   5.812   0.865
 8495SOL    HW126384   6.954   5.751   0.815
 8495SOL    HW226385   6.946   5.869   0.927
 8496SOL     OW26386   5.009   0.994   2.297
 8496SOL    HW126387   4.996   1.091   2.315
 8496SOL    HW226388   5.103   0.968   2.316
 8497SOL     OW26389   0.494   0.224   3.579
 8497SOL    HW126390   0.565   0.211   3.649
 8497SOL    HW226391   0.452   0.136   3.559
 8498SOL     OW26392   5.448   0.283   3.903
 8498SOL    HW126393   5.393   0.263   3.822
 8498SOL    HW226394   5.397   0.255   3.985
 8499SOL     OW26395   0.951   5.575   0.526
 8499SOL    HW126396   1.047   5.581   0.496
 8499SOL    HW226397   0.917   5.482   0.509
 8500SOL     OW26398   1.899   0.007   5.913
 8500SOL    HW126399   1.802   0.031   5.913
 8500SOL    HW226400   1.941   0.038   5.828
 8501SOL     OW26401   0.207   2.240   0.347
 8501SOL    HW126402   0.298   2.280   0.359
 8501SOL    HW226403   0.138   2.313   0.351
 8502SOL     OW26404   0.317   2.682   0.233
 8502SOL    HW126405   0.250   2.732   0.288
 8502SOL    HW226406   0.409   2.717   0.251
 8503SOL     OW26407   6.670   5.307   4.892
 8503SOL    HW126408   6.644   5.384   4.951
 8503SOL    HW226409   6.725   5.340   4.815
 8504SOL     OW26410   1.541   5.454   2.396
 8504SOL    HW126411   1.601   5.389   2.349
 8504SOL    HW226412   1.565   5.457   2.493
 8505SOL     OW26413   5.153   3.637   2.306
 8505SOL    HW126414   5.154   3.577   2.386
 8505SOL    HW226415   5.182   3.729   2.333
 8506SOL     OW26416   1.699   1.274   6.837
 8506SOL    HW126417   1.688   1.373   6.832
 8506SOL    HW226418   1.786   1.251   6.880
 8507SOL     OW26419   4.493   0.034   4.869
 8507SOL    HW126420   4.532   0.055   4.779
 8507SOL    HW226421   4.539   6.984   4.908
 8508SOL     OW26422   3.999   1.855   6.190
 8508SOL    HW126423   3.958   1.928   6.135
 8508SOL    HW226424   3.976   1.767   6.149
 8509SOL     OW26425   5.227   6.958   3.269
 8509SOL    HW126426   5.286   6.962   3.188
 8509SOL    HW226427   5.265   6.893   3.335
 8510SOL     OW26428   5.392   2.825   3.688
 8510SOL    HW126429   5.463   2.881   3.729
 8510SOL    HW226430   5.319   2.884   3.652
 8511SOL     OW26431   5.995   3.515   2.389
 8511SOL    HW126432   6.044   3.513   2.301
 8511SOL    HW226433   5.923   3.584   2.385
 8512SOL     OW26434   1.991   0.426   3.120
 8512SOL    HW126435   1.906   0.375   3.117
 8512SOL    HW226436   2.019   0.451   3.028
 8513SOL     OW26437   6.433   6.434   0.020
 8513SOL    HW126438   6.393   6.445   0.111
 8513SOL    HW226439   6.494   6.355   0.020
 8514SOL     OW26440   3.157   6.130   3.190
 8514SOL    HW126441   3.083   6.181   3.235
 8514SOL    HW226442   3.119   6.049   3.146
 8515SOL     OW26443   5.488   2.740   1.253
 8515SOL    HW126444   5.452   2.805   1.186
 8515SOL    HW226445   5.557   2.682   1.210
 8516SOL     OW26446   6.543   2.000   2.706
 8516SOL    HW126447   6.518   2.024   2.612
 8516SOL    HW226448   6.464   1.962   2.753
 8517SOL     OW26449   0.934   2.276   0.219
 8517SOL    HW126450   0.857   2.212   0.224
 8517SOL    HW226451   0.981   2.278   0.308
 8518SOL     OW26452   4.298   5.149   0.562
 8518SOL    HW126453   4.312   5.156   0.661
 8518SOL    HW226454   4.362   5.211   0.515
 8519SOL     OW26455   1.954   5.984   2.186
 8519SOL    HW126456   2.009   6.030   2.256
 8519SOL    HW226457   1.895   5.916   2.229
 8520SOL     OW26458   4.048   1.104   0.462
 8520SOL    HW126459   4.027   1.016   0.505
 8520SOL    HW226460   4.002   1.110   0.374
 8521SOL     OW26461   0.455   6.233   6.279
 8521SOL    HW126462   0.449   6.309   6.343
 8521SOL    HW226463   0.549   6.197   6.278
 8522SOL     OW26464   1.381   6.549   3.053
 8522SOL    HW126465   1.445   6.562   2.978
 8522SOL    HW226466   1.288   6.548   3.018
 8523SOL     OW26467   2.494   0.168   5.751
 8523SOL    HW126468   2.510   0.245   5.690
 8523SOL    HW226469   2.582   0.127   5.777
 8524SOL     OW26470   1.533   3.068   5.050
 8524SOL    HW126471   1.490   3.123   5.123
 8524SOL    HW226472   1.626   3.100   5.035
 8525SOL     OW26473   5.788   3.387   3.164
 8525SOL    HW126474   5.876   3.427   3.188
 8525SOL    HW226475   5.721   3.407   3.236
 8526SOL     OW26476   2.374   2.902   1.609
 8526SOL    HW126477   2.322   2.919   1.692
 8526SOL    HW226478   2.370   2.805   1.585
 8527SOL     OW26479   4.623   0.631   4.003
 8527SOL    HW126480   4.606   0.715   4.056
 8527SOL    HW226481   4.699   0.581   4.045
 8528SOL     OW26482   5.037   3.013   6.508
 8528SOL    HW126483   5.030   2.914   6.493
 8528SOL    HW226484   5.131   3.042   6.490
 8529SOL     OW26485   1.652   5.530   0.332
 8529SOL    HW126486   1.743   5.546   0.293
 8529SOL    HW226487   1.584   5.579   0.279
 8530SOL     OW26488   1.315   4.563   5.305
 8530SOL    HW126489   1.394   4.564   5.366
 8530SOL    HW226490   1.321   4.639   5.241
 8531SOL     OW26491   5.367   4.049   3.087
 8531SOL    HW126492   5.288   4.017   3.035
 8531SOL    HW226493   5.451   4.028   3.036
 8532SOL     OW26494   3.816   4.942   5.163
 8532SOL    HW126495   3.828   5.028   5.114
 8532SOL    HW226496   3.898   4.921   5.216
 8533SOL     OW26497   2.506   1.083   4.255
 8533SOL    HW126498   2.549   1.161   4.301
 8533SOL    HW226499   2.423   1.115   4.209
 8534SOL     OW26500   0.978   3.783   2.962
 8534SOL    HW126501   0.961   3.869   2.914
 8534SOL    HW226502   0.899   3.761   3.020
 8535SOL     OW26503   0.707   2.211   4.781
 8535SOL    HW126504   0.767   2.132   4.772
 8535SOL    HW226505   0.611   2.181   4.783
 8536SOL     OW26506   6.875   2.208   5.203
 8536SOL    HW126507   6.941   2.155   5.256
 8536SOL    HW226508   6.878   2.304   5.232
 8537SOL     OW26509   5.513   0.875   0.999
 8537SOL    HW126510   5.532   0.801   0.934
 8537SOL    HW226511   5.516   0.963   0.952
 8538SOL     OW26512   0.094   0.697   4.631
 8538SOL    HW126513   0.193   0.695   4.616
 8538SOL    HW226514   0.047   0.659   4.551
 8539SOL     OW26515   0.102   2.280   1.725
 8539SOL    HW126516   0.024   2.235   1.767
 8539SOL    HW226517   0.140   2.221   1.654
 8540SOL     OW26518   2.898   1.056   0.400
 8540SOL    HW126519   2.876   1.003   0.482
 8540SOL    HW226520   2.996   1.073   0.396
 8541SOL     OW26521   3.102   1.533   5.119
 8541SOL    HW126522   3.114   1.601   5.191
 8541SOL    HW226523   3.008   1.536   5.087
 8542SOL     OW26524   2.588   4.346   6.777
 8542SOL    HW126525   2.601   4.326   6.680
 8542SOL    HW226526   2.526   4.424   6.787
 8543SOL     OW26527   2.448   1.999   5.433
 8543SOL    HW126528   2.397   2.041   5.508
 8543SOL    HW226529   2.457   2.065   5.358
 8544SOL     OW26530   4.879   3.975   5.242
 8544SOL    HW126531   4.781   3.985   5.226
 8544SOL    HW226532   4.914   4.056   5.288
 8545SOL     OW26533   3.549   6.973   4.678
 8545SOL    HW126534   3.536   6.874   4.686
 8545SOL    HW226535   3.637   6.998   4.719
 8546SOL     OW26536   5.943   0.354   1.642
 8546SOL    HW126537   5.900   0.420   1.704
 8546SOL    HW226538   6.010   0.300   1.693
 8547SOL     OW26539   6.892   6.739   5.798
 8547SOL    HW126540   6.929   6.789   5.719
 8547SOL    HW226541   6.808   6.692   5.772
 8548SOL     OW26542   0.531   2.963   6.308
 8548SOL    HW126543   0.563   3.039   6.364
 8548SOL    HW226544   0.480   2.898   6.364
 8549SOL     OW26545   1.914   1.025   3.584
 8549SOL    HW126546   1.990   0.978   3.629
 8549SOL    HW226547   1.946   1.061   3.496
 8550SOL     OW26548   0.903   4.261   0.376
 8550SOL    HW126549   0.860   4.295   0.459
 8550SOL    HW226550   0.921   4.337   0.314
 8551SOL     OW26551   1.784   2.181   6.403
 8551SOL    HW126552   1.883   2.195   6.414
 8551SOL    HW226553   1.734   2.236   6.470
 8552SOL     OW26554   2.841   1.121   2.624
 8552SOL    HW126555   2.785   1.187   2.675
 8552SOL    HW226556   2.921   1.095   2.679
 8553SOL     OW26557   4.678   2.948   0.818
 8553SOL    HW126558   4.733   3.031   0.805
 8553SOL    HW226559   4.739   2.869   0.825
 8554SOL     OW26560   0.833   6.826   0.927
 8554SOL    HW126561   0.834   6.753   0.859
 8554SOL    HW226562   0.873   6.793   1.012
 8555SOL     OW26563   4.340   1.720   3.802
 8555SOL    HW126564   4.311   1.696   3.895
 8555SOL    HW226565   4.417   1.663   3.775
 8556SOL     OW26566   2.085   6.368   6.677
 8556SOL    HW126567   2.109   6.465   6.684
 8556SOL    HW226568   2.114   6.320   6.760
 8557SOL     OW26569   6.834   0.884   0.356
 8557SOL    HW126570   6.752   0.940   0.367
 8557SOL    HW226571   6.861   0.847   0.445
 8558SOL     OW26572   2.786   4.749   2.958
 8558SOL    HW126573   2.743   4.684   2.896
 8558SOL    HW226574   2.866   4.790   2.914
 8559SOL     OW26575   1.071   5.373   2.232
 8559SOL    HW126576   1.086   5.338   2.324
 8559SOL    HW226577   1.093   5.302   2.165
 8560SOL     OW26578   2.417   5.025   1.296
 8560SOL    HW126579   2.372   5.114   1.284
 8560SOL    HW226580   2.509   5.039   1.335
 8561SOL     OW26581   3.285   0.384   2.780
 8561SOL    HW126582   3.250   0.298   2.744
 8561SOL    HW226583   3.369   0.368   2.831
 8562SOL     OW26584   3.989   1.279   6.813
 8562SOL    HW126585   4.078   1.295   6.770
 8562SOL    HW226586   3.999   1.215   6.888
 8563SOL     OW26587   1.571   5.644   2.791
 8563SOL    HW126588   1.510   5.672   2.716
 8563SOL    HW226589   1.665   5.669   2.768
 8564SOL     OW26590   3.871   6.775   6.696
 8564SOL    HW126591   3.939   6.701   6.701
 8564SOL    HW226592   3.875   6.828   6.781
 8565SOL     OW26593   3.361   5.555   0.905
 8565SOL    HW126594   3.353   5.455   0.901
 8565SOL    HW226595   3.338   5.594   0.816
 8566SOL     OW26596   2.906   0.820   3.170
 8566SOL    HW126597   2.950   0.893   3.222
 8566SOL    HW226598   2.966   0.791   3.095
 8567SOL     OW26599   1.822   1.685   1.364
 8567SOL    HW126600   1.797   1.709   1.457
 8567SOL    HW226601   1.895   1.746   1.333
 8568SOL     OW26602   6.845   1.368   0.608
 8568SOL    HW126603   6.900   1.298   0.562
 8568SOL    HW226604   6.779   1.406   0.544
 8569SOL     OW26605   5.214   2.533   6.102
 8569SOL    HW126606   5.257   2.544   6.012
 8569SOL    HW226607   5.129   2.586   6.105
 8570SOL     OW26608   1.079   2.257   5.192
 8570SOL    HW126609   1.059   2.350   5.225
 8570SOL    HW226610   1.107   2.200   5.269
 8571SOL     OW26611   1.470   1.174   4.234
 8571SOL    HW126612   1.462   1.135   4.142
 8571SOL    HW226613   1.567   1.192   4.254
 8572SOL     OW26614   3.288   3.901   5.934
 8572SOL    HW126615   3.334   3.812   5.922
 8572SOL    HW226616   3.202   3.900   5.883
 8573SOL     OW26617   3.284   6.127   1.121
 8573SOL    HW126618   3.203   6.144   1.065
 8573SOL    HW226619   3.273   6.039   1.169
 8574SOL     OW26620   6.950   6.510   6.150
 8574SOL    HW126621   6.922   6.426   6.197
 8574SOL    HW226622   7.018   6.488   6.081
 8575SOL     OW26623   3.369   6.612   2.787
 8575SOL    HW126624   3.461   6.643   2.807
 8575SOL    HW226625   3.354   6.611   2.688
 8576SOL     OW26626   0.864   3.943   4.505
 8576SOL    HW126627   0.829   3.936   4.412
 8576SOL    HW226628   0.946   3.886   4.514
 8577SOL     OW26629   1.781   1.213   6.261
 8577SOL    HW126630   1.759   1.306   6.230
 8577SOL    HW226631   1.876   1.192   6.237
 8578SOL     OW26632   6.335   6.469   5.361
 8578SOL    HW126633   6.295   6.379   5.379
 8578SOL    HW226634   6.421   6.457   5.311
 8579SOL     OW26635   2.782   5.770   2.432
 8579SOL    HW126636   2.838   5.691   2.458
 8579SOL    HW226637   2.831   5.854   2.453
 8580SOL     OW26638   1.407   6.182   1.308
 8580SOL    HW126639   1.426   6.234   1.225
 8580SOL    HW226640   1.478   6.112   1.320
 8581SOL     OW26641   3.615   5.241   1.447
 8581SOL    HW126642   3.709   5.244   1.481
 8581SOL    HW226643   3.552   5.225   1.523
 8582SOL     OW26644   4.090   4.678   5.616
 8582SOL    HW126645   4.109   4.639   5.526
 8582SOL    HW226646   3.997   4.655   5.644
 8583SOL     OW26647   4.120   0.543   2.767
 8583SOL    HW126648   4.070   0.626   2.744
 8583SOL    HW226649   4.079   0.465   2.718
 8584SOL     OW26650   6.185   1.499   4.643
 8584SOL    HW126651   6.105   1.541   4.600
 8584SOL    HW226652   6.178   1.507   4.742
 8585SOL     OW26653   5.962   2.368   1.484
 8585SOL    HW126654   5.917   2.447   1.443
 8585SOL    HW226655   5.936   2.285   1.434
 8586SOL     OW26656   5.770   6.197   1.414
 8586SOL    HW126657   5.777   6.294   1.392
 8586SOL    HW226658   5.849   6.148   1.379
 8587SOL     OW26659   1.232   1.527   5.769
 8587SOL    HW126660   1.295   1.476   5.827
 8587SOL    HW226661   1.229   1.485   5.678
 8588SOL     OW26662   3.284   1.496   6.543
 8588SOL    HW126663   3.243   1.410   6.515
 8588SOL    HW226664   3.314   1.548   6.463
 8589SOL     OW26665   6.947   3.444   5.727
 8589SOL    HW126666   7.012   3.378   5.689
 8589SOL    HW226667   6.898   3.402   5.803
 8590SOL     OW26668   6.877   1.636   2.662
 8590SOL    HW126669   6.913   1.599   2.748
 8590SOL    HW226670   6.780   1.614   2.654
 8591SOL     OW26671   6.607   4.979   0.274
 8591SOL    HW126672   6.575   5.057   0.327
 8591SOL    HW226673   6.685   4.936   0.321
 8592SOL     OW26674   0.297   2.601   6.753
 8592SOL    HW126675   0.341   2.541   6.821
 8592SOL    HW226676   0.364   2.665   6.717
 8593SOL     OW26677   3.129   0.720   6.382
 8593SOL    HW126678   3.111   0.672   6.297
 8593SOL    HW226679   3.220   0.695   6.415
 8594SOL     OW26680   5.927   2.955   6.242
 8594SOL    HW126681   5.947   3.051   6.222
 8594SOL    HW226682   5.856   2.922   6.181
 8595SOL     OW26683   5.326   0.101   2.886
 8595SOL    HW126684   5.298   0.127   2.979
 8595SOL    HW226685   5.252   0.052   2.841
 8596SOL     OW26686   1.177   3.215   3.642
 8596SOL    HW126687   1.172   3.211   3.543
 8596SOL    HW226688   1.251   3.157   3.675
 8597SOL     OW26689   6.488   3.103   1.100
 8597SOL    HW126690   6.401   3.076   1.142
 8597SOL    HW226691   6.559   3.037   1.125
 8598SOL     OW26692   5.780   1.129   4.919
 8598SOL    HW126693   5.875   1.156   4.908
 8598SOL    HW226694   5.775   1.043   4.970
 8599SOL     OW26695   1.704   3.347   3.438
 8599SOL    HW126696   1.637   3.371   3.368
 8599SOL    HW226697   1.796   3.358   3.401
 8600SOL     OW26698   4.755   3.844   0.844
 8600SOL    HW126699   4.727   3.793   0.763
 8600SOL    HW226700   4.679   3.848   0.908
 8601SOL     OW26701   0.602   1.046   3.919
 8601SOL    HW126702   0.547   0.973   3.879
 8601SOL    HW226703   0.632   1.109   3.847
 8602SOL     OW26704   2.914   6.850   3.816
 8602SOL    HW126705   2.949   6.878   3.727
 8602SOL    HW226706   2.956   6.907   3.887
 8603SOL     OW26707   6.404   0.947   0.421
 8603SOL    HW126708   6.485   1.002   0.440
 8603SOL    HW226709   6.429   0.850   0.416
 8604SOL     OW26710   0.799   3.876   6.203
 8604SOL    HW126711   0.722   3.828   6.246
 8604SOL    HW226712   0.767   3.921   6.119
 8605SOL     OW26713   0.590   4.725   4.496
 8605SOL    HW126714   0.688   4.702   4.493
 8605SOL    HW226715   0.544   4.663   4.559
 8606SOL     OW26716   2.609   1.930   6.520
 8606SOL    HW126717   2.668   1.905   6.596
 8606SOL    HW226718   2.547   2.004   6.548
 8607SOL     OW26719   2.528   4.694   1.432
 8607SOL    HW126720   2.619   4.654   1.419
 8607SOL    HW226721   2.537   4.791   1.452
 8608SOL     OW26722   2.448   4.548   2.543
 8608SOL    HW126723   2.503   4.553   2.460
 8608SOL    HW226724   2.430   4.452   2.565
 8609SOL     OW26725   4.953   1.290   3.992
 8609SOL    HW126726   4.962   1.232   3.911
 8609SOL    HW226727   4.899   1.241   4.061
 8610SOL     OW26728   6.752   6.856   2.964
 8610SOL    HW126729   6.748   6.908   3.049
 8610SOL    HW226730   6.696   6.774   2.971
 8611SOL     OW26731   3.396   1.149   3.593
 8611SOL    HW126732   3.419   1.241   3.625
 8611SOL    HW226733   3.332   1.107   3.657
 8612SOL     OW26734   3.415   2.994   2.975
 8612SOL    HW126735   3.461   3.082   2.969
 8612SOL    HW226736   3.394   2.974   3.071
 8613SOL     OW26737   3.099   2.765   1.501
 8613SOL    HW126738   3.082   2.702   1.426
 8613SOL    HW226739   3.101   2.716   1.588
 8614SOL     OW26740   1.486   2.068   2.071
 8614SOL    HW126741   1.407   2.024   2.114
 8614SOL    HW226742   1.559   2.080   2.139
 8615SOL     OW26743   4.885   2.347   3.993
 8615SOL    HW126744   4.875   2.255   4.031
 8615SOL    HW226745   4.978   2.360   3.960
 8616SOL     OW26746   4.190   4.984   2.454
 8616SOL    HW126747   4.138   5.047   2.512
 8616SOL    HW226748   4.141   4.898   2.445
 8617SOL     OW26749   5.376   6.967   3.721
 8617SOL    HW126750   5.396   6.870   3.738
 8617SOL    HW226751   5.461   7.019   3.727
 8618SOL     OW26752   6.534   3.497   1.306
 8618SOL    HW126753   6.609   3.431   1.304
 8618SOL    HW226754   6.562   3.579   1.355
 8619SOL     OW26755   5.208   5.033   2.158
 8619SOL    HW126756   5.156   5.053   2.075
 8619SOL    HW226757   5.150   4.982   2.222
 8620SOL     OW26758   2.437   0.545   4.730
 8620SOL    HW126759   2.486   0.459   4.743
 8620SOL    HW226760   2.415   0.584   4.820
 8621SOL     OW26761   4.796   2.776   2.017
 8621SOL    HW126762   4.733   2.735   1.951
 8621SOL    HW226763   4.783   2.876   2.017
 8622SOL     OW26764   6.401   5.325   2.510
 8622SOL    HW126765   6.428   5.364   2.598
 8622SOL    HW226766   6.478   5.330   2.446
 8623SOL     OW26767   6.862   3.400   5.012
 8623SOL    HW126768   6.937   3.451   5.053
 8623SOL    HW226769   6.777   3.451   5.023
 8624SOL     OW26770   3.319   3.680   5.667
 8624SOL    HW126771   3.341   3.583   5.669
 8624SOL    HW226772   3.228   3.694   5.706
 8625SOL     OW26773   3.491   1.831   5.433
 8625SOL    HW126774   3.508   1.771   5.512
 8625SOL    HW226775   3.571   1.888   5.416
 8626SOL     OW26776   4.528   2.879   0.566
 8626SOL    HW126777   4.487   2.967   0.541
 8626SOL    HW226778   4.618   2.895   0.607
 8627SOL     OW26779   1.556   1.516   2.440
 8627SOL    HW126780   1.465   1.554   2.429
 8627SOL    HW226781   1.587   1.478   2.352
 8628SOL     OW26782   0.088   6.691   0.141
 8628SOL    HW126783   0.101   6.632   0.221
 8628SOL    HW226784   0.068   6.634   0.062
 8629SOL     OW26785   1.066   0.022   4.547
 8629SOL    HW126786   1.148   6.998   4.567
 8629SOL    HW226787   1.038   0.006   4.452
 8630SOL     OW26788   5.171   3.311   3.617
 8630SOL    HW126789   5.208   3.375   3.550
 8630SOL    HW226790   5.085   3.272   3.583
 8631SOL     OW26791   2.539   5.535   0.252
 8631SOL    HW126792   2.572   5.492   0.335
 8631SOL    HW226793   2.540   5.635   0.263
 8632SOL     OW26794   4.092   4.556   5.377
 8632SOL    HW126795   4.057   4.483   5.436
 8632SOL    HW226796   4.162   4.519   5.316
 8633SOL     OW26797   5.424   4.035   5.704
 8633SOL    HW126798   5.443   4.079   5.616
 8633SOL    HW226799   5.328   4.050   5.728
 8634SOL     OW26800   5.353   5.027   0.600
 8634SOL    HW126801   5.280   4.970   0.563
 8634SOL    HW226802   5.345   5.031   0.699
 8635SOL     OW26803   6.105   3.157   6.701
 8635SOL    HW126804   6.059   3.242   6.676
 8635SOL    HW226805   6.173   3.133   6.631
 8636SOL     OW26806   4.264   5.810   0.686
 8636SOL    HW126807   4.259   5.870   0.607
 8636SOL    HW226808   4.288   5.863   0.767
 8637SOL     OW26809   1.638   1.565   6.790
 8637SOL    HW126810   1.601   1.601   6.875
 8637SOL    HW226811   1.566   1.561   6.721
 8638SOL     OW26812   3.868   2.931   5.207
 8638SOL    HW126813   3.769   2.920   5.216
 8638SOL    HW226814   3.897   3.011   5.259
 8639SOL     OW26815   5.465   3.340   0.240
 8639SOL    HW126816   5.435   3.266   0.300
 8639SOL    HW226817   5.397   3.413   0.239
 8640SOL     OW26818   3.794   2.965   1.118
 8640SOL    HW126819   3.881   2.934   1.157
 8640SOL    HW226820   3.797   3.064   1.105
 8641SOL     OW26821   4.123   5.336   2.800
 8641SOL    HW126822   4.051   5.320   2.868
 8641SOL    HW226823   4.207   5.365   2.846
 8642SOL     OW26824   1.300   6.567   3.952
 8642SOL    HW126825   1.372   6.516   3.904
 8642SOL    HW226826   1.211   6.539   3.917
 8643SOL     OW26827   2.733   0.102   0.460
 8643SOL    HW126828   2.765   0.115   0.366
 8643SOL    HW226829   2.800   0.048   0.510
 8644SOL     OW26830   6.126   2.162   6.609
 8644SOL    HW126831   6.124   2.075   6.559
 8644SOL    HW226832   6.070   2.154   6.692
 8645SOL     OW26833   5.613   4.341   1.305
 8645SOL    HW126834   5.615   4.244   1.282
 8645SOL    HW226835   5.560   4.355   1.389
 8646SOL     OW26836   0.043   2.462   5.821
 8646SOL    HW126837   7.018   2.543   5.799
 8646SOL    HW226838   7.016   2.381   5.814
 8647SOL     OW26839   2.756   5.380   1.119
 8647SOL    HW126840   2.793   5.456   1.174
 8647SOL    HW226841   2.729   5.414   1.029
 8648SOL     OW26842   5.790   6.562   1.269
 8648SOL    HW126843   5.885   6.594   1.261
 8648SOL    HW226844   5.745   6.569   1.180
 8649SOL     OW26845   4.147   6.327   6.819
 8649SOL    HW126846   4.100   6.262   6.879
 8649SOL    HW226847   4.124   6.420   6.847
 8650SOL     OW26848   2.094   0.338   4.439
 8650SOL    HW126849   2.132   0.305   4.526
 8650SOL    HW226850   2.100   0.265   4.371
 8651SOL     OW26851   2.796   1.337   1.010
 8651SOL    HW126852   2.846   1.416   1.045
 8651SOL    HW226853   2.792   1.342   0.910
 8652SOL     OW26854   0.792   5.158   4.220
 8652SOL    HW126855   0.813   5.104   4.139
 8652SOL    HW226856   0.876   5.200   4.255
 8653SOL     OW26857   0.123   1.531   6.102
 8653SOL    HW126858   0.138   1.503   6.007
 8653SOL    HW226859   0.044   1.482   6.140
 8654SOL     OW26860   1.082   4.727   1.886
 8654SOL    HW126861   1.095   4.654   1.818
 8654SOL    HW226862   1.040   4.807   1.842
 8655SOL     OW26863   6.737   1.483   5.367
 8655SOL    HW126864   6.766   1.569   5.327
 8655SOL    HW226865   6.706   1.498   5.461
 8656SOL     OW26866   6.048   6.800   1.932
 8656SOL    HW126867   6.017   6.705   1.931
 8656SOL    HW226868   5.982   6.856   1.882
 8657SOL     OW26869   5.813   0.024   1.281
 8657SOL    HW126870   5.742   6.986   1.262
 8657SOL    HW226871   5.771   0.110   1.308
 8658SOL     OW26872   6.039   5.250   1.563
 8658SOL    HW126873   5.994   5.293   1.641
 8658SOL    HW226874   6.130   5.220   1.590
 8659SOL     OW26875   4.752   2.385   2.889
 8659SOL    HW126876   4.698   2.356   2.810
 8659SOL    HW226877   4.691   2.412   2.963
 8660SOL     OW26878   0.723   2.678   1.688
 8660SOL    HW126879   0.683   2.766   1.662
 8660SOL    HW226880   0.702   2.610   1.617
 8661SOL     OW26881   6.494   3.029   3.182
 8661SOL    HW126882   6.481   2.930   3.192
 8661SOL    HW226883   6.429   3.065   3.115
 8662SOL     OW26884   3.502   5.889   2.304
 8662SOL    HW126885   3.567   5.864   2.375
 8662SOL    HW226886   3.498   5.988   2.295
 8663SOL     OW26887   3.329   5.362   3.383
 8663SOL    HW126888   3.360   5.270   3.360
 8663SOL    HW226889   3.405   5.415   3.421
 8664SOL     OW26890   2.026   5.908   2.649
 8664SOL    HW126891   2.090   5.939   2.578
 8664SOL    HW226892   2.074   5.902   2.736
 8665SOL     OW26893   5.725   4.801   5.713
 8665SOL    HW126894   5.758   4.742   5.638
 8665SOL    HW226895   5.688   4.744   5.786
 8666SOL     OW26896   5.216   0.604   3.948
 8666SOL    HW126897   5.313   0.598   3.924
 8666SOL    HW226898   5.169   0.666   3.886
 8667SOL     OW26899   4.945   1.475   4.564
 8667SOL    HW126900   5.035   1.508   4.592
 8667SOL    HW226901   4.915   1.525   4.483
 8668SOL     OW26902   5.246   3.057   4.328
 8668SOL    HW126903   5.333   3.098   4.300
 8668SOL    HW226904   5.199   3.119   4.391
 8669SOL     OW26905   6.892   6.272   6.266
 8669SOL    HW126906   6.796   6.271   6.240
 8669SOL    HW226907   6.908   6.205   6.339
 8670SOL     OW26908   5.466   4.665   5.872
 8670SOL    HW126909   5.421   4.698   5.790
 8670SOL    HW226910   5.430   4.714   5.952
 8671SOL     OW26911   0.361   2.198   2.402
 8671SOL    HW126912   0.365   2.281   2.457
 8671SOL    HW226913   0.429   2.204   2.329
 8672SOL     OW26914   0.168   0.406   3.424
 8672SOL    HW126915   0.151   0.498   3.460
 8672SOL    HW226916   0.080   0.359   3.411
 8673SOL     OW26917   0.326   1.586   0.240
 8673SOL    HW126918   0.240   1.597   0.189
 8673SOL    HW226919   0.306   1.583   0.338
 8674SOL     OW26920   0.486   4.378   3.400
 8674SOL    HW126921   0.422   4.302   3.391
 8674SOL    HW226922   0.444   4.450   3.454
 8675SOL     OW26923   3.206   1.463   5.960
 8675SOL    HW126924   3.166   1.395   5.899
 8675SOL    HW226925   3.255   1.531   5.906
 8676SOL     OW26926   5.638   1.193   1.546
 8676SOL    HW126927   5.635   1.268   1.480
 8676SOL    HW226928   5.563   1.129   1.526
 8677SOL     OW26929   1.740   6.378   5.871
 8677SOL    HW126930   1.738   6.278   5.881
 8677SOL    HW226931   1.646   6.413   5.876
 8678SOL     OW26932   1.077   6.942   0.528
 8678SOL    HW126933   1.025   6.952   0.443
 8678SOL    HW226934   1.171   6.972   0.514
 8679SOL     OW26935   2.193   1.076   3.888
 8679SOL    HW126936   2.146   1.158   3.921
 8679SOL    HW226937   2.250   1.099   3.809
 8680SOL     OW26938   6.308   2.975   5.899
 8680SOL    HW126939   6.391   2.980   5.843
 8680SOL    HW226940   6.236   3.030   5.856
 8681SOL     OW26941   5.119   6.166   1.136
 8681SOL    HW126942   5.074   6.210   1.058
 8681SOL    HW226943   5.056   6.102   1.179
 8682SOL     OW26944   0.096   0.368   1.028
 8682SOL    HW126945   0.108   0.459   1.068
 8682SOL    HW226946   0.127   0.299   1.093
 8683SOL     OW26947   1.613   3.423   5.014
 8683SOL    HW126948   1.647   3.341   5.061
 8683SOL    HW226949   1.677   3.447   4.941
 8684SOL     OW26950   0.499   3.737   4.776
 8684SOL    HW126951   0.494   3.714   4.679
 8684SOL    HW226952   0.591   3.718   4.810
 8685SOL     OW26953   5.633   2.136   5.842
 8685SOL    HW126954   5.684   2.183   5.915
 8685SOL    HW226955   5.667   2.042   5.833
 8686SOL     OW26956   6.390   6.609   2.860
 8686SOL    HW126957   6.405   6.513   2.835
 8686SOL    HW226958   6.421   6.668   2.785
 8687SOL     OW26959   6.269   3.489   3.228
 8687SOL    HW126960   6.316   3.577   3.221
 8687SOL    HW226961   6.336   3.416   3.236
 8688SOL     OW26962   1.568   3.655   6.583
 8688SOL    HW126963   1.517   3.741   6.592
 8688SOL    HW226964   1.505   3.579   6.573
 8689SOL     OW26965   4.502   3.150   0.524
 8689SOL    HW126966   4.601   3.149   0.535
 8689SOL    HW226967   4.479   3.135   0.428
 8690SOL     OW26968   1.155   2.114   2.797
 8690SOL    HW126969   1.069   2.153   2.762
 8690SOL    HW226970   1.229   2.181   2.786
 8691SOL     OW26971   3.172   1.862   5.002
 8691SOL    HW126972   3.243   1.806   5.044
 8691SOL    HW226973   3.083   1.840   5.043
 8692SOL     OW26974   4.042   1.903   5.857
 8692SOL    HW126975   4.138   1.904   5.831
 8692SOL    HW226976   4.025   1.975   5.925
 8693SOL     OW26977   6.613   0.795   6.662
 8693SOL    HW126978   6.556   0.754   6.733
 8693SOL    HW226979   6.685   0.849   6.705
 8694SOL     OW26980   6.374   3.146   4.468
 8694SOL    HW126981   6.310   3.096   4.526
 8694SOL    HW226982   6.464   3.149   4.512
 8695SOL     OW26983   3.906   3.520   6.467
 8695SOL    HW126984   3.901   3.616   6.440
 8695SOL    HW226985   3.967   3.472   6.404
 8696SOL     OW26986   2.877   6.056   5.515
 8696SOL    HW126987   2.783   6.030   5.494
 8696SOL    HW226988   2.877   6.138   5.573
 8697SOL     OW26989   1.718   4.390   5.788
 8697SOL    HW126990   1.728   4.485   5.818
 8697SOL    HW226991   1.808   4.353   5.763
 8698SOL     OW26992   4.847   5.987   6.396
 8698SOL    HW126993   4.799   6.072   6.373
 8698SOL    HW226994   4.814   5.914   6.337
 8699SOL     OW26995   2.453   2.762   6.277
 8699SOL    HW126996   2.415   2.811   6.198
 8699SOL    HW226997   2.479   2.827   6.348
 8700SOL     OW26998   1.091   0.487   5.238
 8700SOL    HW126999   1.074   0.466   5.141
 8700SOL    HW227000   1.154   0.420   5.276
 8701SOL     OW27001   1.198   1.643   7.011
 8701SOL    HW127002   1.203   1.721   0.043
 8701SOL    HW227003   1.132   1.663   6.938
 8702SOL     OW27004   5.145   4.774   1.433
 8702SOL    HW127005   5.063   4.817   1.397
 8702SOL    HW227006   5.129   4.676   1.446
 8703SOL     OW27007   3.038   4.441   0.196
 8703SOL    HW127008   2.965   4.506   0.220
 8703SOL    HW227009   2.998   4.351   0.181
 8704SOL     OW27010   0.364   2.260   4.338
 8704SOL    HW127011   0.454   2.231   4.306
 8704SOL    HW227012   0.375   2.332   4.406
 8705SOL     OW27013   4.588   2.706   6.891
 8705SOL    HW127014   4.604   2.610   6.912
 8705SOL    HW227015   4.659   2.739   6.829
 8706SOL     OW27016   5.573   2.940   0.012
 8706SOL    HW127017   5.542   3.009   6.975
 8706SOL    HW227018   5.656   2.896   7.008
 8707SOL     OW27019   1.314   1.959   4.583
 8707SOL    HW127020   1.317   1.871   4.630
 8707SOL    HW227021   1.406   1.994   4.570
 8708SOL     OW27022   5.062   2.105   3.619
 8708SOL    HW127023   5.062   2.184   3.558
 8708SOL    HW227024   4.996   2.038   3.586
 8709SOL     OW27025   6.827   0.240   6.704
 8709SOL    HW127026   6.785   0.204   6.620
 8709SOL    HW227027   6.813   0.339   6.708
 8710SOL     OW27028   2.109   1.759   3.671
 8710SOL    HW127029   2.132   1.823   3.597
 8710SOL    HW227030   2.193   1.720   3.708
 8711SOL     OW27031   0.984   1.391   1.983
 8711SOL    HW127032   0.987   1.471   2.041
 8711SOL    HW227033   1.037   1.407   1.900
 8712SOL     OW27034   2.153   2.649   5.225
 8712SOL    HW127035   2.106   2.576   5.175
 8712SOL    HW227036   2.108   2.665   5.313
 8713SOL     OW27037   1.142   4.407   2.214
 8713SOL    HW127038   1.131   4.491   2.267
 8713SOL    HW227039   1.136   4.328   2.276
 8714SOL     OW27040   0.235   6.096   0.286
 8714SOL    HW127041   0.282   6.018   0.246
 8714SOL    HW227042   0.137   6.088   0.269
 8715SOL     OW27043   2.730   1.716   0.269
 8715SOL    HW127044   2.663   1.643   0.276
 8715SOL    HW227045   2.683   1.804   0.259
 8716SOL     OW27046   0.367   6.617   1.361
 8716SOL    HW127047   0.411   6.698   1.322
 8716SOL    HW227048   0.335   6.638   1.453
 8717SOL     OW27049   2.482   4.076   6.549
 8717SOL    HW127050   2.426   4.001   6.513
 8717SOL    HW227051   2.424   4.156   6.566
 8718SOL     OW27052   1.553   3.247   6.520
 8718SOL    HW127053   1.571   3.320   6.454
 8718SOL    HW227054   1.454   3.237   6.532
 8719SOL     OW27055   3.732   1.226   6.374
 8719SOL    HW127056   3.735   1.302   6.309
 8719SOL    HW227057   3.720   1.140   6.325
 8720SOL     OW27058   6.082   4.817   4.874
 8720SOL    HW127059   6.104   4.906   4.833
 8720SOL    HW227060   6.167   4.770   4.899
 8721SOL     OW27061   0.190   6.291   6.864
 8721SOL    HW127062   0.246   6.300   6.946
 8721SOL    HW227063   0.247   6.307   6.783
 8722SOL     OW27064   3.467   0.416   0.880
 8722SOL    HW127065   3.401   0.398   0.806
 8722SOL    HW227066   3.525   0.493   0.855
 8723SOL     OW27067   5.374   0.174   1.924
 8723SOL    HW127068   5.284   0.180   1.881
 8723SOL    HW227069   5.443   0.150   1.856
 8724SOL     OW27070   4.268   0.323   4.139
 8724SOL    HW127071   4.178   0.278   4.137
 8724SOL    HW227072   4.260   0.411   4.186
 8725SOL     OW27073   0.480   6.518   4.473
 8725SOL    HW127074   0.513   6.466   4.551
 8725SOL    HW227075   0.442   6.605   4.504
 8726SOL     OW27076   0.009   1.241   0.409
 8726SOL    HW127077   7.008   1.174   0.476
 8726SOL    HW227078   0.071   1.197   0.343
 8727SOL     OW27079   6.015   6.323   6.566
 8727SOL    HW127080   5.958   6.241   6.564
 8727SOL    HW227081   6.082   6.319   6.492
 8728SOL     OW27082   5.509   0.990   3.031
 8728SOL    HW127083   5.604   1.005   3.057
 8728SOL    HW227084   5.485   0.894   3.045
 8729SOL     OW27085   3.887   5.204   5.852
 8729SOL    HW127086   3.844   5.258   5.779
 8729SOL    HW227087   3.819   5.146   5.896
 8730SOL     OW27088   5.376   4.298   3.218
 8730SOL    HW127089   5.375   4.282   3.317
 8730SOL    HW227090   5.365   4.210   3.170
 8731SOL     OW27091   0.221   2.149   3.108
 8731SOL    HW127092   0.125   2.177   3.116
 8731SOL    HW227093   0.238   2.071   3.168
 8732SOL     OW27094   5.179   5.113   0.912
 8732SOL    HW127095   5.273   5.083   0.897
 8732SOL    HW227096   5.179   5.208   0.943
 8733SOL     OW27097   0.979   5.604   0.788
 8733SOL    HW127098   0.977   5.575   0.692
 8733SOL    HW227099   1.052   5.556   0.836
 8734SOL     OW27100   6.748   3.708   2.403
 8734SOL    HW127101   6.684   3.722   2.328
 8734SOL    HW227102   6.824   3.650   2.371
 8735SOL     OW27103   2.234   3.852   5.644
 8735SOL    HW127104   2.256   3.871   5.740
 8735SOL    HW227105   2.143   3.812   5.638
 8736SOL     OW27106   0.521   5.438   2.060
 8736SOL    HW127107   0.565   5.482   1.981
 8736SOL    HW227108   0.589   5.426   2.133
 8737SOL     OW27109   1.706   5.423   6.513
 8737SOL    HW127110   1.705   5.345   6.451
 8737SOL    HW227111   1.699   5.392   6.607
 8738SOL     OW27112   1.128   3.529   3.980
 8738SOL    HW127113   1.228   3.536   3.982
 8738SOL    HW227114   1.101   3.446   3.931
 8739SOL     OW27115   5.129   3.886   5.359
 8739SOL    HW127116   5.067   3.815   5.392
 8739SOL    HW227117   5.224   3.858   5.375
 8740SOL     OW27118   3.957   2.141   3.222
 8740SOL    HW127119   3.918   2.152   3.130
 8740SOL    HW227120   4.040   2.197   3.230
 8741SOL     OW27121   1.778   0.221   2.464
 8741SOL    HW127122   1.754   0.170   2.381
 8741SOL    HW227123   1.871   0.255   2.456
 8742SOL     OW27124   3.692   0.706   2.751
 8742SOL    HW127125   3.681   0.804   2.733
 8742SOL    HW227126   3.628   0.678   2.822
 8743SOL     OW27127   1.366   1.035   1.748
 8743SOL    HW127128   1.316   1.092   1.814
 8743SOL    HW227129   1.327   0.943   1.748
 8744SOL     OW27130   4.192   3.138   6.695
 8744SOL    HW127131   4.123   3.104   6.630
 8744SOL    HW227132   4.272   3.078   6.693
 8745SOL     OW27133   6.707   1.825   6.607
 8745SOL    HW127134   6.626   1.788   6.562
 8745SOL    HW227135   6.754   1.888   6.545
 8746SOL     OW27136   5.189   5.238   3.904
 8746SOL    HW127137   5.190   5.225   3.805
 8746SOL    HW227138   5.198   5.150   3.950
 8747SOL     OW27139   6.213   1.451   2.152
 8747SOL    HW127140   6.176   1.360   2.134
 8747SOL    HW227141   6.312   1.450   2.136
 8748SOL     OW27142   0.799   1.666   4.309
 8748SOL    HW127143   0.778   1.748   4.363
 8748SOL    HW227144   0.897   1.664   4.290
 8749SOL     OW27145   2.419   1.146   5.469
 8749SOL    HW127146   2.409   1.245   5.483
 8749SOL    HW227147   2.399   1.098   5.554
 8750SOL     OW27148   4.579   2.768   5.896
 8750SOL    HW127149   4.484   2.752   5.921
 8750SOL    HW227150   4.589   2.860   5.858
 8751SOL     OW27151   0.087   6.981   1.055
 8751SOL    HW127152   0.125   6.890   1.074
 8751SOL    HW227153   0.139   7.025   0.982
 8752SOL     OW27154   4.719   2.891   0.250
 8752SOL    HW127155   4.637   2.845   0.285
 8752SOL    HW227156   4.749   2.961   0.316
 8753SOL     OW27157   1.458   3.221   0.336
 8753SOL    HW127158   1.370   3.232   0.383
 8753SOL    HW227159   1.517   3.298   0.361
 8754SOL     OW27160   2.654   4.925   6.370
 8754SOL    HW127161   2.716   4.939   6.292
 8754SOL    HW227162   2.635   5.013   6.414
 8755SOL     OW27163   0.600   1.490   1.476
 8755SOL    HW127164   0.594   1.438   1.390
 8755SOL    HW227165   0.600   1.588   1.455
 8756SOL     OW27166   2.178   3.114   3.809
 8756SOL    HW127167   2.120   3.194   3.799
 8756SOL    HW227168   2.191   3.094   3.906
 8757SOL     OW27169   5.090   6.013   5.029
 8757SOL    HW127170   5.120   5.986   5.121
 8757SOL    HW227171   5.019   6.083   5.037
 8758SOL     OW27172   3.434   6.940   3.526
 8758SOL    HW127173   3.434   7.003   3.603
 8758SOL    HW227174   3.504   6.871   3.540
 8759SOL     OW27175   6.486   0.709   6.904
 8759SOL    HW127176   6.509   0.613   6.889
 8759SOL    HW227177   6.393   0.727   6.872
 8760SOL     OW27178   1.724   1.816   3.967
 8760SOL    HW127179   1.706   1.718   3.961
 8760SOL    HW227180   1.809   1.837   3.918
 8761SOL     OW27181   5.383   1.580   1.916
 8761SOL    HW127182   5.299   1.597   1.967
 8761SOL    HW227183   5.365   1.514   1.843
 8762SOL     OW27184   1.679   5.515   4.219
 8762SOL    HW127185   1.643   5.583   4.155
 8762SOL    HW227186   1.733   5.562   4.290
 8763SOL     OW27187   6.876   0.803   5.329
 8763SOL    HW127188   6.954   0.767   5.380
 8763SOL    HW227189   6.795   0.748   5.347
 8764SOL     OW27190   4.020   5.343   6.052
 8764SOL    HW127191   4.118   5.328   6.064
 8764SOL    HW227192   3.988   5.288   5.975
 8765SOL     OW27193   5.263   0.447   5.177
 8765SOL    HW127194   5.250   0.355   5.141
 8765SOL    HW227195   5.180   0.500   5.165
 8766SOL     OW27196   4.821   4.287   6.119
 8766SOL    HW127197   4.909   4.241   6.131
 8766SOL    HW227198   4.769   4.282   6.204
 8767SOL     OW27199   3.058   0.435   3.656
 8767SOL    HW127200   3.098   0.405   3.743
 8767SOL    HW227201   3.022   0.528   3.666
 8768SOL     OW27202   6.914   2.328   6.918
 8768SOL    HW127203   6.879   2.306   6.827
 8768SOL    HW227204   7.007   2.291   6.928
 8769SOL     OW27205   6.016   1.086   1.886
 8769SOL    HW127206   6.088   1.137   1.838
 8769SOL    HW227207   5.940   1.069   1.823
 8770SOL     OW27208   5.479   3.671   1.883
 8770SOL    HW127209   5.407   3.701   1.946
 8770SOL    HW227210   5.438   3.627   1.803
 8771SOL     OW27211   0.529   3.921   6.497
 8771SOL    HW127212   0.605   3.972   6.456
 8771SOL    HW227213   0.446   3.977   6.495
 8772SOL     OW27214   5.762   0.566   4.877
 8772SOL    HW127215   5.830   0.494   4.867
 8772SOL    HW227216   5.777   0.637   4.808
 8773SOL     OW27217   6.584   2.270   4.093
 8773SOL    HW127218   6.603   2.336   4.020
 8773SOL    HW227219   6.554   2.184   4.053
 8774SOL     OW27220   1.224   6.639   6.847
 8774SOL    HW127221   1.287   6.570   6.811
 8774SOL    HW227222   1.270   6.727   6.849
 8775SOL     OW27223   5.344   2.109   4.377
 8775SOL    HW127224   5.263   2.152   4.418
 8775SOL    HW227225   5.340   2.118   4.278
 8776SOL     OW27226   4.984   2.829   1.063
 8776SOL    HW127227   5.020   2.816   1.155
 8776SOL    HW227228   5.033   2.904   1.018
 8777SOL     OW27229   1.424   3.548   2.983
 8777SOL    HW127230   1.454   3.526   2.890
 8777SOL    HW227231   1.326   3.566   2.983
 8778SOL     OW27232   4.254   4.165   5.722
 8778SOL    HW127233   4.248   4.108   5.640
 8778SOL    HW227234   4.275   4.259   5.696
 8779SOL     OW27235   3.025   5.177   2.629
 8779SOL    HW127236   3.082   5.095   2.625
 8779SOL    HW227237   2.942   5.157   2.682
 8780SOL     OW27238   0.361   5.928   2.137
 8780SOL    HW127239   0.329   5.842   2.096
 8780SOL    HW227240   0.308   5.947   2.220
 8781SOL     OW27241   4.274   6.950   2.539
 8781SOL    HW127242   4.271   6.850   2.536
 8781SOL    HW227243   4.296   6.980   2.632
 8782SOL     OW27244   5.256   0.793   1.714
 8782SOL    HW127245   5.186   0.738   1.668
 8782SOL    HW227246   5.222   0.822   1.804
 8783SOL     OW27247   5.217   3.429   4.400
 8783SOL    HW127248   5.306   3.467   4.375
 8783SOL    HW227249   5.229   3.364   4.475
 8784SOL     OW27250   6.442   6.735   0.856
 8784SOL    HW127251   6.421   6.739   0.759
 8784SOL    HW227252   6.437   6.640   0.887
 8785SOL     OW27253   0.104   5.674   6.449
 8785SOL    HW127254   0.122   5.707   6.356
 8785SOL    HW227255   0.188   5.636   6.487
 8786SOL     OW27256   4.243   2.152   2.014
 8786SOL    HW127257   4.303   2.145   1.934
 8786SOL    HW227258   4.148   2.140   1.986
 8787SOL     OW27259   3.708   0.233   1.653
 8787SOL    HW127260   3.699   0.328   1.623
 8787SOL    HW227261   3.624   0.204   1.699
 8788SOL     OW27262   0.355   0.527   5.215
 8788SOL    HW127263   0.263   0.501   5.245
 8788SOL    HW227264   0.422   0.469   5.261
 8789SOL     OW27265   0.068   4.108   5.384
 8789SOL    HW127266   0.049   4.092   5.287
 8789SOL    HW227267   0.014   4.045   5.439
 8790SOL     OW27268   6.126   2.495   0.113
 8790SOL    HW127269   6.094   2.408   0.076
 8790SOL    HW227270   6.158   2.482   0.206
 8791SOL     OW27271   4.518   6.128   5.371
 8791SOL    HW127272   4.531   6.055   5.438
 8791SOL    HW227273   4.553   6.214   5.408
 8792SOL     OW27274   4.330   4.905   1.462
 8792SOL    HW127275   4.273   4.918   1.543
 8792SOL    HW227276   4.277   4.860   1.390
 8793SOL     OW27277   1.262   5.539   3.962
 8793SOL    HW127278   1.172   5.578   3.943
 8793SOL    HW227279   1.332   5.608   3.943
 8794SOL     OW27280   6.523   1.185   2.609
 8794SOL    HW127281   6.484   1.093   2.605
 8794SOL    HW227282   6.529   1.214   2.705
 8795SOL     OW27283   1.513   5.116   5.165
 8795SOL    HW127284   1.584   5.181   5.141
 8795SOL    HW227285   1.548   5.051   5.233
 8796SOL     OW27286   6.602   3.365   3.521
 8796SOL    HW127287   6.526   3.358   3.456
 8796SOL    HW227288   6.639   3.458   3.520
 8797SOL     OW27289   6.714   7.005   3.188
 8797SOL    HW127290   6.782   6.965   3.250
 8797SOL    HW227291   6.624   7.005   3.232
 8798SOL     OW27292   4.485   6.542   4.900
 8798SOL    HW127293   4.386   6.534   4.915
 8798SOL    HW227294   4.502   6.613   4.832
 8799SOL     OW27295   2.198   5.257   2.016
 8799SOL    HW127296   2.133   5.311   2.069
 8799SOL    HW227297   2.281   5.311   1.999
 8800SOL     OW27298   6.918   5.914   5.526
 8800SOL    HW127299   6.847   5.894   5.594
 8800SOL    HW227300   6.944   5.829   5.480
 8801SOL     OW27301   6.388   2.122   4.859
 8801SOL    HW127302   6.423   2.068   4.935
 8801SOL    HW227303   6.402   2.072   4.773
 8802SOL     OW27304   1.295   5.961   5.938
 8802SOL    HW127305   1.217   5.977   5.998
 8802SOL    HW227306   1.371   6.020   5.965
 8803SOL     OW27307   6.192   0.710   0.056
 8803SOL    HW127308   6.193   0.692   6.987
 8803SOL    HW227309   6.246   0.792   0.075
 8804SOL     OW27310   1.911   5.852   1.083
 8804SOL    HW127311   1.881   5.838   0.989
 8804SOL    HW227312   2.010   5.866   1.085
 8805SOL     OW27313   4.828   5.739   3.189
 8805SOL    HW127314   4.787   5.666   3.243
 8805SOL    HW227315   4.900   5.783   3.242
 8806SOL     OW27316   2.683   6.084   0.261
 8806SOL    HW127317   2.643   6.118   0.346
 8806SOL    HW227318   2.737   6.158   0.218
 8807SOL     OW27319   4.842   2.752   0.731
 8807SOL    HW127320   4.863   2.691   0.807
 8807SOL    HW227321   4.796   2.701   0.659
 8808SOL     OW27322   1.993   2.716   0.437
 8808SOL    HW127323   2.077   2.742   0.484
 8808SOL    HW227324   1.954   2.635   0.480
 8809SOL     OW27325   2.039   4.031   3.611
 8809SOL    HW127326   2.015   3.973   3.689
 8809SOL    HW227327   1.988   4.000   3.530
 8810SOL     OW27328   6.899   1.459   5.902
 8810SOL    HW127329   6.999   1.462   5.903
 8810SOL    HW227330   6.863   1.521   5.971
 8811SOL     OW27331   4.401   0.038   2.796
 8811SOL    HW127332   4.381   0.126   2.755
 8811SOL    HW227333   4.499   0.019   2.790
 8812SOL     OW27334   3.686   0.955   6.284
 8812SOL    HW127335   3.662   0.888   6.354
 8812SOL    HW227336   3.717   0.907   6.201
 8813SOL     OW27337   2.023   4.314   2.903
 8813SOL    HW127338   1.987   4.222   2.893
 8813SOL    HW227339   2.121   4.314   2.884
 8814SOL     OW27340   5.867   6.965   0.313
 8814SOL    HW127341   5.857   0.025   0.270
 8814SOL    HW227342   5.932   6.911   0.259
 8815SOL     OW27343   5.221   0.936   0.956
 8815SOL    HW127344   5.307   0.949   1.004
 8815SOL    HW227345   5.230   0.966   0.861
 8816SOL     OW27346   0.329   6.402   5.876
 8816SOL    HW127347   0.276   6.380   5.957
 8816SOL    HW227348   0.304   6.341   5.801
 8817SOL     OW27349   1.222   3.268   5.136
 8817SOL    HW127350   1.269   3.312   5.059
 8817SOL    HW227351   1.211   3.335   5.210
 8818SOL     OW27352   1.970   6.653   3.821
 8818SOL    HW127353   1.943   6.678   3.914
 8818SOL    HW227354   2.048   6.590   3.824
 8819SOL     OW27355   5.645   4.219   5.929
 8819SOL    HW127356   5.594   4.281   5.869
 8819SOL    HW227357   5.710   4.167   5.874
 8820SOL     OW27358   3.566   1.267   4.824
 8820SOL    HW127359   3.589   1.177   4.861
 8820SOL    HW227360   3.628   1.288   4.748
 8821SOL     OW27361   1.579   4.928   1.267
 8821SOL    HW127362   1.654   4.869   1.295
 8821SOL    HW227363   1.581   5.013   1.320
 8822SOL     OW27364   6.612   6.888   4.198
 8822SOL    HW127365   6.544   6.910   4.267
 8822SOL    HW227366   6.611   6.957   4.126
 8823SOL     OW27367   2.640   1.508   3.337
 8823SOL    HW127368   2.632   1.427   3.280
 8823SOL    HW227369   2.737   1.525   3.358
 8824SOL     OW27370   1.592   0.258   0.761
 8824SOL    HW127371   1.569   0.345   0.803
 8824SOL    HW227372   1.510   0.217   0.722
 8825SOL     OW27373   0.262   0.407   0.780
 8825SOL    HW127374   0.313   0.477   0.830
 8825SOL    HW227375   0.195   0.364   0.842
 8826SOL     OW27376   0.759   3.744   0.949
 8826SOL    HW127377   0.788   3.689   1.027
 8826SOL    HW227378   0.804   3.833   0.952
 8827SOL     OW27379   4.237   0.313   2.346
 8827SOL    HW127380   4.139   0.324   2.331
 8827SOL    HW227381   4.253   0.274   2.437
 8828SOL     OW27382   4.524   3.634   5.848
 8828SOL    HW127383   4.537   3.644   5.750
 8828SOL    HW227384   4.426   3.623   5.868
 8829SOL     OW27385   0.269   1.540   2.483
 8829SOL    HW127386   0.214   1.471   2.435
 8829SOL    HW227387   0.209   1.610   2.520
 8830SOL     OW27388   2.607   1.675   2.917
 8830SOL    HW127389   2.578   1.720   3.001
 8830SOL    HW227390   2.531   1.621   2.880
 8831SOL     OW27391   0.248   2.048   2.602
 8831SOL    HW127392   0.308   2.071   2.525
 8831SOL    HW227393   0.284   1.968   2.650
 8832SOL     OW27394   6.496   0.100   3.862
 8832SOL    HW127395   6.466   0.010   3.833
 8832SOL    HW227396   6.551   0.142   3.789
 8833SOL     OW27397   3.987   2.222   0.991
 8833SOL    HW127398   4.042   2.213   1.074
 8833SOL    HW227399   3.892   2.197   1.012
 8834SOL     OW27400   5.861   3.951   5.587
 8834SOL    HW127401   5.771   3.935   5.547
 8834SOL    HW227402   5.930   3.948   5.515
 8835SOL     OW27403   5.787   0.588   5.917
 8835SOL    HW127404   5.770   0.493   5.892
 8835SOL    HW227405   5.880   0.613   5.890
 8836SOL     OW27406   5.616   2.438   6.733
 8836SOL    HW127407   5.649   2.439   6.828
 8836SOL    HW227408   5.519   2.412   6.732
 8837SOL     OW27409   0.104   6.692   1.953
 8837SOL    HW127410   0.080   6.613   2.010
 8837SOL    HW227411   0.040   6.766   1.969
 8838SOL     OW27412   0.656   3.999   2.892
 8838SOL    HW127413   0.723   4.031   2.959
 8838SOL    HW227414   0.689   3.916   2.848
 8839SOL     OW27415   5.518   5.669   2.485
 8839SOL    HW127416   5.612   5.656   2.517
 8839SOL    HW227417   5.515   5.747   2.423
 8840SOL     OW27418   0.461   0.861   1.650
 8840SOL    HW127419   0.369   0.835   1.681
 8840SOL    HW227420   0.483   0.812   1.566
 8841SOL     OW27421   3.854   0.877   1.897
 8841SOL    HW127422   3.865   0.795   1.952
 8841SOL    HW227423   3.940   0.929   1.895
 8842SOL     OW27424   3.626   3.797   4.033
 8842SOL    HW127425   3.537   3.838   4.054
 8842SOL    HW227426   3.670   3.768   4.118
 8843SOL     OW27427   2.001   3.683   5.623
 8843SOL    HW127428   2.025   3.596   5.579
 8843SOL    HW227429   2.000   3.670   5.723
 8844SOL     OW27430   6.239   1.895   5.004
 8844SOL    HW127431   6.209   1.869   5.096
 8844SOL    HW227432   6.335   1.920   5.007
 8845SOL     OW27433   2.089   5.405   1.181
 8845SOL    HW127434   2.028   5.484   1.176
 8845SOL    HW227435   2.171   5.422   1.127
 8846SOL     OW27436   5.106   4.032   3.895
 8846SOL    HW127437   5.014   4.015   3.862
 8846SOL    HW227438   5.171   3.975   3.844
 8847SOL     OW27439   1.852   2.335   3.034
 8847SOL    HW127440   1.834   2.236   3.030
 8847SOL    HW227441   1.950   2.351   3.021
 8848SOL     OW27442   3.102   1.863   1.459
 8848SOL    HW127443   3.023   1.804   1.477
 8848SOL    HW227444   3.073   1.959   1.459
 8849SOL     OW27445   3.161   5.607   4.386
 8849SOL    HW127446   3.155   5.694   4.338
 8849SOL    HW227447   3.110   5.612   4.471
 8850SOL     OW27448   2.570   1.917   0.746
 8850SOL    HW127449   2.664   1.893   0.767
 8850SOL    HW227450   2.508   1.855   0.794
 8851SOL     OW27451   1.384   4.243   3.171
 8851SOL    HW127452   1.436   4.312   3.120
 8851SOL    HW227453   1.300   4.284   3.207
 8852SOL     OW27454   5.433   2.767   6.289
 8852SOL    HW127455   5.371   2.737   6.361
 8852SOL    HW227456   5.380   2.810   6.216
 8853SOL     OW27457   4.005   1.820   5.334
 8853SOL    HW127458   3.906   1.821   5.320
 8853SOL    HW227459   4.048   1.765   5.262
 8854SOL     OW27460   1.423   0.783   6.038
 8854SOL    HW127461   1.342   0.764   5.982
 8854SOL    HW227462   1.395   0.833   6.121
 8855SOL     OW27463   6.105   5.794   6.608
 8855SOL    HW127464   6.083   5.875   6.554
 8855SOL    HW227465   6.203   5.775   6.602
 8856SOL     OW27466   6.367   0.727   4.456
 8856SOL    HW127467   6.309   0.692   4.530
 8856SOL    HW227468   6.459   0.688   4.464
 8857SOL     OW27469   6.614   1.739   3.397
 8857SOL    HW127470   6.614   1.649   3.353
 8857SOL    HW227471   6.567   1.804   3.338
 8858SOL     OW27472   0.887   4.123   5.787
 8858SOL    HW127473   0.813   4.102   5.723
 8858SOL    HW227474   0.975   4.107   5.742
 8859SOL     OW27475   0.774   6.633   5.348
 8859SOL    HW127476   0.678   6.653   5.368
 8859SOL    HW227477   0.819   6.715   5.311
 8860SOL     OW27478   1.441   2.836   2.570
 8860SOL    HW127479   1.358   2.782   2.558
 8860SOL    HW227480   1.426   2.903   2.643
 8861SOL     OW27481   3.362   2.852   6.858
 8861SOL    HW127482   3.328   2.899   6.776
 8861SOL    HW227483   3.404   2.918   6.920
 8862SOL     OW27484   5.874   1.588   4.985
 8862SOL    HW127485   5.827   1.531   4.918
 8862SOL    HW227486   5.914   1.668   4.939
 8863SOL     OW27487   1.604   5.441   4.775
 8863SOL    HW127488   1.698   5.472   4.762
 8863SOL    HW227489   1.581   5.445   4.872
 8864SOL     OW27490   2.086   3.472   6.487
 8864SOL    HW127491   1.990   3.501   6.478
 8864SOL    HW227492   2.140   3.546   6.528
 8865SOL     OW27493   2.555   1.592   4.958
 8865SOL    HW127494   2.575   1.681   4.999
 8865SOL    HW227495   2.485   1.603   4.888
 8866SOL     OW27496   3.996   6.402   3.351
 8866SOL    HW127497   4.088   6.374   3.378
 8866SOL    HW227498   3.938   6.410   3.433
 8867SOL     OW27499   6.003   2.464   2.581
 8867SOL    HW127500   5.984   2.440   2.486
 8867SOL    HW227501   6.011   2.381   2.636
 8868SOL     OW27502   4.920   3.749   0.412
 8868SOL    HW127503   4.889   3.718   0.323
 8868SOL    HW227504   5.020   3.739   0.419
 8869SOL     OW27505   4.832   3.926   3.602
 8869SOL    HW127506   4.780   4.012   3.598
 8869SOL    HW227507   4.815   3.881   3.689
 8870SOL     OW27508   3.815   1.120   1.041
 8870SOL    HW127509   3.732   1.117   0.986
 8870SOL    HW227510   3.880   1.183   1.001
 8871SOL     OW27511   1.476   1.556   3.751
 8871SOL    HW127512   1.487   1.556   3.652
 8871SOL    HW227513   1.564   1.538   3.795
 8872SOL     OW27514   1.874   4.618   3.821
 8872SOL    HW127515   1.786   4.603   3.776
 8872SOL    HW227516   1.935   4.541   3.803
 8873SOL     OW27517   0.301   6.042   3.153
 8873SOL    HW127518   0.295   6.032   3.054
 8873SOL    HW227519   0.237   5.980   3.198
 8874SOL     OW27520   1.900   6.675   1.209
 8874SOL    HW127521   1.809   6.716   1.211
 8874SOL    HW227522   1.918   6.628   1.296
 8875SOL     OW27523   1.297   2.541   4.584
 8875SOL    HW127524   1.236   2.577   4.513
 8875SOL    HW227525   1.389   2.577   4.571
 8876SOL     OW27526   7.000   1.139   4.669
 8876SOL    HW127527   6.959   1.055   4.703
 8876SOL    HW227528   0.041   1.170   4.732
 8877SOL     OW27529   3.163   0.724   4.253
 8877SOL    HW127530   3.087   0.681   4.203
 8877SOL    HW227531   3.155   0.823   4.248
 8878SOL     OW27532   0.034   4.752   0.790
 8878SOL    HW127533   0.064   4.665   0.828
 8878SOL    HW227534   7.026   4.738   0.699
 8879SOL     OW27535   5.065   5.751   0.523
 8879SOL    HW127536   4.969   5.729   0.538
 8879SOL    HW227537   5.080   5.768   0.425
 8880SOL     OW27538   6.806   5.356   4.668
 8880SOL    HW127539   6.892   5.382   4.713
 8880SOL    HW227540   6.825   5.289   4.596
 8881SOL     OW27541   6.190   1.157   2.835
 8881SOL    HW127542   6.245   1.223   2.885
 8881SOL    HW227543   6.231   1.066   2.842
 8882SOL     OW27544   5.320   0.881   6.793
 8882SOL    HW127545   5.335   0.882   6.694
 8882SOL    HW227546   5.299   0.974   6.825
 8883SOL     OW27547   0.460   1.257   6.138
 8883SOL    HW127548   0.387   1.193   6.113
 8883SOL    HW227549   0.470   1.325   6.067
 8884SOL     OW27550   5.804   6.505   6.347
 8884SOL    HW127551   5.720   6.531   6.299
 8884SOL    HW227552   5.786   6.498   6.445
 8885SOL     OW27553   6.351   3.808   1.499
 8885SOL    HW127554   6.379   3.810   1.595
 8885SOL    HW227555   6.257   3.773   1.493
 8886SOL     OW27556   2.594   6.542   5.442
 8886SOL    HW127557   2.604   6.512   5.537
 8886SOL    HW227558   2.501   6.575   5.427
 8887SOL     OW27559   2.852   1.199   0.785
 8887SOL    HW127560   2.820   1.121   0.731
 8887SOL    HW227561   2.910   1.256   0.727
 8888SOL     OW27562   0.980   2.177   1.218
 8888SOL    HW127563   1.069   2.213   1.188
 8888SOL    HW227564   0.954   2.100   1.160
 8889SOL     OW27565   5.440   6.978   4.910
 8889SOL    HW127566   5.403   6.898   4.957
 8889SOL    HW227567   5.426   0.030   4.966
 8890SOL     OW27568   6.597   5.920   4.304
 8890SOL    HW127569   6.649   5.838   4.325
 8890SOL    HW227570   6.506   5.894   4.271
 8891SOL     OW27571   5.806   3.094   6.679
 8891SOL    HW127572   5.802   3.111   6.778
 8891SOL    HW227573   5.895   3.124   6.644
 8892SOL     OW27574   2.586   6.821   3.004
 8892SOL    HW127575   2.620   6.777   2.921
 8892SOL    HW227576   2.509   6.768   3.040
 8893SOL     OW27577   0.362   1.259   1.887
 8893SOL    HW127578   0.432   1.322   1.855
 8893SOL    HW227579   0.322   1.211   1.809
 8894SOL     OW27580   4.221   2.967   6.199
 8894SOL    HW127581   4.147   2.940   6.136
 8894SOL    HW227582   4.225   2.903   6.275
 8895SOL     OW27583   0.513   0.068   1.449
 8895SOL    HW127584   0.559   0.121   1.520
 8895SOL    HW227585   0.462   7.023   1.491
 8896SOL     OW27586   1.561   3.444   5.484
 8896SOL    HW127587   1.522   3.471   5.572
 8896SOL    HW227588   1.549   3.519   5.419
 8897SOL     OW27589   1.742   1.240   2.259
 8897SOL    HW127590   1.689   1.312   2.214
 8897SOL    HW227591   1.812   1.206   2.197
 8898SOL     OW27592   6.549   3.383   4.714
 8898SOL    HW127593   6.508   3.395   4.805
 8898SOL    HW227594   6.629   3.442   4.706
 8899SOL     OW27595   1.996   4.170   6.726
 8899SOL    HW127596   1.998   4.077   6.692
 8899SOL    HW227597   2.043   4.175   6.815
 8900SOL     OW27598   5.133   2.983   3.382
 8900SOL    HW127599   5.151   2.964   3.479
 8900SOL    HW227600   5.165   3.075   3.360
 8901SOL     OW27601   1.728   0.658   3.045
 8901SOL    HW127602   1.759   0.594   2.975
 8901SOL    HW227603   1.775   0.638   3.131
 8902SOL     OW27604   2.781   5.472   6.804
 8902SOL    HW127605   2.762   5.561   6.761
 8902SOL    HW227606   2.730   5.466   6.890
 8903SOL     OW27607   2.339   1.481   4.017
 8903SOL    HW127608   2.337   1.509   3.921
 8903SOL    HW227609   2.357   1.561   4.075
 8904SOL     OW27610   6.784   5.512   3.592
 8904SOL    HW127611   6.873   5.513   3.549
 8904SOL    HW227612   6.745   5.605   3.591
 8905SOL     OW27613   2.009   3.271   5.189
 8905SOL    HW127614   2.025   3.225   5.276
 8905SOL    HW227615   2.062   3.225   5.117
 8906SOL     OW27616   6.766   6.424   6.636
 8906SOL    HW127617   6.778   6.332   6.672
 8906SOL    HW227618   6.854   6.473   6.637
 8907SOL     OW27619   3.314   2.597   5.367
 8907SOL    HW127620   3.273   2.520   5.319
 8907SOL    HW227621   3.263   2.616   5.451
 8908SOL     OW27622   1.699   2.227   0.371
 8908SOL    HW127623   1.669   2.278   0.451
 8908SOL    HW227624   1.689   2.129   0.387
 8909SOL     OW27625   3.159   0.142   5.612
 8909SOL    HW127626   3.173   0.046   5.634
 8909SOL    HW227627   3.233   0.175   5.554
 8910SOL     OW27628   2.780   3.513   5.822
 8910SOL    HW127629   2.713   3.545   5.889
 8910SOL    HW227630   2.787   3.413   5.826
 8911SOL     OW27631   2.996   2.255   4.185
 8911SOL    HW127632   3.091   2.225   4.193
 8911SOL    HW227633   2.960   2.275   4.276
 8912SOL     OW27634   4.467   1.709   6.224
 8912SOL    HW127635   4.395   1.643   6.243
 8912SOL    HW227636   4.426   1.798   6.202
 8913SOL     OW27637   5.414   3.920   1.594
 8913SOL    HW127638   5.388   4.010   1.629
 8913SOL    HW227639   5.362   3.849   1.643
 8914SOL     OW27640   4.447   1.298   5.180
 8914SOL    HW127641   4.445   1.211   5.230
 8914SOL    HW227642   4.364   1.307   5.126
 8915SOL     OW27643   1.789   3.225   3.892
 8915SOL    HW127644   1.748   3.287   3.958
 8915SOL    HW227645   1.837   3.278   3.822
 8916SOL     OW27646   0.448   4.309   2.413
 8916SOL    HW127647   0.354   4.286   2.386
 8916SOL    HW227648   0.512   4.260   2.353
 8917SOL     OW27649   6.074   5.356   6.803
 8917SOL    HW127650   6.156   5.353   6.859
 8917SOL    HW227651   5.995   5.330   6.858
 8918SOL     OW27652   6.066   6.385   0.039
 8918SOL    HW127653   6.135   6.351   0.103
 8918SOL    HW227654   6.095   6.365   6.975
 8919SOL     OW27655   3.728   3.793   0.664
 8919SOL    HW127656   3.676   3.848   0.728
 8919SOL    HW227657   3.823   3.784   0.697
 8920SOL     OW27658   6.475   5.905   6.014
 8920SOL    HW127659   6.538   5.979   5.991
 8920SOL    HW227660   6.442   5.917   6.108
 8921SOL     OW27661   1.306   1.037   3.354
 8921SOL    HW127662   1.312   0.968   3.426
 8921SOL    HW227663   1.311   0.992   3.264
 8922SOL     OW27664   2.707   4.993   1.053
 8922SOL    HW127665   2.731   4.973   0.958
 8922SOL    HW227666   2.700   4.907   1.104
 8923SOL     OW27667   1.711   3.727   6.965
 8923SOL    HW127668   1.782   3.668   6.926
 8923SOL    HW227669   1.626   3.675   6.974
 8924SOL     OW27670   2.664   5.347   5.718
 8924SOL    HW127671   2.569   5.321   5.701
 8924SOL    HW227672   2.667   5.441   5.753
 8925SOL     OW27673   0.654   0.045   2.173
 8925SOL    HW127674   0.667   0.139   2.142
 8925SOL    HW227675   0.724   7.016   2.132
 8926SOL     OW27676   5.885   2.475   1.865
 8926SOL    HW127677   5.789   2.460   1.885
 8926SOL    HW227678   5.929   2.388   1.844
 8927SOL     OW27679   2.461   2.563   4.875
 8927SOL    HW127680   2.425   2.597   4.962
 8927SOL    HW227681   2.531   2.494   4.894
 8928SOL     OW27682   0.310   0.744   5.732
 8928SOL    HW127683   0.220   0.699   5.726
 8928SOL    HW227684   0.337   0.776   5.641
 8929SOL     OW27685   0.459   3.656   3.901
 8929SOL    HW127686   0.395   3.723   3.937
 8929SOL    HW227687   0.553   3.691   3.908
 8930SOL     OW27688   1.594   4.952   5.372
 8930SOL    HW127689   1.583   4.995   5.462
 8930SOL    HW227690   1.548   4.863   5.372
 8931SOL     OW27691   4.782   2.518   1.342
 8931SOL    HW127692   4.778   2.588   1.271
 8931SOL    HW227693   4.695   2.513   1.390
 8932SOL     OW27694   5.540   6.628   6.294
 8932SOL    HW127695   5.457   6.666   6.253
 8932SOL    HW227696   5.610   6.699   6.298
 8933SOL     OW27697   1.238   0.971   5.295
 8933SOL    HW127698   1.140   0.952   5.292
 8933SOL    HW227699   1.265   1.019   5.211
 8934SOL     OW27700   3.290   5.361   2.806
 8934SOL    HW127701   3.236   5.316   2.877
 8934SOL    HW227702   3.357   5.296   2.769
 8935SOL     OW27703   4.899   3.285   2.364
 8935SOL    HW127704   4.966   3.325   2.301
 8935SOL    HW227705   4.861   3.356   2.423
 8936SOL     OW27706   0.375   4.079   1.214
 8936SOL    HW127707   0.405   4.171   1.188
 8936SOL    HW227708   0.407   4.059   1.307
 8937SOL     OW27709   0.359   0.106   4.136
 8937SOL    HW127710   0.346   0.169   4.060
 8937SOL    HW227711   0.317   0.144   4.219
 8938SOL     OW27712   5.939   0.903   0.454
 8938SOL    HW127713   5.932   0.863   0.546
 8938SOL    HW227714   5.984   0.839   0.393
 8939SOL     OW27715   6.707   2.826   4.636
 8939SOL    HW127716   6.766   2.897   4.597
 8939SOL    HW227717   6.618   2.827   4.591
 8940SOL     OW27718   6.427   3.072   0.250
 8940SOL    HW127719   6.398   3.044   0.342
 8940SOL    HW227720   6.520   3.038   0.233
 8941SOL     OW27721   5.176   2.203   2.111
 8941SOL    HW127722   5.109   2.266   2.072
 8941SOL    HW227723   5.128   2.128   2.158
 8942SOL     OW27724   6.937   5.044   3.847
 8942SOL    HW127725   7.021   4.997   3.820
 8942SOL    HW227726   6.928   5.129   3.796
 8943SOL     OW27727   4.445   3.588   0.091
 8943SOL    HW127728   4.484   3.626   0.175
 8943SOL    HW227729   4.453   3.655   0.018
 8944SOL     OW27730   4.631   5.393   4.162
 8944SOL    HW127731   4.579   5.313   4.131
 8944SOL    HW227732   4.726   5.367   4.178
 8945SOL     OW27733   5.804   3.570   5.108
 8945SOL    HW127734   5.878   3.550   5.044
 8945SOL    HW227735   5.749   3.646   5.073
 8946SOL     OW27736   4.833   0.881   3.961
 8946SOL    HW127737   4.752   0.886   4.018
 8946SOL    HW227738   4.913   0.912   4.013
 8947SOL     OW27739   0.995   4.912   6.556
 8947SOL    HW127740   0.941   4.831   6.577
 8947SOL    HW227741   1.064   4.890   6.487
 8948SOL     OW27742   6.080   0.003   4.276
 8948SOL    HW127743   6.076   0.032   4.180
 8948SOL    HW227744   5.987   7.012   4.308
 8949SOL     OW27745   3.578   6.128   0.166
 8949SOL    HW127746   3.668   6.149   0.127
 8949SOL    HW227747   3.514   6.105   0.092
 8950SOL     OW27748   4.404   4.041   1.399
 8950SOL    HW127749   4.491   4.085   1.379
 8950SOL    HW227750   4.334   4.111   1.416
 8951SOL     OW27751   2.287   1.232   4.131
 8951SOL    HW127752   2.192   1.201   4.130
 8951SOL    HW227753   2.299   1.306   4.065
 8952SOL     OW27754   2.226   4.758   3.229
 8952SOL    HW127755   2.170   4.821   3.282
 8952SOL    HW227756   2.262   4.806   3.149
 8953SOL     OW27757   2.623   5.320   2.207
 8953SOL    HW127758   2.704   5.289   2.158
 8953SOL    HW227759   2.552   5.250   2.204
 8954SOL     OW27760   1.223   5.806   4.524
 8954SOL    HW127761   1.212   5.736   4.595
 8954SOL    HW227762   1.134   5.848   4.505
 8955SOL     OW27763   5.993   3.167   3.050
 8955SOL    HW127764   5.989   3.108   2.970
 8955SOL    HW227765   5.909   3.157   3.103
 8956SOL     OW27766   0.787   6.840   6.586
 8956SOL    HW127767   0.882   6.824   6.614
 8956SOL    HW227768   0.780   6.828   6.487
 8957SOL     OW27769   1.439   5.609   2.197
 8957SOL    HW127770   1.475   5.571   2.282
 8957SOL    HW227771   1.403   5.536   2.139
 8958SOL     OW27772   1.562   3.931   5.666
 8958SOL    HW127773   1.641   3.875   5.642
 8958SOL    HW227774   1.478   3.880   5.649
 8959SOL     OW27775   0.753   3.491   1.899
 8959SOL    HW127776   0.716   3.489   1.992
 8959SOL    HW227777   0.822   3.419   1.888
 8960SOL     OW27778   6.582   3.578   4.195
 8960SOL    HW127779   6.648   3.623   4.135
 8960SOL    HW227780   6.578   3.481   4.174
 8961SOL     OW27781   2.728   6.411   4.618
 8961SOL    HW127782   2.737   6.314   4.641
 8961SOL    HW227783   2.649   6.423   4.557
 8962SOL     OW27784   1.163   5.582   1.348
 8962SOL    HW127785   1.223   5.596   1.269
 8962SOL    HW227786   1.068   5.573   1.316
 8963SOL     OW27787   3.455   6.030   4.355
 8963SOL    HW127788   3.423   5.958   4.416
 8963SOL    HW227789   3.377   6.073   4.310
 8964SOL     OW27790   6.429   3.688   3.599
 8964SOL    HW127791   6.364   3.757   3.632
 8964SOL    HW227792   6.379   3.616   3.551
 8965SOL     OW27793   4.457   4.922   0.587
 8965SOL    HW127794   4.363   4.953   0.576
 8965SOL    HW227795   4.462   4.824   0.570
 8966SOL     OW27796   4.939   5.055   6.189
 8966SOL    HW127797   4.958   4.983   6.122
 8966SOL    HW227798   4.988   5.035   6.274
 8967SOL     OW27799   3.363   0.809   2.710
 8967SOL    HW127800   3.407   0.744   2.773
 8967SOL    HW227801   3.432   0.870   2.672
 8968SOL     OW27802   2.922   4.727   1.549
 8968SOL    HW127803   2.998   4.687   1.601
 8968SOL    HW227804   2.868   4.786   1.608
 8969SOL     OW27805   6.536   0.610   3.319
 8969SOL    HW127806   6.599   0.686   3.325
 8969SOL    HW227807   6.496   0.606   3.227
 8970SOL     OW27808   1.030   1.465   6.315
 8970SOL    HW127809   0.963   1.399   6.281
 8970SOL    HW227810   1.041   1.538   6.247
 8971SOL     OW27811   4.309   5.946   0.917
 8971SOL    HW127812   4.321   5.950   1.016
 8971SOL    HW227813   4.293   6.038   0.882
 8972SOL     OW27814   5.654   5.201   0.408
 8972SOL    HW127815   5.647   5.288   0.458
 8972SOL    HW227816   5.743   5.160   0.426
 8973SOL     OW27817   1.146   2.225   2.052
 8973SOL    HW127818   1.054   2.242   2.087
 8973SOL    HW227819   1.182   2.141   2.092
 8974SOL     OW27820   2.255   4.135   4.383
 8974SOL    HW127821   2.240   4.141   4.285
 8974SOL    HW227822   2.240   4.041   4.414
 8975SOL     OW27823   0.464   0.263   6.549
 8975SOL    HW127824   0.383   0.248   6.606
 8975SOL    HW227825   0.531   0.317   6.599
 8976SOL     OW27826   6.538   0.246   1.738
 8976SOL    HW127827   6.519   0.193   1.654
 8976SOL    HW227828   6.599   0.322   1.716
 8977SOL     OW27829   0.125   5.073   6.317
 8977SOL    HW127830   0.176   5.106   6.396
 8977SOL    HW227831   0.030   5.105   6.323
 8978SOL     OW27832   6.071   5.999   5.533
 8978SOL    HW127833   6.133   6.065   5.491
 8978SOL    HW227834   6.076   6.006   5.632
 8979SOL     OW27835   0.395   5.656   6.593
 8979SOL    HW127836   0.432   5.742   6.625
 8979SOL    HW227837   0.393   5.590   6.668
 8980SOL     OW27838   4.151   1.704   5.129
 8980SOL    HW127839   4.231   1.762   5.138
 8980SOL    HW227840   4.136   1.683   5.032
 8981SOL     OW27841   4.471   2.307   6.421
 8981SOL    HW127842   4.468   2.265   6.512
 8981SOL    HW227843   4.478   2.406   6.430
 8982SOL     OW27844   6.300   1.059   2.142
 8982SOL    HW127845   6.310   1.021   2.051
 8982SOL    HW227846   6.209   1.099   2.153
 8983SOL     OW27847   1.009   5.285   2.756
 8983SOL    HW127848   1.009   5.242   2.666
 8983SOL    HW227849   1.102   5.313   2.779
 8984SOL     OW27850   5.951   0.588   4.591
 8984SOL    HW127851   5.903   0.666   4.552
 8984SOL    HW227852   5.896   0.505   4.576
 8985SOL     OW27853   4.505   1.752   0.488
 8985SOL    HW127854   4.410   1.774   0.463
 8985SOL    HW227855   4.516   1.760   0.587
 8986SOL     OW27856   6.267   4.289   1.971
 8986SOL    HW127857   6.337   4.314   2.038
 8986SOL    HW227858   6.283   4.339   1.886
 8987SOL     OW27859   2.554   6.714   1.443
 8987SOL    HW127860   2.585   6.779   1.513
 8987SOL    HW227861   2.618   6.638   1.437
 8988SOL     OW27862   2.340   5.396   1.048
 8988SOL    HW127863   2.360   5.455   0.969
 8988SOL    HW227864   2.376   5.304   1.031
 8989SOL     OW27865   5.134   2.491   2.709
 8989SOL    HW127866   5.126   2.393   2.688
 8989SOL    HW227867   5.059   2.518   2.769
 8990SOL     OW27868   3.725   6.227   1.049
 8990SOL    HW127869   3.648   6.280   1.015
 8990SOL    HW227870   3.802   6.236   0.984
 8991SOL     OW27871   2.069   2.261   0.793
 8991SOL    HW127872   2.043   2.177   0.746
 8991SOL    HW227873   2.162   2.286   0.766
 8992SOL     OW27874   0.419   3.108   0.176
 8992SOL    HW127875   0.396   3.099   0.079
 8992SOL    HW227876   0.339   3.142   0.226
 8993SOL     OW27877   5.307   2.180   3.372
 8993SOL    HW127878   5.395   2.193   3.418
 8993SOL    HW227879   5.274   2.087   3.390
 8994SOL     OW27880   1.608   5.688   4.032
 8994SOL    HW127881   1.646   5.682   3.940
 8994SOL    HW227882   1.520   5.737   4.028
 8995SOL     OW27883   1.794   3.398   5.592
 8995SOL    HW127884   1.719   3.409   5.527
 8995SOL    HW227885   1.775   3.453   5.674
 8996SOL     OW27886   0.440   3.975   2.013
 8996SOL    HW127887   0.363   3.964   2.076
 8996SOL    HW227888   0.416   4.040   1.941
 8997SOL     OW27889   4.781   1.464   5.955
 8997SOL    HW127890   4.749   1.525   6.027
 8997SOL    HW227891   4.747   1.371   5.973
 8998SOL     OW27892   1.357   3.135   5.504
 8998SOL    HW127893   1.405   3.139   5.417
 8998SOL    HW227894   1.326   3.041   5.522
 8999SOL     OW27895   5.324   1.588   6.046
 8999SOL    HW127896   5.244   1.533   6.071
 8999SOL    HW227897   5.311   1.626   5.954
 9000SOL     OW27898   3.470   3.916   0.502
 9000SOL    HW127899   3.559   3.889   0.540
 9000SOL    HW227900   3.481   4.002   0.451
 9001SOL     OW27901   2.334   4.922   3.680
 9001SOL    HW127902   2.366   4.903   3.773
 9001SOL    HW227903   2.294   5.013   3.676
 9002SOL     OW27904   5.798   4.633   5.535
 9002SOL    HW127905   5.740   4.559   5.502
 9002SOL    HW227906   5.863   4.659   5.464
 9003SOL     OW27907   6.368   2.768   0.094
 9003SOL    HW127908   6.426   2.701   0.141
 9003SOL    HW227909   6.318   2.822   0.162
 9004SOL     OW27910   5.195   6.549   1.190
 9004SOL    HW127911   5.135   6.556   1.269
 9004SOL    HW227912   5.279   6.501   1.216
 9005SOL     OW27913   4.632   2.179   3.276
 9005SOL    HW127914   4.590   2.132   3.199
 9005SOL    HW227915   4.585   2.156   3.361
 9006SOL     OW27916   1.786   5.149   0.978
 9006SOL    HW127917   1.883   5.128   0.971
 9006SOL    HW227918   1.765   5.177   1.072
 9007SOL     OW27919   3.265   5.422   4.213
 9007SOL    HW127920   3.240   5.442   4.119
 9007SOL    HW227921   3.230   5.494   4.273
 9008SOL     OW27922   0.063   4.031   1.945
 9008SOL    HW127923   0.065   4.070   2.037
 9008SOL    HW227924   0.093   4.101   1.880
 9009SOL     OW27925   2.355   6.609   0.440
 9009SOL    HW127926   2.303   6.692   0.423
 9009SOL    HW227927   2.420   6.594   0.366
 9010SOL     OW27928   0.573   6.489   4.949
 9010SOL    HW127929   0.580   6.390   4.960
 9010SOL    HW227930   0.481   6.513   4.918
 9011SOL     OW27931   3.960   1.927   1.093
 9011SOL    HW127932   3.978   1.864   1.170
 9011SOL    HW227933   3.865   1.958   1.097
 9012SOL     OW27934   0.820   4.966   1.213
 9012SOL    HW127935   0.740   5.015   1.179
 9012SOL    HW227936   0.808   4.944   1.309
 9013SOL     OW27937   6.150   6.453   4.356
 9013SOL    HW127938   6.241   6.492   4.362
 9013SOL    HW227939   6.147   6.366   4.406
 9014SOL     OW27940   1.033   0.935   0.768
 9014SOL    HW127941   0.991   0.994   0.699
 9014SOL    HW227942   1.088   0.865   0.722
 9015SOL     OW27943   0.165   1.420   5.845
 9015SOL    HW127944   0.159   1.504   5.791
 9015SOL    HW227945   0.183   1.343   5.783
 9016SOL     OW27946   6.690   6.060   5.912
 9016SOL    HW127947   6.736   6.014   5.988
 9016SOL    HW227948   6.725   6.153   5.904
 9017SOL     OW27949   5.785   2.364   3.768
 9017SOL    HW127950   5.789   2.284   3.827
 9017SOL    HW227951   5.850   2.353   3.692
 9018SOL     OW27952   3.186   1.739   5.300
 9018SOL    HW127953   3.191   1.791   5.386
 9018SOL    HW227954   3.278   1.730   5.262
 9019SOL     OW27955   2.844   5.948   0.648
 9019SOL    HW127956   2.783   5.997   0.585
 9019SOL    HW227957   2.935   5.942   0.608
 9020SOL     OW27958   1.897   4.615   2.876
 9020SOL    HW127959   1.904   4.580   2.969
 9020SOL    HW227960   1.983   4.659   2.850
 9021SOL     OW27961   6.979   6.041   4.371
 9021SOL    HW127962   0.004   5.958   4.383
 9021SOL    HW227963   6.937   6.041   4.281
 9022SOL     OW27964   3.006   0.322   0.256
 9022SOL    HW127965   2.939   0.326   0.181
 9022SOL    HW227966   3.097   0.306   0.218
 9023SOL     OW27967   3.603   3.772   3.580
 9023SOL    HW127968   3.592   3.673   3.574
 9023SOL    HW227969   3.667   3.795   3.654
 9024SOL     OW27970   1.476   6.130   6.002
 9024SOL    HW127971   1.567   6.112   5.964
 9024SOL    HW227972   1.484   6.143   6.101
 9025SOL     OW27973   6.168   5.032   1.913
 9025SOL    HW127974   6.241   5.067   1.854
 9025SOL    HW227975   6.175   4.932   1.918
 9026SOL     OW27976   3.508   2.856   4.037
 9026SOL    HW127977   3.411   2.879   4.037
 9026SOL    HW227978   3.549   2.881   4.125
 9027SOL     OW27979   2.087   2.067   2.912
 9027SOL    HW127980   1.998   2.068   2.958
 9027SOL    HW227981   2.148   2.003   2.958
 9028SOL     OW27982   2.325   4.424   6.072
 9028SOL    HW127983   2.396   4.477   6.118
 9028SOL    HW227984   2.351   4.409   5.977
 9029SOL     OW27985   4.834   5.486   3.834
 9029SOL    HW127986   4.897   5.448   3.903
 9029SOL    HW227987   4.871   5.573   3.800
 9030SOL     OW27988   2.153   0.843   2.316
 9030SOL    HW127989   2.113   0.914   2.373
 9030SOL    HW227990   2.203   0.885   2.240
 9031SOL     OW27991   2.720   6.236   5.875
 9031SOL    HW127992   2.801   6.232   5.817
 9031SOL    HW227993   2.746   6.215   5.969
 9032SOL     OW27994   2.626   2.330   1.983
 9032SOL    HW127995   2.724   2.321   2.001
 9032SOL    HW227996   2.590   2.409   2.033
 9033SOL     OW27997   1.795   3.647   4.202
 9033SOL    HW127998   1.765   3.678   4.292
 9033SOL    HW227999   1.892   3.623   4.206
 9034SOL     OW28000   2.749   6.680   5.274
 9034SOL    HW128001   2.738   6.768   5.320
 9034SOL    HW228002   2.671   6.622   5.295
 9035SOL     OW28003   6.893   6.985   4.541
 9035SOL    HW128004   6.965   7.003   4.474
 9035SOL    HW228005   6.806   7.023   4.507
 9036SOL     OW28006   1.643   2.347   5.583
 9036SOL    HW128007   1.680   2.372   5.493
 9036SOL    HW228008   1.543   2.347   5.579
 9037SOL     OW28009   2.319   3.884   6.446
 9037SOL    HW128010   2.335   3.797   6.400
 9037SOL    HW228011   2.250   3.936   6.396
 9038SOL     OW28012   5.380   0.342   5.515
 9038SOL    HW128013   5.311   0.407   5.546
 9038SOL    HW228014   5.450   0.390   5.463
 9039SOL     OW28015   2.269   4.979   5.219
 9039SOL    HW128016   2.360   4.940   5.233
 9039SOL    HW228017   2.216   4.918   5.159
 9040SOL     OW28018   2.671   1.458   2.672
 9040SOL    HW128019   2.708   1.516   2.598
 9040SOL    HW228020   2.602   1.397   2.635
 9041SOL     OW28021   1.156   2.340   1.535
 9041SOL    HW128022   1.067   2.323   1.492
 9041SOL    HW228023   1.151   2.315   1.631
 9042SOL     OW28024   3.046   5.311   3.234
 9042SOL    HW128025   3.030   5.401   3.195
 9042SOL    HW228026   3.131   5.312   3.287
 9043SOL     OW28027   1.323   2.547   6.429
 9043SOL    HW128028   1.224   2.545   6.436
 9043SOL    HW228029   1.358   2.453   6.423
 9044SOL     OW28030   5.927   0.244   0.776
 9044SOL    HW128031   5.974   0.180   0.836
 9044SOL    HW228032   5.833   0.256   0.808
 9045SOL     OW28033   3.557   0.264   3.185
 9045SOL    HW128034   3.460   0.277   3.207
 9045SOL    HW228035   3.582   0.168   3.198
 9046SOL     OW28036   3.243   4.271   5.305
 9046SOL    HW128037   3.213   4.215   5.382
 9046SOL    HW228038   3.341   4.289   5.314
 9047SOL     OW28039   1.353   4.371   4.139
 9047SOL    HW128040   1.344   4.272   4.129
 9047SOL    HW228041   1.349   4.414   4.048
 9048SOL     OW28042   1.858   3.958   5.126
 9048SOL    HW128043   1.872   3.869   5.083
 9048SOL    HW228044   1.946   3.994   5.157
 9049SOL     OW28045   5.196   5.946   5.945
 9049SOL    HW128046   5.114   5.902   5.983
 9049SOL    HW228047   5.192   5.942   5.845
 9050SOL     OW28048   0.058   5.281   0.063
 9050SOL    HW128049   7.021   5.208   0.079
 9050SOL    HW228050   0.145   5.257   0.105
 9051SOL     OW28051   4.945   6.448   0.484
 9051SOL    HW128052   5.000   6.501   0.548
 9051SOL    HW228053   4.915   6.363   0.528
 9052SOL     OW28054   2.708   4.629   4.343
 9052SOL    HW128055   2.754   4.625   4.432
 9052SOL    HW228056   2.624   4.575   4.346
 9053SOL     OW28057   2.017   3.371   3.790
 9053SOL    HW128058   2.024   3.448   3.727
 9053SOL    HW228059   2.023   3.405   3.884
 9054SOL     OW28060   1.569   0.766   1.559
 9054SOL    HW128061   1.644   0.735   1.618
 9054SOL    HW228062   1.484   0.769   1.612
 9055SOL     OW28063   0.766   3.029   4.318
 9055SOL    HW128064   0.701   2.978   4.374
 9055SOL    HW228065   0.734   3.031   4.224
 9056SOL     OW28066   5.232   0.103   2.172
 9056SOL    HW128067   5.293   0.132   2.098
 9056SOL    HW228068   5.138   0.130   2.151
 9057SOL     OW28069   5.913   5.353   0.059
 9057SOL    HW128070   5.981   5.294   0.102
 9057SOL    HW228071   5.913   5.442   0.106
 9058SOL     OW28072   1.998   2.833   4.822
 9058SOL    HW128073   1.933   2.908   4.834
 9058SOL    HW228074   2.091   2.867   4.838
 9059SOL     OW28075   6.702   1.026   3.407
 9059SOL    HW128076   6.770   1.029   3.334
 9059SOL    HW228077   6.699   1.115   3.452
 9060SOL     OW28078   6.449   3.469   2.516
 9060SOL    HW128079   6.393   3.539   2.473
 9060SOL    HW228080   6.397   3.428   2.592
 9061SOL     OW28081   4.641   6.176   3.312
 9061SOL    HW128082   4.653   6.096   3.252
 9061SOL    HW228083   4.547   6.179   3.344
 9062SOL     OW28084   1.417   4.377   2.821
 9062SOL    HW128085   1.399   4.475   2.814
 9062SOL    HW228086   1.468   4.359   2.905
 9063SOL     OW28087   3.184   1.708   2.565
 9063SOL    HW128088   3.267   1.755   2.595
 9063SOL    HW228089   3.104   1.755   2.602
 9064SOL     OW28090   7.000   4.170   3.606
 9064SOL    HW128091   0.050   4.142   3.553
 9064SOL    HW228092   7.027   4.186   3.701
 9065SOL     OW28093   2.905   6.190   5.161
 9065SOL    HW128094   2.841   6.226   5.229
 9065SOL    HW228095   2.856   6.132   5.097
 9066SOL     OW28096   6.547   6.398   6.484
 9066SOL    HW128097   6.634   6.401   6.534
 9066SOL    HW228098   6.472   6.412   6.548
 9067SOL     OW28099   0.002   6.664   4.479
 9067SOL    HW128100   0.059   6.622   4.408
 9067SOL    HW228101   6.941   6.683   4.442
 9068SOL     OW28102   5.514   0.195   5.692
 9068SOL    HW128103   5.464   0.234   5.615
 9068SOL    HW228104   5.541   0.101   5.670
 9069SOL     OW28105   4.442   2.430   2.552
 9069SOL    HW128106   4.354   2.387   2.575
 9069SOL    HW228107   4.443   2.524   2.587
 9070SOL     OW28108   1.639   1.967   6.581
 9070SOL    HW128109   1.667   2.045   6.526
 9070SOL    HW228110   1.699   1.958   6.661
 9071SOL     OW28111   4.399   1.601   5.951
 9071SOL    HW128112   4.302   1.621   5.967
 9071SOL    HW228113   4.422   1.514   5.994
 9072SOL     OW28114   5.593   6.846   1.496
 9072SOL    HW128115   5.588   6.939   1.460
 9072SOL    HW228116   5.688   6.825   1.521
 9073SOL     OW28117   4.477   0.020   0.309
 9073SOL    HW128118   4.542   6.976   0.326
 9073SOL    HW228119   4.425   0.000   0.226
 9074SOL     OW28120   1.363   0.418   1.198
 9074SOL    HW128121   1.425   0.352   1.155
 9074SOL    HW228122   1.415   0.498   1.227
 9075SOL     OW28123   6.592   1.047   2.168
 9075SOL    HW128124   6.494   1.043   2.150
 9075SOL    HW228125   6.622   1.142   2.170
 9076SOL     OW28126   4.694   1.471   3.107
 9076SOL    HW128127   4.772   1.479   3.168
 9076SOL    HW228128   4.613   1.447   3.159
 9077SOL     OW28129   5.043   1.125   5.863
 9077SOL    HW128130   5.118   1.178   5.823
 9077SOL    HW228131   5.075   1.079   5.946
 9078SOL     OW28132   5.045   5.200   6.660
 9078SOL    HW128133   5.018   5.203   6.756
 9078SOL    HW228134   4.969   5.229   6.602
 9079SOL     OW28135   1.604   0.592   5.197
 9079SOL    HW128136   1.692   0.606   5.240
 9079SOL    HW228137   1.559   0.512   5.238
 9080SOL     OW28138   6.365   3.377   0.220
 9080SOL    HW128139   6.377   3.278   0.232
 9080SOL    HW228140   6.273   3.403   0.249
 9081SOL     OW28141   3.899   1.708   1.379
 9081SOL    HW128142   3.997   1.691   1.365
 9081SOL    HW228143   3.848   1.623   1.362
 9082SOL     OW28144   2.739   0.009   5.814
 9082SOL    HW128145   2.837   0.032   5.812
 9082SOL    HW228146   2.726   6.952   5.861
 9083SOL     OW28147   4.739   4.581   6.149
 9083SOL    HW128148   4.691   4.495   6.133
 9083SOL    HW228149   4.690   4.656   6.103
 9084SOL     OW28150   0.499   2.751   5.597
 9084SOL    HW128151   0.464   2.695   5.522
 9084SOL    HW228152   0.433   2.823   5.619
 9085SOL     OW28153   3.142   4.987   0.320
 9085SOL    HW128154   3.206   5.006   0.394
 9085SOL    HW228155   3.079   5.064   0.308
 9086SOL     OW28156   6.372   4.420   0.994
 9086SOL    HW128157   6.408   4.355   0.927
 9086SOL    HW228158   6.324   4.370   1.066
 9087SOL     OW28159   5.845   3.235   2.742
 9087SOL    HW128160   5.880   3.254   2.651
 9087SOL    HW228161   5.903   3.166   2.786
 9088SOL     OW28162   6.166   0.469   1.902
 9088SOL    HW128163   6.245   0.413   1.930
 9088SOL    HW228164   6.083   0.413   1.905
 9089SOL     OW28165   4.088   5.219   3.999
 9089SOL    HW128166   4.083   5.312   4.037
 9089SOL    HW228167   4.149   5.219   3.920
 9090SOL     OW28168   4.943   6.701   4.478
 9090SOL    HW128169   4.885   6.633   4.524
 9090SOL    HW228170   4.989   6.658   4.400
 9091SOL     OW28171   3.277   2.489   0.157
 9091SOL    HW128172   3.342   2.472   0.231
 9091SOL    HW228173   3.304   2.436   0.076
 9092SOL     OW28174   1.430   0.571   5.788
 9092SOL    HW128175   1.364   0.646   5.789
 9092SOL    HW228176   1.422   0.517   5.872
 9093SOL     OW28177   1.618   6.385   6.608
 9093SOL    HW128178   1.714   6.407   6.594
 9093SOL    HW228179   1.607   6.286   6.616
 9094SOL     OW28180   0.154   6.290   1.840
 9094SOL    HW128181   0.212   6.238   1.903
 9094SOL    HW228182   0.071   6.238   1.820
 9095SOL     OW28183   5.556   3.557   6.520
 9095SOL    HW128184   5.494   3.597   6.588
 9095SOL    HW228185   5.590   3.469   6.554
 9096SOL     OW28186   5.185   3.524   2.552
 9096SOL    HW128187   5.261   3.587   2.564
 9096SOL    HW228188   5.207   3.436   2.594
 9097SOL     OW28189   1.022   3.559   0.264
 9097SOL    HW128190   1.030   3.508   0.178
 9097SOL    HW228191   1.096   3.531   0.326
 9098SOL     OW28192   4.247   3.556   1.269
 9098SOL    HW128193   4.200   3.585   1.186
 9098SOL    HW228194   4.342   3.587   1.266
 9099SOL     OW28195   3.269   3.407   1.026
 9099SOL    HW128196   3.323   3.334   0.985
 9099SOL    HW228197   3.172   3.392   1.005
 9100SOL     OW28198   0.884   2.586   2.189
 9100SOL    HW128199   0.824   2.627   2.120
 9100SOL    HW228200   0.829   2.558   2.268
 9101SOL     OW28201   2.113   3.241   2.694
 9101SOL    HW128202   2.054   3.200   2.763
 9101SOL    HW228203   2.179   3.174   2.661
 9102SOL     OW28204   3.748   6.096   2.074
 9102SOL    HW128205   3.669   6.141   2.032
 9102SOL    HW228206   3.734   5.997   2.074
 9103SOL     OW28207   0.037   3.289   0.377
 9103SOL    HW128208   6.979   3.323   0.342
 9103SOL    HW228209   0.111   3.346   0.342
 9104SOL     OW28210   4.429   6.358   1.839
 9104SOL    HW128211   4.355   6.418   1.866
 9104SOL    HW228212   4.408   6.264   1.867
 9105SOL     OW28213   2.009   0.630   0.187
 9105SOL    HW128214   2.021   0.711   0.129
 9105SOL    HW228215   1.915   0.597   0.179
 9106SOL     OW28216   6.428   3.854   0.351
 9106SOL    HW128217   6.405   3.768   0.306
 9106SOL    HW228218   6.527   3.868   0.348
 9107SOL     OW28219   4.351   6.738   6.573
 9107SOL    HW128220   4.356   6.827   6.528
 9107SOL    HW228221   4.334   6.751   6.670
 9108SOL     OW28222   4.858   4.416   5.158
 9108SOL    HW128223   4.902   4.399   5.246
 9108SOL    HW228224   4.882   4.344   5.094
 9109SOL     OW28225   1.790   2.429   2.740
 9109SOL    HW128226   1.784   2.365   2.817
 9109SOL    HW228227   1.699   2.469   2.722
 9110SOL     OW28228   2.411   4.394   4.041
 9110SOL    HW128229   2.426   4.398   3.942
 9110SOL    HW228230   2.330   4.338   4.060
 9111SOL     OW28231   4.072   3.425   0.674
 9111SOL    HW128232   4.156   3.376   0.693
 9111SOL    HW228233   4.019   3.437   0.758
 9112SOL     OW28234   0.510   4.308   4.429
 9112SOL    HW128235   0.484   4.217   4.396
 9112SOL    HW228236   0.563   4.298   4.513
 9113SOL     OW28237   4.545   0.541   0.323
 9113SOL    HW128238   4.529   0.444   0.341
 9113SOL    HW228239   4.560   0.555   0.225
 9114SOL     OW28240   1.468   5.104   2.552
 9114SOL    HW128241   1.554   5.087   2.504
 9114SOL    HW228242   1.413   5.169   2.499
 9115SOL     OW28243   0.299   5.571   5.339
 9115SOL    HW128244   0.271   5.491   5.285
 9115SOL    HW228245   0.320   5.647   5.278
 9116SOL     OW28246   6.497   1.769   0.507
 9116SOL    HW128247   6.414   1.777   0.451
 9116SOL    HW228248   6.472   1.768   0.604
 9117SOL     OW28249   6.069   2.807   6.725
 9117SOL    HW128250   6.085   2.872   6.799
 9117SOL    HW228251   6.142   2.739   6.723
 9118SOL     OW28252   5.920   6.047   0.314
 9118SOL    HW128253   5.827   6.084   0.312
 9118SOL    HW228254   5.945   6.013   0.224
 9119SOL     OW28255   5.427   1.632   2.595
 9119SOL    HW128256   5.419   1.691   2.514
 9119SOL    HW228257   5.504   1.570   2.583
 9120SOL     OW28258   5.479   3.019   5.497
 9120SOL    HW128259   5.557   2.956   5.505
 9120SOL    HW228260   5.394   2.967   5.504
 9121SOL     OW28261   0.742   2.781   6.293
 9121SOL    HW128262   0.676   2.851   6.265
 9121SOL    HW228263   0.834   2.820   6.292
 9122SOL     OW28264   2.002   2.417   1.605
 9122SOL    HW128265   2.038   2.398   1.514
 9122SOL    HW228266   2.023   2.512   1.629
 9123SOL     OW28267   3.510   0.303   4.283
 9123SOL    HW128268   3.591   0.245   4.292
 9123SOL    HW228269   3.472   0.322   4.374
 9124SOL     OW28270   5.910   6.640   5.260
 9124SOL    HW128271   5.932   6.661   5.355
 9124SOL    HW228272   5.831   6.694   5.231
 9125SOL     OW28273   4.742   4.174   3.939
 9125SOL    HW128274   4.774   4.113   4.011
 9125SOL    HW228275   4.659   4.136   3.897
 9126SOL     OW28276   5.816   1.697   2.147
 9126SOL    HW128277   5.840   1.618   2.202
 9126SOL    HW228278   5.717   1.712   2.150
 9127SOL     OW28279   6.316   0.586   6.575
 9127SOL    HW128280   6.357   0.536   6.652
 9127SOL    HW228281   6.387   0.614   6.511
 9128SOL     OW28282   3.423   2.214   5.270
 9128SOL    HW128283   3.362   2.287   5.238
 9128SOL    HW228284   3.448   2.156   5.193
 9129SOL     OW28285   2.215   2.873   1.183
 9129SOL    HW128286   2.178   2.899   1.094
 9129SOL    HW228287   2.311   2.850   1.174
 9130SOL     OW28288   6.828   3.362   0.630
 9130SOL    HW128289   6.827   3.369   0.531
 9130SOL    HW228290   6.743   3.320   0.662
 9131SOL     OW28291   6.943   4.095   5.767
 9131SOL    HW128292   7.014   4.055   5.826
 9131SOL    HW228293   6.855   4.088   5.813
 9132SOL     OW28294   0.473   4.678   4.246
 9132SOL    HW128295   0.454   4.760   4.192
 9132SOL    HW228296   0.481   4.703   4.342
 9133SOL     OW28297   3.108   5.451   1.274
 9133SOL    HW128298   3.166   5.371   1.293
 9133SOL    HW228299   3.057   5.475   1.356
 9134SOL     OW28300   3.372   6.407   0.770
 9134SOL    HW128301   3.458   6.397   0.721
 9134SOL    HW228302   3.328   6.493   0.743
 9135SOL     OW28303   6.317   6.304   2.171
 9135SOL    HW128304   6.244   6.342   2.114
 9135SOL    HW228305   6.299   6.324   2.267
 9136SOL     OW28306   4.697   5.329   5.184
 9136SOL    HW128307   4.759   5.367   5.115
 9136SOL    HW228308   4.658   5.403   5.239
 9137SOL     OW28309   4.968   1.871   1.097
 9137SOL    HW128310   4.977   1.939   1.170
 9137SOL    HW228311   5.031   1.893   1.023
 9138SOL     OW28312   6.031   4.667   5.649
 9138SOL    HW128313   6.069   4.757   5.628
 9138SOL    HW228314   5.937   4.662   5.614
 9139SOL     OW28315   2.425   1.522   4.651
 9139SOL    HW128316   2.394   1.617   4.648
 9139SOL    HW228317   2.436   1.487   4.558
 9140SOL     OW28318   6.194   3.335   3.007
 9140SOL    HW128319   6.230   3.391   3.082
 9140SOL    HW228320   6.123   3.274   3.042
 9141SOL     OW28321   5.527   0.389   6.567
 9141SOL    HW128322   5.582   0.401   6.650
 9141SOL    HW228323   5.568   0.318   6.510
 9142SOL     OW28324   0.433   2.360   0.445
 9142SOL    HW128325   0.412   2.457   0.436
 9142SOL    HW228326   0.446   2.337   0.541
 9143SOL     OW28327   5.392   3.848   0.910
 9143SOL    HW128328   5.446   3.891   0.983
 9143SOL    HW228329   5.391   3.749   0.924
 9144SOL     OW28330   2.242   5.552   5.589
 9144SOL    HW128331   2.277   5.460   5.573
 9144SOL    HW228332   2.181   5.550   5.669
 9145SOL     OW28333   6.646   5.481   0.412
 9145SOL    HW128334   6.649   5.493   0.511
 9145SOL    HW228335   6.692   5.558   0.368
 9146SOL     OW28336   5.112   2.179   2.450
 9146SOL    HW128337   5.075   2.111   2.387
 9146SOL    HW228338   5.084   2.270   2.419
 9147SOL     OW28339   5.608   0.085   4.156
 9147SOL    HW128340   5.685   0.112   4.099
 9147SOL    HW228341   5.597   0.149   4.232
 9148SOL     OW28342   5.367   6.754   0.825
 9148SOL    HW128343   5.458   6.716   0.808
 9148SOL    HW228344   5.304   6.680   0.849
 9149SOL     OW28345   5.416   3.225   3.748
 9149SOL    HW128346   5.330   3.249   3.701
 9149SOL    HW228347   5.426   3.283   3.829
 9150SOL     OW28348   3.482   5.102   3.613
 9150SOL    HW128349   3.396   5.152   3.630
 9150SOL    HW228350   3.497   5.035   3.685
 9151SOL     OW28351   1.759   4.647   3.347
 9151SOL    HW128352   1.847   4.607   3.320
 9151SOL    HW228353   1.734   4.719   3.282
 9152SOL     OW28354   2.443   4.980   4.933
 9152SOL    HW128355   2.352   4.965   4.972
 9152SOL    HW228356   2.450   4.935   4.844
 9153SOL     OW28357   1.134   3.027   0.930
 9153SOL    HW128358   1.085   3.048   1.015
 9153SOL    HW228359   1.178   3.110   0.895
 9154SOL     OW28360   4.474   5.114   6.710
 9154SOL    HW128361   4.431   5.038   6.661
 9154SOL    HW228362   4.404   5.178   6.741
 9155SOL     OW28363   1.014   2.788   0.829
 9155SOL    HW128364   1.086   2.726   0.797
 9155SOL    HW228365   1.054   2.878   0.850
 9156SOL     OW28366   2.099   2.662   6.995
 9156SOL    HW128367   2.180   2.610   6.967
 9156SOL    HW228368   2.079   2.732   6.926
 9157SOL     OW28369   6.016   4.516   6.463
 9157SOL    HW128370   6.011   4.417   6.457
 9157SOL    HW228371   5.938   4.556   6.415
 9158SOL     OW28372   5.660   3.264   4.706
 9158SOL    HW128373   5.723   3.248   4.783
 9158SOL    HW228374   5.605   3.346   4.726
 9159SOL     OW28375   1.447   0.089   2.945
 9159SOL    HW128376   1.495   0.006   2.918
 9159SOL    HW228377   1.351   0.068   2.964
 9160SOL     OW28378   6.318   0.143   4.659
 9160SOL    HW128379   6.318   0.044   4.667
 9160SOL    HW228380   6.344   0.169   4.566
 9161SOL     OW28381   4.714   4.218   4.645
 9161SOL    HW128382   4.711   4.306   4.598
 9161SOL    HW228383   4.809   4.190   4.657
 9162SOL     OW28384   4.496   1.405   4.069
 9162SOL    HW128385   4.536   1.430   4.157
 9162SOL    HW228386   4.537   1.321   4.035
 9163SOL     OW28387   2.103   3.455   4.644
 9163SOL    HW128388   2.171   3.388   4.614
 9163SOL    HW228389   2.109   3.466   4.743
 9164SOL     OW28390   2.482   0.339   6.883
 9164SOL    HW128391   2.557   0.353   6.818
 9164SOL    HW228392   2.514   0.358   6.976
 9165SOL     OW28393   6.187   1.758   5.287
 9165SOL    HW128394   6.094   1.793   5.282
 9165SOL    HW228395   6.186   1.666   5.327
 9166SOL     OW28396   4.414   6.254   0.897
 9166SOL    HW128397   4.323   6.267   0.936
 9166SOL    HW228398   4.482   6.260   0.969
 9167SOL     OW28399   1.619   2.537   6.565
 9167SOL    HW128400   1.705   2.573   6.600
 9167SOL    HW228401   1.581   2.599   6.496
 9168SOL     OW28402   0.926   0.657   6.730
 9168SOL    HW128403   0.934   0.747   6.686
 9168SOL    HW228404   0.890   0.668   6.822
 9169SOL     OW28405   6.013   1.457   5.600
 9169SOL    HW128406   6.093   1.478   5.543
 9169SOL    HW228407   6.003   1.358   5.608
 9170SOL     OW28408   1.453   4.859   0.396
 9170SOL    HW128409   1.473   4.896   0.306
 9170SOL    HW228410   1.514   4.782   0.416
 9171SOL     OW28411   3.432   4.809   0.760
 9171SOL    HW128412   3.459   4.718   0.790
 9171SOL    HW228413   3.499   4.876   0.792
 9172SOL     OW28414   3.374   0.632   4.636
 9172SOL    HW128415   3.278   0.644   4.660
 9172SOL    HW228416   3.427   0.612   4.719
 9173SOL     OW28417   6.381   3.802   4.902
 9173SOL    HW128418   6.403   3.822   4.807
 9173SOL    HW228419   6.283   3.781   4.909
 9174SOL     OW28420   6.249   4.603   1.464
 9174SOL    HW128421   6.284   4.650   1.383
 9174SOL    HW228422   6.290   4.512   1.471
 9175SOL     OW28423   0.558   6.838   4.001
 9175SOL    HW128424   0.464   6.849   3.969
 9175SOL    HW228425   0.577   6.907   4.071
 9176SOL     OW28426   3.129   1.260   5.153
 9176SOL    HW128427   3.209   1.246   5.095
 9176SOL    HW228428   3.114   1.358   5.167
 9177SOL     OW28429   0.939   5.043   5.004
 9177SOL    HW128430   0.852   5.070   5.047
 9177SOL    HW228431   1.005   5.022   5.076
 9178SOL     OW28432   2.204   5.401   0.223
 9178SOL    HW128433   2.209   5.315   0.275
 9178SOL    HW228434   2.291   5.449   0.228
 9179SOL     OW28435   2.763   5.412   4.277
 9179SOL    HW128436   2.789   5.464   4.195
 9179SOL    HW228437   2.803   5.321   4.272
 9180SOL     OW28438   5.929   2.522   2.869
 9180SOL    HW128439   5.929   2.492   2.773
 9180SOL    HW228440   6.004   2.477   2.917
 9181SOL     OW28441   3.944   2.141   4.101
 9181SOL    HW128442   3.902   2.127   4.190
 9181SOL    HW228443   4.026   2.197   4.110
 9182SOL     OW28444   2.029   6.269   1.882
 9182SOL    HW128445   2.070   6.353   1.848
 9182SOL    HW228446   2.003   6.280   1.978
 9183SOL     OW28447   5.252   6.236   0.243
 9183SOL    HW128448   5.161   6.272   0.222
 9183SOL    HW228449   5.304   6.304   0.294
 9184SOL     OW28450   5.078   2.030   0.870
 9184SOL    HW128451   5.119   2.108   0.917
 9184SOL    HW228452   4.983   2.051   0.847
 9185SOL     OW28453   4.156   6.557   4.453
 9185SOL    HW128454   4.092   6.596   4.387
 9185SOL    HW228455   4.115   6.477   4.496
 9186SOL     OW28456   5.590   0.245   4.379
 9186SOL    HW128457   5.597   0.235   4.479
 9186SOL    HW228458   5.561   0.338   4.357
 9187SOL     OW28459   2.814   1.579   1.280
 9187SOL    HW128460   2.882   1.600   1.209
 9187SOL    HW228461   2.785   1.484   1.271
 9188SOL     OW28462   1.726   6.683   1.642
 9188SOL    HW128463   1.660   6.730   1.584
 9188SOL    HW228464   1.702   6.587   1.650
 9189SOL     OW28465   4.759   6.239   1.520
 9189SOL    HW128466   4.850   6.257   1.557
 9189SOL    HW228467   4.753   6.275   1.427
 9190SOL     OW28468   2.105   4.178   6.971
 9190SOL    HW128469   2.190   4.197   7.019
 9190SOL    HW228470   2.031   4.168   0.007
 9191SOL     OW28471   6.240   1.515   5.420
 9191SOL    HW128472   6.255   1.422   5.386
 9191SOL    HW228473   6.324   1.568   5.411
 9192SOL     OW28474   0.570   3.730   6.289
 9192SOL    HW128475   0.528   3.795   6.352
 9192SOL    HW228476   0.573   3.640   6.332
 9193SOL     OW28477   4.757   4.099   0.186
 9193SOL    HW128478   4.847   4.056   0.199
 9193SOL    HW228479   4.726   4.084   0.093
 9194SOL     OW28480   3.146   0.170   3.565
 9194SOL    HW128481   3.230   0.213   3.531
 9194SOL    HW228482   3.072   0.237   3.564
 9195SOL     OW28483   1.646   1.960   4.209
 9195SOL    HW128484   1.637   1.872   4.161
 9195SOL    HW228485   1.580   2.025   4.172
 9196SOL     OW28486   4.389   6.636   3.561
 9196SOL    HW128487   4.418   6.727   3.588
 9196SOL    HW228488   4.289   6.633   3.557
 9197SOL     OW28489   1.864   4.873   1.939
 9197SOL    HW128490   1.887   4.937   2.013
 9197SOL    HW228491   1.945   4.860   1.881
 9198SOL     OW28492   6.640   5.126   6.617
 9198SOL    HW128493   6.654   5.053   6.551
 9198SOL    HW228494   6.692   5.207   6.589
 9199SOL     OW28495   1.393   3.899   6.115
 9199SOL    HW128496   1.422   3.810   6.152
 9199SOL    HW228497   1.444   3.918   6.031
 9200SOL     OW28498   2.266   0.112   0.575
 9200SOL    HW128499   2.363   0.133   0.586
 9200SOL    HW228500   2.229   0.165   0.499
 9201SOL     OW28501   0.778   2.688   0.806
 9201SOL    HW128502   0.806   2.592   0.813
 9201SOL    HW228503   0.856   2.748   0.826
 9202SOL     OW28504   1.528   6.715   2.532
 9202SOL    HW128505   1.520   6.799   2.478
 9202SOL    HW228506   1.586   6.650   2.483
 9203SOL     OW28507   0.663   4.594   6.851
 9203SOL    HW128508   0.603   4.584   6.772
 9203SOL    HW228509   0.620   4.654   6.919
 9204SOL     OW28510   4.887   3.147   6.306
 9204SOL    HW128511   4.790   3.128   6.323
 9204SOL    HW228512   4.943   3.084   6.359
 9205SOL     OW28513   6.930   4.637   2.858
 9205SOL    HW128514   6.941   4.726   2.901
 9205SOL    HW228515   6.843   4.597   2.887
 9206SOL     OW28516   4.362   5.588   2.027
 9206SOL    HW128517   4.301   5.665   2.046
 9206SOL    HW228518   4.326   5.506   2.071
 9207SOL     OW28519   5.383   4.343   6.257
 9207SOL    HW128520   5.330   4.424   6.283
 9207SOL    HW228521   5.480   4.361   6.271
 9208SOL     OW28522   6.341   4.007   3.794
 9208SOL    HW128523   6.361   4.066   3.715
 9208SOL    HW228524   6.305   4.063   3.869
 9209SOL     OW28525   3.278   0.346   6.653
 9209SOL    HW128526   3.199   0.399   6.621
 9209SOL    HW228527   3.362   0.387   6.618
 9210SOL     OW28528   0.155   0.950   2.896
 9210SOL    HW128529   0.142   1.039   2.853
 9210SOL    HW228530   0.078   0.930   2.956
 9211SOL     OW28531   0.363   2.593   5.406
 9211SOL    HW128532   0.268   2.565   5.396
 9211SOL    HW228533   0.423   2.517   5.382
 9212SOL     OW28534   4.885   5.286   4.221
 9212SOL    HW128535   4.880   5.201   4.169
 9212SOL    HW228536   4.943   5.274   4.301
 9213SOL     OW28537   5.330   3.531   5.889
 9213SOL    HW128538   5.337   3.472   5.809
 9213SOL    HW228539   5.371   3.621   5.868
 9214SOL     OW28540   0.308   4.021   6.714
 9214SOL    HW128541   0.222   4.064   6.684
 9214SOL    HW228542   0.288   3.931   6.754
 9215SOL     OW28543   0.654   1.919   1.450
 9215SOL    HW128544   0.661   1.840   1.389
 9215SOL    HW228545   0.694   1.999   1.405
 9216SOL     OW28546   2.876   0.176   2.315
 9216SOL    HW128547   2.824   0.150   2.234
 9216SOL    HW228548   2.965   0.211   2.288
 9217SOL     OW28549   0.804   1.797   6.961
 9217SOL    HW128550   0.774   1.787   0.026
 9217SOL    HW228551   0.830   1.892   6.944
 9218SOL     OW28552   2.479   6.905   0.199
 9218SOL    HW128553   2.502   6.888   0.295
 9218SOL    HW228554   2.407   6.842   0.170
 9219SOL     OW28555   0.015   2.485   1.363
 9219SOL    HW128556   6.961   2.438   1.393
 9219SOL    HW228557   7.022   2.552   1.293
 9220SOL     OW28558   1.967   6.171   0.781
 9220SOL    HW128559   1.923   6.111   0.847
 9220SOL    HW228560   1.902   6.239   0.748
 9221SOL     OW28561   3.163   0.506   3.417
 9221SOL    HW128562   3.128   0.488   3.509
 9221SOL    HW228563   3.181   0.604   3.406
 9222SOL     OW28564   1.807   0.487   6.310
 9222SOL    HW128565   1.897   0.461   6.275
 9222SOL    HW228566   1.764   0.551   6.246
 9223SOL     OW28567   0.891   0.613   4.153
 9223SOL    HW128568   0.792   0.604   4.161
 9223SOL    HW228569   0.936   0.546   4.212
 9224SOL     OW28570   1.849   4.738   4.826
 9224SOL    HW128571   1.766   4.794   4.834
 9224SOL    HW228572   1.914   4.783   4.765
 9225SOL     OW28573   3.390   6.417   5.881
 9225SOL    HW128574   3.354   6.355   5.950
 9225SOL    HW228575   3.332   6.414   5.800
 9226SOL     OW28576   6.054   0.040   1.151
 9226SOL    HW128577   5.973   0.030   1.209
 9226SOL    HW228578   6.135   0.009   1.201
 9227SOL     OW28579   1.006   5.093   1.007
 9227SOL    HW128580   1.077   5.078   0.939
 9227SOL    HW228581   0.984   5.007   1.053
 9228SOL     OW28582   1.548   0.903   5.815
 9228SOL    HW128583   1.509   0.857   5.895
 9228SOL    HW228584   1.474   0.932   5.754
 9229SOL     OW28585   0.679   5.500   4.736
 9229SOL    HW128586   0.715   5.406   4.741
 9229SOL    HW228587   0.742   5.556   4.682
 9230SOL     OW28588   5.033   1.478   2.970
 9230SOL    HW128589   5.109   1.504   2.910
 9230SOL    HW228590   4.954   1.452   2.915
 9231SOL     OW28591   1.013   4.493   4.681
 9231SOL    HW128592   0.944   4.483   4.753
 9231SOL    HW228593   1.036   4.403   4.644
 9232SOL     OW28594   3.907   5.432   0.280
 9232SOL    HW128595   4.003   5.456   0.297
 9232SOL    HW228596   3.859   5.512   0.243
 9233SOL     OW28597   5.448   5.067   1.987
 9233SOL    HW128598   5.373   5.058   2.052
 9233SOL    HW228599   5.444   5.157   1.944
 9234SOL     OW28600   3.769   5.361   5.653
 9234SOL    HW128601   3.859   5.404   5.645
 9234SOL    HW228602   3.742   5.324   5.565
 9235SOL     OW28603   1.437   3.023   3.358
 9235SOL    HW128604   1.518   3.072   3.324
 9235SOL    HW228605   1.363   3.088   3.374
 9236SOL     OW28606   2.908   4.337   5.546
 9236SOL    HW128607   2.935   4.241   5.544
 9236SOL    HW228608   2.957   4.387   5.475
 9237SOL     OW28609   2.092   5.300   4.779
 9237SOL    HW128610   2.184   5.339   4.778
 9237SOL    HW228611   2.082   5.241   4.859
 9238SOL     OW28612   3.956   1.737   6.650
 9238SOL    HW128613   4.044   1.704   6.616
 9238SOL    HW228614   3.888   1.664   6.641
 9239SOL     OW28615   6.895   4.262   0.601
 9239SOL    HW128616   6.979   4.267   0.656
 9239SOL    HW228617   6.917   4.283   0.506
 9240SOL     OW28618   4.744   1.833   0.908
 9240SOL    HW128619   4.804   1.888   0.966
 9240SOL    HW228620   4.798   1.786   0.839
 9241SOL     OW28621   0.552   5.241   5.703
 9241SOL    HW128622   0.592   5.318   5.653
 9241SOL    HW228623   0.543   5.163   5.642
 9242SOL     OW28624   0.017   5.408   0.700
 9242SOL    HW128625   0.061   5.494   0.725
 9242SOL    HW228626   7.025   5.408   0.603
 9243SOL     OW28627   5.943   7.024   2.338
 9243SOL    HW128628   5.890   6.943   2.311
 9243SOL    HW228629   6.024   6.995   2.388
 9244SOL     OW28630   4.802   4.636   6.424
 9244SOL    HW128631   4.898   4.661   6.436
 9244SOL    HW228632   4.788   4.597   6.334
 9245SOL     OW28633   1.892   5.217   3.569
 9245SOL    HW128634   1.879   5.160   3.650
 9245SOL    HW228635   1.820   5.199   3.503
 9246SOL     OW28636   0.525   4.162   2.711
 9246SOL    HW128637   0.573   4.103   2.777
 9246SOL    HW228638   0.592   4.203   2.650
 9247SOL     OW28639   1.084   0.205   3.075
 9247SOL    HW128640   1.151   0.139   3.041
 9247SOL    HW228641   1.032   0.165   3.151
 9248SOL     OW28642   1.398   2.565   5.446
 9248SOL    HW128643   1.350   2.520   5.521
 9248SOL    HW228644   1.431   2.654   5.476
 9249SOL     OW28645   5.137   3.392   6.799
 9249SOL    HW128646   5.218   3.351   6.757
 9249SOL    HW228647   5.133   3.365   6.896
 9250SOL     OW28648   5.212   3.249   4.596
 9250SOL    HW128649   5.127   3.199   4.613
 9250SOL    HW228650   5.227   3.315   4.669
 9251SOL     OW28651   4.210   2.258   3.263
 9251SOL    HW128652   4.179   2.279   3.356
 9251SOL    HW228653   4.279   2.186   3.267
 9252SOL     OW28654   5.663   0.578   4.066
 9252SOL    HW128655   5.726   0.524   4.011
 9252SOL    HW228656   5.707   0.664   4.093
 9253SOL     OW28657   5.754   6.232   5.809
 9253SOL    HW128658   5.745   6.198   5.715
 9253SOL    HW228659   5.825   6.180   5.856
 9254SOL     OW28660   6.342   4.270   2.963
 9254SOL    HW128661   6.380   4.290   3.054
 9254SOL    HW228662   6.291   4.349   2.930
 9255SOL     OW28663   5.267   4.128   0.095
 9255SOL    HW128664   5.218   4.187   0.159
 9255SOL    HW228665   5.359   4.111   0.130
 9256SOL     OW28666   3.737   6.090   2.368
 9256SOL    HW128667   3.730   6.103   2.269
 9256SOL    HW228668   3.757   5.994   2.388
 9257SOL     OW28669   0.391   3.552   3.203
 9257SOL    HW128670   0.449   3.508   3.135
 9257SOL    HW228671   0.314   3.597   3.158
 9258SOL     OW28672   2.972   3.209   3.291
 9258SOL    HW128673   2.973   3.116   3.255
 9258SOL    HW228674   2.990   3.274   3.218
 9259SOL     OW28675   1.134   1.914   0.902
 9259SOL    HW128676   1.105   1.821   0.879
 9259SOL    HW228677   1.133   1.971   0.820
 9260SOL     OW28678   4.987   1.659   5.512
 9260SOL    HW128679   5.036   1.662   5.425
 9260SOL    HW228680   4.915   1.729   5.512
 9261SOL     OW28681   4.411   0.408   6.897
 9261SOL    HW128682   4.508   0.384   6.898
 9261SOL    HW228683   4.371   0.388   6.986
 9262SOL     OW28684   6.356   3.312   5.394
 9262SOL    HW128685   6.257   3.300   5.383
 9262SOL    HW228686   6.375   3.358   5.480
 9263SOL     OW28687   5.822   4.943   1.627
 9263SOL    HW128688   5.900   4.885   1.606
 9263SOL    HW228689   5.749   4.888   1.668
 9264SOL     OW28690   5.499   4.129   0.226
 9264SOL    HW128691   5.554   4.151   0.145
 9264SOL    HW228692   5.535   4.180   0.304
 9265SOL     OW28693   3.104   1.703   6.619
 9265SOL    HW128694   3.166   1.627   6.598
 9265SOL    HW228695   3.015   1.686   6.577
 9266SOL     OW28696   1.773   6.399   1.923
 9266SOL    HW128697   1.738   6.412   1.830
 9266SOL    HW228698   1.796   6.302   1.937
 9267SOL     OW28699   0.202   4.289   6.009
 9267SOL    HW128700   0.287   4.317   6.055
 9267SOL    HW228701   0.156   4.221   6.066
 9268SOL     OW28702   1.961   5.060   1.317
 9268SOL    HW128703   2.010   4.997   1.257
 9268SOL    HW228704   1.876   5.089   1.273
 9269SOL     OW28705   3.177   2.307   6.006
 9269SOL    HW128706   3.263   2.357   6.005
 9269SOL    HW228707   3.194   2.212   6.033
 9270SOL     OW28708   5.153   0.309   5.981
 9270SOL    HW128709   5.137   0.403   5.953
 9270SOL    HW228710   5.067   0.269   6.013
 9271SOL     OW28711   2.027   5.625   6.656
 9271SOL    HW128712   2.068   5.612   6.565
 9271SOL    HW228713   1.956   5.696   6.651
 9272SOL     OW28714   2.342   5.813   5.876
 9272SOL    HW128715   2.334   5.717   5.904
 9272SOL    HW228716   2.266   5.837   5.816
 9273SOL     OW28717   5.501   6.084   4.071
 9273SOL    HW128718   5.471   6.008   4.013
 9273SOL    HW228719   5.515   6.051   4.165
 9274SOL     OW28720   6.790   2.525   0.343
 9274SOL    HW128721   6.749   2.450   0.395
 9274SOL    HW228722   6.796   2.607   0.401
 9275SOL     OW28723   6.800   1.975   0.095
 9275SOL    HW128724   6.754   1.886   0.096
 9275SOL    HW228725   6.863   1.982   0.172
 9276SOL     OW28726   2.754   4.665   3.476
 9276SOL    HW128727   2.758   4.670   3.576
 9276SOL    HW228728   2.751   4.569   3.448
 9277SOL     OW28729   5.177   3.753   0.453
 9277SOL    HW128730   5.163   3.754   0.552
 9277SOL    HW228731   5.260   3.805   0.431
 9278SOL     OW28732   1.104   0.716   4.822
 9278SOL    HW128733   1.097   0.755   4.730
 9278SOL    HW228734   1.044   0.768   4.884
 9279SOL     OW28735   4.648   0.981   1.731
 9279SOL    HW128736   4.559   0.971   1.775
 9279SOL    HW228737   4.654   1.071   1.687
 9280SOL     OW28738   1.572   1.087   3.369
 9280SOL    HW128739   1.606   1.116   3.459
 9280SOL    HW228740   1.472   1.087   3.369
 9281SOL     OW28741   3.145   4.321   1.371
 9281SOL    HW128742   3.200   4.385   1.425
 9281SOL    HW228743   3.199   4.238   1.353
 9282SOL     OW28744   4.810   1.508   4.790
 9282SOL    HW128745   4.875   1.492   4.716
 9282SOL    HW228746   4.845   1.466   4.875
 9283SOL     OW28747   5.462   0.556   3.871
 9283SOL    HW128748   5.451   0.457   3.861
 9283SOL    HW228749   5.535   0.576   3.936
 9284SOL     OW28750   3.378   4.860   5.537
 9284SOL    HW128751   3.286   4.893   5.520
 9284SOL    HW228752   3.408   4.891   5.628
 9285SOL     OW28753   5.690   3.176   0.961
 9285SOL    HW128754   5.680   3.096   0.901
 9285SOL    HW228755   5.655   3.153   1.052
 9286SOL     OW28756   5.383   6.889   6.209
 9286SOL    HW128757   5.316   6.817   6.222
 9286SOL    HW228758   5.400   6.902   6.111
 9287SOL     OW28759   3.300   5.150   0.509
 9287SOL    HW128760   3.222   5.172   0.567
 9287SOL    HW228761   3.374   5.215   0.525
 9288SOL     OW28762   3.945   1.043   5.259
 9288SOL    HW128763   3.891   1.063   5.177
 9288SOL    HW228764   3.915   0.955   5.297
 9289SOL     OW28765   3.392   2.080   2.611
 9289SOL    HW128766   3.410   1.988   2.647
 9289SOL    HW228767   3.375   2.074   2.513
 9290SOL     OW28768   4.694   1.892   3.665
 9290SOL    HW128769   4.774   1.903   3.605
 9290SOL    HW228770   4.638   1.816   3.633
 9291SOL     OW28771   2.300   0.039   4.864
 9291SOL    HW128772   2.365   7.005   4.822
 9291SOL    HW228773   2.240   7.020   4.927
 9292SOL     OW28774   0.188   2.696   6.477
 9292SOL    HW128775   0.257   2.642   6.428
 9292SOL    HW228776   0.168   2.652   6.565
 9293SOL     OW28777   5.824   3.955   0.244
 9293SOL    HW128778   5.838   3.976   0.147
 9293SOL    HW228779   5.812   3.857   0.256
 9294SOL     OW28780   3.590   6.686   5.040
 9294SOL    HW128781   3.516   6.651   4.983
 9294SOL    HW228782   3.567   6.778   5.071
 9295SOL     OW28783   4.926   2.610   4.367
 9295SOL    HW128784   4.965   2.519   4.363
 9295SOL    HW228785   4.891   2.636   4.277
 9296SOL     OW28786   0.479   6.667   6.198
 9296SOL    HW128787   0.431   6.683   6.112
 9296SOL    HW228788   0.557   6.729   6.204
 9297SOL     OW28789   6.440   1.250   0.617
 9297SOL    HW128790   6.522   1.216   0.663
 9297SOL    HW228791   6.407   1.332   0.664
 9298SOL     OW28792   1.096   0.778   4.556
 9298SOL    HW128793   1.163   0.707   4.536
 9298SOL    HW228794   1.014   0.763   4.501
 9299SOL     OW28795   0.847   2.674   4.774
 9299SOL    HW128796   0.931   2.621   4.758
 9299SOL    HW228797   0.768   2.619   4.745
 9300SOL     OW28798   0.090   4.447   5.074
 9300SOL    HW128799   0.109   4.451   4.976
 9300SOL    HW228800   0.161   4.392   5.119
 9301SOL     OW28801   4.905   4.441   3.587
 9301SOL    HW128802   4.807   4.443   3.606
 9301SOL    HW228803   4.920   4.421   3.490
 9302SOL     OW28804   1.890   3.404   4.463
 9302SOL    HW128805   1.961   3.443   4.520
 9302SOL    HW228806   1.827   3.351   4.519
 9303SOL     OW28807   4.257   5.940   0.437
 9303SOL    HW128808   4.231   5.865   0.376
 9303SOL    HW228809   4.200   6.020   0.416
 9304SOL     OW28810   4.616   4.214   1.341
 9304SOL    HW128811   4.634   4.210   1.440
 9304SOL    HW228812   4.703   4.203   1.292
 9305SOL     OW28813   3.431   1.469   2.391
 9305SOL    HW128814   3.435   1.369   2.381
 9305SOL    HW228815   3.336   1.499   2.397
 9306SOL     OW28816   0.595   4.236   4.903
 9306SOL    HW128817   0.574   4.308   4.970
 9306SOL    HW228818   0.528   4.162   4.912
 9307SOL     OW28819   1.286   3.345   1.250
 9307SOL    HW128820   1.345   3.388   1.318
 9307SOL    HW228821   1.299   3.246   1.252
 9308SOL     OW28822   1.127   4.276   1.104
 9308SOL    HW128823   1.057   4.336   1.067
 9308SOL    HW228824   1.089   4.220   1.178
 9309SOL     OW28825   3.608   5.006   5.397
 9309SOL    HW128826   3.599   4.961   5.308
 9309SOL    HW228827   3.529   4.984   5.454
 9310SOL     OW28828   4.453   4.864   5.888
 9310SOL    HW128829   4.494   4.953   5.872
 9310SOL    HW228830   4.367   4.857   5.838
 9311SOL     OW28831   5.043   5.042   1.963
 9311SOL    HW128832   5.007   5.119   1.910
 9311SOL    HW228833   5.005   4.956   1.929
 9312SOL     OW28834   1.299   3.578   1.663
 9312SOL    HW128835   1.209   3.565   1.622
 9312SOL    HW228836   1.325   3.495   1.713
 9313SOL     OW28837   6.755   0.469   1.101
 9313SOL    HW128838   6.803   0.398   1.049
 9313SOL    HW228839   6.668   0.490   1.056
 9314SOL     OW28840   4.722   5.772   6.264
 9314SOL    HW128841   4.742   5.674   6.261
 9314SOL    HW228842   4.624   5.787   6.253
 9315SOL     OW28843   6.369   0.748   5.265
 9315SOL    HW128844   6.409   0.734   5.174
 9315SOL    HW228845   6.284   0.799   5.256
 9316SOL     OW28846   4.382   5.811   5.268
 9316SOL    HW128847   4.317   5.832   5.341
 9316SOL    HW228848   4.361   5.721   5.231
 9317SOL     OW28849   6.729   5.172   3.295
 9317SOL    HW128850   6.739   5.109   3.371
 9317SOL    HW228851   6.639   5.215   3.298
 9318SOL     OW28852   6.274   0.359   5.672
 9318SOL    HW128853   6.298   0.427   5.602
 9318SOL    HW228854   6.186   0.382   5.713
 9319SOL     OW28855   0.998   2.627   6.851
 9319SOL    HW128856   1.086   2.671   6.833
 9319SOL    HW228857   0.989   2.546   6.793
 9320SOL     OW28858   4.037   1.148   6.189
 9320SOL    HW128859   4.089   1.233   6.185
 9320SOL    HW228860   4.084   1.078   6.134
 9321SOL     OW28861   6.348   0.227   3.461
 9321SOL    HW128862   6.287   0.164   3.414
 9321SOL    HW228863   6.427   0.247   3.403
 9322SOL     OW28864   0.673   4.854   6.272
 9322SOL    HW128865   0.677   4.908   6.356
 9322SOL    HW228866   0.580   4.824   6.256
 9323SOL     OW28867   1.712   0.026   5.368
 9323SOL    HW128868   1.752   0.101   5.316
 9323SOL    HW228869   1.630   0.058   5.416
 9324SOL     OW28870   1.930   4.897   0.460
 9324SOL    HW128871   2.028   4.888   0.480
 9324SOL    HW228872   1.909   4.992   0.440
 9325SOL     OW28873   5.044   1.103   6.592
 9325SOL    HW128874   4.960   1.079   6.642
 9325SOL    HW228875   5.056   1.041   6.515
 9326SOL     OW28876   1.918   6.411   0.942
 9326SOL    HW128877   1.903   6.418   0.844
 9326SOL    HW228878   1.979   6.484   0.972
 9327SOL     OW28879   5.095   0.002   2.723
 9327SOL    HW128880   5.019   0.049   2.767
 9327SOL    HW228881   5.065   6.993   2.636
 9328SOL     OW28882   3.402   0.950   5.692
 9328SOL    HW128883   3.461   0.875   5.721
 9328SOL    HW228884   3.451   1.008   5.627
 9329SOL     OW28885   6.508   4.431   2.491
 9329SOL    HW128886   6.491   4.510   2.549
 9329SOL    HW228887   6.588   4.381   2.524
 9330SOL     OW28888   0.046   6.522   6.969
 9330SOL    HW128889   0.089   6.440   6.930
 9330SOL    HW228890   0.026   6.587   6.896
 9331SOL     OW28891   1.231   1.369   6.134
 9331SOL    HW128892   1.259   1.395   6.227
 9331SOL    HW228893   1.138   1.401   6.117
 9332SOL     OW28894   3.970   3.924   2.140
 9332SOL    HW128895   4.024   4.005   2.115
 9332SOL    HW228896   3.968   3.861   2.063
 9333SOL     OW28897   4.173   3.888   1.326
 9333SOL    HW128898   4.168   3.817   1.256
 9333SOL    HW228899   4.266   3.925   1.329
 9334SOL     OW28900   5.090   5.898   3.933
 9334SOL    HW128901   5.111   5.803   3.910
 9334SOL    HW228902   5.040   5.901   4.020
 9335SOL     OW28903   0.776   1.667   6.090
 9335SOL    HW128904   0.815   1.576   6.073
 9335SOL    HW228905   0.723   1.665   6.175
 9336SOL     OW28906   2.908   5.260   5.581
 9336SOL    HW128907   2.817   5.257   5.623
 9336SOL    HW228908   2.933   5.168   5.550
 9337SOL     OW28909   5.150   1.848   3.700
 9337SOL    HW128910   5.127   1.939   3.665
 9337SOL    HW228911   5.228   1.812   3.649
 9338SOL     OW28912   3.877   0.068   1.800
 9338SOL    HW128913   3.817   0.122   1.742
 9338SOL    HW228914   3.965   0.114   1.811
 9339SOL     OW28915   5.731   6.924   0.901
 9339SOL    HW128916   5.672   6.860   0.852
 9339SOL    HW228917   5.710   6.920   0.999
 9340SOL     OW28918   5.829   3.846   4.613
 9340SOL    HW128919   5.912   3.893   4.643
 9340SOL    HW228920   5.854   3.769   4.554
 9341SOL     OW28921   0.324   5.931   0.105
 9341SOL    HW128922   0.361   5.840   0.126
 9341SOL    HW228923   0.333   5.949   0.008
 9342SOL     OW28924   1.923   0.272   3.614
 9342SOL    HW128925   1.889   0.223   3.695
 9342SOL    HW228926   1.859   0.346   3.591
 9343SOL     OW28927   6.102   4.412   3.189
 9343SOL    HW128928   6.097   4.325   3.238
 9343SOL    HW228929   6.010   4.445   3.169
 9344SOL     OW28930   4.828   6.433   1.928
 9344SOL    HW128931   4.799   6.406   2.020
 9344SOL    HW228932   4.886   6.362   1.889
 9345SOL     OW28933   6.420   4.661   2.635
 9345SOL    HW128934   6.358   4.654   2.714
 9345SOL    HW228935   6.443   4.756   2.618
 9346SOL     OW28936   6.064   0.746   1.118
 9346SOL    HW128937   6.046   0.767   1.214
 9346SOL    HW228938   6.139   0.802   1.085
 9347SOL     OW28939   0.924   4.423   0.977
 9347SOL    HW128940   0.873   4.508   0.990
 9347SOL    HW228941   0.969   4.424   0.888
 9348SOL     OW28942   3.890   5.779   1.786
 9348SOL    HW128943   3.901   5.741   1.694
 9348SOL    HW228944   3.797   5.814   1.796
 9349SOL     OW28945   1.105   6.561   2.513
 9349SOL    HW128946   1.200   6.540   2.491
 9349SOL    HW228947   1.065   6.617   2.440
 9350SOL     OW28948   0.468   3.425   5.317
 9350SOL    HW128949   0.556   3.469   5.336
 9350SOL    HW228950   0.463   3.400   5.221
 9351SOL     OW28951   2.907   0.457   6.227
 9351SOL    HW128952   2.874   0.394   6.156
 9351SOL    HW228953   2.989   0.504   6.194
 9352SOL     OW28954   3.212   2.702   7.012
 9352SOL    HW128955   3.268   2.771   6.965
 9352SOL    HW228956   3.269   2.651   0.046
 9353SOL     OW28957   0.725   5.122   0.695
 9353SOL    HW128958   0.637   5.078   0.676
 9353SOL    HW228959   0.718   5.177   0.778
 9354SOL     OW28960   6.293   1.854   6.542
 9354SOL    HW128961   6.366   1.795   6.576
 9354SOL    HW228962   6.333   1.938   6.506
 9355SOL     OW28963   0.491   2.331   5.039
 9355SOL    HW128964   0.589   2.353   5.047
 9355SOL    HW228965   0.439   2.415   5.024
 9356SOL     OW28966   4.349   0.287   1.345
 9356SOL    HW128967   4.279   0.343   1.300
 9356SOL    HW228968   4.437   0.333   1.341
 9357SOL     OW28969   0.882   3.557   6.525
 9357SOL    HW128970   0.981   3.553   6.538
 9357SOL    HW228971   0.836   3.533   6.610
 9358SOL     OW28972   6.792   4.074   2.664
 9358SOL    HW128973   6.727   4.006   2.628
 9358SOL    HW228974   6.810   4.056   2.760
 9359SOL     OW28975   1.630   4.667   6.861
 9359SOL    HW128976   1.611   4.596   6.794
 9359SOL    HW228977   1.690   4.631   6.932
 9360SOL     OW28978   1.463   5.472   6.407
 9360SOL    HW128979   1.560   5.458   6.425
 9360SOL    HW228980   1.414   5.385   6.416
 9361SOL     OW28981   1.651   5.472   3.168
 9361SOL    HW128982   1.748   5.448   3.169
 9361SOL    HW228983   1.605   5.432   3.247
 9362SOL     OW28984   1.370   1.431   2.914
 9362SOL    HW128985   1.421   1.425   2.828
 9362SOL    HW228986   1.386   1.520   2.957
 9363SOL     OW28987   3.819   5.181   1.859
 9363SOL    HW128988   3.906   5.196   1.811
 9363SOL    HW228989   3.806   5.253   1.927
 9364SOL     OW28990   2.109   1.730   0.864
 9364SOL    HW128991   2.092   1.731   0.766
 9364SOL    HW228992   2.035   1.682   0.911
 9365SOL     OW28993   3.136   2.114   3.591
 9365SOL    HW128994   3.219   2.107   3.536
 9365SOL    HW228995   3.067   2.167   3.542
 9366SOL     OW28996   3.449   5.681   0.140
 9366SOL    HW128997   3.486   5.614   0.205
 9366SOL    HW228998   3.512   5.758   0.133
 9367SOL     OW28999   6.470   0.429   1.438
 9367SOL    HW129000   6.509   0.348   1.394
 9367SOL    HW229001   6.378   0.408   1.471
 9368SOL     OW29002   3.707   6.487   1.955
 9368SOL    HW129003   3.793   6.437   1.943
 9368SOL    HW229004   3.696   6.553   1.881
 9369SOL     OW29005   0.057   5.681   5.427
 9369SOL    HW129006   0.001   5.663   5.346
 9369SOL    HW229007   0.150   5.649   5.411
 9370SOL     OW29008   5.060   0.639   3.571
 9370SOL    HW129009   5.156   0.613   3.583
 9370SOL    HW229010   5.052   0.703   3.495
 9371SOL     OW29011   2.479   5.754   1.222
 9371SOL    HW129012   2.564   5.710   1.251
 9371SOL    HW229013   2.464   5.736   1.125
 9372SOL     OW29014   4.812   6.974   1.948
 9372SOL    HW129015   4.854   7.002   2.034
 9372SOL    HW229016   4.807   0.024   1.887
 9373SOL     OW29017   5.535   2.192   0.483
 9373SOL    HW129018   5.500   2.158   0.570
 9373SOL    HW229019   5.488   2.278   0.460
 9374SOL     OW29020   6.812   3.315   5.928
 9374SOL    HW129021   6.712   3.314   5.929
 9374SOL    HW229022   6.848   3.314   6.021
 9375SOL     OW29023   6.715   1.627   1.195
 9375SOL    HW129024   6.781   1.555   1.216
 9375SOL    HW229025   6.754   1.716   1.218
 9376SOL     OW29026   1.979   3.483   1.859
 9376SOL    HW129027   1.971   3.532   1.773
 9376SOL    HW229028   2.073   3.491   1.894
 9377SOL     OW29029   2.453   5.519   3.160
 9377SOL    HW129030   2.439   5.612   3.125
 9377SOL    HW229031   2.395   5.455   3.108
 9378SOL     OW29032   3.115   1.303   3.878
 9378SOL    HW129033   3.165   1.376   3.925
 9378SOL    HW229034   3.023   1.335   3.857
 9379SOL     OW29035   5.211   0.329   4.834
 9379SOL    HW129036   5.285   0.327   4.767
 9379SOL    HW229037   5.126   0.357   4.788
 9380SOL     OW29038   3.404   5.733   5.642
 9380SOL    HW129039   3.442   5.744   5.550
 9380SOL    HW229040   3.353   5.647   5.646
 9381SOL     OW29041   5.118   2.485   4.877
 9381SOL    HW129042   5.055   2.509   4.950
 9381SOL    HW229043   5.106   2.389   4.852
 9382SOL     OW29044   4.162   1.000   4.113
 9382SOL    HW129045   4.248   0.957   4.142
 9382SOL    HW229046   4.175   1.044   4.024
 9383SOL     OW29047   4.744   4.444   4.476
 9383SOL    HW129048   4.652   4.453   4.439
 9383SOL    HW229049   4.775   4.532   4.512
 9384SOL     OW29050   2.743   6.482   1.967
 9384SOL    HW129051   2.771   6.387   1.954
 9384SOL    HW229052   2.717   6.497   2.062
 9385SOL     OW29053   4.123   1.766   4.274
 9385SOL    HW129054   4.089   1.805   4.189
 9385SOL    HW229055   4.169   1.837   4.327
 9386SOL     OW29056   3.103   5.871   5.215
 9386SOL    HW129057   3.044   5.951   5.229
 9386SOL    HW229058   3.102   5.814   5.297
 9387SOL     OW29059   3.593   2.214   0.064
 9387SOL    HW129060   3.687   2.226   0.034
 9387SOL    HW229061   3.571   2.117   0.068
 9388SOL     OW29062   1.687   6.826   3.291
 9388SOL    HW129063   1.728   6.771   3.218
 9388SOL    HW229064   1.721   6.920   3.285
 9389SOL     OW29065   3.075   5.945   2.246
 9389SOL    HW129066   3.101   5.871   2.307
 9389SOL    HW229067   3.133   5.944   2.164
 9390SOL     OW29068   5.952   4.776   6.049
 9390SOL    HW129069   5.865   4.763   6.097
 9390SOL    HW229070   5.952   4.723   5.964
 9391SOL     OW29071   0.840   7.007   4.713
 9391SOL    HW129072   0.905   7.026   4.640
 9391SOL    HW229073   0.824   6.908   4.720
 9392SOL     OW29074   4.854   4.368   4.115
 9392SOL    HW129075   4.810   4.307   4.049
 9392SOL    HW229076   4.866   4.319   4.202
 9393SOL     OW29077   2.620   6.567   6.009
 9393SOL    HW129078   2.574   6.510   6.078
 9393SOL    HW229079   2.719   6.561   6.022
 9394SOL     OW29080   5.624   0.827   1.420
 9394SOL    HW129081   5.590   0.891   1.351
 9394SOL    HW229082   5.713   0.792   1.391
 9395SOL     OW29083   2.668   1.472   0.773
 9395SOL    HW129084   2.719   1.505   0.852
 9395SOL    HW229085   2.633   1.551   0.721
 9396SOL     OW29086   1.786   5.347   5.443
 9396SOL    HW129087   1.836   5.282   5.385
 9396SOL    HW229088   1.806   5.328   5.539
 9397SOL     OW29089   3.316   6.668   5.685
 9397SOL    HW129090   3.235   6.629   5.641
 9397SOL    HW229091   3.396   6.653   5.627
 9398SOL     OW29092   6.294   1.068   5.829
 9398SOL    HW129093   6.329   0.980   5.798
 9398SOL    HW229094   6.233   1.107   5.760
 9399SOL     OW29095   0.883   2.357   4.519
 9399SOL    HW129096   0.893   2.261   4.493
 9399SOL    HW229097   0.786   2.382   4.517
 9400SOL     OW29098   4.931   0.525   6.999
 9400SOL    HW129099   4.848   0.575   7.024
 9400SOL    HW229100   4.916   0.476   6.914
 9401SOL     OW29101   0.119   2.778   1.644
 9401SOL    HW129102   0.037   2.720   1.641
 9401SOL    HW229103   0.166   2.765   1.731
 9402SOL     OW29104   2.033   5.323   3.950
 9402SOL    HW129105   2.053   5.229   3.924
 9402SOL    HW229106   1.989   5.324   4.040
 9403SOL     OW29107   0.292   1.324   2.669
 9403SOL    HW129108   0.389   1.298   2.661
 9403SOL    HW229109   0.272   1.398   2.606
 9404SOL     OW29110   0.415   2.514   1.291
 9404SOL    HW129111   0.355   2.485   1.216
 9404SOL    HW229112   0.362   2.567   1.358
 9405SOL     OW29113   0.986   4.605   5.058
 9405SOL    HW129114   0.938   4.601   4.970
 9405SOL    HW229115   0.933   4.662   5.122
 9406SOL     OW29116   0.804   3.406   6.789
 9406SOL    HW129117   0.857   3.322   6.779
 9406SOL    HW229118   0.850   3.467   6.853
 9407SOL     OW29119   2.690   5.124   4.875
 9407SOL    HW129120   2.752   5.067   4.929
 9407SOL    HW229121   2.599   5.083   4.875
 9408SOL     OW29122   6.914   3.099   5.790
 9408SOL    HW129123   6.938   3.097   5.693
 9408SOL    HW229124   6.880   3.190   5.814
 9409SOL     OW29125   6.459   5.736   2.288
 9409SOL    HW129126   6.519   5.772   2.359
 9409SOL    HW229127   6.370   5.715   2.327
 9410SOL     OW29128   5.183   1.434   1.762
 9410SOL    HW129129   5.213   1.380   1.683
 9410SOL    HW229130   5.093   1.472   1.744
 9411SOL     OW29131   2.898   3.502   2.857
 9411SOL    HW129132   2.893   3.480   2.955
 9411SOL    HW229133   2.884   3.418   2.804
 9412SOL     OW29134   0.924   0.680   0.866
 9412SOL    HW129135   0.960   0.742   0.796
 9412SOL    HW229136   0.827   0.663   0.850
 9413SOL     OW29137   4.789   4.734   4.876
 9413SOL    HW129138   4.726   4.808   4.898
 9413SOL    HW229139   4.749   4.647   4.905
 9414SOL     OW29140   2.519   2.150   4.982
 9414SOL    HW129141   2.518   2.097   4.897
 9414SOL    HW229142   2.577   2.231   4.969
 9415SOL     OW29143   3.056   0.160   1.805
 9415SOL    HW129144   3.065   0.061   1.822
 9415SOL    HW229145   3.122   0.188   1.735
 9416SOL     OW29146   0.169   0.094   5.184
 9416SOL    HW129147   0.131   0.001   5.179
 9416SOL    HW229148   0.248   0.101   5.123
 9417SOL     OW29149   3.269   6.448   1.623
 9417SOL    HW129150   3.275   6.519   1.692
 9417SOL    HW229151   3.349   6.452   1.563
 9418SOL     OW29152   3.107   0.985   3.236
 9418SOL    HW129153   3.092   1.069   3.287
 9418SOL    HW229154   3.144   0.915   3.297
 9419SOL     OW29155   2.234   2.527   6.358
 9419SOL    HW129156   2.142   2.501   6.330
 9419SOL    HW229157   2.281   2.573   6.282
 9420SOL     OW29158   5.864   4.443   0.533
 9420SOL    HW129159   5.923   4.396   0.598
 9420SOL    HW229160   5.877   4.542   0.540
 9421SOL     OW29161   3.613   5.576   4.817
 9421SOL    HW129162   3.514   5.564   4.808
 9421SOL    HW229163   3.652   5.605   4.729
 9422SOL     OW29164   2.388   6.357   4.214
 9422SOL    HW129165   2.403   6.371   4.116
 9422SOL    HW229166   2.314   6.291   4.227
 9423SOL     OW29167   3.601   5.477   2.942
 9423SOL    HW129168   3.648   5.441   3.022
 9423SOL    HW229169   3.503   5.487   2.963
 9424SOL     OW29170   4.961   1.796   4.710
 9424SOL    HW129171   4.976   1.789   4.612
 9424SOL    HW229172   4.901   1.723   4.741
 9425SOL     OW29173   6.014   4.785   1.571
 9425SOL    HW129174   6.068   4.854   1.523
 9425SOL    HW229175   6.037   4.694   1.536
 9426SOL     OW29176   1.149   2.123   6.291
 9426SOL    HW129177   1.216   2.087   6.355
 9426SOL    HW229178   1.085   2.051   6.265
 9427SOL     OW29179   2.868   5.662   2.911
 9427SOL    HW129180   2.795   5.728   2.890
 9427SOL    HW229181   2.830   5.569   2.909
 9428SOL     OW29182   6.093   6.088   0.584
 9428SOL    HW129183   6.174   6.130   0.625
 9428SOL    HW229184   6.119   6.002   0.539
 9429SOL     OW29185   1.570   2.280   4.310
 9429SOL    HW129186   1.593   2.251   4.217
 9429SOL    HW229187   1.580   2.379   4.319
 9430SOL     OW29188   0.086   2.008   4.745
 9430SOL    HW129189   0.109   2.016   4.842
 9430SOL    HW229190   0.124   2.085   4.695
 9431SOL     OW29191   6.850   4.577   1.018
 9431SOL    HW129192   6.837   4.479   1.001
 9431SOL    HW229193   6.940   4.593   1.059
 9432SOL     OW29194   6.819   1.658   4.014
 9432SOL    HW129195   6.779   1.574   4.051
 9432SOL    HW229196   6.858   1.712   4.089
 9433SOL     OW29197   4.198   5.805   2.681
 9433SOL    HW129198   4.136   5.727   2.689
 9433SOL    HW229199   4.291   5.773   2.666
 9434SOL     OW29200   5.748   5.478   3.695
 9434SOL    HW129201   5.731   5.544   3.622
 9434SOL    HW229202   5.793   5.524   3.771
 9435SOL     OW29203   0.195   2.594   2.362
 9435SOL    HW129204   0.107   2.619   2.402
 9435SOL    HW229205   0.236   2.520   2.415
 9436SOL     OW29206   1.203   1.149   1.932
 9436SOL    HW129207   1.251   1.108   2.009
 9436SOL    HW229208   1.166   1.238   1.959
 9437SOL     OW29209   0.552   5.398   3.118
 9437SOL    HW129210   0.557   5.298   3.114
 9437SOL    HW229211   0.617   5.431   3.186
 9438SOL     OW29212   2.305   6.942   1.594
 9438SOL    HW129213   2.246   6.882   1.648
 9438SOL    HW229214   2.349   6.888   1.522
 9439SOL     OW29215   0.558   3.059   0.829
 9439SOL    HW129216   0.475   3.036   0.778
 9439SOL    HW229217   0.545   3.146   0.876
 9440SOL     OW29218   3.030   5.021   3.250
 9440SOL    HW129219   2.950   4.967   3.277
 9440SOL    HW229220   3.001   5.113   3.223
 9441SOL     OW29221   6.542   5.579   4.933
 9441SOL    HW129222   6.506   5.649   4.995
 9441SOL    HW229223   6.590   5.623   4.858
 9442SOL     OW29224   4.828   3.901   1.136
 9442SOL    HW129225   4.850   3.893   1.233
 9442SOL    HW229226   4.828   3.810   1.094
 9443SOL     OW29227   2.900   5.727   1.578
 9443SOL    HW129228   2.826   5.663   1.599
 9443SOL    HW229229   2.973   5.717   1.645
 9444SOL     OW29230   1.940   3.709   0.752
 9444SOL    HW129231   1.951   3.783   0.819
 9444SOL    HW229232   2.018   3.708   0.689
 9445SOL     OW29233   0.397   1.988   4.281
 9445SOL    HW129234   0.347   2.062   4.236
 9445SOL    HW229235   0.439   1.928   4.212
 9446SOL     OW29236   6.397   4.954   4.151
 9446SOL    HW129237   6.341   4.934   4.070
 9446SOL    HW229238   6.462   5.026   4.130
 9447SOL     OW29239   5.069   5.354   3.148
 9447SOL    HW129240   5.118   5.430   3.105
 9447SOL    HW229241   5.019   5.303   3.079
 9448SOL     OW29242   5.985   6.720   5.509
 9448SOL    HW129243   6.079   6.749   5.489
 9448SOL    HW229244   5.962   6.742   5.604
 9449SOL     OW29245   5.347   6.577   6.784
 9449SOL    HW129246   5.403   6.558   6.865
 9449SOL    HW229247   5.402   6.623   6.715
 9450SOL     OW29248   1.887   5.686   4.363
 9450SOL    HW129249   1.890   5.733   4.451
 9450SOL    HW229250   1.963   5.717   4.306
 9451SOL     OW29251   3.525   5.577   6.616
 9451SOL    HW129252   3.451   5.645   6.620
 9451SOL    HW229253   3.573   5.587   6.529
 9452SOL     OW29254   0.330   4.509   1.189
 9452SOL    HW129255   0.387   4.579   1.233
 9452SOL    HW229256   0.388   4.434   1.159
 9453SOL     OW29257   3.214   4.949   3.065
 9453SOL    HW129258   3.301   4.996   3.079
 9453SOL    HW229259   3.152   4.970   3.140
 9454SOL     OW29260   4.482   4.274   1.070
 9454SOL    HW129261   4.453   4.196   1.014
 9454SOL    HW229262   4.471   4.252   1.167
 9455SOL     OW29263   2.476   2.423   2.750
 9455SOL    HW129264   2.543   2.396   2.681
 9455SOL    HW229265   2.403   2.355   2.753
 9456SOL     OW29266   6.283   3.640   2.383
 9456SOL    HW129267   6.303   3.675   2.292
 9456SOL    HW229268   6.211   3.696   2.425
 9457SOL     OW29269   0.977   5.177   4.556
 9457SOL    HW129270   1.074   5.173   4.580
 9457SOL    HW229271   0.965   5.224   4.469
 9458SOL     OW29272   7.009   4.362   0.378
 9458SOL    HW129273   6.938   4.358   0.308
 9458SOL    HW229274   0.048   4.292   0.360
 9459SOL     OW29275   5.355   4.285   4.459
 9459SOL    HW129276   5.440   4.292   4.511
 9459SOL    HW229277   5.375   4.298   4.361
 9460SOL     OW29278   1.706   3.270   4.717
 9460SOL    HW129279   1.684   3.228   4.629
 9460SOL    HW229280   1.772   3.212   4.765
 9461SOL     OW29281   0.977   1.621   1.399
 9461SOL    HW129282   0.913   1.580   1.335
 9461SOL    HW229283   1.013   1.549   1.460
 9462SOL     OW29284   1.213   2.789   3.710
 9462SOL    HW129285   1.252   2.880   3.704
 9462SOL    HW229286   1.135   2.790   3.773
 9463SOL     OW29287   5.676   6.475   1.503
 9463SOL    HW129288   5.601   6.529   1.541
 9463SOL    HW229289   5.694   6.505   1.409
 9464SOL     OW29290   6.588   0.666   1.456
 9464SOL    HW129291   6.566   0.569   1.463
 9464SOL    HW229292   6.563   0.712   1.541
 9465SOL     OW29293   0.308   3.906   1.615
 9465SOL    HW129294   0.302   3.815   1.655
 9465SOL    HW229295   0.222   3.927   1.568
 9466SOL     OW29296   4.234   5.832   6.605
 9466SOL    HW129297   4.312   5.892   6.615
 9466SOL    HW229298   4.245   5.777   6.522
 9467SOL     OW29299   2.143   2.778   0.655
 9467SOL    HW129300   2.054   2.752   0.694
 9467SOL    HW229301   2.215   2.728   0.702
 9468SOL     OW29302   6.788   3.596   6.537
 9468SOL    HW129303   6.793   3.516   6.598
 9468SOL    HW229304   6.705   3.647   6.557
 9469SOL     OW29305   6.855   6.118   0.183
 9469SOL    HW129306   6.882   6.207   0.146
 9469SOL    HW229307   6.839   6.055   0.108
 9470SOL     OW29308   4.782   4.011   6.954
 9470SOL    HW129309   4.866   3.985   6.906
 9470SOL    HW229310   4.703   3.990   6.897
 9471SOL     OW29311   6.407   2.418   5.105
 9471SOL    HW129312   6.500   2.452   5.088
 9471SOL    HW229313   6.342   2.471   5.051
 9472SOL     OW29314   1.197   4.548   6.229
 9472SOL    HW129315   1.291   4.547   6.193
 9472SOL    HW229316   1.140   4.605   6.171
 9473SOL     OW29317   3.214   3.945   0.050
 9473SOL    HW129318   3.265   3.920   6.998
 9473SOL    HW229319   3.273   3.995   0.113
 9474SOL     OW29320   5.989   3.640   1.780
 9474SOL    HW129321   6.030   3.711   1.837
 9474SOL    HW229322   5.917   3.593   1.832
 9475SOL     OW29323   4.295   3.407   6.520
 9475SOL    HW129324   4.304   3.311   6.491
 9475SOL    HW229325   4.224   3.451   6.466
 9476SOL     OW29326   3.836   4.241   5.756
 9476SOL    HW129327   3.792   4.256   5.667
 9476SOL    HW229328   3.786   4.292   5.826
 9477SOL     OW29329   1.633   3.614   1.020
 9477SOL    HW129330   1.639   3.690   1.085
 9477SOL    HW229331   1.720   3.603   0.973
 9478SOL     OW29332   4.294   2.471   1.130
 9478SOL    HW129333   4.331   2.525   1.206
 9478SOL    HW229334   4.295   2.526   1.047
 9479SOL     OW29335   4.182   0.973   1.629
 9479SOL    HW129336   4.267   0.969   1.577
 9479SOL    HW229337   4.162   0.883   1.667
 9480SOL     OW29338   5.542   5.959   0.073
 9480SOL    HW129339   5.544   6.050   0.032
 9480SOL    HW229340   5.450   5.921   0.068
 9481SOL     OW29341   4.729   1.897   3.275
 9481SOL    HW129342   4.701   1.952   3.196
 9481SOL    HW229343   4.656   1.833   3.299
 9482SOL     OW29344   5.734   0.409   1.081
 9482SOL    HW129345   5.673   0.485   1.100
 9482SOL    HW229346   5.700   0.359   1.001
 9483SOL     OW29347   1.137   0.736   0.108
 9483SOL    HW129348   1.043   0.706   0.089
 9483SOL    HW229349   1.164   0.805   0.042
 9484SOL     OW29350   2.785   0.020   4.430
 9484SOL    HW129351   2.884   0.014   4.420
 9484SOL    HW229352   2.742   6.970   4.389
 9485SOL     OW29353   6.083   1.336   1.106
 9485SOL    HW129354   6.061   1.428   1.075
 9485SOL    HW229355   6.047   1.323   1.199
 9486SOL     OW29356   5.046   5.770   0.893
 9486SOL    HW129357   5.069   5.772   0.990
 9486SOL    HW229358   5.124   5.736   0.841
 9487SOL     OW29359   3.104   3.558   4.540
 9487SOL    HW129360   3.069   3.649   4.564
 9487SOL    HW229361   3.105   3.549   4.440
 9488SOL     OW29362   1.639   1.146   1.676
 9488SOL    HW129363   1.618   1.238   1.708
 9488SOL    HW229364   1.553   1.096   1.663
 9489SOL     OW29365   5.336   4.342   0.983
 9489SOL    HW129366   5.273   4.316   0.909
 9489SOL    HW229367   5.418   4.285   0.979
 9490SOL     OW29368   6.360   5.711   3.929
 9490SOL    HW129369   6.330   5.805   3.912
 9490SOL    HW229370   6.392   5.702   4.023
 9491SOL     OW29371   5.449   6.175   3.728
 9491SOL    HW129372   5.376   6.109   3.744
 9491SOL    HW229373   5.531   6.128   3.694
 9492SOL     OW29374   4.786   3.066   5.137
 9492SOL    HW129375   4.804   3.048   5.040
 9492SOL    HW229376   4.799   3.163   5.156
 9493SOL     OW29377   3.102   6.133   4.194
 9493SOL    HW129378   3.177   6.199   4.204
 9493SOL    HW229379   3.093   6.106   4.098
 9494SOL     OW29380   5.655   3.019   2.072
 9494SOL    HW129381   5.675   2.941   2.014
 9494SOL    HW229382   5.625   2.988   2.163
 9495SOL     OW29383   6.694   1.317   2.239
 9495SOL    HW129384   6.788   1.330   2.207
 9495SOL    HW229385   6.690   1.337   2.337
 9496SOL     OW29386   4.582   2.141   2.276
 9496SOL    HW129387   4.572   2.239   2.289
 9496SOL    HW229388   4.491   2.100   2.261
 9497SOL     OW29389   5.064   5.669   5.322
 9497SOL    HW129390   5.052   5.646   5.226
 9497SOL    HW229391   5.142   5.618   5.359
 9498SOL     OW29392   0.148   4.751   4.404
 9498SOL    HW129393   0.089   4.671   4.415
 9498SOL    HW229394   0.145   4.781   4.309
 9499SOL     OW29395   6.793   5.370   5.218
 9499SOL    HW129396   6.754   5.288   5.174
 9499SOL    HW229397   6.780   5.364   5.317
 9500SOL     OW29398   4.002   6.546   0.964
 9500SOL    HW129399   3.968   6.504   1.049
 9500SOL    HW229400   4.080   6.605   0.985
 9501SOL     OW29401   1.421   1.600   4.372
 9501SOL    HW129402   1.350   1.619   4.439
 9501SOL    HW229403   1.482   1.679   4.364
 9502SOL     OW29404   5.431   4.645   5.097
 9502SOL    HW129405   5.524   4.639   5.133
 9502SOL    HW229406   5.434   4.678   5.002
 9503SOL     OW29407   0.710   2.282   0.567
 9503SOL    HW129408   0.663   2.245   0.486
 9503SOL    HW229409   0.666   2.367   0.595
 9504SOL     OW29410   6.753   3.523   2.039
 9504SOL    HW129411   6.844   3.530   2.080
 9504SOL    HW229412   6.689   3.580   2.090
 9505SOL     OW29413   4.721   5.160   5.834
 9505SOL    HW129414   4.681   5.218   5.763
 9505SOL    HW229415   4.768   5.083   5.791
 9506SOL     OW29416   2.204   2.390   0.398
 9506SOL    HW129417   2.207   2.337   0.313
 9506SOL    HW229418   2.109   2.399   0.428
 9507SOL     OW29419   6.325   0.585   0.590
 9507SOL    HW129420   6.247   0.526   0.607
 9507SOL    HW229421   6.306   0.677   0.626
 9508SOL     OW29422   5.340   1.896   2.105
 9508SOL    HW129423   5.342   1.924   2.009
 9508SOL    HW229424   5.387   1.964   2.161
 9509SOL     OW29425   6.458   0.648   3.032
 9509SOL    HW129426   6.432   0.568   2.977
 9509SOL    HW229427   6.379   0.708   3.044
 9510SOL     OW29428   1.051   3.516   3.559
 9510SOL    HW129429   1.130   3.458   3.538
 9510SOL    HW229430   1.081   3.611   3.566
 9511SOL     OW29431   0.860   1.063   1.449
 9511SOL    HW129432   0.787   1.087   1.513
 9511SOL    HW229433   0.945   1.049   1.499
 9512SOL     OW29434   6.904   3.199   0.953
 9512SOL    HW129435   6.913   3.137   1.031
 9512SOL    HW229436   6.808   3.212   0.932
 9513SOL     OW29437   3.406   4.841   5.841
 9513SOL    HW129438   3.310   4.858   5.818
 9513SOL    HW229439   3.412   4.763   5.904
 9514SOL     OW29440   2.904   3.361   6.486
 9514SOL    HW129441   2.863   3.349   6.395
 9514SOL    HW229442   2.874   3.448   6.525
 9515SOL     OW29443   2.788   4.931   3.353
 9515SOL    HW129444   2.757   4.840   3.380
 9515SOL    HW229445   2.826   4.978   3.433
 9516SOL     OW29446   5.908   4.715   0.561
 9516SOL    HW129447   5.938   4.672   0.647
 9516SOL    HW229448   5.828   4.771   0.579
 9517SOL     OW29449   1.076   4.246   1.597
 9517SOL    HW129450   1.044   4.254   1.503
 9517SOL    HW229451   1.122   4.158   1.609
 9518SOL     OW29452   2.710   1.231   0.303
 9518SOL    HW129453   2.780   1.172   0.344
 9518SOL    HW229454   2.654   1.272   0.375
 9519SOL     OW29455   1.307   2.197   5.673
 9519SOL    HW129456   1.399   2.161   5.692
 9519SOL    HW229457   1.242   2.158   5.737
 9520SOL     OW29458   2.661   0.289   2.538
 9520SOL    HW129459   2.625   0.218   2.477
 9520SOL    HW229460   2.761   0.290   2.531
 9521SOL     OW29461   5.951   6.172   3.946
 9521SOL    HW129462   5.952   6.183   4.045
 9521SOL    HW229463   5.903   6.249   3.904
 9522SOL     OW29464   3.298   5.935   0.706
 9522SOL    HW129465   3.334   5.991   0.781
 9522SOL    HW229466   3.374   5.904   0.648
 9523SOL     OW29467   3.235   5.208   4.383
 9523SOL    HW129468   3.180   5.236   4.462
 9523SOL    HW229469   3.255   5.287   4.326
 9524SOL     OW29470   3.730   2.725   1.312
 9524SOL    HW129471   3.638   2.712   1.349
 9524SOL    HW229472   3.727   2.784   1.232
 9525SOL     OW29473   2.051   1.221   6.265
 9525SOL    HW129474   2.139   1.222   6.218
 9525SOL    HW229475   2.030   1.313   6.299
 9526SOL     OW29476   5.751   6.242   3.264
 9526SOL    HW129477   5.709   6.156   3.237
 9526SOL    HW229478   5.840   6.251   3.221
 9527SOL     OW29479   1.044   0.785   1.922
 9527SOL    HW129480   1.047   0.790   2.022
 9527SOL    HW229481   0.996   0.701   1.894
 9528SOL     OW29482   6.703   0.156   0.529
 9528SOL    HW129483   6.693   0.154   0.628
 9528SOL    HW229484   6.680   0.067   0.491
 9529SOL     OW29485   1.241   3.224   6.499
 9529SOL    HW129486   1.201   3.134   6.518
 9529SOL    HW229487   1.202   3.292   6.561
 9530SOL     OW29488   1.659   2.826   2.872
 9530SOL    HW129489   1.698   2.878   2.949
 9530SOL    HW229490   1.710   2.848   2.789
 9531SOL     OW29491   4.100   6.097   2.679
 9531SOL    HW129492   4.060   6.110   2.588
 9531SOL    HW229493   4.148   6.009   2.682
 9532SOL     OW29494   1.850   5.998   1.286
 9532SOL    HW129495   1.874   5.946   1.203
 9532SOL    HW229496   1.933   6.034   1.327
 9533SOL     OW29497   0.347   1.303   5.350
 9533SOL    HW129498   0.384   1.292   5.258
 9533SOL    HW229499   0.251   1.330   5.345
 9534SOL     OW29500   5.479   2.163   5.122
 9534SOL    HW129501   5.478   2.220   5.039
 9534SOL    HW229502   5.478   2.222   5.202
 9535SOL     OW29503   2.830   0.454   5.713
 9535SOL    HW129504   2.923   0.479   5.685
 9535SOL    HW229505   2.809   0.362   5.679
 9536SOL     OW29506   2.112   5.914   5.753
 9536SOL    HW129507   2.138   5.990   5.692
 9536SOL    HW229508   2.022   5.881   5.727
 9537SOL     OW29509   3.456   0.089   2.487
 9537SOL    HW129510   3.529   0.116   2.550
 9537SOL    HW229511   3.477   0.125   2.396
 9538SOL     OW29512   6.512   1.687   4.570
 9538SOL    HW129513   6.457   1.650   4.495
 9538SOL    HW229514   6.457   1.694   4.653
 9539SOL     OW29515   2.067   4.975   6.398
 9539SOL    HW129516   1.981   4.985   6.448
 9539SOL    HW229517   2.126   4.909   6.444
 9540SOL     OW29518   4.683   4.839   5.571
 9540SOL    HW129519   4.695   4.804   5.477
 9540SOL    HW229520   4.634   4.771   5.625
 9541SOL     OW29521   1.374   2.340   5.141
 9541SOL    HW129522   1.408   2.429   5.110
 9541SOL    HW229523   1.275   2.339   5.134
 9542SOL     OW29524   4.923   3.367   4.974
 9542SOL    HW129525   4.872   3.335   5.054
 9542SOL    HW229526   4.906   3.465   4.961
 9543SOL     OW29527   4.593   0.870   4.167
 9543SOL    HW129528   4.539   0.954   4.171
 9543SOL    HW229529   4.669   0.876   4.232
 9544SOL     OW29530   6.132   0.145   2.164
 9544SOL    HW129531   6.084   0.056   2.165
 9544SOL    HW229532   6.100   0.199   2.086
 9545SOL     OW29533   6.773   6.627   3.271
 9545SOL    HW129534   6.727   6.610   3.184
 9545SOL    HW229535   6.707   6.623   3.346
 9546SOL     OW29536   2.942   4.142   6.723
 9546SOL    HW129537   2.906   4.236   6.718
 9546SOL    HW229538   2.984   4.118   6.636
 9547SOL     OW29539   1.602   6.224   4.082
 9547SOL    HW129540   1.661   6.190   4.009
 9547SOL    HW229541   1.593   6.324   4.074
 9548SOL     OW29542   5.986   5.813   4.868
 9548SOL    HW129543   6.065   5.800   4.809
 9548SOL    HW229544   5.915   5.747   4.844
 9549SOL     OW29545   3.554   5.285   0.496
 9549SOL    HW129546   3.618   5.228   0.444
 9549SOL    HW229547   3.605   5.339   0.563
 9550SOL     OW29548   0.622   1.724   0.189
 9550SOL    HW129549   0.540   1.721   0.132
 9550SOL    HW229550   0.686   1.654   0.160
 9551SOL     OW29551   0.165   0.180   4.821
 9551SOL    HW129552   0.225   0.132   4.757
 9551SOL    HW229553   0.118   0.254   4.774
 9552SOL     OW29554   0.955   0.066   3.289
 9552SOL    HW129555   0.864   0.061   3.247
 9552SOL    HW229556   0.977   7.008   3.331
 9553SOL     OW29557   6.006   4.806   6.683
 9553SOL    HW129558   5.979   4.758   6.767
 9553SOL    HW229559   6.090   4.765   6.648
 9554SOL     OW29560   2.553   1.226   2.255
 9554SOL    HW129561   2.573   1.187   2.165
 9554SOL    HW229562   2.620   1.296   2.277
 9555SOL     OW29563   6.454   2.226   1.002
 9555SOL    HW129564   6.459   2.325   1.001
 9555SOL    HW229565   6.541   2.187   0.972
 9556SOL     OW29566   2.386   0.842   1.130
 9556SOL    HW129567   2.386   0.942   1.117
 9556SOL    HW229568   2.309   0.816   1.189
 9557SOL     OW29569   6.205   0.754   2.482
 9557SOL    HW129570   6.273   0.820   2.452
 9557SOL    HW229571   6.190   0.686   2.410
 9558SOL     OW29572   0.324   4.921   2.923
 9558SOL    HW129573   0.379   4.968   2.854
 9558SOL    HW229574   0.276   4.988   2.980
 9559SOL     OW29575   0.253   3.227   1.985
 9559SOL    HW129576   0.347   3.216   1.951
 9559SOL    HW229577   0.231   3.151   2.046
 9560SOL     OW29578   2.319   1.583   3.760
 9560SOL    HW129579   2.400   1.622   3.717
 9560SOL    HW229580   2.308   1.488   3.731
 9561SOL     OW29581   3.238   6.628   0.685
 9561SOL    HW129582   3.175   6.624   0.607
 9561SOL    HW229583   3.295   6.710   0.678
 9562SOL     OW29584   4.691   5.958   3.165
 9562SOL    HW129585   4.752   5.883   3.189
 9562SOL    HW229586   4.627   5.928   3.094
 9563SOL     OW29587   0.128   6.370   6.370
 9563SOL    HW129588   0.162   6.464   6.374
 9563SOL    HW229589   0.031   6.369   6.393
 9564SOL     OW29590   2.866   6.940   6.463
 9564SOL    HW129591   2.776   6.947   6.420
 9564SOL    HW229592   2.922   6.874   6.413
 9565SOL     OW29593   3.744   6.018   4.256
 9565SOL    HW129594   3.645   6.005   4.264
 9565SOL    HW229595   3.784   5.941   4.208
 9566SOL     OW29596   2.886   4.359   5.820
 9566SOL    HW129597   2.905   4.337   5.725
 9566SOL    HW229598   2.790   4.339   5.841
 9567SOL     OW29599   6.242   6.022   6.422
 9567SOL    HW129600   6.159   6.072   6.396
 9567SOL    HW229601   6.321   6.082   6.411
 9568SOL     OW29602   5.579   4.101   6.404
 9568SOL    HW129603   5.604   4.040   6.329
 9568SOL    HW229604   5.564   4.193   6.368
 9569SOL     OW29605   6.126   1.434   0.067
 9569SOL    HW129606   6.210   1.487   0.058
 9569SOL    HW229607   6.147   1.336   0.056
 9570SOL     OW29608   0.142   1.114   0.897
 9570SOL    HW129609   0.186   1.039   0.847
 9570SOL    HW229610   0.104   1.079   0.983
 9571SOL     OW29611   1.936   3.886   0.391
 9571SOL    HW129612   2.015   3.855   0.445
 9571SOL    HW229613   1.927   3.829   0.309
 9572SOL     OW29614   1.204   4.687   1.068
 9572SOL    HW129615   1.227   4.674   0.972
 9572SOL    HW229616   1.273   4.642   1.125
 9573SOL     OW29617   1.453   1.461   0.345
 9573SOL    HW129618   1.440   1.560   0.337
 9573SOL    HW229619   1.501   1.426   0.264
 9574SOL     OW29620   3.653   3.570   5.426
 9574SOL    HW129621   3.673   3.517   5.343
 9574SOL    HW229622   3.736   3.614   5.460
 9575SOL     OW29623   5.414   0.814   2.000
 9575SOL    HW129624   5.433   0.871   2.081
 9575SOL    HW229625   5.319   0.783   2.003
 9576SOL     OW29626   2.879   1.645   4.326
 9576SOL    HW129627   2.919   1.602   4.244
 9576SOL    HW229628   2.928   1.729   4.347
 9577SOL     OW29629   0.281   6.446   2.433
 9577SOL    HW129630   0.203   6.397   2.473
 9577SOL    HW229631   0.352   6.458   2.501
 9578SOL     OW29632   6.385   2.668   2.360
 9578SOL    HW129633   6.299   2.621   2.343
 9578SOL    HW229634   6.439   2.670   2.276
 9579SOL     OW29635   1.595   6.939   1.555
 9579SOL    HW129636   1.635   7.028   1.580
 9579SOL    HW229637   1.618   6.917   1.461
 9580SOL     OW29638   4.307   3.904   0.258
 9580SOL    HW129639   4.403   3.879   0.274
 9580SOL    HW229640   4.302   3.997   0.223
 9581SOL     OW29641   1.103   5.189   6.180
 9581SOL    HW129642   1.060   5.265   6.131
 9581SOL    HW229643   1.108   5.109   6.119
 9582SOL     OW29644   4.322   4.701   4.233
 9582SOL    HW129645   4.277   4.718   4.145
 9582SOL    HW229646   4.254   4.704   4.306
 9583SOL     OW29647   2.150   3.656   2.280
 9583SOL    HW129648   2.153   3.594   2.358
 9583SOL    HW229649   2.169   3.604   2.196
 9584SOL     OW29650   6.201   5.171   6.613
 9584SOL    HW129651   6.241   5.194   6.524
 9584SOL    HW229652   6.171   5.254   6.659
 9585SOL     OW29653   6.218   0.044   3.326
 9585SOL    HW129654   6.173   0.051   3.236
 9585SOL    HW229655   6.306   7.029   3.316
 9586SOL     OW29656   5.045   3.481   2.919
 9586SOL    HW129657   5.071   3.419   2.845
 9586SOL    HW229658   4.990   3.431   2.987
 9587SOL     OW29659   5.978   0.241   1.978
 9587SOL    HW129660   5.995   0.195   1.891
 9587SOL    HW229661   5.880   0.239   1.998
 9588SOL     OW29662   0.084   0.599   1.649
 9588SOL    HW129663   0.168   0.560   1.687
 9588SOL    HW229664   0.091   0.699   1.650
 9589SOL     OW29665   2.486   0.256   6.080
 9589SOL    HW129666   2.573   0.305   6.072
 9589SOL    HW229667   2.495   0.164   6.043
 9590SOL     OW29668   0.153   4.375   2.869
 9590SOL    HW129669   0.163   4.472   2.844
 9590SOL    HW229670   0.214   4.353   2.945
 9591SOL     OW29671   2.477   5.708   0.956
 9591SOL    HW129672   2.518   5.788   0.912
 9591SOL    HW229673   2.400   5.675   0.902
 9592SOL     OW29674   4.555   5.623   2.385
 9592SOL    HW129675   4.495   5.551   2.419
 9592SOL    HW229676   4.569   5.691   2.457
 9593SOL     OW29677   6.524   2.681   4.826
 9593SOL    HW129678   6.521   2.716   4.732
 9593SOL    HW229679   6.573   2.593   4.827
 9594SOL     OW29680   6.389   6.628   2.378
 9594SOL    HW129681   6.358   6.538   2.410
 9594SOL    HW229682   6.324   6.665   2.313
 9595SOL     OW29683   2.019   5.970   4.561
 9595SOL    HW129684   2.118   5.970   4.551
 9595SOL    HW229685   1.989   5.882   4.598
 9596SOL     OW29686   6.019   5.722   5.492
 9596SOL    HW129687   6.058   5.796   5.546
 9596SOL    HW229688   6.077   5.640   5.502
 9597SOL     OW29689   1.205   3.984   1.609
 9597SOL    HW129690   1.132   3.916   1.601
 9597SOL    HW229691   1.291   3.939   1.633
 9598SOL     OW29692   0.080   4.630   6.052
 9598SOL    HW129693   0.065   4.726   6.072
 9598SOL    HW229694   0.136   4.589   6.125
 9599SOL     OW29695   4.131   0.823   5.774
 9599SOL    HW129696   4.148   0.890   5.845
 9599SOL    HW229697   4.133   0.868   5.684
 9600SOL     OW29698   1.597   6.729   6.119
 9600SOL    HW129699   1.582   6.654   6.184
 9600SOL    HW229700   1.528   6.800   6.134
 9601SOL     OW29701   0.448   4.557   5.289
 9601SOL    HW129702   0.460   4.614   5.370
 9601SOL    HW229703   0.418   4.466   5.316
 9602SOL     OW29704   0.901   5.394   6.995
 9602SOL    HW129705   0.877   5.348   0.051
 9602SOL    HW229706   1.001   5.398   6.987
 9603SOL     OW29707   1.566   6.163   4.794
 9603SOL    HW129708   1.557   6.257   4.828
 9603SOL    HW229709   1.592   6.165   4.697
 9604SOL     OW29710   5.387   1.432   6.618
 9604SOL    HW129711   5.292   1.440   6.590
 9604SOL    HW229712   5.406   1.496   6.693
 9605SOL     OW29713   2.376   5.815   6.454
 9605SOL    HW129714   2.293   5.867   6.475
 9605SOL    HW229715   2.373   5.727   6.502
 9606SOL     OW29716   0.289   6.062   3.832
 9606SOL    HW129717   0.360   6.120   3.874
 9606SOL    HW229718   0.293   6.073   3.733
 9607SOL     OW29719   1.155   1.463   2.441
 9607SOL    HW129720   1.207   1.547   2.425
 9607SOL    HW229721   1.195   1.389   2.386
 9608SOL     OW29722   0.220   0.031   2.705
 9608SOL    HW129723   0.295   0.052   2.642
 9608SOL    HW229724   0.135   0.074   2.672
 9609SOL     OW29725   1.982   4.416   4.379
 9609SOL    HW129726   2.040   4.367   4.445
 9609SOL    HW229727   1.920   4.477   4.429
 9610SOL     OW29728   1.958   1.471   6.333
 9610SOL    HW129729   2.014   1.548   6.303
 9610SOL    HW229730   1.892   1.503   6.401
 9611SOL     OW29731   6.556   0.233   1.012
 9611SOL    HW129732   6.530   0.322   0.974
 9611SOL    HW229733   6.475   0.189   1.052
 9612SOL     OW29734   5.658   3.471   1.648
 9612SOL    HW129735   5.605   3.424   1.719
 9612SOL    HW229736   5.654   3.570   1.664
 9613SOL     OW29737   6.346   6.257   4.921
 9613SOL    HW129738   6.272   6.273   4.986
 9613SOL    HW229739   6.433   6.253   4.970
 9614SOL     OW29740   3.280   3.724   2.075
 9614SOL    HW129741   3.330   3.642   2.101
 9614SOL    HW229742   3.190   3.698   2.041
 9615SOL     OW29743   1.284   6.136   2.508
 9615SOL    HW129744   1.289   6.234   2.527
 9615SOL    HW229745   1.351   6.111   2.438
 9616SOL     OW29746   3.639   2.188   0.796
 9616SOL    HW129747   3.644   2.140   0.709
 9616SOL    HW229748   3.552   2.167   0.841
 9617SOL     OW29749   1.368   3.042   3.720
 9617SOL    HW129750   1.457   3.079   3.694
 9617SOL    HW229751   1.378   2.983   3.799
 9618SOL     OW29752   3.260   5.969   6.559
 9618SOL    HW129753   3.298   5.882   6.528
 9618SOL    HW229754   3.160   5.968   6.546
 9619SOL     OW29755   2.646   6.119   0.526
 9619SOL    HW129756   2.638   6.212   0.563
 9619SOL    HW229757   2.555   6.077   0.521
 9620SOL     OW29758   3.326   1.304   6.785
 9620SOL    HW129759   3.273   1.284   6.868
 9620SOL    HW229760   3.276   1.368   6.728
 9621SOL     OW29761   0.666   0.814   2.106
 9621SOL    HW129762   0.684   0.903   2.147
 9621SOL    HW229763   0.657   0.825   2.006
 9622SOL     OW29764   5.858   0.232   6.402
 9622SOL    HW129765   5.922   0.185   6.462
 9622SOL    HW229766   5.767   0.191   6.412
 9623SOL     OW29767   4.508   6.133   6.115
 9623SOL    HW129768   4.469   6.215   6.074
 9623SOL    HW229769   4.590   6.158   6.167
 9624SOL     OW29770   4.495   5.637   4.994
 9624SOL    HW129771   4.497   5.736   4.984
 9624SOL    HW229772   4.405   5.609   5.025
 9625SOL     OW29773   5.308   4.144   6.458
 9625SOL    HW129774   5.298   4.220   6.393
 9625SOL    HW229775   5.404   4.119   6.466
 9626SOL     OW29776   1.703   4.184   6.210
 9626SOL    HW129777   1.793   4.220   6.236
 9626SOL    HW229778   1.689   4.196   6.112
 9627SOL     OW29779   0.965   5.431   6.495
 9627SOL    HW129780   0.870   5.458   6.508
 9627SOL    HW229781   0.975   5.334   6.517
 9628SOL     OW29782   5.683   3.953   6.650
 9628SOL    HW129783   5.627   4.033   6.673
 9628SOL    HW229784   5.669   3.883   6.721
 9629SOL     OW29785   7.024   5.747   3.048
 9629SOL    HW129786   7.029   5.688   2.968
 9629SOL    HW229787   7.029   5.842   3.020
 9630SOL     OW29788   6.381   6.343   5.666
 9630SOL    HW129789   6.467   6.381   5.633
 9630SOL    HW229790   6.343   6.402   5.737
 9631SOL     OW29791   4.196   1.315   0.959
 9631SOL    HW129792   4.179   1.409   0.987
 9631SOL    HW229793   4.228   1.262   1.038
 9632SOL     OW29794   3.138   6.427   0.986
 9632SOL    HW129795   3.226   6.474   0.988
 9632SOL    HW229796   3.152   6.329   1.002
 9633SOL     OW29797   4.042   3.193   2.345
 9633SOL    HW129798   4.015   3.284   2.378
 9633SOL    HW229799   4.130   3.168   2.385
 9634SOL     OW29800   5.175   4.976   2.635
 9634SOL    HW129801   5.124   4.901   2.676
 9634SOL    HW229802   5.226   4.942   2.556
 9635SOL     OW29803   1.334   4.182   3.846
 9635SOL    HW129804   1.346   4.279   3.864
 9635SOL    HW229805   1.401   4.130   3.899
 9636SOL     OW29806   4.323   2.089   5.151
 9636SOL    HW129807   4.405   2.064   5.100
 9636SOL    HW229808   4.307   2.187   5.143
 9637SOL     OW29809   2.534   2.780   0.754
 9637SOL    HW129810   2.516   2.794   0.657
 9637SOL    HW229811   2.450   2.754   0.800
 9638SOL     OW29812   0.209   4.281   5.738
 9638SOL    HW129813   0.204   4.304   5.836
 9638SOL    HW229814   0.118   4.293   5.697
 9639SOL     OW29815   4.663   2.005   1.792
 9639SOL    HW129816   4.577   1.977   1.834
 9639SOL    HW229817   4.694   1.935   1.728
 9640SOL     OW29818   3.852   0.859   2.280
 9640SOL    HW129819   3.925   0.915   2.242
 9640SOL    HW229820   3.786   0.916   2.328
 9641SOL     OW29821   5.893   4.785   2.699
 9641SOL    HW129822   5.920   4.875   2.665
 9641SOL    HW229823   5.859   4.730   2.623
 9642SOL     OW29824   1.262   0.346   3.940
 9642SOL    HW129825   1.322   0.413   3.983
 9642SOL    HW229826   1.313   0.262   3.923
 9643SOL     OW29827   5.151   3.804   4.229
 9643SOL    HW129828   5.174   3.795   4.326
 9643SOL    HW229829   5.158   3.900   4.202
 9644SOL     OW29830   1.268   5.568   5.071
 9644SOL    HW129831   1.241   5.594   5.163
 9644SOL    HW229832   1.345   5.625   5.041
 9645SOL     OW29833   1.334   5.586   6.084
 9645SOL    HW129834   1.391   5.525   6.029
 9645SOL    HW229835   1.334   5.556   6.179
 9646SOL     OW29836   3.003   6.636   5.360
 9646SOL    HW129837   2.912   6.670   5.339
 9646SOL    HW229838   3.031   6.668   5.451
 9647SOL     OW29839   6.316   6.023   3.505
 9647SOL    HW129840   6.222   5.993   3.522
 9647SOL    HW229841   6.319   6.123   3.502
 9648SOL     OW29842   4.910   2.080   1.287
 9648SOL    HW129843   4.841   2.143   1.250
 9648SOL    HW229844   4.887   2.059   1.382
 9649SOL     OW29845   2.482   3.466   0.618
 9649SOL    HW129846   2.454   3.541   0.677
 9649SOL    HW229847   2.449   3.481   0.525
 9650SOL     OW29848   6.865   4.889   4.253
 9650SOL    HW129849   6.965   4.896   4.244
 9650SOL    HW229850   6.838   4.793   4.243
 9651SOL     OW29851   2.509   1.538   0.367
 9651SOL    HW129852   2.496   1.608   0.436
 9651SOL    HW229853   2.568   1.465   0.403
 9652SOL     OW29854   7.020   3.816   1.152
 9652SOL    HW129855   0.064   3.748   1.155
 9652SOL    HW229856   0.029   3.905   1.130
 9653SOL     OW29857   4.653   3.520   6.108
 9653SOL    HW129858   4.601   3.534   6.192
 9653SOL    HW229859   4.592   3.483   6.037
 9654SOL     OW29860   3.732   3.212   3.692
 9654SOL    HW129861   3.661   3.168   3.747
 9654SOL    HW229862   3.782   3.142   3.641
 9655SOL     OW29863   5.609   0.609   1.954
 9655SOL    HW129864   5.681   0.655   2.006
 9655SOL    HW229865   5.536   0.674   1.935
 9656SOL     OW29866   6.102   3.635   0.574
 9656SOL    HW129867   6.114   3.722   0.527
 9656SOL    HW229868   6.151   3.637   0.661
 9657SOL     OW29869   5.949   3.479   3.502
 9657SOL    HW129870   5.881   3.542   3.539
 9657SOL    HW229871   5.955   3.492   3.403
 9658SOL     OW29872   4.464   1.320   2.916
 9658SOL    HW129873   4.382   1.294   2.967
 9658SOL    HW229874   4.464   1.419   2.901
 9659SOL     OW29875   3.421   2.656   0.792
 9659SOL    HW129876   3.392   2.560   0.791
 9659SOL    HW229877   3.451   2.683   0.701
 9660SOL     OW29878   1.123   5.940   0.755
 9660SOL    HW129879   1.063   5.860   0.745
 9660SOL    HW229880   1.211   5.921   0.711
 9661SOL     OW29881   5.383   5.011   1.137
 9661SOL    HW129882   5.387   5.030   1.039
 9661SOL    HW229883   5.288   5.006   1.166
 9662SOL     OW29884   5.325   4.561   6.903
 9662SOL    HW129885   5.417   4.533   6.875
 9662SOL    HW229886   5.325   4.584   7.000
 9663SOL     OW29887   1.141   4.383   3.636
 9663SOL    HW129888   1.072   4.330   3.586
 9663SOL    HW229889   1.133   4.365   3.734
 9664SOL     OW29890   5.178   3.727   3.408
 9664SOL    HW129891   5.091   3.756   3.368
 9664SOL    HW229892   5.247   3.798   3.394
 9665SOL     OW29893   6.373   6.414   6.692
 9665SOL    HW129894   6.377   6.501   6.741
 9665SOL    HW229895   6.299   6.357   6.729
 9666SOL     OW29896   6.446   4.387   1.376
 9666SOL    HW129897   6.391   4.326   1.319
 9666SOL    HW229898   6.508   4.440   1.317
 9667SOL     OW29899   4.652   5.808   1.141
 9667SOL    HW129900   4.737   5.785   1.189
 9667SOL    HW229901   4.656   5.769   1.048
 9668SOL     OW29902   1.353   6.220   5.745
 9668SOL    HW129903   1.255   6.213   5.766
 9668SOL    HW229904   1.399   6.135   5.771
 9669SOL     OW29905   2.506   6.793   0.719
 9669SOL    HW129906   2.431   6.825   0.777
 9669SOL    HW229907   2.515   6.694   0.727
 9670SOL     OW29908   0.335   0.378   5.867
 9670SOL    HW129909   0.400   0.325   5.921
 9670SOL    HW229910   0.287   0.444   5.925
 9671SOL     OW29911   0.919   5.061   6.785
 9671SOL    HW129912   0.956   5.040   6.695
 9671SOL    HW229913   0.993   5.066   6.852
 9672SOL     OW29914   0.749   4.546   4.017
 9672SOL    HW129915   0.687   4.484   4.066
 9672SOL    HW229916   0.733   4.640   4.047
 9673SOL     OW29917   2.907   4.208   1.468
 9673SOL    HW129918   2.823   4.195   1.416
 9673SOL    HW229919   2.973   4.260   1.414
 9674SOL     OW29920   3.324   6.321   3.069
 9674SOL    HW129921   3.281   6.235   3.098
 9674SOL    HW229922   3.276   6.398   3.113
 9675SOL     OW29923   4.747   4.279   0.872
 9675SOL    HW129924   4.675   4.264   0.940
 9675SOL    HW229925   4.827   4.224   0.896
 9676SOL     OW29926   1.039   2.811   6.354
 9676SOL    HW129927   1.041   2.720   6.396
 9676SOL    HW229928   1.012   2.879   6.422
 9677SOL     OW29929   6.110   5.023   0.639
 9677SOL    HW129930   6.146   4.930   0.649
 9677SOL    HW229931   6.186   5.086   0.624
 9678SOL     OW29932   3.298   3.875   4.770
 9678SOL    HW129933   3.210   3.860   4.726
 9678SOL    HW229934   3.350   3.790   4.772
 9679SOL     OW29935   2.549   1.820   4.506
 9679SOL    HW129936   2.494   1.821   4.590
 9679SOL    HW229937   2.565   1.725   4.479
 9680SOL     OW29938   4.658   6.282   3.715
 9680SOL    HW129939   4.659   6.324   3.806
 9680SOL    HW229940   4.566   6.290   3.676
 9681SOL     OW29941   2.175   0.804   1.309
 9681SOL    HW129942   2.082   0.829   1.282
 9681SOL    HW229943   2.197   0.846   1.397
 9682SOL     OW29944   5.539   5.224   4.456
 9682SOL    HW129945   5.502   5.253   4.544
 9682SOL    HW229946   5.467   5.228   4.386
 9683SOL     OW29947   1.872   6.488   0.696
 9683SOL    HW129948   1.817   6.480   0.613
 9683SOL    HW229949   1.957   6.537   0.676
 9684SOL     OW29950   1.729   4.385   5.415
 9684SOL    HW129951   1.800   4.368   5.484
 9684SOL    HW229952   1.671   4.304   5.407
 9685SOL     OW29953   4.483   3.823   1.060
 9685SOL    HW129954   4.490   3.794   1.155
 9685SOL    HW229955   4.431   3.754   1.009
 9686SOL     OW29956   6.491   2.354   6.523
 9686SOL    HW129957   6.396   2.382   6.536
 9686SOL    HW229958   6.550   2.433   6.530
 9687SOL     OW29959   6.282   6.990   1.671
 9687SOL    HW129960   6.218   6.915   1.652
 9687SOL    HW229961   6.353   6.992   1.601
 9688SOL     OW29962   1.698   4.634   1.285
 9688SOL    HW129963   1.765   4.695   1.242
 9688SOL    HW229964   1.612   4.637   1.234
 9689SOL     OW29965   1.305   6.190   6.809
 9689SOL    HW129966   1.366   6.211   6.885
 9689SOL    HW229967   1.334   6.105   6.766
 9690SOL     OW29968   5.051   5.218   4.468
 9690SOL    HW129969   5.044   5.126   4.509
 9690SOL    HW229970   5.063   5.285   4.541
 9691SOL     OW29971   3.088   3.944   2.033
 9691SOL    HW129972   3.055   3.944   1.938
 9691SOL    HW229973   3.036   3.877   2.086
 9692SOL     OW29974   4.243   5.211   6.870
 9692SOL    HW129975   4.177   5.155   6.819
 9692SOL    HW229976   4.291   5.154   6.936
 9693SOL     OW29977   5.910   3.844   4.233
 9693SOL    HW129978   5.945   3.756   4.200
 9693SOL    HW229979   5.861   3.830   4.319
 9694SOL     OW29980   2.905   6.757   2.003
 9694SOL    HW129981   2.901   6.673   1.948
 9694SOL    HW229982   2.812   6.794   2.012
 9695SOL     OW29983   0.207   4.181   3.768
 9695SOL    HW129984   0.185   4.104   3.828
 9695SOL    HW229985   0.262   4.248   3.819
 9696SOL     OW29986   5.888   1.728   3.044
 9696SOL    HW129987   5.822   1.797   3.013
 9696SOL    HW229988   5.981   1.765   3.037
 9697SOL     OW29989   0.022   5.884   7.015
 9697SOL    HW129990   0.086   5.961   7.017
 9697SOL    HW229991   0.049   5.821   6.942
 9698SOL     OW29992   5.916   3.570   0.049
 9698SOL    HW129993   5.956   3.505   0.114
 9698SOL    HW229994   5.867   3.521   7.007
 9699SOL     OW29995   1.304   5.454   0.286
 9699SOL    HW129996   1.298   5.543   0.331
 9699SOL    HW229997   1.212   5.417   0.274
 9700SOL     OW29998   6.184   6.850   3.990
 9700SOL    HW129999   6.142   6.940   4.002
 9700SOL    HW230000   6.202   6.810   4.080
 9701SOL     OW30001   4.963   3.147   6.909
 9701SOL    HW130002   4.873   3.110   6.934
 9701SOL    HW230003   4.963   3.174   6.813
 9702SOL     OW30004   3.819   3.155   0.719
 9702SOL    HW130005   3.726   3.154   0.682
 9702SOL    HW230006   3.884   3.168   0.644
 9703SOL     OW30007   6.084   4.101   5.125
 9703SOL    HW130008   6.047   4.188   5.157
 9703SOL    HW230009   6.184   4.103   5.131
 9704SOL     OW30010   3.109   4.928   2.576
 9704SOL    HW130011   3.042   4.888   2.513
 9704SOL    HW230012   3.194   4.876   2.572
 9705SOL     OW30013   5.892   4.211   5.325
 9705SOL    HW130014   5.953   4.275   5.279
 9705SOL    HW230015   5.911   4.211   5.423
 9706SOL     OW30016   1.455   1.299   1.982
 9706SOL    HW130017   1.455   1.340   1.891
 9706SOL    HW230018   1.535   1.240   1.992
 9707SOL     OW30019   6.075   4.837   2.246
 9707SOL    HW130020   5.981   4.863   2.268
 9707SOL    HW230021   6.111   4.776   2.317
 9708SOL     OW30022   1.858   1.001   2.797
 9708SOL    HW130023   1.859   0.978   2.895
 9708SOL    HW230024   1.786   0.949   2.752
 9709SOL     OW30025   5.861   3.298   2.450
 9709SOL    HW130026   5.851   3.231   2.376
 9709SOL    HW230027   5.926   3.368   2.424
 9710SOL     OW30028   6.346   6.801   6.581
 9710SOL    HW130029   6.301   6.882   6.618
 9710SOL    HW230030   6.437   6.826   6.547
 9711SOL     OW30031   3.730   6.128   6.421
 9711SOL    HW130032   3.779   6.160   6.502
 9711SOL    HW230033   3.772   6.166   6.339
 9712SOL     OW30034   5.919   3.164   0.796
 9712SOL    HW130035   5.850   3.188   0.864
 9712SOL    HW230036   5.907   3.069   0.767
 9713SOL     OW30037   1.791   6.327   3.159
 9713SOL    HW130038   1.693   6.318   3.177
 9713SOL    HW230039   1.805   6.376   3.073
 9714SOL     OW30040   3.618   5.278   4.686
 9714SOL    HW130041   3.545   5.316   4.743
 9714SOL    HW230042   3.630   5.335   4.604
 9715SOL     OW30043   6.508   4.491   1.648
 9715SOL    HW130044   6.504   4.432   1.567
 9715SOL    HW230045   6.561   4.573   1.628
 9716SOL     OW30046   4.049   4.170   6.713
 9716SOL    HW130047   3.987   4.221   6.773
 9716SOL    HW230048   4.062   4.078   6.749
 9717SOL     OW30049   4.531   0.346   6.240
 9717SOL    HW130050   4.520   0.268   6.180
 9717SOL    HW230051   4.621   0.387   6.225
 9718SOL     OW30052   3.311   1.913   0.453
 9718SOL    HW130053   3.364   1.831   0.431
 9718SOL    HW230054   3.317   1.978   0.378
 9719SOL     OW30055   4.811   6.498   4.632
 9719SOL    HW130056   4.846   6.408   4.658
 9719SOL    HW230057   4.818   6.561   4.710
 9720SOL     OW30058   1.596   4.046   2.537
 9720SOL    HW130059   1.695   4.036   2.551
 9720SOL    HW230060   1.572   4.143   2.537
 9721SOL     OW30061   0.568   1.714   0.793
 9721SOL    HW130062   0.576   1.759   0.704
 9721SOL    HW230063   0.565   1.615   0.781
 9722SOL     OW30064   3.452   2.316   5.770
 9722SOL    HW130065   3.402   2.248   5.717
 9722SOL    HW230066   3.509   2.372   5.709
 9723SOL     OW30067   6.274   4.865   4.560
 9723SOL    HW130068   6.252   4.926   4.636
 9723SOL    HW230069   6.291   4.918   4.477
 9724SOL     OW30070   1.975   5.611   6.375
 9724SOL    HW130071   1.902   5.543   6.384
 9724SOL    HW230072   2.053   5.570   6.327
 9725SOL     OW30073   3.885   5.618   5.061
 9725SOL    HW130074   3.881   5.714   5.034
 9725SOL    HW230075   3.938   5.566   4.994
 9726SOL     OW30076   5.410   1.058   4.553
 9726SOL    HW130077   5.441   1.039   4.459
 9726SOL    HW230078   5.350   1.139   4.552
 9727SOL     OW30079   0.438   2.454   6.972
 9727SOL    HW130080   0.384   2.480   0.022
 9727SOL    HW230081   0.434   2.354   6.961
 9728SOL     OW30082   6.057   0.738   5.863
 9728SOL    HW130083   6.156   0.752   5.859
 9728SOL    HW230084   6.013   0.793   5.792
 9729SOL     OW30085   1.173   4.036   3.641
 9729SOL    HW130086   1.244   4.060   3.576
 9729SOL    HW230087   1.201   4.063   3.734
 9730SOL     OW30088   0.613   4.321   4.128
 9730SOL    HW130089   0.524   4.352   4.164
 9730SOL    HW230090   0.680   4.321   4.201
 9731SOL     OW30091   5.186   3.912   2.389
 9731SOL    HW130092   5.141   3.902   2.478
 9731SOL    HW230093   5.132   3.972   2.331
 9732SOL     OW30094   1.144   3.064   2.311
 9732SOL    HW130095   1.058   3.020   2.337
 9732SOL    HW230096   1.172   3.128   2.383
 9733SOL     OW30097   6.162   5.708   2.872
 9733SOL    HW130098   6.174   5.729   2.775
 9733SOL    HW230099   6.222   5.632   2.897
 9734SOL     OW30100   6.392   6.626   6.862
 9734SOL    HW130101   6.479   6.674   6.853
 9734SOL    HW230102   6.399   6.560   6.938
 9735SOL     OW30103   1.323   2.278   3.827
 9735SOL    HW130104   1.356   2.308   3.916
 9735SOL    HW230105   1.390   2.300   3.756
 9736SOL     OW30106   4.922   2.185   5.853
 9736SOL    HW130107   4.846   2.179   5.919
 9736SOL    HW230108   4.901   2.255   5.785
 9737SOL     OW30109   5.790   2.135   2.692
 9737SOL    HW130110   5.723   2.209   2.682
 9737SOL    HW230111   5.768   2.061   2.629
 9738SOL     OW30112   1.973   6.606   0.225
 9738SOL    HW130113   2.007   6.630   0.316
 9738SOL    HW230114   1.894   6.664   0.203
 9739SOL     OW30115   4.494   6.295   6.939
 9739SOL    HW130116   4.403   6.304   6.898
 9739SOL    HW230117   4.538   6.212   6.906
 9740SOL     OW30118   5.710   1.036   2.153
 9740SOL    HW130119   5.740   1.123   2.113
 9740SOL    HW230120   5.653   1.054   2.233
 9741SOL     OW30121   2.963   1.045   4.118
 9741SOL    HW130122   2.909   0.979   4.169
 9741SOL    HW230123   2.940   1.138   4.149
 9742SOL     OW30124   4.445   1.693   6.788
 9742SOL    HW130125   4.488   1.775   6.825
 9742SOL    HW230126   4.502   1.613   6.809
 9743SOL     OW30127   0.215   3.123   3.494
 9743SOL    HW130128   0.205   3.043   3.435
 9743SOL    HW230129   0.292   3.179   3.462
 9744SOL     OW30130   1.941   6.954   2.593
 9744SOL    HW130131   1.958   7.026   2.660
 9744SOL    HW230132   2.028   6.921   2.557
 9745SOL     OW30133   5.727   1.758   6.046
 9745SOL    HW130134   5.719   1.820   5.968
 9745SOL    HW230135   5.818   1.767   6.087
 9746SOL     OW30136   4.788   6.804   6.832
 9746SOL    HW130137   4.844   6.733   6.875
 9746SOL    HW230138   4.736   6.764   6.757
 9747SOL     OW30139   2.564   1.719   1.605
 9747SOL    HW130140   2.559   1.815   1.578
 9747SOL    HW230141   2.576   1.714   1.705
 9748SOL     OW30142   6.993   0.328   2.876
 9748SOL    HW130143   0.011   0.416   2.883
 9748SOL    HW230144   6.991   0.299   2.781
 9749SOL     OW30145   0.647   2.396   2.262
 9749SOL    HW130146   0.685   2.304   2.250
 9749SOL    HW230147   0.595   2.422   2.180
 9750SOL     OW30148   6.459   4.640   3.762
 9750SOL    HW130149   6.482   4.601   3.673
 9750SOL    HW230150   6.385   4.705   3.752
 9751SOL     OW30151   2.532   0.114   1.441
 9751SOL    HW130152   2.440   0.146   1.420
 9751SOL    HW230153   2.596   0.148   1.371
 9752SOL     OW30154   4.204   2.366   6.929
 9752SOL    HW130155   4.190   2.403   6.837
 9752SOL    HW230156   4.199   2.266   6.925
 9753SOL     OW30157   0.725   5.698   5.828
 9753SOL    HW130158   0.626   5.714   5.826
 9753SOL    HW230159   0.756   5.694   5.923
 9754SOL     OW30160   3.762   0.658   0.702
 9754SOL    HW130161   3.765   0.629   0.798
 9754SOL    HW230162   3.809   0.591   0.645
 9755SOL     OW30163   3.217   4.091   5.058
 9755SOL    HW130164   3.296   4.082   4.996
 9755SOL    HW230165   3.240   4.155   5.131
 9756SOL     OW30166   5.722   1.516   5.904
 9756SOL    HW130167   5.815   1.482   5.916
 9756SOL    HW230168   5.707   1.595   5.963
 9757SOL     OW30169   6.096   4.384   3.903
 9757SOL    HW130170   6.001   4.383   3.935
 9757SOL    HW230171   6.153   4.432   3.970
 9758SOL     OW30172   1.420   1.276   0.531
 9758SOL    HW130173   1.351   1.209   0.504
 9758SOL    HW230174   1.435   1.340   0.456
 9759SOL     OW30175   1.002   1.567   0.241
 9759SOL    HW130176   0.914   1.542   0.201
 9759SOL    HW230177   1.072   1.570   0.169
 9760SOL     OW30178   5.310   2.562   6.859
 9760SOL    HW130179   5.352   2.482   6.817
 9760SOL    HW230180   5.279   2.538   6.951
 9761SOL     OW30181   1.317   1.011   2.143
 9761SOL    HW130182   1.415   1.004   2.129
 9761SOL    HW230183   1.293   0.979   2.234
 9762SOL     OW30184   2.752   2.006   4.713
 9762SOL    HW130185   2.735   1.976   4.807
 9762SOL    HW230186   2.681   2.070   4.685
 9763SOL     OW30187   6.593   1.707   2.611
 9763SOL    HW130188   6.555   1.615   2.611
 9763SOL    HW230189   6.519   1.774   2.622
 9764SOL     OW30190   6.018   2.730   2.677
 9764SOL    HW130191   6.036   2.710   2.773
 9764SOL    HW230192   6.006   2.645   2.626
 9765SOL     OW30193   6.122   1.632   2.359
 9765SOL    HW130194   6.032   1.599   2.388
 9765SOL    HW230195   6.168   1.561   2.305
 9766SOL     OW30196   2.541   0.375   3.549
 9766SOL    HW130197   2.497   0.386   3.638
 9766SOL    HW230198   2.633   0.337   3.562
 9767SOL     OW30199   2.560   3.189   5.619
 9767SOL    HW130200   2.610   3.108   5.647
 9767SOL    HW230201   2.462   3.174   5.631
 9768SOL     OW30202   5.739   2.606   0.586
 9768SOL    HW130203   5.699   2.543   0.652
 9768SOL    HW230204   5.675   2.680   0.566
 9769SOL     OW30205   3.418   0.842   5.372
 9769SOL    HW130206   3.515   0.852   5.396
 9769SOL    HW230207   3.394   0.910   5.303
 9770SOL     OW30208   3.337   2.040   6.050
 9770SOL    HW130209   3.339   2.028   5.951
 9770SOL    HW230210   3.401   2.111   6.077
 9771SOL     OW30211   2.190   6.839   1.861
 9771SOL    HW130212   2.195   6.871   1.955
 9771SOL    HW230213   2.229   6.747   1.855
 9772SOL     OW30214   1.723   6.138   2.065
 9772SOL    HW130215   1.782   6.095   2.133
 9772SOL    HW230216   1.695   6.069   1.997
 9773SOL     OW30217   5.670   5.105   3.350
 9773SOL    HW130218   5.618   5.182   3.389
 9773SOL    HW230219   5.758   5.098   3.395
 9774SOL     OW30220   0.957   5.355   3.461
 9774SOL    HW130221   0.912   5.424   3.518
 9774SOL    HW230222   0.927   5.264   3.489
 9775SOL     OW30223   2.943   0.539   3.209
 9775SOL    HW130224   2.997   0.514   3.289
 9775SOL    HW230225   2.932   0.638   3.205
 9776SOL     OW30226   1.841   5.261   6.164
 9776SOL    HW130227   1.792   5.258   6.251
 9776SOL    HW230228   1.900   5.181   6.156
 9777SOL     OW30229   4.928   6.332   6.459
 9777SOL    HW130230   4.992   6.388   6.406
 9777SOL    HW230231   4.980   6.267   6.515
 9778SOL     OW30232   0.097   1.764   4.613
 9778SOL    HW130233   0.079   1.844   4.671
 9778SOL    HW230234   0.105   1.794   4.518
 9779SOL     OW30235   0.600   2.754   3.870
 9779SOL    HW130236   0.642   2.748   3.780
 9779SOL    HW230237   0.615   2.668   3.919
 9780SOL     OW30238   1.677   1.504   1.578
 9780SOL    HW130239   1.751   1.462   1.526
 9780SOL    HW230240   1.708   1.589   1.618
 9781SOL     OW30241   1.769   3.704   4.466
 9781SOL    HW130242   1.808   3.795   4.456
 9781SOL    HW230243   1.779   3.672   4.560
 9782SOL     OW30244   0.290   2.263   1.014
 9782SOL    HW130245   0.265   2.343   0.960
 9782SOL    HW230246   0.265   2.180   0.963
 9783SOL     OW30247   4.278   1.993   3.259
 9783SOL    HW130248   4.295   1.983   3.161
 9783SOL    HW230249   4.194   1.944   3.283
 9784SOL     OW30250   3.221   1.322   6.337
 9784SOL    HW130251   3.298   1.351   6.281
 9784SOL    HW230252   3.214   1.222   6.337
 9785SOL     OW30253   6.676   2.500   5.086
 9785SOL    HW130254   6.662   2.598   5.102
 9785SOL    HW230255   6.684   2.483   4.988
 9786SOL     OW30256   2.790   4.461   0.655
 9786SOL    HW130257   2.802   4.392   0.584
 9786SOL    HW230258   2.867   4.524   0.654
 9787SOL     OW30259   3.781   3.431   4.122
 9787SOL    HW130260   3.780   3.524   4.158
 9787SOL    HW230261   3.874   3.394   4.128
 9788SOL     OW30262   0.938   5.628   1.932
 9788SOL    HW130263   0.960   5.618   2.029
 9788SOL    HW230264   0.844   5.598   1.916
 9789SOL     OW30265   2.923   6.835   6.695
 9789SOL    HW130266   2.877   6.901   6.754
 9789SOL    HW230267   2.902   6.856   6.599
 9790SOL     OW30268   6.221   4.938   5.240
 9790SOL    HW130269   6.269   4.992   5.170
 9790SOL    HW230270   6.187   5.000   5.312
 9791SOL     OW30271   0.691   0.117   0.251
 9791SOL    HW130272   0.773   0.164   0.217
 9791SOL    HW230273   0.614   0.136   0.189
 9792SOL     OW30274   3.845   5.321   1.012
 9792SOL    HW130275   3.868   5.389   0.942
 9792SOL    HW230276   3.895   5.341   1.096
 9793SOL     OW30277   4.162   0.457   1.190
 9793SOL    HW130278   4.099   0.455   1.267
 9793SOL    HW230279   4.214   0.542   1.190
 9794SOL     OW30280   4.821   4.699   4.570
 9794SOL    HW130281   4.803   4.733   4.663
 9794SOL    HW230282   4.918   4.712   4.549
 9795SOL     OW30283   0.974   3.208   4.168
 9795SOL    HW130284   0.972   3.108   4.174
 9795SOL    HW230285   0.964   3.236   4.073
 9796SOL     OW30286   4.068   3.711   3.991
 9796SOL    HW130287   4.075   3.734   3.893
 9796SOL    HW230288   4.111   3.623   4.008
 9797SOL     OW30289   2.650   6.292   6.942
 9797SOL    HW130290   2.727   6.229   6.950
 9797SOL    HW230291   2.667   6.358   6.870
 9798SOL     OW30292   2.312   1.796   1.355
 9798SOL    HW130293   2.396   1.848   1.366
 9798SOL    HW230294   2.296   1.740   1.436
 9799SOL     OW30295   3.030   4.485   6.183
 9799SOL    HW130296   2.951   4.426   6.166
 9799SOL    HW230297   3.054   4.533   6.098
 9800SOL     OW30298   5.490   3.155   4.303
 9800SOL    HW130299   5.552   3.125   4.376
 9800SOL    HW230300   5.527   3.129   4.214
 9801SOL     OW30301   4.991   4.705   7.020
 9801SOL    HW130302   5.023   4.641   0.061
 9801SOL    HW230303   5.061   4.773   7.003
 9802SOL     OW30304   4.435   4.669   0.494
 9802SOL    HW130305   4.477   4.616   0.567
 9802SOL    HW230306   4.377   4.610   0.438
 9803SOL     OW30307   1.783   3.203   7.003
 9803SOL    HW130308   1.778   3.269   6.928
 9803SOL    HW230309   1.848   3.131   6.981
 9804SOL     OW30310   6.685   6.072   3.065
 9804SOL    HW130311   6.750   6.077   3.141
 9804SOL    HW230312   6.617   6.145   3.075
 9805SOL     OW30313   1.205   6.982   2.973
 9805SOL    HW130314   1.225   6.917   3.047
 9805SOL    HW230315   1.168   6.932   2.895
 9806SOL     OW30316   3.015   2.949   6.006
 9806SOL    HW130317   3.068   2.961   5.922
 9806SOL    HW230318   2.938   2.889   5.989
 9807SOL     OW30319   3.402   2.866   2.354
 9807SOL    HW130320   3.415   2.767   2.362
 9807SOL    HW230321   3.421   2.895   2.260
 9808SOL     OW30322   4.329   5.356   3.779
 9808SOL    HW130323   4.401   5.406   3.827
 9808SOL    HW230324   4.318   5.392   3.687
 9809SOL     OW30325   0.517   3.340   0.293
 9809SOL    HW130326   0.521   3.281   0.213
 9809SOL    HW230327   0.583   3.414   0.284
 9810SOL     OW30328   2.780   1.949   4.966
 9810SOL    HW130329   2.691   1.915   4.997
 9810SOL    HW230330   2.853   1.904   5.018
 9811SOL     OW30331   6.333   3.272   3.710
 9811SOL    HW130332   6.343   3.370   3.689
 9811SOL    HW230333   6.414   3.240   3.759
 9812SOL     OW30334   2.650   0.197   4.254
 9812SOL    HW130335   2.605   0.253   4.323
 9812SOL    HW230336   2.696   0.120   4.297
 9813SOL     OW30337   5.934   2.699   0.442
 9813SOL    HW130338   6.028   2.668   0.457
 9813SOL    HW230339   5.873   2.656   0.507
 9814SOL     OW30340   5.156   2.036   6.929
 9814SOL    HW130341   5.222   1.988   6.871
 9814SOL    HW230342   5.131   1.978   7.007
 9815SOL     OW30343   4.720   2.512   4.147
 9815SOL    HW130344   4.707   2.477   4.240
 9815SOL    HW230345   4.770   2.444   4.093
 9816SOL     OW30346   0.941   0.010   6.290
 9816SOL    HW130347   0.998   6.992   6.357
 9816SOL    HW230348   0.859   6.985   6.273
 9817SOL     OW30349   0.818   6.861   3.088
 9817SOL    HW130350   0.850   6.948   3.049
 9817SOL    HW230351   0.763   6.813   3.020
 9818SOL     OW30352   6.075   2.095   4.915
 9818SOL    HW130353   6.163   2.128   4.882
 9818SOL    HW230354   6.078   1.995   4.924
 9819SOL     OW30355   4.714   2.604   3.385
 9819SOL    HW130356   4.698   2.688   3.333
 9819SOL    HW230357   4.718   2.526   3.322
 9820SOL     OW30358   3.470   3.388   0.165
 9820SOL    HW130359   3.529   3.352   0.092
 9820SOL    HW230360   3.403   3.450   0.125
 9821SOL     OW30361   6.247   0.073   6.496
 9821SOL    HW130362   6.192   0.068   6.579
 9821SOL    HW230363   6.254   0.168   6.466
 9822SOL     OW30364   0.671   0.014   2.716
 9822SOL    HW130365   0.590   0.039   2.663
 9822SOL    HW230366   0.750   0.063   2.681
 9823SOL     OW30367   3.603   0.242   1.226
 9823SOL    HW130368   3.600   0.341   1.242
 9823SOL    HW230369   3.535   0.217   1.158
 9824SOL     OW30370   1.561   4.320   5.999
 9824SOL    HW130371   1.606   4.363   5.921
 9824SOL    HW230372   1.464   4.310   5.981
 9825SOL     OW30373   3.354   5.359   5.482
 9825SOL    HW130374   3.444   5.399   5.462
 9825SOL    HW230375   3.326   5.302   5.405
 9826SOL     OW30376   4.032   5.886   6.238
 9826SOL    HW130377   4.101   5.855   6.173
 9826SOL    HW230378   4.005   5.811   6.298
 9827SOL     OW30379   1.913   4.255   4.181
 9827SOL    HW130380   1.846   4.313   4.134
 9827SOL    HW230381   1.970   4.311   4.240
 9828SOL     OW30382   3.395   2.628   6.586
 9828SOL    HW130383   3.388   2.579   6.499
 9828SOL    HW230384   3.357   2.720   6.575
 9829SOL     OW30385   2.728   6.746   1.052
 9829SOL    HW130386   2.638   6.743   1.095
 9829SOL    HW230387   2.798   6.721   1.119
 9830SOL     OW30388   5.595   2.373   1.475
 9830SOL    HW130389   5.608   2.360   1.574
 9830SOL    HW230390   5.504   2.413   1.458
 9831SOL     OW30391   1.780   6.116   0.041
 9831SOL    HW130392   1.783   6.183   6.996
 9831SOL    HW230393   1.873   6.092   0.068
 9832SOL     OW30394   4.766   5.392   2.452
 9832SOL    HW130395   4.792   5.341   2.370
 9832SOL    HW230396   4.675   5.429   2.440
 9833SOL     OW30397   3.209   2.846   5.256
 9833SOL    HW130398   3.273   2.784   5.301
 9833SOL    HW230399   3.119   2.838   5.298
 9834SOL     OW30400   2.564   4.034   6.014
 9834SOL    HW130401   2.590   3.994   6.102
 9834SOL    HW230402   2.593   3.972   5.940
 9835SOL     OW30403   3.893   2.489   5.806
 9835SOL    HW130404   3.922   2.558   5.739
 9835SOL    HW230405   3.902   2.527   5.898
 9836SOL     OW30406   6.607   4.256   3.483
 9836SOL    HW130407   6.697   4.295   3.498
 9836SOL    HW230408   6.615   4.172   3.428
 9837SOL     OW30409   2.049   0.318   2.445
 9837SOL    HW130410   2.089   0.407   2.423
 9837SOL    HW230411   2.113   0.265   2.501
 9838SOL     OW30412   0.543   6.864   5.663
 9838SOL    HW130413   0.556   6.792   5.732
 9838SOL    HW230414   0.489   6.938   5.703
 9839SOL     OW30415   6.396   1.325   2.924
 9839SOL    HW130416   6.383   1.423   2.937
 9839SOL    HW230417   6.493   1.305   2.910
 9840SOL     OW30418   0.159   0.797   0.762
 9840SOL    HW130419   0.183   0.704   0.792
 9840SOL    HW230420   0.091   0.792   0.689
 9841SOL     OW30421   1.141   5.021   4.788
 9841SOL    HW130422   1.123   4.940   4.732
 9841SOL    HW230423   1.060   5.044   4.841
 9842SOL     OW30424   3.407   4.116   3.289
 9842SOL    HW130425   3.335   4.072   3.236
 9842SOL    HW230426   3.493   4.113   3.238
 9843SOL     OW30427   6.862   1.685   2.010
 9843SOL    HW130428   6.949   1.639   2.029
 9843SOL    HW230429   6.838   1.744   2.087
 9844SOL     OW30430   4.926   0.355   2.419
 9844SOL    HW130431   4.867   0.357   2.499
 9844SOL    HW230432   5.008   0.302   2.439
 9845SOL     OW30433   2.313   1.490   5.185
 9845SOL    HW130434   2.221   1.475   5.148
 9845SOL    HW230435   2.379   1.441   5.129
 9846SOL     OW30436   3.759   3.425   2.720
 9846SOL    HW130437   3.692   3.484   2.764
 9846SOL    HW230438   3.726   3.399   2.629
 9847SOL     OW30439   3.229   3.438   6.138
 9847SOL    HW130440   3.171   3.511   6.102
 9847SOL    HW230441   3.193   3.349   6.109
 9848SOL     OW30442   3.380   2.364   6.402
 9848SOL    HW130443   3.368   2.288   6.338
 9848SOL    HW230444   3.366   2.331   6.495
 9849SOL     OW30445   5.988   0.666   0.283
 9849SOL    HW130446   5.953   0.572   0.285
 9849SOL    HW230447   6.042   0.679   0.200
 9850SOL     OW30448   5.397   6.031   2.515
 9850SOL    HW130449   5.324   6.011   2.581
 9850SOL    HW230450   5.404   6.130   2.504
 9851SOL     OW30451   4.228   1.970   5.656
 9851SOL    HW130452   4.287   2.004   5.583
 9851SOL    HW230453   4.182   1.886   5.625
 9852SOL     OW30454   4.436   2.105   3.464
 9852SOL    HW130455   4.360   2.054   3.423
 9852SOL    HW230456   4.464   2.060   3.549
 9853SOL     OW30457   4.714   4.214   3.436
 9853SOL    HW130458   4.653   4.217   3.357
 9853SOL    HW230459   4.796   4.267   3.416
 9854SOL     OW30460   5.916   4.858   5.144
 9854SOL    HW130461   5.991   4.844   5.078
 9854SOL    HW230462   5.908   4.956   5.164
 9855SOL     OW30463   2.190   4.422   1.797
 9855SOL    HW130464   2.096   4.452   1.780
 9855SOL    HW230465   2.246   4.443   1.717
 9856SOL     OW30466   5.024   3.950   0.172
 9856SOL    HW130467   5.099   3.986   0.117
 9856SOL    HW230468   4.987   3.868   0.129
 9857SOL     OW30469   4.868   2.229   3.445
 9857SOL    HW130470   4.821   2.253   3.531
 9857SOL    HW230471   4.801   2.196   3.379
 9858SOL     OW30472   6.273   1.065   1.616
 9858SOL    HW130473   6.219   1.145   1.643
 9858SOL    HW230474   6.332   1.089   1.539
 9859SOL     OW30475   6.726   0.004   1.174
 9859SOL    HW130476   6.642   6.982   1.160
 9859SOL    HW230477   6.709   0.080   1.236
 9860SOL     OW30478   6.841   0.886   2.300
 9860SOL    HW130479   6.775   0.948   2.257
 9860SOL    HW230480   6.801   0.794   2.306
 9861SOL     OW30481   2.865   0.225   3.302
 9861SOL    HW130482   2.825   0.147   3.254
 9861SOL    HW230483   2.831   0.310   3.261
 9862SOL     OW30484   2.810   4.072   0.816
 9862SOL    HW130485   2.889   4.018   0.786
 9862SOL    HW230486   2.745   4.080   0.740
 9863SOL     OW30487   3.359   0.094   3.311
 9863SOL    HW130488   3.322   0.183   3.284
 9863SOL    HW230489   3.372   0.093   3.410
 9864SOL     OW30490   4.161   5.531   4.027
 9864SOL    HW130491   4.226   5.562   3.957
 9864SOL    HW230492   4.116   5.610   4.067
 9865SOL     OW30493   1.203   1.216   4.791
 9865SOL    HW130494   1.236   1.137   4.739
 9865SOL    HW230495   1.116   1.193   4.834
 9866SOL     OW30496   5.267   4.493   4.819
 9866SOL    HW130497   5.222   4.503   4.730
 9866SOL    HW230498   5.201   4.512   4.892
 9867SOL     OW30499   6.254   0.477   1.042
 9867SOL    HW130500   6.300   0.534   1.110
 9867SOL    HW230501   6.159   0.507   1.033
 9868SOL     OW30502   1.351   5.070   5.839
 9868SOL    HW130503   1.397   5.120   5.912
 9868SOL    HW230504   1.260   5.108   5.824
 9869SOL     OW30505   2.167   3.162   2.389
 9869SOL    HW130506   2.193   3.247   2.342
 9869SOL    HW230507   2.105   3.184   2.464
 9870SOL     OW30508   4.108   5.744   2.321
 9870SOL    HW130509   4.118   5.655   2.365
 9870SOL    HW230510   4.176   5.808   2.356
 9871SOL     OW30511   0.900   6.898   5.825
 9871SOL    HW130512   0.817   6.928   5.777
 9871SOL    HW230513   0.979   6.912   5.766
 9872SOL     OW30514   3.205   5.123   3.910
 9872SOL    HW130515   3.232   5.071   3.829
 9872SOL    HW230516   3.243   5.079   3.991
 9873SOL     OW30517   2.887   2.357   1.182
 9873SOL    HW130518   2.808   2.408   1.148
 9873SOL    HW230519   2.948   2.420   1.231
 9874SOL     OW30520   0.837   3.261   4.507
 9874SOL    HW130521   0.845   3.348   4.457
 9874SOL    HW230522   0.845   3.185   4.443
 9875SOL     OW30523   0.452   6.465   1.972
 9875SOL    HW130524   0.467   6.368   1.954
 9875SOL    HW230525   0.380   6.475   2.041
 9876SOL     OW30526   6.606   0.917   2.581
 9876SOL    HW130527   6.561   0.952   2.499
 9876SOL    HW230528   6.656   0.834   2.559
 9877SOL     OW30529   0.524   6.342   2.897
 9877SOL    HW130530   0.526   6.437   2.928
 9877SOL    HW230531   0.549   6.282   2.973
 9878SOL     OW30532   2.778   5.364   4.560
 9878SOL    HW130533   2.763   5.265   4.567
 9878SOL    HW230534   2.780   5.391   4.463
 9879SOL     OW30535   5.933   5.509   4.522
 9879SOL    HW130536   5.902   5.599   4.493
 9879SOL    HW230537   5.918   5.443   4.448
 9880SOL     OW30538   2.248   2.143   5.541
 9880SOL    HW130539   2.220   2.099   5.627
 9880SOL    HW230540   2.169   2.146   5.479
 9881SOL     OW30541   2.027   1.204   4.851
 9881SOL    HW130542   1.962   1.169   4.783
 9881SOL    HW230543   2.119   1.204   4.813
 9882SOL     OW30544   1.024   2.185   3.789
 9882SOL    HW130545   1.050   2.088   3.791
 9882SOL    HW230546   1.014   2.219   3.882
 9883SOL     OW30547   1.775   5.137   6.900
 9883SOL    HW130548   1.719   5.091   6.968
 9883SOL    HW230549   1.859   5.169   6.942
 9884SOL     OW30550   4.150   1.529   2.982
 9884SOL    HW130551   4.162   1.554   3.078
 9884SOL    HW230552   4.190   1.599   2.923
 9885SOL     OW30553   7.006   3.116   5.535
 9885SOL    HW130554   6.948   3.181   5.486
 9885SOL    HW230555   0.055   3.164   5.574
 9886SOL     OW30556   0.809   4.414   1.826
 9886SOL    HW130557   0.789   4.504   1.866
 9886SOL    HW230558   0.836   4.351   1.898
 9887SOL     OW30559   3.135   1.152   5.782
 9887SOL    HW130560   3.117   1.078   5.718
 9887SOL    HW230561   3.234   1.170   5.786
 9888SOL     OW30562   6.486   4.080   2.097
 9888SOL    HW130563   6.584   4.061   2.092
 9888SOL    HW230564   6.448   4.082   2.004
 9889SOL     OW30565   6.961   5.184   1.697
 9889SOL    HW130566   6.966   5.209   1.794
 9889SOL    HW230567   6.884   5.230   1.655
 9890SOL     OW30568   1.742   2.034   0.068
 9890SOL    HW130569   1.668   2.097   0.089
 9890SOL    HW230570   1.730   1.950   0.120
 9891SOL     OW30571   5.727   2.916   1.212
 9891SOL    HW130572   5.687   3.008   1.221
 9891SOL    HW230573   5.658   2.848   1.236
 9892SOL     OW30574   0.012   5.122   0.734
 9892SOL    HW130575   0.006   5.124   0.833
 9892SOL    HW230576   0.009   5.216   0.698
 9893SOL     OW30577   1.399   6.942   1.177
 9893SOL    HW130578   1.308   6.901   1.166
 9893SOL    HW230579   1.427   6.983   1.090
 9894SOL     OW30580   2.109   2.477   2.095
 9894SOL    HW130581   2.121   2.562   2.145
 9894SOL    HW230582   2.140   2.489   2.000
 9895SOL     OW30583   6.471   3.629   5.341
 9895SOL    HW130584   6.422   3.714   5.357
 9895SOL    HW230585   6.414   3.567   5.287
 9896SOL     OW30586   5.963   0.551   6.991
 9896SOL    HW130587   6.027   0.509   0.025
 9896SOL    HW230588   6.001   0.638   6.957
 9897SOL     OW30589   6.423   5.545   3.512
 9897SOL    HW130590   6.440   5.594   3.597
 9897SOL    HW230591   6.349   5.590   3.462
 9898SOL     OW30592   1.784   6.100   4.939
 9898SOL    HW130593   1.864   6.116   4.881
 9898SOL    HW230594   1.703   6.139   4.896
 9899SOL     OW30595   0.624   5.462   7.027
 9899SOL    HW130596   0.548   5.427   6.973
 9899SOL    HW230597   0.710   5.430   6.987
 9900SOL     OW30598   1.774   3.705   3.307
 9900SOL    HW130599   1.740   3.745   3.222
 9900SOL    HW230600   1.735   3.613   3.319
 9901SOL     OW30601   3.052   0.857   5.985
 9901SOL    HW130602   3.033   0.920   5.910
 9901SOL    HW230603   2.978   0.862   6.052
 9902SOL     OW30604   3.193   4.930   0.669
 9902SOL    HW130605   3.203   4.985   0.586
 9902SOL    HW230606   3.279   4.881   0.687
 9903SOL     OW30607   5.128   1.444   2.193
 9903SOL    HW130608   5.100   1.402   2.107
 9903SOL    HW230609   5.152   1.540   2.177
 9904SOL     OW30610   1.163   4.546   0.046
 9904SOL    HW130611   1.248   4.496   0.063
 9904SOL    HW230612   1.163   4.580   6.981
 9905SOL     OW30613   2.541   0.300   6.392
 9905SOL    HW130614   2.480   0.322   6.316
 9905SOL    HW230615   2.498   0.230   6.450
 9906SOL     OW30616   2.547   3.134   1.619
 9906SOL    HW130617   2.486   3.061   1.587
 9906SOL    HW230618   2.625   3.094   1.667
 9907SOL     OW30619   6.703   0.239   1.326
 9907SOL    HW130620   6.747   0.288   1.401
 9907SOL    HW230621   6.721   0.287   1.240
 9908SOL     OW30622   4.995   1.750   4.452
 9908SOL    HW130623   5.080   1.723   4.406
 9908SOL    HW230624   4.957   1.831   4.407
 9909SOL     OW30625   4.210   0.653   3.920
 9909SOL    HW130626   4.294   0.646   3.867
 9909SOL    HW230627   4.231   0.687   4.012
 9910SOL     OW30628   1.700   4.105   2.796
 9910SOL    HW130629   1.607   4.092   2.831
 9910SOL    HW230630   1.714   4.201   2.772
 9911SOL     OW30631   3.212   6.408   1.987
 9911SOL    HW130632   3.226   6.380   2.082
 9911SOL    HW230633   3.129   6.364   1.952
 9912SOL     OW30634   3.967   0.989   1.454
 9912SOL    HW130635   4.040   0.975   1.521
 9912SOL    HW230636   3.930   0.900   1.427
 9913SOL     OW30637   6.312   4.241   1.175
 9913SOL    HW130638   6.331   4.147   1.148
 9913SOL    HW230639   6.214   4.252   1.192
 9914SOL     OW30640   5.546   1.931   4.429
 9914SOL    HW130641   5.464   1.988   4.424
 9914SOL    HW230642   5.599   1.941   4.345
 9915SOL     OW30643   5.088   0.789   3.799
 9915SOL    HW130644   5.001   0.785   3.849
 9915SOL    HW230645   5.077   0.742   3.711
 9916SOL     OW30646   2.063   2.554   3.260
 9916SOL    HW130647   2.144   2.540   3.202
 9916SOL    HW230648   2.068   2.493   3.339
 9917SOL     OW30649   5.660   4.014   6.959
 9917SOL    HW130650   5.752   4.007   6.996
 9917SOL    HW230651   5.610   3.929   6.976
 9918SOL     OW30652   3.432   1.427   3.685
 9918SOL    HW130653   3.386   1.452   3.770
 9918SOL    HW230654   3.392   1.477   3.609
 9919SOL     OW30655   6.573   5.048   1.640
 9919SOL    HW130656   6.648   5.012   1.695
 9919SOL    HW230657   6.596   5.042   1.543
 9920SOL     OW30658   4.770   1.643   1.928
 9920SOL    HW130659   4.685   1.591   1.926
 9920SOL    HW230660   4.763   1.714   1.999
 9921SOL     OW30661   3.930   0.243   5.511
 9921SOL    HW130662   3.988   0.163   5.493
 9921SOL    HW230663   3.962   0.291   5.592
 9922SOL     OW30664   2.949   3.994   0.561
 9922SOL    HW130665   2.953   3.901   0.523
 9922SOL    HW230666   3.040   4.035   0.559
 9923SOL     OW30667   5.139   4.743   6.737
 9923SOL    HW130668   5.152   4.652   6.774
 9923SOL    HW230669   5.137   4.810   6.811
 9924SOL     OW30670   6.501   1.994   5.055
 9924SOL    HW130671   6.560   1.913   5.060
 9924SOL    HW230672   6.517   2.051   5.135
 9925SOL     OW30673   6.836   2.879   4.228
 9925SOL    HW130674   6.843   2.845   4.134
 9925SOL    HW230675   6.828   2.802   4.291
 9926SOL     OW30676   4.048   2.367   0.773
 9926SOL    HW130677   4.038   2.332   0.866
 9926SOL    HW230678   4.134   2.418   0.766
 9927SOL     OW30679   0.143   6.465   0.321
 9927SOL    HW130680   0.143   6.538   0.389
 9927SOL    HW230681   0.223   6.406   0.335
 9928SOL     OW30682   5.308   4.588   2.522
 9928SOL    HW130683   5.297   4.658   2.451
 9928SOL    HW230684   5.337   4.632   2.607
 9929SOL     OW30685   3.089   4.633   5.601
 9929SOL    HW130686   2.991   4.615   5.604
 9929SOL    HW230687   3.126   4.603   5.513
 9930SOL     OW30688   6.785   6.420   4.864
 9930SOL    HW130689   6.831   6.456   4.946
 9930SOL    HW230690   6.853   6.402   4.793
 9931SOL     OW30691   0.620   5.591   3.974
 9931SOL    HW130692   0.653   5.629   3.887
 9931SOL    HW230693   0.603   5.665   4.039
 9932SOL     OW30694   3.153   4.408   6.923
 9932SOL    HW130695   3.128   4.500   6.953
 9932SOL    HW230696   3.076   4.346   6.940
 9933SOL     OW30697   0.289   6.050   3.538
 9933SOL    HW130698   0.309   5.952   3.529
 9933SOL    HW230699   0.219   6.075   3.471
 9934SOL     OW30700   5.619   2.201   5.583
 9934SOL    HW130701   5.625   2.186   5.681
 9934SOL    HW230702   5.647   2.118   5.534
 9935SOL     OW30703   2.383   6.567   7.025
 9935SOL    HW130704   2.383   6.480   6.975
 9935SOL    HW230705   2.474   6.583   0.033
 9936SOL     OW30706   6.484   5.542   6.898
 9936SOL    HW130707   6.563   5.552   6.959
 9936SOL    HW230708   6.456   5.633   6.865
 9937SOL     OW30709   6.406   1.445   0.809
 9937SOL    HW130710   6.394   1.393   0.893
 9937SOL    HW230711   6.337   1.517   0.803
 9938SOL     OW30712   6.842   5.377   2.627
 9938SOL    HW130713   6.815   5.285   2.656
 9938SOL    HW230714   6.942   5.384   2.629
 9939SOL     OW30715   4.367   2.303   0.736
 9939SOL    HW130716   4.322   2.280   0.822
 9939SOL    HW230717   4.460   2.336   0.755
 9940SOL     OW30718   1.080   0.495   0.987
 9940SOL    HW130719   1.013   0.422   1.003
 9940SOL    HW230720   1.035   0.584   0.995
 9941SOL     OW30721   3.020   4.108   5.570
 9941SOL    HW130722   3.116   4.111   5.597
 9941SOL    HW230723   3.000   4.020   5.526
 9942SOL     OW30724   2.745   5.550   2.097
 9942SOL    HW130725   2.694   5.466   2.115
 9942SOL    HW230726   2.690   5.629   2.125
 9943SOL     OW30727   0.018   4.575   5.312
 9943SOL    HW130728   0.052   4.495   5.263
 9943SOL    HW230729   6.963   4.550   5.360
 9944SOL     OW30730   1.457   4.625   6.442
 9944SOL    HW130731   1.471   4.582   6.531
 9944SOL    HW230732   1.378   4.686   6.446
 9945SOL     OW30733   5.771   5.368   6.476
 9945SOL    HW130734   5.858   5.411   6.502
 9945SOL    HW230735   5.706   5.439   6.450
 9946SOL     OW30736   4.808   1.257   3.528
 9946SOL    HW130737   4.809   1.190   3.454
 9946SOL    HW230738   4.721   1.251   3.577
 9947SOL     OW30739   1.663   2.774   5.035
 9947SOL    HW130740   1.683   2.749   5.129
 9947SOL    HW230741   1.734   2.835   5.000
 9948SOL     OW30742   5.355   4.165   4.816
 9948SOL    HW130743   5.267   4.170   4.768
 9948SOL    HW230744   5.354   4.228   4.894
 9949SOL     OW30745   6.779   5.062   4.469
 9949SOL    HW130746   6.798   4.992   4.400
 9949SOL    HW230747   6.716   5.026   4.537
 9950SOL     OW30748   5.603   5.914   4.958
 9950SOL    HW130749   5.505   5.895   4.966
 9950SOL    HW230750   5.655   5.847   5.010
 9951SOL     OW30751   6.867   0.425   4.536
 9951SOL    HW130752   6.933   0.484   4.490
 9951SOL    HW230753   6.809   0.480   4.596
 9952SOL     OW30754   0.856   3.552   1.180
 9952SOL    HW130755   0.756   3.543   1.173
 9952SOL    HW230756   0.878   3.635   1.232
 9953SOL     OW30757   5.773   2.997   4.474
 9953SOL    HW130758   5.715   2.919   4.497
 9953SOL    HW230759   5.823   2.978   4.389
 9954SOL     OW30760   6.235   0.246   6.180
 9954SOL    HW130761   6.315   0.286   6.224
 9954SOL    HW230762   6.231   0.148   6.200
 9955SOL     OW30763   6.169   3.509   5.162
 9955SOL    HW130764   6.130   3.549   5.080
 9955SOL    HW230765   6.142   3.563   5.242
 9956SOL     OW30766   1.454   6.945   2.427
 9956SOL    HW130767   1.517   6.995   2.486
 9956SOL    HW230768   1.362   6.950   2.465
 9957SOL     OW30769   5.138   5.484   2.577
 9957SOL    HW130770   5.218   5.481   2.637
 9957SOL    HW230771   5.081   5.562   2.600
 9958SOL     OW30772   3.954   5.501   0.856
 9958SOL    HW130773   3.943   5.600   0.851
 9958SOL    HW230774   3.990   5.467   0.769
 9959SOL     OW30775   4.063   3.661   5.285
 9959SOL    HW130776   4.093   3.647   5.190
 9959SOL    HW230777   4.104   3.745   5.321
 9960SOL     OW30778   0.201   6.986   2.270
 9960SOL    HW130779   0.258   6.938   2.204
 9960SOL    HW230780   0.247   0.040   2.299
 9961SOL     OW30781   1.317   5.435   4.458
 9961SOL    HW130782   1.346   5.512   4.515
 9961SOL    HW230783   1.324   5.350   4.510
 9962SOL     OW30784   6.294   6.957   2.700
 9962SOL    HW130785   6.372   6.898   2.677
 9962SOL    HW230786   6.252   6.926   2.785
 9963SOL     OW30787   3.033   2.856   6.547
 9963SOL    HW130788   3.055   2.898   6.459
 9963SOL    HW230789   2.952   2.900   6.586
 9964SOL     OW30790   4.864   4.974   5.708
 9964SOL    HW130791   4.777   4.937   5.674
 9964SOL    HW230792   4.921   5.001   5.631
 9965SOL     OW30793   3.657   6.458   6.257
 9965SOL    HW130794   3.649   6.536   6.195
 9965SOL    HW230795   3.610   6.480   6.343
 9966SOL     OW30796   1.629   5.592   1.794
 9966SOL    HW130797   1.666   5.629   1.880
 9966SOL    HW230798   1.655   5.652   1.718
 9967SOL     OW30799   0.685   6.623   1.918
 9967SOL    HW130800   0.610   6.562   1.943
 9967SOL    HW230801   0.651   6.716   1.905
 9968SOL     OW30802   3.745   3.973   1.407
 9968SOL    HW130803   3.741   3.874   1.392
 9968SOL    HW230804   3.716   3.994   1.500
 9969SOL     OW30805   1.703   2.644   2.458
 9969SOL    HW130806   1.664   2.725   2.415
 9969SOL    HW230807   1.638   2.568   2.453
 9970SOL     OW30808   5.419   3.993   2.510
 9970SOL    HW130809   5.327   3.979   2.474
 9970SOL    HW230810   5.415   4.050   2.592
 9971SOL     OW30811   1.969   5.247   1.759
 9971SOL    HW130812   2.044   5.275   1.699
 9971SOL    HW230813   1.882   5.259   1.712
 9972SOL     OW30814   4.906   4.566   1.761
 9972SOL    HW130815   4.960   4.486   1.738
 9972SOL    HW230816   4.817   4.538   1.798
 9973SOL     OW30817   5.276   2.109   4.064
 9973SOL    HW130818   5.349   2.057   4.020
 9973SOL    HW230819   5.301   2.206   4.067
 9974SOL     OW30820   0.485   2.740   2.577
 9974SOL    HW130821   0.517   2.815   2.519
 9974SOL    HW230822   0.563   2.698   2.622
 9975SOL     OW30823   6.125   4.260   0.020
 9975SOL    HW130824   6.141   4.339   0.079
 9975SOL    HW230825   6.212   4.218   7.025
 9976SOL     OW30826   1.077   6.351   5.607
 9976SOL    HW130827   1.055   6.271   5.663
 9976SOL    HW230828   1.010   6.359   5.533
 9977SOL     OW30829   0.013   5.074   5.496
 9977SOL    HW130830   6.993   5.044   5.415
 9977SOL    HW230831   0.081   5.005   5.520
 9978SOL     OW30832   0.379   2.483   4.504
 9978SOL    HW130833   0.412   2.548   4.573
 9978SOL    HW230834   0.282   2.500   4.486
 9979SOL     OW30835   6.124   5.158   5.414
 9979SOL    HW130836   6.137   5.239   5.470
 9979SOL    HW230837   6.029   5.155   5.381
 9980SOL     OW30838   1.888   0.970   6.129
 9980SOL    HW130839   1.819   1.000   6.194
 9980SOL    HW230840   1.851   0.975   6.036
 9981SOL     OW30841   2.622   1.334   3.104
 9981SOL    HW130842   2.624   1.240   3.139
 9981SOL    HW230843   2.693   1.345   3.035
 9982SOL     OW30844   6.518   6.296   4.508
 9982SOL    HW130845   6.514   6.325   4.604
 9982SOL    HW230846   6.579   6.357   4.458
 9983SOL     OW30847   6.833   1.907   2.672
 9983SOL    HW130848   6.754   1.933   2.618
 9983SOL    HW230849   6.844   1.807   2.669
 9984SOL     OW30850   2.107   0.838   0.047
 9984SOL    HW130851   2.202   0.818   0.073
 9984SOL    HW230852   2.082   0.783   6.997
 9985SOL     OW30853   0.873   0.880   1.082
 9985SOL    HW130854   0.848   0.973   1.054
 9985SOL    HW230855   0.869   0.820   1.003
 9986SOL     OW30856   5.355   4.373   5.974
 9986SOL    HW130857   5.431   4.439   5.980
 9986SOL    HW230858   5.360   4.311   6.053
 9987SOL     OW30859   0.405   3.088   4.422
 9987SOL    HW130860   0.446   3.106   4.332
 9987SOL    HW230861   0.477   3.074   4.489
 9988SOL     OW30862   6.863   5.610   4.170
 9988SOL    HW130863   6.891   5.700   4.136
 9988SOL    HW230864   6.816   5.621   4.258
 9989SOL     OW30865   6.843   3.511   3.804
 9989SOL    HW130866   6.820   3.466   3.718
 9989SOL    HW230867   6.915   3.459   3.850
 9990SOL     OW30868   2.306   5.326   2.489
 9990SOL    HW130869   2.384   5.263   2.497
 9990SOL    HW230870   2.316   5.381   2.406
 9991SOL     OW30871   2.067   2.427   3.878
 9991SOL    HW130872   2.136   2.430   3.951
 9991SOL    HW230873   2.023   2.516   3.870
 9992SOL     OW30874   5.519   5.312   6.885
 9992SOL    HW130875   5.600   5.294   6.830
 9992SOL    HW230876   5.546   5.333   6.979
 9993SOL     OW30877   3.121   1.051   0.658
 9993SOL    HW130878   3.164   1.060   0.568
 9993SOL    HW230879   3.113   0.953   0.680
 9994SOL     OW30880   6.350   4.525   3.219
 9994SOL    HW130881   6.250   4.518   3.214
 9994SOL    HW230882   6.390   4.433   3.216
 9995SOL     OW30883   4.414   0.975   2.881
 9995SOL    HW130884   4.441   1.062   2.921
 9995SOL    HW230885   4.474   0.953   2.804
 9996SOL     OW30886   3.080   3.109   0.838
 9996SOL    HW130887   3.162   3.105   0.895
 9996SOL    HW230888   3.106   3.116   0.742
 9997SOL     OW30889   3.263   1.695   6.293
 9997SOL    HW130890   3.184   1.723   6.239
 9997SOL    HW230891   3.329   1.648   6.234
 9998SOL     OW30892   5.694   4.708   6.105
 9998SOL    HW130893   5.600   4.722   6.077
 9998SOL    HW230894   5.720   4.612   6.089
 9999SOL     OW30895   6.118   3.148   5.803
 9999SOL    HW130896   6.042   3.147   5.867
 9999SOL    HW230897   6.160   3.239   5.803
10000SOL     OW30898   0.212   4.700   0.012
10000SOL    HW130899   0.151   4.681   6.964
10000SOL    HW230900   0.239   4.613   0.055
10001SOL     OW30901   5.223   6.711   2.096
10001SOL    HW130902   5.239   6.613   2.113
10001SOL    HW230903   5.220   6.760   2.183
10002SOL     OW30904   0.864   0.189   2.663
10002SOL    HW130905   0.878   0.186   2.564
10002SOL    HW230906   0.940   0.238   2.706
10003SOL     OW30907   3.952   1.830   3.703
10003SOL    HW130908   3.929   1.749   3.648
10003SOL    HW230909   4.049   1.850   3.693
10004SOL     OW30910   0.014   2.547   4.158
10004SOL    HW130911   0.060   2.553   4.070
10004SOL    HW230912   6.946   2.567   4.147
10005SOL     OW30913   5.433   0.358   4.690
10005SOL    HW130914   5.456   0.452   4.713
10005SOL    HW230915   5.517   0.306   4.675
10006SOL     OW30916   5.132   5.565   4.370
10006SOL    HW130917   5.166   5.471   4.369
10006SOL    HW230918   5.046   5.570   4.318
10007SOL     OW30919   6.694   4.319   5.321
10007SOL    HW130920   6.604   4.349   5.291
10007SOL    HW230921   6.699   4.219   5.316
10008SOL     OW30922   3.941   1.360   4.989
10008SOL    HW130923   3.893   1.349   5.076
10008SOL    HW230924   3.949   1.272   4.943
10009SOL     OW30925   1.900   3.917   1.972
10009SOL    HW130926   1.974   3.851   1.959
10009SOL    HW230927   1.907   3.989   1.902
10010SOL     OW30928   2.345   1.033   5.715
10010SOL    HW130929   2.276   0.960   5.718
10010SOL    HW230930   2.357   1.071   5.806
10011SOL     OW30931   6.332   0.768   5.838
10011SOL    HW130932   6.372   0.727   5.920
10011SOL    HW230933   6.382   0.738   5.757
10012SOL     OW30934   5.420   1.223   3.093
10012SOL    HW130935   5.473   1.142   3.070
10012SOL    HW230936   5.463   1.271   3.169
10013SOL     OW30937   0.030   1.396   3.359
10013SOL    HW130938   0.118   1.428   3.324
10013SOL    HW230939   7.012   1.472   3.404
10014SOL     OW30940   0.173   4.162   0.354
10014SOL    HW130941   0.224   4.080   0.380
10014SOL    HW230942   0.214   4.242   0.398
10015SOL     OW30943   2.468   5.189   0.472
10015SOL    HW130944   2.517   5.102   0.476
10015SOL    HW230945   2.374   5.173   0.442
10016SOL     OW30946   0.831   1.750   6.416
10016SOL    HW130947   0.737   1.733   6.389
10016SOL    HW230948   0.858   1.684   6.487
10017SOL     OW30949   2.996   1.816   3.204
10017SOL    HW130950   2.997   1.807   3.104
10017SOL    HW230951   2.983   1.912   3.229
10018SOL     OW30952   4.978   0.803   6.476
10018SOL    HW130953   4.932   0.854   6.548
10018SOL    HW230954   5.061   0.761   6.513
10019SOL     OW30955   0.409   1.468   2.888
10019SOL    HW130956   0.446   1.541   2.831
10019SOL    HW230957   0.356   1.406   2.832
10020SOL     OW30958   2.289   2.193   1.382
10020SOL    HW130959   2.373   2.148   1.352
10020SOL    HW230960   2.247   2.138   1.455
10021SOL     OW30961   0.097   2.861   1.387
10021SOL    HW130962   0.091   2.854   1.486
10021SOL    HW230963   0.037   2.793   1.345
10022SOL     OW30964   2.626   1.646   5.942
10022SOL    HW130965   2.566   1.573   5.909
10022SOL    HW230966   2.721   1.613   5.940
10023SOL     OW30967   6.984   4.903   0.981
10023SOL    HW130968   7.015   4.865   0.894
10023SOL    HW230969   6.884   4.902   0.984
10024SOL     OW30970   2.264   6.524   2.657
10024SOL    HW130971   2.341   6.582   2.683
10024SOL    HW230972   2.298   6.431   2.639
10025SOL     OW30973   1.556   0.478   0.900
10025SOL    HW130974   1.506   0.558   0.933
10025SOL    HW230975   1.654   0.491   0.915
10026SOL     OW30976   5.014   6.812   3.431
10026SOL    HW130977   5.092   6.836   3.373
10026SOL    HW230978   5.027   6.852   3.521
10027SOL     OW30979   6.149   3.488   4.707
10027SOL    HW130980   6.210   3.529   4.640
10027SOL    HW230981   6.101   3.411   4.666
10028SOL     OW30982   0.911   0.191   1.906
10028SOL    HW130983   0.992   0.240   1.939
10028SOL    HW230984   0.899   0.208   1.809
10029SOL     OW30985   5.157   2.468   3.907
10029SOL    HW130986   5.166   2.465   3.807
10029SOL    HW230987   5.112   2.553   3.934
10030SOL     OW30988   2.193   0.913   3.135
10030SOL    HW130989   2.212   0.846   3.063
10030SOL    HW230990   2.213   1.005   3.101
10031SOL     OW30991   5.496   4.750   4.280
10031SOL    HW130992   5.544   4.678   4.231
10031SOL    HW230993   5.494   4.833   4.224
10032SOL     OW30994   2.796   1.463   5.455
10032SOL    HW130995   2.822   1.471   5.358
10032SOL    HW230996   2.784   1.366   5.478
10033SOL     OW30997   6.854   3.294   4.548
10033SOL    HW130998   6.782   3.227   4.526
10033SOL    HW230999   6.896   3.271   4.635
10034SOL     OW31000   3.897   0.484   4.323
10034SOL    HW131001   3.845   0.542   4.260
10034SOL    HW231002   3.896   0.389   4.290
10035SOL     OW31003   6.807   5.479   1.695
10035SOL    HW131004   6.740   5.483   1.769
10035SOL    HW231005   6.898   5.500   1.731
10036SOL     OW31006   6.401   1.830   1.171
10036SOL    HW131007   6.438   1.781   1.092
10036SOL    HW231008   6.304   1.807   1.182
10037SOL     OW31009   7.022   1.509   6.748
10037SOL    HW131010   6.952   1.449   6.788
10037SOL    HW231011   6.980   1.595   6.720
10038SOL     OW31012   5.915   0.408   0.262
10038SOL    HW131013   5.887   0.320   0.224
10038SOL    HW231014   5.935   0.397   0.359
10039SOL     OW31015   3.495   0.773   3.447
10039SOL    HW131016   3.591   0.784   3.421
10039SOL    HW231017   3.484   0.689   3.500
10040SOL     OW31018   5.717   4.812   0.066
10040SOL    HW131019   5.736   4.724   0.109
10040SOL    HW231020   5.661   4.798   7.014
10041SOL     OW31021   3.204   5.797   0.356
10041SOL    HW131022   3.169   5.827   0.267
10041SOL    HW231023   3.258   5.713   0.344
10042SOL     OW31024   0.178   1.936   3.763
10042SOL    HW131025   0.277   1.929   3.747
10042SOL    HW231026   0.155   2.030   3.787
10043SOL     OW31027   6.355   1.650   5.683
10043SOL    HW131028   6.375   1.646   5.586
10043SOL    HW231029   6.424   1.599   5.734
10044SOL     OW31030   2.599   3.198   6.124
10044SOL    HW131031   2.551   3.281   6.095
10044SOL    HW231032   2.680   3.185   6.067
10045SOL     OW31033   4.246   0.990   0.878
10045SOL    HW131034   4.222   1.084   0.852
10045SOL    HW231035   4.251   0.934   0.796
10046SOL     OW31036   1.668   3.815   1.204
10046SOL    HW131037   1.607   3.891   1.184
10046SOL    HW231038   1.686   3.811   1.303
10047SOL     OW31039   0.896   3.443   6.262
10047SOL    HW131040   0.873   3.492   6.346
10047SOL    HW231041   0.984   3.475   6.228
10048SOL     OW31042   6.955   6.710   2.848
10048SOL    HW131043   6.906   6.781   2.897
10048SOL    HW231044   6.940   6.622   2.893
10049SOL     OW31045   0.274   2.156   6.089
10049SOL    HW131046   0.273   2.237   6.147
10049SOL    HW231047   0.367   2.140   6.056
10050SOL     OW31048   5.150   3.611   5.166
10050SOL    HW131049   5.150   3.511   5.177
10050SOL    HW231050   5.238   3.641   5.131
10051SOL     OW31051   1.109   4.099   5.164
10051SOL    HW131052   1.131   4.186   5.120
10051SOL    HW231053   1.012   4.077   5.148
10052SOL     OW31054   1.213   0.654   3.700
10052SOL    HW131055   1.161   0.716   3.641
10052SOL    HW231056   1.153   0.615   3.770
10053SOL     OW31057   5.016   5.429   4.035
10053SOL    HW131058   5.004   5.378   4.120
10053SOL    HW231059   5.087   5.385   3.980
10054SOL     OW31060   6.020   4.383   4.611
10054SOL    HW131061   5.937   4.438   4.608
10054SOL    HW231062   6.067   4.388   4.523
10055SOL     OW31063   6.247   2.626   6.717
10055SOL    HW131064   6.294   2.609   6.630
10055SOL    HW231065   6.308   2.602   6.793
10056SOL     OW31066   5.292   3.458   3.408
10056SOL    HW131067   5.241   3.544   3.403
10056SOL    HW231068   5.357   3.453   3.332
10057SOL     OW31069   5.969   3.937   6.094
10057SOL    HW131070   6.035   3.897   6.158
10057SOL    HW231071   5.886   3.881   6.093
10058SOL     OW31072   6.631   3.138   4.622
10058SOL    HW131073   6.685   3.109   4.701
10058SOL    HW231074   6.590   3.228   4.640
10059SOL     OW31075   6.130   1.514   0.410
10059SOL    HW131076   6.075   1.498   0.492
10059SOL    HW231077   6.179   1.431   0.385
10060SOL     OW31078   2.653   1.885   2.748
10060SOL    HW131079   2.639   1.791   2.779
10060SOL    HW231080   2.690   1.940   2.823
10061SOL     OW31081   4.339   1.375   3.653
10061SOL    HW131082   4.407   1.440   3.688
10061SOL    HW231083   4.257   1.425   3.625
10062SOL     OW31084   0.622   6.835   3.711
10062SOL    HW131085   0.654   6.858   3.803
10062SOL    HW231086   0.563   6.909   3.677
10063SOL     OW31087   1.848   2.315   4.941
10063SOL    HW131088   1.832   2.259   5.022
10063SOL    HW231089   1.776   2.383   4.932
10064SOL     OW31090   3.427   6.475   6.970
10064SOL    HW131091   3.499   6.544   6.974
10064SOL    HW231092   3.448   6.410   6.896
10065SOL     OW31093   1.215   0.539   1.677
10065SOL    HW131094   1.263   0.462   1.635
10065SOL    HW231095   1.139   0.504   1.733
10066SOL     OW31096   0.049   3.540   5.341
10066SOL    HW131097   0.116   3.610   5.363
10066SOL    HW231098   0.056   3.517   5.244
10067SOL     OW31099   0.707   2.996   6.697
10067SOL    HW131100   0.639   2.949   6.754
10067SOL    HW231101   0.788   3.015   6.751
10068SOL     OW31102   1.913   3.002   2.296
10068SOL    HW131103   1.878   3.075   2.355
10068SOL    HW231104   1.995   3.035   2.249
10069SOL     OW31105   3.668   5.014   1.707
10069SOL    HW131106   3.586   5.071   1.705
10069SOL    HW231107   3.740   5.062   1.758
10070SOL     OW31108   2.703   6.126   4.624
10070SOL    HW131109   2.690   6.115   4.526
10070SOL    HW231110   2.667   6.045   4.671
10071SOL     OW31111   0.415   6.658   3.691
10071SOL    HW131112   0.503   6.699   3.715
10071SOL    HW231113   0.398   6.671   3.593
10072SOL     OW31114   6.669   1.286   2.864
10072SOL    HW131115   6.725   1.212   2.828
10072SOL    HW231116   6.722   1.339   2.930
10073SOL     OW31117   6.180   2.683   4.076
10073SOL    HW131118   6.116   2.614   4.110
10073SOL    HW231119   6.150   2.774   4.107
10074SOL     OW31120   2.369   4.739   0.439
10074SOL    HW131121   2.439   4.735   0.510
10074SOL    HW231122   2.322   4.651   0.433
10075SOL     OW31123   2.047   1.693   2.231
10075SOL    HW131124   1.985   1.770   2.214
10075SOL    HW231125   2.134   1.709   2.186
10076SOL     OW31126   4.727   5.312   3.622
10076SOL    HW131127   4.799   5.324   3.553
10076SOL    HW231128   4.734   5.386   3.690
10077SOL     OW31129   6.394   3.427   6.458
10077SOL    HW131130   6.381   3.470   6.547
10077SOL    HW231131   6.329   3.351   6.448
10078SOL     OW31132   0.069   6.440   5.052
10078SOL    HW131133   0.086   6.537   5.031
10078SOL    HW231134   0.043   6.431   5.148
10079SOL     OW31135   5.119   3.139   3.068
10079SOL    HW131136   5.174   3.183   3.138
10079SOL    HW231137   5.178   3.086   3.007
10080SOL     OW31138   5.534   0.724   5.739
10080SOL    HW131139   5.564   0.758   5.828
10080SOL    HW231140   5.475   0.644   5.751
10081SOL     OW31141   2.283   2.288   0.085
10081SOL    HW131142   2.333   2.202   0.090
10081SOL    HW231143   2.187   2.273   0.107
10082SOL     OW31144   1.543   4.652   2.556
10082SOL    HW131145   1.622   4.679   2.501
10082SOL    HW231146   1.463   4.705   2.528
10083SOL     OW31147   3.765   5.246   3.828
10083SOL    HW131148   3.778   5.332   3.878
10083SOL    HW231149   3.668   5.220   3.832
10084SOL     OW31150   1.237   0.037   5.299
10084SOL    HW131151   1.310   7.006   5.330
10084SOL    HW231152   1.161   7.012   5.263
10085SOL     OW31153   3.889   6.368   0.502
10085SOL    HW131154   3.793   6.349   0.481
10085SOL    HW231155   3.904   6.357   0.600
10086SOL     OW31156   6.257   6.730   2.173
10086SOL    HW131157   6.277   6.782   2.090
10086SOL    HW231158   6.194   6.655   2.151
10087SOL     OW31159   1.170   6.327   4.433
10087SOL    HW131160   1.173   6.319   4.333
10087SOL    HW231161   1.169   6.423   4.459
10088SOL     OW31162   6.850   2.801   0.025
10088SOL    HW131163   6.942   2.833   0.045
10088SOL    HW231164   6.842   2.704   0.048
10089SOL     OW31165   4.337   2.054   2.264
10089SOL    HW131166   4.303   2.087   2.176
10089SOL    HW231167   4.261   2.027   2.323
10090SOL     OW31168   1.319   4.880   1.487
10090SOL    HW131169   1.412   4.883   1.523
10090SOL    HW231170   1.322   4.895   1.388
10091SOL     OW31171   6.146   4.906   5.562
10091SOL    HW131172   6.192   4.973   5.619
10091SOL    HW231173   6.112   4.950   5.479
10092SOL     OW31174   0.288   2.918   5.367
10092SOL    HW131175   0.264   2.822   5.350
10092SOL    HW231176   0.285   2.937   5.465
10093SOL     OW31177   5.867   4.113   5.794
10093SOL    HW131178   5.874   4.035   5.732
10093SOL    HW231179   5.943   4.111   5.859
10094SOL     OW31180   3.001   0.594   1.038
10094SOL    HW131181   2.952   0.543   1.109
10094SOL    HW231182   3.094   0.612   1.069
10095SOL     OW31183   5.248   2.975   5.202
10095SOL    HW131184   5.289   3.051   5.152
10095SOL    HW231185   5.178   2.931   5.145
10096SOL     OW31186   4.738   0.993   2.707
10096SOL    HW131187   4.781   0.965   2.793
10096SOL    HW231188   4.774   0.938   2.632
10097SOL     OW31189   1.223   1.713   6.357
10097SOL    HW131190   1.219   1.629   6.410
10097SOL    HW231191   1.271   1.783   6.408
10098SOL     OW31192   3.330   5.591   4.814
10098SOL    HW131193   3.297   5.502   4.844
10098SOL    HW231194   3.303   5.661   4.880
10099SOL     OW31195   0.396   4.567   2.541
10099SOL    HW131196   0.429   4.643   2.486
10099SOL    HW231197   0.422   4.481   2.498
10100SOL     OW31198   5.042   4.908   4.668
10100SOL    HW131199   4.943   4.918   4.674
10100SOL    HW231200   5.074   4.845   4.738
10101SOL     OW31201   1.053   2.282   1.823
10101SOL    HW131202   1.098   2.259   1.910
10101SOL    HW231203   0.963   2.239   1.820
10102SOL     OW31204   6.538   6.841   1.406
10102SOL    HW131205   6.569   6.831   1.311
10102SOL    HW231206   6.617   6.832   1.467
10103SOL     OW31207   0.099   6.612   5.842
10103SOL    HW131208   0.159   6.689   5.865
10103SOL    HW231209   0.005   6.634   5.867
10104SOL     OW31210   2.125   0.550   5.901
10104SOL    HW131211   2.080   0.527   5.815
10104SOL    HW231212   2.149   0.467   5.950
10105SOL     OW31213   2.484   0.669   5.425
10105SOL    HW131214   2.562   0.627   5.472
10105SOL    HW231215   2.399   0.632   5.463
10106SOL     OW31216   4.933   6.501   1.363
10106SOL    HW131217   4.877   6.440   1.307
10106SOL    HW231218   4.944   6.462   1.454
10107SOL     OW31219   5.562   4.438   6.801
10107SOL    HW131220   5.538   4.341   6.794
10107SOL    HW231221   5.574   4.476   6.710
10108SOL     OW31222   1.418   2.385   0.486
10108SOL    HW131223   1.465   2.426   0.407
10108SOL    HW231224   1.377   2.298   0.460
10109SOL     OW31225   0.900   1.818   0.345
10109SOL    HW131226   0.818   1.804   0.400
10109SOL    HW231227   0.945   1.731   0.327
10110SOL     OW31228   4.901   6.039   3.036
10110SOL    HW131229   4.881   6.021   2.940
10110SOL    HW231230   4.815   6.051   3.086
10111SOL     OW31231   1.349   1.673   1.994
10111SOL    HW131232   1.322   1.582   1.963
10111SOL    HW231233   1.275   1.738   1.976
10112SOL     OW31234   6.117   2.546   3.660
10112SOL    HW131235   6.153   2.638   3.649
10112SOL    HW231236   6.098   2.507   3.570
10113SOL     OW31237   5.468   1.166   6.674
10113SOL    HW131238   5.566   1.169   6.691
10113SOL    HW231239   5.434   1.259   6.660
10114SOL     OW31240   3.777   1.443   2.660
10114SOL    HW131241   3.723   1.475   2.738
10114SOL    HW231242   3.873   1.468   2.674
10115SOL     OW31243   3.136   2.089   5.273
10115SOL    HW131244   3.158   2.162   5.208
10115SOL    HW231245   3.132   2.001   5.224
10116SOL     OW31246   6.157   0.714   4.714
10116SOL    HW131247   6.190   0.635   4.766
10116SOL    HW231248   6.076   0.687   4.661
10117SOL     OW31249   6.618   5.480   4.054
10117SOL    HW131250   6.581   5.414   4.118
10117SOL    HW231251   6.695   5.529   4.096
10118SOL     OW31252   3.564   5.036   5.094
10118SOL    HW131253   3.542   5.004   5.002
10118SOL    HW231254   3.655   5.003   5.120
10119SOL     OW31255   0.257   5.220   4.680
10119SOL    HW131256   0.242   5.293   4.746
10119SOL    HW231257   0.349   5.227   4.642
10120SOL     OW31258   2.223   2.902   1.836
10120SOL    HW131259   2.214   2.947   1.925
10120SOL    HW231260   2.225   2.803   1.848
10121SOL     OW31261   6.653   4.309   0.484
10121SOL    HW131262   6.572   4.280   0.534
10121SOL    HW231263   6.735   4.274   0.530
10122SOL     OW31264   0.879   1.314   4.043
10122SOL    HW131265   0.849   1.295   4.136
10122SOL    HW231266   0.911   1.229   4.001
10123SOL     OW31267   5.935   6.118   0.793
10123SOL    HW131268   5.959   6.193   0.856
10123SOL    HW231269   6.008   6.108   0.725
10124SOL     OW31270   1.059   4.025   2.786
10124SOL    HW131271   1.009   4.003   2.702
10124SOL    HW231272   1.081   4.123   2.787
10125SOL     OW31273   1.413   1.816   6.599
10125SOL    HW131274   1.422   1.724   6.560
10125SOL    HW231275   1.501   1.862   6.597
10126SOL     OW31276   6.808   6.888   6.781
10126SOL    HW131277   6.826   6.874   6.683
10126SOL    HW231278   6.729   6.949   6.791
10127SOL     OW31279   2.347   5.088   5.935
10127SOL    HW131280   2.263   5.035   5.942
10127SOL    HW231281   2.401   5.074   6.019
10128SOL     OW31282   3.291   0.659   6.769
10128SOL    HW131283   3.366   0.702   6.821
10128SOL    HW231284   3.218   0.634   6.832
10129SOL     OW31285   6.048   1.224   3.921
10129SOL    HW131286   6.093   1.302   3.965
10129SOL    HW231287   5.965   1.256   3.875
10130SOL     OW31288   1.784   2.308   2.506
10130SOL    HW131289   1.792   2.370   2.584
10130SOL    HW231290   1.808   2.215   2.535
10131SOL     OW31291   1.549   0.669   4.049
10131SOL    HW131292   1.647   0.690   4.046
10131SOL    HW231293   1.516   0.654   3.956
10132SOL     OW31294   6.963   0.781   2.725
10132SOL    HW131295   6.898   0.720   2.680
10132SOL    HW231296   7.007   0.839   2.656
10133SOL     OW31297   5.155   6.514   0.662
10133SOL    HW131298   5.150   6.542   0.758
10133SOL    HW231299   5.248   6.526   0.628
10134SOL     OW31300   5.748   1.287   2.063
10134SOL    HW131301   5.805   1.330   1.993
10134SOL    HW231302   5.653   1.285   2.033
10135SOL     OW31303   5.605   6.830   2.900
10135SOL    HW131304   5.551   6.842   2.983
10135SOL    HW231305   5.615   6.919   2.854
10136SOL     OW31306   4.793   1.377   2.863
10136SOL    HW131307   4.761   1.411   2.775
10136SOL    HW231308   4.726   1.401   2.934
10137SOL     OW31309   6.693   5.518   5.700
10137SOL    HW131310   6.782   5.532   5.657
10137SOL    HW231311   6.643   5.605   5.701
10138SOL     OW31312   5.938   1.229   0.634
10138SOL    HW131313   5.969   1.162   0.567
10138SOL    HW231314   5.861   1.191   0.686
10139SOL     OW31315   3.402   3.599   5.306
10139SOL    HW131316   3.376   3.691   5.275
10139SOL    HW231317   3.488   3.604   5.356
10140SOL     OW31318   7.028   5.362   6.056
10140SOL    HW131319   0.064   5.419   6.007
10140SOL    HW231320   6.946   5.350   6.000
10141SOL     OW31321   2.630   1.594   4.390
10141SOL    HW131322   2.718   1.630   4.358
10141SOL    HW231323   2.561   1.608   4.319
10142SOL     OW31324   6.097   6.564   4.109
10142SOL    HW131325   6.187   6.552   4.067
10142SOL    HW231326   6.104   6.547   4.207
10143SOL     OW31327   5.795   2.830   6.984
10143SOL    HW131328   5.821   2.806   6.891
10143SOL    HW231329   5.874   2.819   0.016
10144SOL     OW31330   3.853   6.539   6.038
10144SOL    HW131331   3.877   6.566   6.131
10144SOL    HW231332   3.890   6.449   6.018
10145SOL     OW31333   5.296   6.134   7.003
10145SOL    HW131334   5.250   6.153   0.059
10145SOL    HW231335   5.234   6.085   6.942
10146SOL     OW31336   0.233   2.250   4.674
10146SOL    HW131337   0.218   2.304   4.591
10146SOL    HW231338   0.217   2.309   4.754
10147SOL     OW31339   4.961   5.894   6.651
10147SOL    HW131340   5.029   5.821   6.659
10147SOL    HW231341   4.931   5.901   6.556
10148SOL     OW31342   0.671   5.007   6.532
10148SOL    HW131343   0.591   4.959   6.567
10148SOL    HW231344   0.754   4.957   6.556
10149SOL     OW31345   4.686   4.239   0.606
10149SOL    HW131346   4.705   4.231   0.704
10149SOL    HW231347   4.729   4.322   0.571
10150SOL     OW31348   4.273   4.167   0.178
10150SOL    HW131349   4.176   4.152   0.198
10150SOL    HW231350   4.297   4.262   0.198
10151SOL     OW31351   6.146   6.619   5.107
10151SOL    HW131352   6.186   6.527   5.102
10151SOL    HW231353   6.071   6.618   5.174
10152SOL     OW31354   5.639   6.593   2.761
10152SOL    HW131355   5.620   6.687   2.791
10152SOL    HW231356   5.580   6.571   2.683
10153SOL     OW31357   5.410   4.291   3.512
10153SOL    HW131358   5.321   4.300   3.557
10153SOL    HW231359   5.455   4.207   3.543
10154SOL     OW31360   5.369   5.321   4.690
10154SOL    HW131361   5.419   5.405   4.710
10154SOL    HW231362   5.273   5.344   4.671
10155SOL     OW31363   4.385   2.047   5.436
10155SOL    HW131364   4.345   2.058   5.345
10155SOL    HW231365   4.485   2.045   5.429
10156SOL     OW31366   5.151   1.619   0.090
10156SOL    HW131367   5.138   1.659   0.180
10156SOL    HW231368   5.246   1.587   0.080
10157SOL     OW31369   0.260   3.143   1.561
10157SOL    HW131370   0.255   3.115   1.465
10157SOL    HW231371   0.297   3.068   1.616
10158SOL     OW31372   5.692   5.904   1.424
10158SOL    HW131373   5.634   5.835   1.468
10158SOL    HW231374   5.678   5.901   1.325
10159SOL     OW31375   3.319   3.338   2.909
10159SOL    HW131376   3.321   3.438   2.911
10159SOL    HW231377   3.395   3.302   2.963
10160SOL     OW31378   1.985   4.884   3.757
10160SOL    HW131379   2.071   4.892   3.707
10160SOL    HW231380   1.971   4.789   3.785
10161SOL     OW31381   4.624   3.879   5.863
10161SOL    HW131382   4.593   3.784   5.865
10161SOL    HW231383   4.640   3.910   5.956
10162SOL     OW31384   1.552   3.530   2.727
10162SOL    HW131385   1.595   3.590   2.659
10162SOL    HW231386   1.601   3.442   2.729
10163SOL     OW31387   1.112   6.454   5.274
10163SOL    HW131388   1.191   6.396   5.291
10163SOL    HW231389   1.034   6.421   5.327
10164SOL     OW31390   0.516   3.229   2.909
10164SOL    HW131391   0.465   3.173   2.974
10164SOL    HW231392   0.462   3.241   2.826
10165SOL     OW31393   6.543   3.330   4.141
10165SOL    HW131394   6.521   3.305   4.047
10165SOL    HW231395   6.576   3.250   4.191
10166SOL     OW31396   1.087   1.438   1.024
10166SOL    HW131397   1.073   1.362   0.962
10166SOL    HW231398   1.123   1.404   1.111
10167SOL     OW31399   1.267   0.071   6.626
10167SOL    HW131400   1.279   0.166   6.597
10167SOL    HW231401   1.355   0.032   6.652
10168SOL     OW31402   5.998   1.146   0.353
10168SOL    HW131403   6.081   1.147   0.299
10168SOL    HW231404   5.984   1.054   0.391
10169SOL     OW31405   6.307   2.536   3.887
10169SOL    HW131406   6.233   2.521   3.822
10169SOL    HW231407   6.270   2.578   3.970
10170SOL     OW31408   6.049   6.007   5.819
10170SOL    HW131409   6.107   5.929   5.844
10170SOL    HW231410   6.032   6.063   5.901
10171SOL     OW31411   1.878   3.764   6.028
10171SOL    HW131412   1.957   3.725   5.980
10171SOL    HW231413   1.871   3.862   6.005
10172SOL     OW31414   6.368   0.465   2.828
10172SOL    HW131415   6.299   0.399   2.799
10172SOL    HW231416   6.459   0.422   2.823
10173SOL     OW31417   3.375   4.644   6.056
10173SOL    HW131418   3.341   4.552   6.038
10173SOL    HW231419   3.439   4.642   6.133
10174SOL     OW31420   4.932   5.941   2.198
10174SOL    HW131421   4.981   5.854   2.207
10174SOL    HW231422   4.848   5.938   2.252
10175SOL     OW31423   0.368   1.692   4.200
10175SOL    HW131424   0.399   1.602   4.169
10175SOL    HW231425   0.310   1.733   4.130
10176SOL     OW31426   6.018   2.819   5.781
10176SOL    HW131427   5.956   2.838   5.858
10176SOL    HW231428   6.031   2.902   5.727
10177SOL     OW31429   2.551   0.789   2.424
10177SOL    HW131430   2.518   0.697   2.443
10177SOL    HW231431   2.553   0.842   2.508
10178SOL     OW31432   1.638   1.018   0.145
10178SOL    HW131433   1.731   1.035   0.113
10178SOL    HW231434   1.634   1.030   0.245
10179SOL     OW31435   0.204   4.370   1.403
10179SOL    HW131436   0.270   4.355   1.476
10179SOL    HW231437   0.242   4.432   1.335
10180SOL     OW31438   3.847   6.819   5.481
10180SOL    HW131439   3.756   6.828   5.523
10180SOL    HW231440   3.898   6.748   5.529
10181SOL     OW31441   6.834   3.313   1.911
10181SOL    HW131442   6.825   3.317   1.812
10181SOL    HW231443   6.791   3.394   1.952
10182SOL     OW31444   5.054   1.779   6.781
10182SOL    HW131445   5.053   1.857   6.844
10182SOL    HW231446   4.994   1.798   6.703
10183SOL     OW31447   6.324   2.615   6.445
10183SOL    HW131448   6.287   2.688   6.388
10183SOL    HW231449   6.264   2.535   6.439
10184SOL     OW31450   5.396   3.295   5.709
10184SOL    HW131451   5.351   3.246   5.634
10184SOL    HW231452   5.481   3.337   5.675
10185SOL     OW31453   4.384   5.430   2.504
10185SOL    HW131454   4.412   5.334   2.508
10185SOL    HW231455   4.285   5.435   2.487
10186SOL     OW31456   4.269   3.418   5.756
10186SOL    HW131457   4.302   3.432   5.662
10186SOL    HW231458   4.223   3.500   5.788
10187SOL     OW31459   2.080   5.266   5.832
10187SOL    HW131460   1.994   5.316   5.819
10187SOL    HW231461   2.111   5.277   5.927
10188SOL     OW31462   3.170   0.119   6.972
10188SOL    HW131463   3.103   0.193   6.974
10188SOL    HW231464   3.155   0.057   0.020
10189SOL     OW31465   0.937   1.946   6.201
10189SOL    HW131466   0.858   1.987   6.157
10189SOL    HW231467   0.906   1.878   6.268
10190SOL     OW31468   3.197   5.151   1.734
10190SOL    HW131469   3.125   5.211   1.699
10190SOL    HW231470   3.193   5.062   1.688
10191SOL     OW31471   5.686   5.761   0.140
10191SOL    HW131472   5.639   5.690   0.089
10191SOL    HW231473   5.644   5.850   0.120
10192SOL     OW31474   2.000   1.994   4.963
10192SOL    HW131475   1.946   2.022   4.884
10192SOL    HW231476   1.987   1.897   4.980
10193SOL     OW31477   3.983   3.908   3.197
10193SOL    HW131478   3.909   3.930   3.261
10193SOL    HW231479   4.032   3.827   3.231
10194SOL     OW31480   3.407   0.170   4.005
10194SOL    HW131481   3.496   0.210   4.027
10194SOL    HW231482   3.372   0.121   4.085
10195SOL     OW31483   4.599   6.966   2.154
10195SOL    HW131484   4.523   7.017   2.193
10195SOL    HW231485   4.586   6.958   2.055
10196SOL     OW31486   5.597   1.638   2.890
10196SOL    HW131487   5.554   1.578   2.822
10196SOL    HW231488   5.526   1.682   2.945
10197SOL     OW31489   6.082   1.056   2.435
10197SOL    HW131490   6.178   1.027   2.427
10197SOL    HW231491   6.059   1.068   2.531
10198SOL     OW31492   3.053   6.826   1.588
10198SOL    HW131493   3.056   6.810   1.489
10198SOL    HW231494   2.997   6.756   1.631
10199SOL     OW31495   0.665   1.538   6.835
10199SOL    HW131496   0.566   1.535   6.850
10199SOL    HW231497   0.713   1.534   6.923
10200SOL     OW31498   4.962   4.327   5.388
10200SOL    HW131499   5.054   4.365   5.390
10200SOL    HW231500   4.962   4.236   5.428
10201SOL     OW31501   0.785   5.455   2.144
10201SOL    HW131502   0.765   5.545   2.182
10201SOL    HW231503   0.878   5.428   2.170
10202SOL     OW31504   0.892   3.236   1.908
10202SOL    HW131505   0.897   3.165   1.979
10202SOL    HW231506   0.885   3.193   1.818
10203SOL     OW31507   1.656   2.928   2.052
10203SOL    HW131508   1.625   3.021   2.068
10203SOL    HW231509   1.645   2.875   2.137
10204SOL     OW31510   3.110   4.837   5.071
10204SOL    HW131511   3.068   4.750   5.098
10204SOL    HW231512   3.122   4.838   4.971
10205SOL     OW31513   5.626   2.198   3.252
10205SOL    HW131514   5.599   2.284   3.208
10205SOL    HW231515   5.606   2.204   3.350
10206SOL     OW31516   5.323   6.545   5.676
10206SOL    HW131517   5.391   6.475   5.699
10206SOL    HW231518   5.369   6.624   5.635
10207SOL     OW31519   3.539   1.086   3.151
10207SOL    HW131520   3.491   1.103   3.065
10207SOL    HW231521   3.480   1.111   3.228
10208SOL     OW31522   5.924   4.551   5.865
10208SOL    HW131523   5.861   4.499   5.809
10208SOL    HW231524   5.990   4.598   5.806
10209SOL     OW31525   6.543   0.031   6.548
10209SOL    HW131526   6.602   0.094   6.498
10209SOL    HW231527   6.460   0.078   6.578
10210SOL     OW31528   5.819   6.449   2.281
10210SOL    HW131529   5.888   6.512   2.314
10210SOL    HW231530   5.729   6.491   2.289
10211SOL     OW31531   3.740   6.308   5.289
10211SOL    HW131532   3.790   6.302   5.375
10211SOL    HW231533   3.768   6.233   5.229
10212SOL     OW31534   0.468   0.823   3.794
10212SOL    HW131535   0.369   0.829   3.804
10212SOL    HW231536   0.492   0.823   3.697
10213SOL     OW31537   6.137   1.796   3.486
10213SOL    HW131538   6.148   1.702   3.454
10213SOL    HW231539   6.084   1.796   3.571
10214SOL     OW31540   6.520   1.464   2.102
10214SOL    HW131541   6.537   1.558   2.132
10214SOL    HW231542   6.581   1.402   2.151
10215SOL     OW31543   3.747   3.561   0.061
10215SOL    HW131544   3.794   3.641   0.025
10215SOL    HW231545   3.671   3.537   0.001
10216SOL     OW31546   5.653   0.268   1.302
10216SOL    HW131547   5.694   0.329   1.369
10216SOL    HW231548   5.661   0.307   1.211
10217SOL     OW31549   2.574   1.964   4.290
10217SOL    HW131550   2.654   1.933   4.238
10217SOL    HW231551   2.566   1.909   4.374
10218SOL     OW31552   1.988   0.728   0.927
10218SOL    HW131553   2.071   0.720   0.872
10218SOL    HW231554   1.928   0.797   0.886
10219SOL     OW31555   1.051   2.746   1.614
10219SOL    HW131556   0.965   2.716   1.572
10219SOL    HW231557   1.058   2.706   1.706
10220SOL     OW31558   4.330   1.961   1.202
10220SOL    HW131559   4.414   1.920   1.165
10220SOL    HW231560   4.270   1.889   1.237
10221SOL     OW31561   2.754   0.238   5.315
10221SOL    HW131562   2.754   0.171   5.240
10221SOL    HW231563   2.797   0.323   5.284
10222SOL     OW31564   1.332   4.319   5.186
10222SOL    HW131565   1.302   4.398   5.238
10222SOL    HW231566   1.342   4.344   5.089
10223SOL     OW31567   1.759   4.290   6.946
10223SOL    HW131568   1.770   4.298   6.847
10223SOL    HW231569   1.779   4.197   6.974
10224SOL     OW31570   1.128   0.030   4.218
10224SOL    HW131571   1.114   0.036   4.120
10224SOL    HW231572   1.040   0.027   4.264
10225SOL     OW31573   6.605   6.246   5.047
10225SOL    HW131574   6.617   6.157   5.092
10225SOL    HW231575   6.685   6.266   4.990
10226SOL     OW31576   2.399   0.928   6.842
10226SOL    HW131577   2.331   0.943   6.771
10226SOL    HW231578   2.464   1.004   6.843
10227SOL     OW31579   4.627   4.356   0.179
10227SOL    HW131580   4.668   4.265   0.186
10227SOL    HW231581   4.624   4.384   0.083
10228SOL     OW31582   1.458   5.492   3.436
10228SOL    HW131583   1.496   5.569   3.385
10228SOL    HW231584   1.359   5.489   3.424
10229SOL     OW31585   0.982   0.249   3.583
10229SOL    HW131586   0.947   0.158   3.605
10229SOL    HW231587   0.927   0.289   3.510
10230SOL     OW31588   6.080   0.117   3.716
10230SOL    HW131589   6.062   0.184   3.644
10230SOL    HW231590   6.062   0.025   3.682
10231SOL     OW31591   5.742   6.726   4.902
10231SOL    HW131592   5.728   6.712   5.000
10231SOL    HW231593   5.710   6.817   4.876
10232SOL     OW31594   3.954   1.433   4.712
10232SOL    HW131595   4.040   1.443   4.662
10232SOL    HW231596   3.973   1.416   4.809
10233SOL     OW31597   4.650   2.999   5.809
10233SOL    HW131598   4.750   3.000   5.799
10233SOL    HW231599   4.617   3.091   5.826
10234SOL     OW31600   5.329   7.018   0.757
10234SOL    HW131601   5.327   6.919   0.769
10234SOL    HW231602   5.423   0.018   0.740
10235SOL     OW31603   4.547   1.920   6.880
10235SOL    HW131604   4.610   1.997   6.875
10235SOL    HW231605   4.469   1.945   6.939
10236SOL     OW31606   2.059   5.983   1.942
10236SOL    HW131607   2.028   5.961   2.035
10236SOL    HW231608   2.049   6.081   1.926
10237SOL     OW31609   6.262   4.054   2.525
10237SOL    HW131610   6.348   4.069   2.477
10237SOL    HW231611   6.204   4.135   2.515
10238SOL     OW31612   4.002   4.366   5.545
10238SOL    HW131613   3.969   4.326   5.631
10238SOL    HW231614   4.000   4.296   5.473
10239SOL     OW31615   0.307   3.786   4.976
10239SOL    HW131616   0.377   3.755   4.912
10239SOL    HW231617   0.334   3.762   5.069
10240SOL     OW31618   1.052   4.082   3.174
10240SOL    HW131619   1.099   4.159   3.218
10240SOL    HW231620   1.119   4.015   3.144
10241SOL     OW31621   0.930   1.594   2.601
10241SOL    HW131622   0.868   1.648   2.544
10241SOL    HW231623   0.997   1.548   2.543
10242SOL     OW31624   6.886   1.135   6.033
10242SOL    HW131625   6.888   1.158   5.935
10242SOL    HW231626   6.809   1.183   6.076
10243SOL     OW31627   0.611   5.452   1.546
10243SOL    HW131628   0.560   5.504   1.477
10243SOL    HW231629   0.708   5.470   1.536
10244SOL     OW31630   2.552   4.900   0.249
10244SOL    HW131631   2.557   4.975   0.183
10244SOL    HW231632   2.637   4.897   0.301
10245SOL     OW31633   1.391   3.388   0.061
10245SOL    HW131634   1.351   3.296   0.060
10245SOL    HW231635   1.447   3.400   0.143
10246SOL     OW31636   2.977   3.795   4.554
10246SOL    HW131637   2.975   3.782   4.653
10246SOL    HW231638   3.015   3.885   4.533
10247SOL     OW31639   6.680   5.263   6.112
10247SOL    HW131640   6.658   5.358   6.136
10247SOL    HW231641   6.712   5.259   6.018
10248SOL     OW31642   2.616   0.459   1.964
10248SOL    HW131643   2.552   0.394   2.005
10248SOL    HW231644   2.708   0.420   1.966
10249SOL     OW31645   4.553   0.910   5.556
10249SOL    HW131646   4.570   0.995   5.607
10249SOL    HW231647   4.534   0.836   5.621
10250SOL     OW31648   5.939   1.125   1.458
10250SOL    HW131649   5.843   1.112   1.482
10250SOL    HW231650   5.974   1.043   1.413
10251SOL     OW31651   2.737   2.776   6.742
10251SOL    HW131652   2.816   2.746   6.796
10251SOL    HW231653   2.716   2.706   6.674
10252SOL     OW31654   6.477   6.492   0.949
10252SOL    HW131655   6.551   6.511   1.014
10252SOL    HW231656   6.450   6.396   0.957
10253SOL     OW31657   5.060   4.547   0.202
10253SOL    HW131658   5.047   4.548   0.301
10253SOL    HW231659   5.023   4.462   0.165
10254SOL     OW31660   2.838   1.482   4.920
10254SOL    HW131661   2.863   1.424   4.842
10254SOL    HW231662   2.739   1.480   4.932
10255SOL     OW31663   2.140   5.689   2.209
10255SOL    HW131664   2.179   5.763   2.155
10255SOL    HW231665   2.045   5.710   2.233
10256SOL     OW31666   4.796   0.207   0.147
10256SOL    HW131667   4.886   0.251   0.146
10256SOL    HW231668   4.807   0.108   0.156
10257SOL     OW31669   1.367   5.252   6.164
10257SOL    HW131670   1.390   5.327   6.103
10257SOL    HW231671   1.267   5.240   6.166
10258SOL     OW31672   4.263   6.398   3.421
10258SOL    HW131673   4.335   6.421   3.356
10258SOL    HW231674   4.303   6.348   3.498
10259SOL     OW31675   0.349   4.432   4.237
10259SOL    HW131676   0.380   4.525   4.219
10259SOL    HW231677   0.389   4.399   4.322
10260SOL     OW31678   0.748   6.564   2.439
10260SOL    HW131679   0.802   6.645   2.416
10260SOL    HW231680   0.661   6.567   2.391
10261SOL     OW31681   0.313   5.231   2.057
10261SOL    HW131682   0.227   5.277   2.079
10261SOL    HW231683   0.389   5.295   2.072
10262SOL     OW31684   3.379   4.913   4.053
10262SOL    HW131685   3.408   4.920   4.148
10262SOL    HW231686   3.305   4.846   4.045
10263SOL     OW31687   5.216   1.772   6.280
10263SOL    HW131688   5.128   1.756   6.324
10263SOL    HW231689   5.259   1.684   6.259
10264SOL     OW31690   6.025   1.135   6.226
10264SOL    HW131691   6.081   1.177   6.154
10264SOL    HW231692   5.952   1.198   6.252
10265SOL     OW31693   3.678   1.646   2.966
10265SOL    HW131694   3.734   1.564   2.977
10265SOL    HW231695   3.636   1.669   3.053
10266SOL     OW31696   3.473   3.582   6.443
10266SOL    HW131697   3.480   3.573   6.344
10266SOL    HW231698   3.423   3.504   6.480
10267SOL     OW31699   0.164   1.558   6.979
10267SOL    HW131700   0.106   1.597   0.021
10267SOL    HW231701   0.114   1.558   6.892
10268SOL     OW31702   5.439   5.552   1.759
10268SOL    HW131703   5.473   5.627   1.703
10268SOL    HW231704   5.425   5.471   1.702
10269SOL     OW31705   1.923   2.361   6.132
10269SOL    HW131706   1.872   2.279   6.106
10269SOL    HW231707   1.902   2.434   6.067
10270SOL     OW31708   2.001   6.118   0.283
10270SOL    HW131709   2.036   6.080   0.368
10270SOL    HW231710   2.051   6.080   0.206
10271SOL     OW31711   3.776   3.706   1.344
10271SOL    HW131712   3.718   3.666   1.414
10271SOL    HW231713   3.802   3.636   1.278
10272SOL     OW31714   0.623   0.748   4.544
10272SOL    HW131715   0.602   0.839   4.508
10272SOL    HW231716   0.543   0.689   4.533
10273SOL     OW31717   3.448   5.658   4.392
10273SOL    HW131718   3.448   5.733   4.459
10273SOL    HW231719   3.358   5.614   4.391
10274SOL     OW31720   1.025   5.436   5.702
10274SOL    HW131721   1.020   5.439   5.801
10274SOL    HW231722   0.945   5.481   5.663
10275SOL     OW31723   1.071   6.338   2.690
10275SOL    HW131724   1.039   6.402   2.761
10275SOL    HW231725   1.102   6.389   2.610
10276SOL     OW31726   6.905   5.328   5.507
10276SOL    HW131727   6.817   5.281   5.502
10276SOL    HW231728   6.979   5.260   5.508
10277SOL     OW31729   3.101   6.411   3.986
10277SOL    HW131730   3.127   6.449   4.074
10277SOL    HW231731   3.127   6.474   3.913
10278SOL     OW31732   6.280   0.287   6.845
10278SOL    HW131733   6.213   0.349   6.804
10278SOL    HW231734   6.255   0.269   6.940
10279SOL     OW31735   3.106   0.363   4.426
10279SOL    HW131736   3.160   0.390   4.346
10279SOL    HW231737   3.058   0.443   4.462
10280SOL     OW31738   1.670   4.499   0.928
10280SOL    HW131739   1.598   4.523   0.992
10280SOL    HW231740   1.631   4.450   0.850
10281SOL     OW31741   4.533   1.265   2.241
10281SOL    HW131742   4.485   1.315   2.313
10281SOL    HW231743   4.524   1.167   2.256
10282SOL     OW31744   0.674   2.316   3.923
10282SOL    HW131745   0.756   2.312   3.980
10282SOL    HW231746   0.696   2.283   3.831
10283SOL     OW31747   0.804   3.070   0.680
10283SOL    HW131748   0.773   3.131   0.607
10283SOL    HW231749   0.725   3.033   0.729
10284SOL     OW31750   5.505   3.514   4.968
10284SOL    HW131751   5.489   3.417   4.987
10284SOL    HW231752   5.545   3.523   4.876
10285SOL     OW31753   4.779   0.636   1.000
10285SOL    HW131754   4.792   0.553   1.054
10285SOL    HW231755   4.866   0.685   0.993
10286SOL     OW31756   3.967   0.778   3.138
10286SOL    HW131757   4.011   0.839   3.072
10286SOL    HW231758   4.030   0.758   3.213
10287SOL     OW31759   1.643   6.811   1.302
10287SOL    HW131760   1.613   6.856   1.219
10287SOL    HW231761   1.601   6.721   1.309
10288SOL     OW31762   5.456   5.670   2.939
10288SOL    HW131763   5.553   5.658   2.963
10288SOL    HW231764   5.430   5.765   2.956
10289SOL     OW31765   2.934   1.333   1.698
10289SOL    HW131766   2.940   1.390   1.780
10289SOL    HW231767   2.843   1.341   1.659
10290SOL     OW31768   4.124   3.419   2.656
10290SOL    HW131769   4.138   3.320   2.665
10290SOL    HW231770   4.083   3.455   2.740
10291SOL     OW31771   3.631   0.623   3.928
10291SOL    HW131772   3.717   0.672   3.941
10291SOL    HW231773   3.583   0.617   4.015
10292SOL     OW31774   0.166   2.456   4.830
10292SOL    HW131775   0.249   2.497   4.868
10292SOL    HW231776   0.098   2.528   4.815
10293SOL     OW31777   1.935   5.977   3.078
10293SOL    HW131778   1.934   5.903   3.144
10293SOL    HW231779   1.862   5.964   3.011
10294SOL     OW31780   4.792   1.938   2.347
10294SOL    HW131781   4.708   1.988   2.371
10294SOL    HW231782   4.849   1.929   2.429
10295SOL     OW31783   0.101   4.760   5.517
10295SOL    HW131784   0.085   4.702   5.437
10295SOL    HW231785   0.073   4.711   5.600
10296SOL     OW31786   6.177   3.817   6.270
10296SOL    HW131787   6.242   3.817   6.194
10296SOL    HW231788   6.226   3.834   6.355
10297SOL     OW31789   1.623   6.207   3.784
10297SOL    HW131790   1.710   6.235   3.824
10297SOL    HW231791   1.555   6.279   3.798
10298SOL     OW31792   4.831   3.884   3.912
10298SOL    HW131793   4.857   3.935   3.994
10298SOL    HW231794   4.838   3.786   3.930
10299SOL     OW31795   4.435   4.554   3.592
10299SOL    HW131796   4.404   4.600   3.675
10299SOL    HW231797   4.502   4.484   3.617
10300SOL     OW31798   0.884   3.358   1.471
10300SOL    HW131799   0.835   3.303   1.404
10300SOL    HW231800   0.836   3.444   1.487
10301SOL     OW31801   5.937   1.475   3.151
10301SOL    HW131802   5.926   1.560   3.100
10301SOL    HW231803   6.033   1.464   3.178
10302SOL     OW31804   1.320   6.238   2.786
10302SOL    HW131805   1.237   6.266   2.738
10302SOL    HW231806   1.296   6.199   2.875
10303SOL     OW31807   3.831   3.502   1.153
10303SOL    HW131808   3.778   3.476   1.072
10303SOL    HW231809   3.894   3.427   1.176
10304SOL     OW31810   6.775   6.861   3.543
10304SOL    HW131811   6.799   6.941   3.598
10304SOL    HW231812   6.819   6.867   3.454
10305SOL     OW31813   2.003   5.946   7.020
10305SOL    HW131814   1.927   5.914   6.963
10305SOL    HW231815   2.088   5.908   6.985
10306SOL     OW31816   4.724   5.889   0.607
10306SOL    HW131817   4.724   5.934   0.696
10306SOL    HW231818   4.758   5.795   0.616
10307SOL     OW31819   1.308   1.008   6.193
10307SOL    HW131820   1.279   1.053   6.109
10307SOL    HW231821   1.399   1.039   6.218
10308SOL     OW31822   3.231   5.172   3.636
10308SOL    HW131823   3.189   5.246   3.689
10308SOL    HW231824   3.186   5.165   3.547
10309SOL     OW31825   6.063   6.676   3.095
10309SOL    HW131826   6.030   6.599   3.149
10309SOL    HW231827   5.996   6.700   3.025
10310SOL     OW31828   2.928   3.677   2.633
10310SOL    HW131829   2.881   3.622   2.703
10310SOL    HW231830   2.966   3.617   2.563
10311SOL     OW31831   0.511   5.651   0.603
10311SOL    HW131832   0.459   5.580   0.651
10311SOL    HW231833   0.464   5.739   0.611
10312SOL     OW31834   3.471   4.823   1.155
10312SOL    HW131835   3.412   4.886   1.104
10312SOL    HW231836   3.530   4.774   1.090
10313SOL     OW31837   4.590   0.380   2.422
10313SOL    HW131838   4.686   0.407   2.430
10313SOL    HW231839   4.532   0.458   2.444
10314SOL     OW31840   6.606   0.117   0.777
10314SOL    HW131841   6.513   0.084   0.761
10314SOL    HW231842   6.612   0.161   0.866
10315SOL     OW31843   6.445   5.668   5.358
10315SOL    HW131844   6.410   5.762   5.352
10315SOL    HW231845   6.373   5.604   5.329
10316SOL     OW31846   0.830   3.505   5.039
10316SOL    HW131847   0.852   3.416   4.998
10316SOL    HW231848   0.755   3.494   5.103
10317SOL     OW31849   4.299   5.051   6.287
10317SOL    HW131850   4.256   4.961   6.298
10317SOL    HW231851   4.398   5.040   6.282
10318SOL     OW31852   6.260   5.166   1.646
10318SOL    HW131853   6.346   5.212   1.668
10318SOL    HW231854   6.276   5.068   1.636
10319SOL     OW31855   7.030   5.204   3.321
10319SOL    HW131856   0.046   5.261   3.253
10319SOL    HW231857   6.936   5.185   3.291
10320SOL     OW31858   0.170   6.078   0.733
10320SOL    HW131859   0.202   5.986   0.756
10320SOL    HW231860   0.212   6.107   0.647
10321SOL     OW31861   4.623   5.305   4.587
10321SOL    HW131862   4.643   5.213   4.555
10321SOL    HW231863   4.539   5.304   4.642
10322SOL     OW31864   6.710   4.900   0.990
10322SOL    HW131865   6.659   4.848   0.921
10322SOL    HW231866   6.648   4.933   1.060
10323SOL     OW31867   5.600   3.324   6.151
10323SOL    HW131868   5.521   3.269   6.123
10323SOL    HW231869   5.630   3.296   6.242
10324SOL     OW31870   3.122   4.005   3.660
10324SOL    HW131871   3.080   4.009   3.569
10324SOL    HW231872   3.218   4.030   3.654
10325SOL     OW31873   0.244   3.198   3.190
10325SOL    HW131874   0.147   3.207   3.214
10325SOL    HW231875   0.298   3.261   3.246
10326SOL     OW31876   5.076   2.548   0.093
10326SOL    HW131877   4.985   2.568   0.128
10326SOL    HW231878   5.075   2.459   0.046
10327SOL     OW31879   0.582   0.971   2.961
10327SOL    HW131880   0.617   1.060   2.931
10327SOL    HW231881   0.523   0.933   2.890
10328SOL     OW31882   6.095   3.862   2.451
10328SOL    HW131883   6.162   3.933   2.476
10328SOL    HW231884   6.003   3.901   2.453
10329SOL     OW31885   3.197   0.154   2.687
10329SOL    HW131886   3.273   0.096   2.657
10329SOL    HW231887   3.132   0.100   2.740
10330SOL     OW31888   3.672   4.923   2.462
10330SOL    HW131889   3.711   4.915   2.370
10330SOL    HW231890   3.596   4.858   2.472
10331SOL     OW31891   5.272   0.957   3.879
10331SOL    HW131892   5.188   0.905   3.888
10331SOL    HW231893   5.251   1.055   3.878
10332SOL     OW31894   0.009   1.904   0.228
10332SOL    HW131895   0.002   1.811   0.190
10332SOL    HW231896   0.070   1.903   0.307
10333SOL     OW31897   6.152   5.590   4.251
10333SOL    HW131898   6.102   5.617   4.333
10333SOL    HW231899   6.090   5.593   4.172
10334SOL     OW31900   2.113   4.579   4.108
10334SOL    HW131901   2.029   4.632   4.094
10334SOL    HW231902   2.114   4.541   4.201
10335SOL     OW31903   2.447   5.130   1.000
10335SOL    HW131904   2.487   5.063   1.063
10335SOL    HW231905   2.520   5.180   0.954
10336SOL     OW31906   4.423   6.818   2.324
10336SOL    HW131907   4.494   6.837   2.257
10336SOL    HW231908   4.391   6.903   2.365
10337SOL     OW31909   0.173   5.077   4.894
10337SOL    HW131910   0.154   4.980   4.877
10337SOL    HW231911   0.202   5.121   4.809
10338SOL     OW31912   2.574   6.764   2.502
10338SOL    HW131913   2.594   6.860   2.521
10338SOL    HW231914   2.659   6.711   2.505
10339SOL     OW31915   2.581   6.191   1.411
10339SOL    HW131916   2.561   6.266   1.348
10339SOL    HW231917   2.667   6.208   1.458
10340SOL     OW31918   2.530   5.811   0.246
10340SOL    HW131919   2.465   5.831   0.173
10340SOL    HW231920   2.616   5.859   0.229
10341SOL     OW31921   2.429   1.613   2.461
10341SOL    HW131922   2.414   1.712   2.466
10341SOL    HW231923   2.509   1.595   2.403
10342SOL     OW31924   2.254   0.380   5.685
10342SOL    HW131925   2.350   0.370   5.711
10342SOL    HW231926   2.246   0.452   5.615
10343SOL     OW31927   2.564   3.802   6.187
10343SOL    HW131928   2.622   3.752   6.123
10343SOL    HW231929   2.608   3.805   6.276
10344SOL     OW31930   4.154   3.608   4.996
10344SOL    HW131931   4.251   3.623   4.978
10344SOL    HW231932   4.102   3.618   4.911
10345SOL     OW31933   2.079   1.396   6.841
10345SOL    HW131934   1.992   1.428   6.879
10345SOL    HW231935   2.102   1.450   6.760
10346SOL     OW31936   5.147   0.131   7.010
10346SOL    HW131937   5.096   0.146   6.925
10346SOL    HW231938   5.102   0.180   0.055
10347SOL     OW31939   5.387   1.915   1.629
10347SOL    HW131940   5.345   1.828   1.602
10347SOL    HW231941   5.416   1.964   1.546
10348SOL     OW31942   5.989   0.785   6.156
10348SOL    HW131943   6.075   0.772   6.204
10348SOL    HW231944   6.007   0.805   6.060
10349SOL     OW31945   6.494   1.356   1.554
10349SOL    HW131946   6.584   1.398   1.546
10349SOL    HW231947   6.453   1.382   1.642
10350SOL     OW31948   2.739   5.754   4.380
10350SOL    HW131949   2.768   5.672   4.429
10350SOL    HW231950   2.774   5.750   4.286
10351SOL     OW31951   5.534   5.239   5.434
10351SOL    HW131952   5.614   5.293   5.408
10351SOL    HW231953   5.556   5.185   5.515
10352SOL     OW31954   5.498   2.084   6.846
10352SOL    HW131955   5.577   2.145   6.855
10352SOL    HW231956   5.524   1.992   6.876
10353SOL     OW31957   0.436   2.869   2.880
10353SOL    HW131958   0.336   2.868   2.887
10353SOL    HW231959   0.476   2.870   2.972
10354SOL     OW31960   0.228   3.683   0.382
10354SOL    HW131961   0.140   3.681   0.431
10354SOL    HW231962   0.271   3.593   0.387
10355SOL     OW31963   1.409   0.278   0.397
10355SOL    HW131964   1.377   0.210   0.462
10355SOL    HW231965   1.359   0.363   0.410
10356SOL     OW31966   7.024   3.877   7.027
10356SOL    HW131967   0.058   3.953   7.016
10356SOL    HW231968   6.936   3.911   0.031
10357SOL     OW31969   1.191   2.945   6.096
10357SOL    HW131970   1.141   2.930   6.011
10357SOL    HW231971   1.132   2.926   6.174
10358SOL     OW31972   0.860   2.570   2.953
10358SOL    HW131973   0.954   2.566   2.985
10358SOL    HW231974   0.799   2.525   3.019
10359SOL     OW31975   5.335   2.267   2.606
10359SOL    HW131976   5.313   2.253   2.703
10359SOL    HW231977   5.266   2.222   2.549
10360SOL     OW31978   5.940   5.013   2.561
10360SOL    HW131979   5.931   5.100   2.609
10360SOL    HW231980   5.892   5.019   2.473
10361SOL     OW31981   0.372   1.360   1.541
10361SOL    HW131982   0.454   1.418   1.541
10361SOL    HW231983   0.394   1.270   1.579
10362SOL     OW31984   1.329   5.018   2.774
10362SOL    HW131985   1.322   5.093   2.840
10362SOL    HW231986   1.363   5.054   2.687
10363SOL     OW31987   5.170   3.791   0.744
10363SOL    HW131988   5.102   3.864   0.739
10363SOL    HW231989   5.252   3.824   0.790
10364SOL     OW31990   5.487   4.584   2.186
10364SOL    HW131991   5.563   4.627   2.137
10364SOL    HW231992   5.403   4.595   2.134
10365SOL     OW31993   5.950   5.424   0.426
10365SOL    HW131994   6.013   5.349   0.405
10365SOL    HW231995   5.958   5.495   0.356
10366SOL     OW31996   3.557   6.203   3.038
10366SOL    HW131997   3.471   6.251   3.056
10366SOL    HW231998   3.595   6.167   3.123
10367SOL     OW31999   6.024   1.836   0.712
10367SOL    HW132000   6.034   1.865   0.617
10367SOL    HW232001   6.033   1.736   0.718
10368SOL     OW32002   2.156   0.475   2.187
10368SOL    HW132003   2.200   0.505   2.102
10368SOL    HW232004   2.063   0.446   2.168
10369SOL     OW32005   3.076   6.535   5.111
10369SOL    HW132006   3.108   6.441   5.117
10369SOL    HW232007   3.111   6.587   5.189
10370SOL     OW32008   0.148   1.840   4.345
10370SOL    HW132009   0.232   1.815   4.298
10370SOL    HW232010   0.078   1.864   4.277
10371SOL     OW32011   3.479   5.691   3.157
10371SOL    HW132012   3.412   5.680   3.084
10371SOL    HW232013   3.494   5.603   3.202
10372SOL     OW32014   2.660   6.867   1.683
10372SOL    HW132015   2.705   6.955   1.666
10372SOL    HW232016   2.582   6.881   1.742
10373SOL     OW32017   7.003   1.854   5.578
10373SOL    HW132018   6.981   1.891   5.668
10373SOL    HW232019   6.935   1.884   5.512
10374SOL     OW32020   3.370   7.017   4.474
10374SOL    HW132021   3.440   6.997   4.542
10374SOL    HW232022   3.295   0.037   4.517
10375SOL     OW32023   4.172   2.777   7.023
10375SOL    HW132024   4.163   2.687   0.037
10375SOL    HW232025   4.096   2.836   0.022
10376SOL     OW32026   1.777   6.022   2.679
10376SOL    HW132027   1.732   6.006   2.767
10376SOL    HW232028   1.864   5.972   2.676
10377SOL     OW32029   0.332   1.600   2.067
10377SOL    HW132030   0.372   1.617   1.977
10377SOL    HW232031   0.399   1.554   2.126
10378SOL     OW32032   6.818   4.868   5.451
10378SOL    HW132033   6.855   4.783   5.487
10378SOL    HW232034   6.845   4.879   5.356
10379SOL     OW32035   2.282   6.753   4.013
10379SOL    HW132036   2.211   6.823   4.017
10379SOL    HW232037   2.345   6.764   4.090
10380SOL     OW32038   1.502   2.767   4.817
10380SOL    HW132039   1.557   2.771   4.900
10380SOL    HW232040   1.449   2.852   4.808
10381SOL     OW32041   4.397   4.394   1.381
10381SOL    HW132042   4.470   4.330   1.358
10381SOL    HW232043   4.314   4.343   1.404
10382SOL     OW32044   3.322   4.741   1.767
10382SOL    HW132045   3.411   4.705   1.795
10382SOL    HW232046   3.265   4.753   1.848
10383SOL     OW32047   2.400   4.759   6.983
10383SOL    HW132048   2.489   4.725   6.953
10383SOL    HW232049   2.331   4.688   6.969
10384SOL     OW32050   5.971   6.324   1.037
10384SOL    HW132051   6.034   6.400   1.020
10384SOL    HW232052   5.888   6.338   0.984
10385SOL     OW32053   3.467   4.936   6.209
10385SOL    HW132054   3.454   4.837   6.215
10385SOL    HW232055   3.552   4.962   6.254
10386SOL     OW32056   6.766   0.865   6.332
10386SOL    HW132057   6.791   0.953   6.290
10386SOL    HW232058   6.778   0.871   6.431
10387SOL     OW32059   4.896   3.288   2.788
10387SOL    HW132060   4.989   3.256   2.767
10387SOL    HW232061   4.864   3.345   2.713
10388SOL     OW32062   3.002   0.158   5.854
10388SOL    HW132063   3.038   0.218   5.926
10388SOL    HW232064   3.072   0.146   5.783
10389SOL     OW32065   6.536   3.656   0.146
10389SOL    HW132066   6.598   3.615   0.080
10389SOL    HW232067   6.558   3.624   0.238
10390SOL     OW32068   2.348   2.207   1.074
10390SOL    HW132069   2.419   2.208   1.004
10390SOL    HW232070   2.389   2.225   1.164
10391SOL     OW32071   0.445   6.493   3.274
10391SOL    HW132072   0.423   6.573   3.328
10391SOL    HW232073   0.505   6.519   3.198
10392SOL     OW32074   7.026   5.388   4.833
10392SOL    HW132075   7.015   5.358   4.928
10392SOL    HW232076   0.060   5.464   4.829
10393SOL     OW32077   2.127   3.783   4.184
10393SOL    HW132078   2.045   3.840   4.177
10393SOL    HW232079   2.153   3.774   4.280
10394SOL     OW32080   2.664   6.199   4.129
10394SOL    HW132081   2.645   6.295   4.111
10394SOL    HW232082   2.711   6.159   4.050
10395SOL     OW32083   0.348   6.355   1.120
10395SOL    HW132084   0.391   6.339   1.031
10395SOL    HW232085   0.420   6.367   1.189
10396SOL     OW32086   3.226   2.153   3.849
10396SOL    HW132087   3.201   2.172   3.754
10396SOL    HW232088   3.304   2.089   3.851
10397SOL     OW32089   2.997   2.090   2.602
10397SOL    HW132090   3.028   2.153   2.674
10397SOL    HW232091   3.021   2.127   2.512
10398SOL     OW32092   0.106   3.453   1.385
10398SOL    HW132093   0.072   3.363   1.360
10398SOL    HW232094   0.053   3.489   1.462
10399SOL     OW32095   5.740   2.958   2.856
10399SOL    HW132096   5.716   2.892   2.927
10399SOL    HW232097   5.658   2.979   2.802
10400SOL     OW32098   4.031   6.774   0.139
10400SOL    HW132099   4.036   6.748   0.236
10400SOL    HW232100   4.036   6.693   0.082
10401SOL     OW32101   6.031   0.906   3.669
10401SOL    HW132102   6.101   0.872   3.732
10401SOL    HW232103   6.076   0.952   3.592
10402SOL     OW32104   6.466   3.127   4.970
10402SOL    HW132105   6.560   3.117   4.937
10402SOL    HW232106   6.420   3.200   4.918
10403SOL     OW32107   3.814   0.856   3.884
10403SOL    HW132108   3.885   0.828   3.820
10403SOL    HW232109   3.780   0.947   3.857
10404SOL     OW32110   5.586   0.226   4.937
10404SOL    HW132111   5.625   0.242   4.846
10404SOL    HW232112   5.644   0.271   5.006
10405SOL     OW32113   0.443   1.755   6.018
10405SOL    HW132114   0.516   1.809   5.975
10405SOL    HW232115   0.464   1.740   6.114
10406SOL     OW32116   3.431   4.882   2.560
10406SOL    HW132117   3.412   4.824   2.639
10406SOL    HW232118   3.439   4.977   2.589
10407SOL     OW32119   3.244   6.300   6.119
10407SOL    HW132120   3.152   6.269   6.143
10407SOL    HW232121   3.310   6.265   6.186
10408SOL     OW32122   4.504   0.763   0.510
10408SOL    HW132123   4.518   0.698   0.436
10408SOL    HW232124   4.591   0.779   0.558
10409SOL     OW32125   6.997   4.353   1.561
10409SOL    HW132126   0.050   4.367   1.505
10409SOL    HW232127   6.922   4.407   1.523
10410SOL     OW32128   5.970   0.816   6.840
10410SOL    HW132129   5.980   0.908   6.878
10410SOL    HW232130   5.878   0.807   6.801
10411SOL     OW32131   3.635   6.519   3.193
10411SOL    HW132132   3.674   6.442   3.142
10411SOL    HW232133   3.556   6.487   3.246
10412SOL     OW32134   6.485   0.663   0.395
10412SOL    HW132135   6.573   0.616   0.384
10412SOL    HW232136   6.428   0.613   0.460
10413SOL     OW32137   5.937   2.217   0.948
10413SOL    HW132138   5.860   2.158   0.970
10413SOL    HW232139   6.007   2.164   0.899
10414SOL     OW32140   4.095   4.241   5.266
10414SOL    HW132141   4.155   4.303   5.216
10414SOL    HW232142   4.008   4.233   5.219
10415SOL     OW32143   0.446   4.045   5.039
10415SOL    HW132144   0.484   4.082   5.124
10415SOL    HW232145   0.403   3.957   5.056
10416SOL     OW32146   6.387   0.968   3.357
10416SOL    HW132147   6.481   0.966   3.390
10416SOL    HW232148   6.386   0.980   3.258
10417SOL     OW32149   3.671   5.415   4.460
10417SOL    HW132150   3.649   5.417   4.362
10417SOL    HW232151   3.671   5.509   4.495
10418SOL     OW32152   0.087   4.802   6.455
10418SOL    HW132153   0.092   4.898   6.484
10418SOL    HW232154   0.180   4.765   6.447
10419SOL     OW32155   1.381   0.260   6.410
10419SOL    HW132156   1.357   0.357   6.411
10419SOL    HW232157   1.474   0.249   6.375
10420SOL     OW32158   6.712   3.139   2.544
10420SOL    HW132159   6.636   3.082   2.576
10420SOL    HW232160   6.675   3.217   2.493
10421SOL     OW32161   0.300   1.754   3.490
10421SOL    HW132162   0.266   1.749   3.584
10421SOL    HW232163   0.399   1.765   3.491
10422SOL     OW32164   6.124   2.595   5.574
10422SOL    HW132165   6.202   2.647   5.609
10422SOL    HW232166   6.070   2.561   5.650
10423SOL     OW32167   5.344   4.808   4.835
10423SOL    HW132168   5.363   4.741   4.763
10423SOL    HW232169   5.246   4.807   4.856
10424SOL     OW32170   5.999   3.327   0.155
10424SOL    HW132171   6.036   3.372   0.237
10424SOL    HW232172   6.061   3.255   0.125
10425SOL     OW32173   2.047   0.144   2.059
10425SOL    HW132174   1.984   0.091   2.002
10425SOL    HW232175   2.121   0.179   2.003
10426SOL     OW32176   6.715   4.584   0.541
10426SOL    HW132177   6.659   4.631   0.473
10426SOL    HW232178   6.707   4.485   0.529
10427SOL     OW32179   3.813   1.445   0.273
10427SOL    HW132180   3.832   1.468   0.369
10427SOL    HW232181   3.751   1.512   0.234
10428SOL     OW32182   2.604   1.369   4.145
10428SOL    HW132183   2.616   1.371   4.244
10428SOL    HW232184   2.533   1.435   4.119
10429SOL     OW32185   0.292   5.355   1.326
10429SOL    HW132186   0.357   5.285   1.354
10429SOL    HW232187   0.338   5.444   1.319
10430SOL     OW32188   4.483   6.333   4.002
10430SOL    HW132189   4.443   6.324   3.911
10430SOL    HW232190   4.422   6.384   4.061
10431SOL     OW32191   3.310   6.202   4.631
10431SOL    HW132192   3.336   6.280   4.573
10431SOL    HW232193   3.217   6.173   4.607
10432SOL     OW32194   6.195   0.441   4.510
10432SOL    HW132195   6.176   0.386   4.429
10432SOL    HW232196   6.112   0.490   4.537
10433SOL     OW32197   1.952   6.953   1.403
10433SOL    HW132198   1.896   6.927   1.324
10433SOL    HW232199   1.902   7.019   1.459
10434SOL     OW32200   3.861   6.682   3.216
10434SOL    HW132201   3.932   6.633   3.166
10434SOL    HW232202   3.780   6.624   3.224
10435SOL     OW32203   6.900   0.162   4.712
10435SOL    HW132204   6.925   0.082   4.658
10435SOL    HW232205   6.909   0.244   4.655
10436SOL     OW32206   1.080   5.086   5.823
10436SOL    HW132207   0.991   5.125   5.848
10436SOL    HW232208   1.101   5.112   5.729
10437SOL     OW32209   5.983   4.663   5.327
10437SOL    HW132210   5.965   4.741   5.268
10437SOL    HW232211   6.077   4.669   5.361
10438SOL     OW32212   5.106   6.544   6.646
10438SOL    HW132213   5.078   6.625   6.595
10438SOL    HW232214   5.185   6.566   6.703
10439SOL     OW32215   3.657   1.705   5.921
10439SOL    HW132216   3.563   1.677   5.939
10439SOL    HW232217   3.675   1.701   5.823
10440SOL     OW32218   1.816   6.326   6.896
10440SOL    HW132219   1.751   6.393   6.932
10440SOL    HW232220   1.898   6.373   6.865
10441SOL     OW32221   4.872   1.374   0.121
10441SOL    HW132222   4.962   1.338   0.145
10441SOL    HW232223   4.877   1.418   0.031
10442SOL     OW32224   3.496   6.007   5.670
10442SOL    HW132225   3.422   6.053   5.720
10442SOL    HW232226   3.481   5.908   5.671
10443SOL     OW32227   5.236   3.508   4.680
10443SOL    HW132228   5.322   3.546   4.712
10443SOL    HW232229   5.224   3.530   4.583
10444SOL     OW32230   3.786   6.035   4.816
10444SOL    HW132231   3.696   6.055   4.777
10444SOL    HW232232   3.857   6.065   4.751
10445SOL     OW32233   0.468   5.392   4.078
10445SOL    HW132234   0.517   5.469   4.037
10445SOL    HW232235   0.519   5.358   4.157
10446SOL     OW32236   1.154   3.489   6.181
10446SOL    HW132237   1.191   3.570   6.228
10446SOL    HW232238   1.218   3.460   6.110
10447SOL     OW32239   6.675   1.331   1.862
10447SOL    HW132240   6.652   1.380   1.778
10447SOL    HW232241   6.738   1.386   1.917
10448SOL     OW32242   4.333   2.649   1.382
10448SOL    HW132243   4.282   2.724   1.423
10448SOL    HW232244   4.374   2.594   1.454
10449SOL     OW32245   2.280   5.504   4.752
10449SOL    HW132246   2.201   5.562   4.772
10449SOL    HW232247   2.362   5.543   4.794
10450SOL     OW32248   0.444   2.306   0.719
10450SOL    HW132249   0.495   2.241   0.776
10450SOL    HW232250   0.442   2.395   0.764
10451SOL     OW32251   2.534   5.144   2.499
10451SOL    HW132252   2.464   5.096   2.552
10451SOL    HW232253   2.554   5.092   2.415
10452SOL     OW32254   6.447   3.479   3.854
10452SOL    HW132255   6.430   3.573   3.828
10452SOL    HW232256   6.542   3.455   3.833
10453SOL     OW32257   5.596   6.246   1.640
10453SOL    HW132258   5.651   6.173   1.599
10453SOL    HW232259   5.622   6.333   1.599
10454SOL     OW32260   5.239   2.707   1.739
10454SOL    HW132261   5.143   2.699   1.766
10454SOL    HW232262   5.245   2.728   1.641
10455SOL     OW32263   0.888   4.835   2.994
10455SOL    HW132264   0.886   4.884   2.907
10455SOL    HW232265   0.925   4.895   3.065
10456SOL     OW32266   3.168   6.457   1.353
10456SOL    HW132267   3.216   6.454   1.440
10456SOL    HW232268   3.202   6.385   1.293
10457SOL     OW32269   3.280   3.261   3.341
10457SOL    HW132270   3.198   3.217   3.305
10457SOL    HW232271   3.319   3.204   3.413
10458SOL     OW32272   0.246   0.314   0.319
10458SOL    HW132273   0.148   0.296   0.323
10458SOL    HW232274   0.288   0.287   0.406
10459SOL     OW32275   5.423   5.497   3.179
10459SOL    HW132276   5.437   5.479   3.082
10459SOL    HW232277   5.364   5.577   3.191
10460SOL     OW32278   1.828   5.564   1.451
10460SOL    HW132279   1.854   5.609   1.536
10460SOL    HW232280   1.894   5.589   1.379
10461SOL     OW32281   1.063   6.200   5.873
10461SOL    HW132282   1.081   6.295   5.900
10461SOL    HW232283   1.097   6.139   5.944
10462SOL     OW32284   5.393   1.780   2.369
10462SOL    HW132285   5.371   1.876   2.349
10462SOL    HW232286   5.433   1.738   2.288
10463SOL     OW32287   3.691   3.830   5.775
10463SOL    HW132288   3.753   3.898   5.815
10463SOL    HW232289   3.734   3.739   5.781
10464SOL     OW32290   4.942   0.247   0.610
10464SOL    HW132291   4.883   0.304   0.553
10464SOL    HW232292   4.980   0.174   0.554
10465SOL     OW32293   6.524   6.964   0.320
10465SOL    HW132294   6.582   6.991   0.243
10465SOL    HW232295   6.529   6.865   0.332
10466SOL     OW32296   4.922   5.207   4.802
10466SOL    HW132297   4.843   5.172   4.750
10466SOL    HW232298   4.962   5.133   4.856
10467SOL     OW32299   1.746   1.750   5.332
10467SOL    HW132300   1.738   1.841   5.374
10467SOL    HW232301   1.735   1.680   5.402
10468SOL     OW32302   3.653   5.867   3.635
10468SOL    HW132303   3.740   5.826   3.607
10468SOL    HW232304   3.586   5.855   3.561
10469SOL     OW32305   3.521   3.856   0.862
10469SOL    HW132306   3.485   3.948   0.874
10469SOL    HW232307   3.446   3.791   0.858
10470SOL     OW32308   1.723   1.856   2.780
10470SOL    HW132309   1.742   1.834   2.684
10470SOL    HW232310   1.633   1.898   2.787
10471SOL     OW32311   2.261   3.457   0.944
10471SOL    HW132312   2.255   3.459   1.044
10471SOL    HW232313   2.260   3.362   0.913
10472SOL     OW32314   4.034   6.225   1.676
10472SOL    HW132315   4.124   6.267   1.669
10472SOL    HW232316   3.983   6.241   1.591
10473SOL     OW32317   5.552   0.092   0.625
10473SOL    HW132318   5.568   0.166   0.560
10473SOL    HW232319   5.624   0.023   0.616
10474SOL     OW32320   4.654   0.354   4.670
10474SOL    HW132321   4.583   0.408   4.626
10474SOL    HW232322   4.643   0.258   4.644
10475SOL     OW32323   4.703   6.393   1.294
10475SOL    HW132324   4.628   6.459   1.301
10475SOL    HW232325   4.702   6.351   1.203
10476SOL     OW32326   6.697   5.556   6.586
10476SOL    HW132327   6.733   5.466   6.560
10476SOL    HW232328   6.715   5.622   6.513
10477SOL     OW32329   6.026   3.577   4.938
10477SOL    HW132330   6.078   3.536   4.862
10477SOL    HW232331   6.008   3.673   4.918
10478SOL     OW32332   0.771   0.106   6.637
10478SOL    HW132333   0.803   0.185   6.585
10478SOL    HW232334   0.805   0.022   6.593
10479SOL     OW32335   1.246   1.763   1.741
10479SOL    HW132336   1.271   1.758   1.645
10479SOL    HW232337   1.324   1.734   1.797
10480SOL     OW32338   5.282   0.054   1.234
10480SOL    HW132339   5.263   0.097   1.146
10480SOL    HW232340   5.264   6.985   1.228
10481SOL     OW32341   2.686   1.147   4.814
10481SOL    HW132342   2.614   1.217   4.806
10481SOL    HW232343   2.768   1.178   4.766
10482SOL     OW32344   0.641   6.005   4.026
10482SOL    HW132345   0.547   6.023   3.997
10482SOL    HW232346   0.669   6.074   4.093
10483SOL     OW32347   6.518   5.255   0.331
10483SOL    HW132348   6.422   5.280   0.319
10483SOL    HW232349   6.568   5.333   0.369
10484SOL     OW32350   0.141   0.619   1.150
10484SOL    HW132351   0.098   0.639   1.238
10484SOL    HW232352   0.124   0.695   1.086
10485SOL     OW32353   3.813   4.000   2.997
10485SOL    HW132354   3.890   3.999   3.061
10485SOL    HW232355   3.836   3.945   2.916
10486SOL     OW32356   6.324   0.029   5.964
10486SOL    HW132357   6.375   0.026   6.051
10486SOL    HW232358   6.295   0.123   5.946
10487SOL     OW32359   4.837   1.929   1.522
10487SOL    HW132360   4.906   1.866   1.558
10487SOL    HW232361   4.757   1.877   1.493
10488SOL     OW32362   0.423   2.082   5.744
10488SOL    HW132363   0.522   2.075   5.738
10488SOL    HW232364   0.383   1.991   5.758
10489SOL     OW32365   5.969   5.909   3.903
10489SOL    HW132366   5.924   5.849   3.969
10489SOL    HW232367   5.941   6.004   3.919
10490SOL     OW32368   5.530   0.573   0.651
10490SOL    HW132369   5.495   0.516   0.726
10490SOL    HW232370   5.615   0.618   0.680
10491SOL     OW32371   1.786   2.904   6.024
10491SOL    HW132372   1.796   2.981   6.087
10491SOL    HW232373   1.730   2.833   6.067
10492SOL     OW32374   4.187   6.720   0.418
10492SOL    HW132375   4.175   6.820   0.424
10492SOL    HW232376   4.237   6.688   0.498
10493SOL     OW32377   4.045   5.372   1.206
10493SOL    HW132378   4.128   5.335   1.166
10493SOL    HW232379   4.061   5.467   1.233
10494SOL     OW32380   0.990   4.705   5.945
10494SOL    HW132381   1.021   4.611   5.936
10494SOL    HW232382   1.060   4.767   5.909
10495SOL     OW32383   0.014   6.144   6.744
10495SOL    HW132384   6.949   6.164   6.767
10495SOL    HW232385   0.074   6.208   6.792
10496SOL     OW32386   6.902   3.941   5.497
10496SOL    HW132387   6.894   3.970   5.592
10496SOL    HW232388   6.896   3.842   5.492
10497SOL     OW32389   2.030   6.726   1.606
10497SOL    HW132390   1.937   6.735   1.642
10497SOL    HW232391   2.040   6.783   1.524
10498SOL     OW32392   5.281   6.009   0.886
10498SOL    HW132393   5.289   6.103   0.917
10498SOL    HW232394   5.237   6.007   0.796
10499SOL     OW32395   5.897   5.676   1.359
10499SOL    HW132396   5.798   5.686   1.349
10499SOL    HW232397   5.917   5.591   1.408
10500SOL     OW32398   5.472   3.852   4.764
10500SOL    HW132399   5.535   3.896   4.700
10500SOL    HW232400   5.455   3.914   4.841
10501SOL     OW32401   2.839   5.543   2.584
10501SOL    HW132402   2.809   5.532   2.679
10501SOL    HW232403   2.761   5.536   2.523
10502SOL     OW32404   3.245   3.066   1.824
10502SOL    HW132405   3.294   3.139   1.776
10502SOL    HW232406   3.305   2.986   1.832
10503SOL     OW32407   6.929   3.871   6.550
10503SOL    HW132408   6.917   3.780   6.591
10503SOL    HW232409   6.852   3.890   6.489
10504SOL     OW32410   1.424   2.954   5.976
10504SOL    HW132411   1.332   2.933   6.010
10504SOL    HW232412   1.491   2.931   6.046
10505SOL     OW32413   5.854   5.848   2.287
10505SOL    HW132414   5.921   5.820   2.218
10505SOL    HW232415   5.770   5.877   2.242
10506SOL     OW32416   0.333   3.218   6.877
10506SOL    HW132417   0.333   3.250   6.783
10506SOL    HW232418   0.426   3.196   6.906
10507SOL     OW32419   2.825   4.512   6.921
10507SOL    HW132420   2.802   4.436   6.981
10507SOL    HW232421   2.848   4.476   6.830
10508SOL     OW32422   0.693   6.127   4.761
10508SOL    HW132423   0.773   6.076   4.793
10508SOL    HW232424   0.622   6.064   4.732
10509SOL     OW32425   4.938   3.150   4.230
10509SOL    HW132426   4.985   3.178   4.146
10509SOL    HW232427   4.947   3.222   4.299
10510SOL     OW32428   5.038   6.447   5.350
10510SOL    HW132429   5.056   6.507   5.428
10510SOL    HW232430   4.944   6.460   5.318
10511SOL     OW32431   2.879   1.150   1.925
10511SOL    HW132432   2.954   1.085   1.921
10511SOL    HW232433   2.894   1.223   1.859
10512SOL     OW32434   4.227   0.100   6.016
10512SOL    HW132435   4.142   0.053   6.038
10512SOL    HW232436   4.236   0.181   6.073
10513SOL     OW32437   6.039   2.804   2.391
10513SOL    HW132438   6.098   2.875   2.351
10513SOL    HW232439   6.017   2.829   2.485
10514SOL     OW32440   2.143   2.044   1.567
10514SOL    HW132441   2.212   1.992   1.616
10514SOL    HW232442   2.077   2.082   1.631
10515SOL     OW32443   2.199   2.268   4.391
10515SOL    HW132444   2.101   2.269   4.371
10515SOL    HW232445   2.235   2.361   4.379
10516SOL     OW32446   2.921   1.589   0.441
10516SOL    HW132447   2.846   1.626   0.386
10516SOL    HW232448   2.929   1.642   0.525
10517SOL     OW32449   1.698   3.758   2.870
10517SOL    HW132450   1.645   3.831   2.913
10517SOL    HW232451   1.635   3.692   2.827
10518SOL     OW32452   0.401   5.676   2.349
10518SOL    HW132453   0.382   5.635   2.260
10518SOL    HW232454   0.350   5.626   2.420
10519SOL     OW32455   3.035   5.370   1.860
10519SOL    HW132456   3.034   5.337   1.766
10519SOL    HW232457   3.125   5.355   1.901
10520SOL     OW32458   6.499   1.657   6.511
10520SOL    HW132459   6.540   1.580   6.558
10520SOL    HW232460   6.455   1.626   6.426
10521SOL     OW32461   6.163   3.588   1.473
10521SOL    HW132462   6.065   3.610   1.468
10521SOL    HW232463   6.183   3.541   1.559
10522SOL     OW32464   6.622   2.711   2.969
10522SOL    HW132465   6.693   2.645   2.946
10522SOL    HW232466   6.643   2.755   3.055
10523SOL     OW32467   0.816   4.294   4.320
10523SOL    HW132468   0.797   4.196   4.319
10523SOL    HW232469   0.870   4.317   4.401
10524SOL     OW32470   0.016   5.508   3.461
10524SOL    HW132471   0.058   5.447   3.529
10524SOL    HW232472   0.054   5.488   3.371
10525SOL     OW32473   4.460   0.940   5.006
10525SOL    HW132474   4.527   1.011   4.983
10525SOL    HW232475   4.478   0.906   5.098
10526SOL     OW32476   0.512   5.835   1.248
10526SOL    HW132477   0.426   5.885   1.237
10526SOL    HW232478   0.540   5.796   1.161
10527SOL     OW32479   6.943   1.311   5.519
10527SOL    HW132480   6.894   1.397   5.506
10527SOL    HW232481   7.014   1.302   5.449
10528SOL     OW32482   0.573   4.792   0.011
10528SOL    HW132483   0.534   4.743   0.089
10528SOL    HW232484   0.643   4.856   0.044
10529SOL     OW32485   1.746   6.096   5.907
10529SOL    HW132486   1.832   6.080   5.955
10529SOL    HW232487   1.742   6.037   5.826
10530SOL     OW32488   1.303   6.718   5.841
10530SOL    HW132489   1.337   6.792   5.784
10530SOL    HW232490   1.207   6.700   5.820
10531SOL     OW32491   2.833   2.546   5.357
10531SOL    HW132492   2.892   2.466   5.360
10531SOL    HW232493   2.885   2.627   5.385
10532SOL     OW32494   6.104   6.767   6.249
10532SOL    HW132495   6.114   6.703   6.326
10532SOL    HW232496   6.072   6.718   6.169
10533SOL     OW32497   3.078   5.856   4.231
10533SOL    HW132498   3.020   5.828   4.155
10533SOL    HW232499   3.108   5.951   4.216
10534SOL     OW32500   0.343   5.584   2.805
10534SOL    HW132501   0.400   5.558   2.727
10534SOL    HW232502   0.399   5.626   2.876
10535SOL     OW32503   2.795   1.352   2.379
10535SOL    HW132504   2.771   1.449   2.378
10535SOL    HW232505   2.776   1.313   2.469
10536SOL     OW32506   4.560   0.528   3.540
10536SOL    HW132507   4.550   0.435   3.575
10536SOL    HW232508   4.653   0.542   3.507
10537SOL     OW32509   4.665   6.616   3.601
10537SOL    HW132510   4.714   6.586   3.519
10537SOL    HW232511   4.567   6.608   3.587
10538SOL     OW32512   5.987   4.073   2.838
10538SOL    HW132513   6.079   4.046   2.869
10538SOL    HW232514   5.920   4.046   2.907
10539SOL     OW32515   6.211   5.830   2.618
10539SOL    HW132516   6.298   5.874   2.642
10539SOL    HW232517   6.225   5.772   2.539
10540SOL     OW32518   2.124   4.186   6.106
10540SOL    HW132519   2.204   4.176   6.164
10540SOL    HW232520   2.113   4.282   6.080
10541SOL     OW32521   2.987   3.180   4.787
10541SOL    HW132522   2.897   3.152   4.823
10541SOL    HW232523   2.975   3.222   4.698
10542SOL     OW32524   5.882   0.333   4.522
10542SOL    HW132525   5.922   0.341   4.431
10542SOL    HW232526   5.923   0.254   4.569
10543SOL     OW32527   6.462   2.255   5.710
10543SOL    HW132528   6.474   2.162   5.675
10543SOL    HW232529   6.396   2.254   5.786
10544SOL     OW32530   0.932   0.845   4.312
10544SOL    HW132531   1.005   0.906   4.282
10544SOL    HW232532   0.933   0.762   4.257
10545SOL     OW32533   1.556   2.556   2.813
10545SOL    HW132534   1.602   2.632   2.857
10545SOL    HW232535   1.489   2.590   2.747
10546SOL     OW32536   2.471   6.701   1.180
10546SOL    HW132537   2.477   6.703   1.280
10546SOL    HW232538   2.415   6.623   1.152
10547SOL     OW32539   4.773   0.005   4.759
10547SOL    HW132540   4.716   0.046   4.688
10547SOL    HW232541   4.849   0.067   4.781
10548SOL     OW32542   0.851   4.808   4.888
10548SOL    HW132543   0.897   4.876   4.945
10548SOL    HW232544   0.859   4.833   4.792
10549SOL     OW32545   0.469   1.725   0.480
10549SOL    HW132546   0.475   1.628   0.503
10549SOL    HW232547   0.510   1.741   0.391
10550SOL     OW32548   4.032   6.160   2.934
10550SOL    HW132549   4.039   6.134   2.838
10550SOL    HW232550   4.078   6.247   2.949
10551SOL     OW32551   3.153   1.808   5.868
10551SOL    HW132552   3.094   1.854   5.935
10551SOL    HW232553   3.214   1.876   5.826
10552SOL     OW32554   3.231   1.064   3.787
10552SOL    HW132555   3.304   1.045   3.853
10552SOL    HW232556   3.187   1.150   3.812
10553SOL     OW32557   7.011   5.218   1.059
10553SOL    HW132558   6.975   5.133   1.097
10553SOL    HW232559   0.080   5.224   1.077
10554SOL     OW32560   6.492   5.075   2.880
10554SOL    HW132561   6.553   4.995   2.883
10554SOL    HW232562   6.397   5.044   2.877
10555SOL     OW32563   2.834   1.839   0.796
10555SOL    HW132564   2.860   1.745   0.773
10555SOL    HW232565   2.906   1.902   0.768
10556SOL     OW32566   2.254   1.849   3.012
10556SOL    HW132567   2.348   1.865   3.042
10556SOL    HW232568   2.255   1.780   2.939
10557SOL     OW32569   1.858   3.948   4.538
10557SOL    HW132570   1.836   3.900   4.623
10557SOL    HW232571   1.879   4.044   4.558
10558SOL     OW32572   3.393   4.795   5.144
10558SOL    HW132573   3.453   4.875   5.149
10558SOL    HW232574   3.299   4.825   5.130
10559SOL     OW32575   3.677   0.253   0.562
10559SOL    HW132576   3.694   0.162   0.523
10559SOL    HW232577   3.643   0.314   0.491
10560SOL     OW32578   4.462   6.094   1.898
10560SOL    HW132579   4.506   6.085   1.988
10560SOL    HW232580   4.532   6.115   1.829
10561SOL     OW32581   4.962   4.264   1.944
10561SOL    HW132582   5.005   4.339   1.995
10561SOL    HW232583   5.031   4.196   1.920
10562SOL     OW32584   3.220   6.997   1.111
10562SOL    HW132585   3.264   6.936   1.046
10562SOL    HW232586   3.280   0.045   1.131
10563SOL     OW32587   0.582   6.889   0.828
10563SOL    HW132588   0.674   6.879   0.867
10563SOL    HW232589   0.523   6.816   0.863
10564SOL     OW32590   0.076   5.506   3.958
10564SOL    HW132591   0.147   5.534   4.023
10564SOL    HW232592   7.020   5.493   4.007
10565SOL     OW32593   6.610   0.050   5.463
10565SOL    HW132594   6.691   7.029   5.491
10565SOL    HW232595   6.562   0.001   5.390
10566SOL     OW32596   2.573   2.561   6.585
10566SOL    HW132597   2.498   2.624   6.566
10566SOL    HW232598   2.620   2.539   6.499
10567SOL     OW32599   1.647   2.313   6.070
10567SOL    HW132600   1.665   2.345   5.977
10567SOL    HW232601   1.646   2.391   6.133
10568SOL     OW32602   5.375   3.181   6.784
10568SOL    HW132603   5.343   3.116   6.715
10568SOL    HW232604   5.311   3.184   6.860
10569SOL     OW32605   5.523   0.069   1.721
10569SOL    HW132606   5.435   0.024   1.707
10569SOL    HW232607   5.535   0.142   1.653
10570SOL     OW32608   0.924   5.419   4.053
10570SOL    HW132609   0.972   5.370   3.981
10570SOL    HW232610   0.827   5.425   4.030
10571SOL     OW32611   6.903   4.601   6.413
10571SOL    HW132612   6.954   4.672   6.366
10571SOL    HW232613   6.963   4.524   6.434
10572SOL     OW32614   6.539   4.065   1.807
10572SOL    HW132615   6.580   4.036   1.721
10572SOL    HW232616   6.606   4.054   1.881
10573SOL     OW32617   5.582   0.686   4.468
10573SOL    HW132618   5.521   0.735   4.530
10573SOL    HW232619   5.669   0.735   4.459
10574SOL     OW32620   6.250   0.745   3.866
10574SOL    HW132621   6.287   0.751   3.773
10574SOL    HW232622   6.318   0.702   3.926
10575SOL     OW32623   5.412   0.471   3.115
10575SOL    HW132624   5.347   0.454   3.189
10575SOL    HW232625   5.488   0.526   3.150
10576SOL     OW32626   1.712   4.822   2.875
10576SOL    HW132627   1.776   4.748   2.855
10576SOL    HW232628   1.622   4.799   2.838
10577SOL     OW32629   3.038   6.238   0.472
10577SOL    HW132630   3.011   6.291   0.552
10577SOL    HW232631   3.073   6.149   0.502
10578SOL     OW32632   6.123   2.377   4.136
10578SOL    HW132633   6.219   2.367   4.160
10578SOL    HW232634   6.076   2.433   4.204
10579SOL     OW32635   3.014   3.527   1.168
10579SOL    HW132636   3.086   3.500   1.232
10579SOL    HW232637   2.928   3.483   1.195
10580SOL     OW32638   6.205   6.912   0.005
10580SOL    HW132639   6.226   6.976   0.079
10580SOL    HW232640   6.260   6.934   6.954
10581SOL     OW32641   5.543   6.459   3.012
10581SOL    HW132642   5.479   6.529   3.042
10581SOL    HW232643   5.576   6.481   2.920
10582SOL     OW32644   5.532   4.525   6.534
10582SOL    HW132645   5.546   4.604   6.475
10582SOL    HW232646   5.571   4.443   6.490
10583SOL     OW32647   3.245   6.798   3.724
10583SOL    HW132648   3.163   6.845   3.692
10583SOL    HW232649   3.325   6.834   3.676
10584SOL     OW32650   6.548   0.198   5.723
10584SOL    HW132651   6.460   0.245   5.735
10584SOL    HW232652   6.545   0.143   5.639
10585SOL     OW32653   0.402   1.978   6.631
10585SOL    HW132654   0.467   1.909   6.661
10585SOL    HW232655   0.448   2.066   6.622
10586SOL     OW32656   4.541   4.632   5.742
10586SOL    HW132657   4.541   4.678   5.830
10586SOL    HW232658   4.453   4.588   5.727
10587SOL     OW32659   0.416   5.764   5.690
10587SOL    HW132660   0.355   5.824   5.638
10587SOL    HW232661   0.386   5.670   5.682
10588SOL     OW32662   1.562   3.125   4.198
10588SOL    HW132663   1.576   3.028   4.217
10588SOL    HW232664   1.651   3.171   4.196
10589SOL     OW32665   5.629   6.183   5.031
10589SOL    HW132666   5.652   6.088   5.010
10589SOL    HW232667   5.533   6.199   5.012
10590SOL     OW32668   0.590   5.997   1.460
10590SOL    HW132669   0.589   6.087   1.417
10590SOL    HW232670   0.533   5.934   1.407
10591SOL     OW32671   1.239   1.062   1.364
10591SOL    HW132672   1.177   1.043   1.440
10591SOL    HW232673   1.195   1.037   1.278
10592SOL     OW32674   5.893   2.226   4.721
10592SOL    HW132675   5.809   2.174   4.701
10592SOL    HW232676   5.948   2.176   4.787
10593SOL     OW32677   2.513   6.351   0.534
10593SOL    HW132678   2.512   6.377   0.437
10593SOL    HW232679   2.420   6.333   0.565
10594SOL     OW32680   3.957   1.104   3.577
10594SOL    HW132681   3.985   1.018   3.536
10594SOL    HW232682   3.897   1.086   3.656
10595SOL     OW32683   5.778   0.670   0.831
10595SOL    HW132684   5.813   0.761   0.809
10595SOL    HW232685   5.854   0.612   0.860
10596SOL     OW32686   4.872   1.733   0.225
10596SOL    HW132687   4.803   1.733   0.153
10596SOL    HW232688   4.854   1.657   0.288
10597SOL     OW32689   2.509   0.778   5.961
10597SOL    HW132690   2.446   0.769   5.884
10597SOL    HW232691   2.593   0.726   5.942
10598SOL     OW32692   2.267   1.958   6.230
10598SOL    HW132693   2.218   2.040   6.202
10598SOL    HW232694   2.360   1.981   6.256
10599SOL     OW32695   6.411   4.524   5.918
10599SOL    HW132696   6.444   4.431   5.933
10599SOL    HW232697   6.331   4.541   5.976
10600SOL     OW32698   3.198   0.835   1.612
10600SOL    HW132699   3.150   0.868   1.694
10600SOL    HW232700   3.198   0.907   1.543
10601SOL     OW32701   0.300   6.790   5.946
10601SOL    HW132702   0.337   6.867   5.998
10601SOL    HW232703   0.375   6.744   5.897
10602SOL     OW32704   0.277   0.563   0.133
10602SOL    HW132705   0.251   0.511   0.214
10602SOL    HW232706   0.246   0.515   0.051
10603SOL     OW32707   4.480   6.676   1.406
10603SOL    HW132708   4.569   6.709   1.374
10603SOL    HW232709   4.493   6.595   1.463
10604SOL     OW32710   0.276   6.546   4.829
10604SOL    HW132711   0.289   6.452   4.797
10604SOL    HW232712   0.181   6.573   4.813
10605SOL     OW32713   2.167   0.202   0.344
10605SOL    HW132714   2.189   0.284   0.290
10605SOL    HW232715   2.132   0.131   0.283
10606SOL     OW32716   5.892   0.858   1.652
10606SOL    HW132717   5.811   0.900   1.694
10606SOL    HW232718   5.968   0.860   1.717
10607SOL     OW32719   4.314   3.871   6.682
10607SOL    HW132720   4.310   3.788   6.738
10607SOL    HW232721   4.226   3.886   6.638
10608SOL     OW32722   6.535   2.903   2.773
10608SOL    HW132723   6.589   2.827   2.809
10608SOL    HW232724   6.440   2.874   2.761
10609SOL     OW32725   3.940   6.765   0.675
10609SOL    HW132726   3.932   6.713   0.589
10609SOL    HW232727   3.905   6.709   0.750
10610SOL     OW32728   6.842   1.810   4.354
10610SOL    HW132729   6.903   1.848   4.285
10610SOL    HW232730   6.891   1.739   4.406
10611SOL     OW32731   2.497   5.205   4.597
10611SOL    HW132732   2.590   5.241   4.607
10611SOL    HW232733   2.497   5.108   4.622
10612SOL     OW32734   5.522   1.309   4.075
10612SOL    HW132735   5.610   1.357   4.083
10612SOL    HW232736   5.526   1.223   4.126
10613SOL     OW32737   5.463   6.470   4.196
10613SOL    HW132738   5.424   6.461   4.104
10613SOL    HW232739   5.498   6.562   4.208
10614SOL     OW32740   5.181   0.511   5.650
10614SOL    HW132741   5.102   0.573   5.646
10614SOL    HW232742   5.235   0.532   5.731
10615SOL     OW32743   2.894   1.629   5.801
10615SOL    HW132744   2.932   1.546   5.841
10615SOL    HW232745   2.924   1.708   5.855
10616SOL     OW32746   2.700   6.425   6.697
10616SOL    HW132747   2.636   6.498   6.722
10616SOL    HW232748   2.718   6.429   6.599
10617SOL     OW32749   2.350   3.687   1.719
10617SOL    HW132750   2.284   3.760   1.740
10617SOL    HW232751   2.333   3.609   1.780
10618SOL     OW32752   0.207   5.268   5.601
10618SOL    HW132753   0.215   5.237   5.506
10618SOL    HW232754   0.215   5.189   5.663
10619SOL     OW32755   0.403   2.033   2.922
10619SOL    HW132756   0.328   2.084   2.964
10619SOL    HW232757   0.367   1.970   2.854
10620SOL     OW32758   1.869   0.201   5.179
10620SOL    HW132759   1.844   0.126   5.119
10620SOL    HW232760   1.944   0.174   5.239
10621SOL     OW32761   0.714   3.761   2.777
10621SOL    HW132762   0.632   3.747   2.721
10621SOL    HW232763   0.759   3.673   2.792
10622SOL     OW32764   4.248   2.583   0.877
10622SOL    HW132765   4.170   2.643   0.895
10622SOL    HW232766   4.302   2.621   0.802
10623SOL     OW32767   5.835   5.984   5.346
10623SOL    HW132768   5.917   5.977   5.402
10623SOL    HW232769   5.860   5.999   5.250
10624SOL     OW32770   0.869   2.806   5.023
10624SOL    HW132771   0.901   2.900   5.020
10624SOL    HW232772   0.868   2.767   4.931
10625SOL     OW32773   0.083   3.205   6.991
10625SOL    HW132774   0.168   3.232   6.945
10625SOL    HW232775   0.041   3.129   6.941
10626SOL     OW32776   4.030   3.047   1.840
10626SOL    HW132777   4.019   3.068   1.937
10626SOL    HW232778   4.005   2.951   1.823
10627SOL     OW32779   5.943   0.488   6.440
10627SOL    HW132780   5.878   0.551   6.398
10627SOL    HW232781   5.913   0.394   6.424
10628SOL     OW32782   3.910   0.450   0.208
10628SOL    HW132783   3.966   0.525   0.173
10628SOL    HW232784   3.966   0.367   0.213
10629SOL     OW32785   3.352   5.211   5.218
10629SOL    HW132786   3.389   5.139   5.160
10629SOL    HW232787   3.371   5.300   5.177
10630SOL     OW32788   5.080   0.648   2.370
10630SOL    HW132789   5.178   0.653   2.350
10630SOL    HW232790   5.028   0.653   2.284
10631SOL     OW32791   4.542   4.915   6.335
10631SOL    HW132792   4.585   4.881   6.252
10631SOL    HW232793   4.528   4.840   6.399
10632SOL     OW32794   4.872   5.877   3.589
10632SOL    HW132795   4.944   5.944   3.573
10632SOL    HW232796   4.837   5.887   3.682
10633SOL     OW32797   2.092   2.670   1.642
10633SOL    HW132798   2.089   2.768   1.657
10633SOL    HW232799   2.162   2.649   1.573
10634SOL     OW32800   1.476   5.367   0.079
10634SOL    HW132801   1.570   5.336   0.090
10634SOL    HW232802   1.445   5.408   0.165
10635SOL     OW32803   1.964   3.607   0.285
10635SOL    HW132804   2.033   3.610   0.213
10635SOL    HW232805   1.891   3.543   0.259
10636SOL     OW32806   6.383   1.787   0.746
10636SOL    HW132807   6.329   1.736   0.813
10636SOL    HW232808   6.359   1.884   0.751
10637SOL     OW32809   2.598   6.123   6.563
10637SOL    HW132810   2.661   6.091   6.492
10637SOL    HW232811   2.516   6.162   6.520
10638SOL     OW32812   6.818   6.188   2.556
10638SOL    HW132813   6.823   6.281   2.519
10638SOL    HW232814   6.787   6.126   2.484
10639SOL     OW32815   2.120   3.759   1.958
10639SOL    HW132816   2.201   3.809   1.927
10639SOL    HW232817   2.149   3.672   1.999
10640SOL     OW32818   4.404   0.913   3.395
10640SOL    HW132819   4.410   0.995   3.338
10640SOL    HW232820   4.496   0.880   3.416
10641SOL     OW32821   1.365   1.707   3.468
10641SOL    HW132822   1.330   1.613   3.473
10641SOL    HW232823   1.465   1.706   3.473
10642SOL     OW32824   6.014   2.158   0.336
10642SOL    HW132825   6.071   2.149   0.417
10642SOL    HW232826   5.918   2.143   0.360
10643SOL     OW32827   1.935   5.564   5.077
10643SOL    HW132828   2.001   5.569   5.152
10643SOL    HW232829   1.861   5.629   5.094
10644SOL     OW32830   5.857   3.108   1.822
10644SOL    HW132831   5.843   3.201   1.857
10644SOL    HW232832   5.899   3.051   1.893
10645SOL     OW32833   2.113   3.086   3.532
10645SOL    HW132834   2.065   3.002   3.504
10645SOL    HW232835   2.151   3.074   3.623
10646SOL     OW32836   5.554   1.031   5.416
10646SOL    HW132837   5.591   0.941   5.438
10646SOL    HW232838   5.499   1.065   5.493
10647SOL     OW32839   3.990   5.512   5.304
10647SOL    HW132840   3.986   5.597   5.357
10647SOL    HW232841   3.977   5.533   5.207
10648SOL     OW32842   5.907   5.774   5.998
10648SOL    HW132843   5.952   5.776   6.088
10648SOL    HW232844   5.861   5.862   5.983
10649SOL     OW32845   0.780   3.141   3.816
10649SOL    HW132846   0.707   3.194   3.773
10649SOL    HW232847   0.748   3.105   3.904
10650SOL     OW32848   6.830   0.492   4.176
10650SOL    HW132849   6.778   0.578   4.182
10650SOL    HW232850   6.919   0.509   4.135
10651SOL     OW32851   5.306   6.284   5.869
10651SOL    HW132852   5.361   6.254   5.791
10651SOL    HW232853   5.331   6.231   5.950
10652SOL     OW32854   2.158   6.783   6.100
10652SOL    HW132855   2.203   6.862   6.058
10652SOL    HW232856   2.059   6.800   6.104
10653SOL     OW32857   3.555   6.071   4.663
10653SOL    HW132858   3.469   6.115   4.688
10653SOL    HW232859   3.609   6.133   4.606
10654SOL     OW32860   4.690   1.915   3.964
10654SOL    HW132861   4.602   1.893   4.005
10654SOL    HW232862   4.692   1.883   3.869
10655SOL     OW32863   2.245   4.603   1.347
10655SOL    HW132864   2.323   4.660   1.320
10655SOL    HW232865   2.225   4.619   1.444
10656SOL     OW32866   6.382   1.526   2.542
10656SOL    HW132867   6.336   1.592   2.483
10656SOL    HW232868   6.320   1.451   2.563
10657SOL     OW32869   6.187   1.306   4.168
10657SOL    HW132870   6.115   1.266   4.223
10657SOL    HW232871   6.272   1.256   4.182
10658SOL     OW32872   5.498   3.978   5.030
10658SOL    HW132873   5.559   3.950   5.104
10658SOL    HW232874   5.542   4.049   4.975
10659SOL     OW32875   1.409   4.770   0.823
10659SOL    HW132876   1.408   4.841   0.752
10659SOL    HW232877   1.418   4.680   0.780
10660SOL     OW32878   6.004   3.916   5.333
10660SOL    HW132879   6.016   3.818   5.320
10660SOL    HW232880   5.945   3.953   5.261
10661SOL     OW32881   1.255   5.091   0.845
10661SOL    HW132882   1.289   5.058   0.756
10661SOL    HW232883   1.327   5.082   0.913
10662SOL     OW32884   3.617   1.072   2.370
10662SOL    HW132885   3.523   1.103   2.385
10662SOL    HW232886   3.658   1.125   2.296
10663SOL     OW32887   0.571   1.785   3.482
10663SOL    HW132888   0.597   1.836   3.400
10663SOL    HW232889   0.641   1.716   3.502
10664SOL     OW32890   0.374   5.560   5.002
10664SOL    HW132891   0.424   5.473   5.000
10664SOL    HW232892   0.290   5.551   4.949
10665SOL     OW32893   2.268   2.440   6.642
10665SOL    HW132894   2.308   2.486   6.563
10665SOL    HW232895   2.302   2.482   6.726
10666SOL     OW32896   3.381   3.472   2.099
10666SOL    HW132897   3.454   3.437   2.158
10666SOL    HW232898   3.313   3.401   2.083
10667SOL     OW32899   4.976   1.644   3.609
10667SOL    HW132900   5.015   1.712   3.672
10667SOL    HW232901   4.957   1.559   3.660
10668SOL     OW32902   3.232   1.900   5.515
10668SOL    HW132903   3.212   1.993   5.484
10668SOL    HW232904   3.321   1.872   5.480
10669SOL     OW32905   5.637   0.257   0.838
10669SOL    HW132906   5.604   0.180   0.782
10669SOL    HW232907   5.565   0.326   0.845
10670SOL     OW32908   5.679   4.844   4.526
10670SOL    HW132909   5.662   4.882   4.435
10670SOL    HW232910   5.774   4.861   4.553
10671SOL     OW32911   1.019   1.411   4.679
10671SOL    HW132912   0.986   1.387   4.588
10671SOL    HW232913   1.102   1.358   4.699
10672SOL     OW32914   6.307   3.923   1.769
10672SOL    HW132915   6.396   3.963   1.787
10672SOL    HW232916   6.247   3.991   1.727
10673SOL     OW32917   1.351   6.994   0.448
10673SOL    HW132918   1.381   7.025   0.358
10673SOL    HW232919   1.385   6.902   0.465
10674SOL     OW32920   4.101   3.778   4.366
10674SOL    HW132921   4.078   3.843   4.293
10674SOL    HW232922   4.054   3.805   4.450
10675SOL     OW32923   3.091   0.609   6.114
10675SOL    HW132924   3.078   0.702   6.081
10675SOL    HW232925   3.159   0.562   6.058
10676SOL     OW32926   6.801   6.137   4.809
10676SOL    HW132927   6.760   6.070   4.871
10676SOL    HW232928   6.900   6.139   4.823
10677SOL     OW32929   1.142   0.926   1.113
10677SOL    HW132930   1.048   0.921   1.081
10677SOL    HW232931   1.204   0.934   1.035
10678SOL     OW32932   4.100   4.874   3.804
10678SOL    HW132933   4.140   4.947   3.748
10678SOL    HW232934   4.002   4.868   3.787
10679SOL     OW32935   4.085   5.647   6.970
10679SOL    HW132936   4.143   5.728   6.956
10679SOL    HW232937   4.098   5.584   6.894
10680SOL     OW32938   3.500   1.738   3.708
10680SOL    HW132939   3.412   1.700   3.678
10680SOL    HW232940   3.571   1.714   3.642
10681SOL     OW32941   6.856   3.674   0.155
10681SOL    HW132942   6.877   3.674   0.252
10681SOL    HW232943   6.912   3.744   0.108
10682SOL     OW32944   0.075   2.997   5.177
10682SOL    HW132945   0.115   3.001   5.085
10682SOL    HW232946   0.145   2.969   5.242
10683SOL     OW32947   4.323   1.056   3.633
10683SOL    HW132948   4.281   1.145   3.623
10683SOL    HW232949   4.312   1.004   3.548
10684SOL     OW32950   4.474   5.583   1.786
10684SOL    HW132951   4.462   5.613   1.881
10684SOL    HW232952   4.388   5.547   1.752
10685SOL     OW32953   0.092   5.663   0.732
10685SOL    HW132954   0.116   5.701   0.643
10685SOL    HW232955   0.154   5.699   0.802
10686SOL     OW32956   1.912   4.345   6.285
10686SOL    HW132957   1.854   4.417   6.324
10686SOL    HW232958   1.964   4.382   6.208
10687SOL     OW32959   6.845   4.341   4.325
10687SOL    HW132960   6.794   4.311   4.406
10687SOL    HW232961   6.930   4.290   4.318
10688SOL     OW32962   5.649   2.568   2.729
10688SOL    HW132963   5.659   2.583   2.631
10688SOL    HW232964   5.718   2.619   2.779
10689SOL     OW32965   7.002   0.083   1.943
10689SOL    HW132966   7.017   0.022   2.020
10689SOL    HW232967   6.909   0.071   1.909
10690SOL     OW32968   0.208   5.126   3.066
10690SOL    HW132969   0.251   5.116   3.155
10690SOL    HW232970   0.220   5.219   3.033
10691SOL     OW32971   2.275   1.656   1.599
10691SOL    HW132972   2.225   1.622   1.679
10691SOL    HW232973   2.349   1.717   1.629
10692SOL     OW32974   2.425   0.664   3.961
10692SOL    HW132975   2.397   0.732   4.029
10692SOL    HW232976   2.483   0.708   3.893
10693SOL     OW32977   1.492   6.214   0.732
10693SOL    HW132978   1.555   6.137   0.737
10693SOL    HW232979   1.422   6.205   0.802
10694SOL     OW32980   5.142   6.370   6.274
10694SOL    HW132981   5.238   6.371   6.302
10694SOL    HW232982   5.136   6.350   6.176
10695SOL     OW32983   1.367   2.264   1.824
10695SOL    HW132984   1.303   2.199   1.865
10695SOL    HW232985   1.412   2.222   1.745
10696SOL     OW32986   6.723   3.605   4.715
10696SOL    HW132987   6.807   3.550   4.709
10696SOL    HW232988   6.701   3.641   4.625
10697SOL     OW32989   7.003   0.194   5.545
10697SOL    HW132990   6.955   0.254   5.608
10697SOL    HW232991   6.963   0.203   5.453
10698SOL     OW32992   4.716   4.008   6.563
10698SOL    HW132993   4.813   3.988   6.565
10698SOL    HW232994   4.682   4.019   6.657
10699SOL     OW32995   4.024   5.112   1.486
10699SOL    HW132996   4.082   5.075   1.559
10699SOL    HW232997   3.991   5.037   1.428
10700SOL     OW32998   5.807   6.396   0.821
10700SOL    HW132999   5.719   6.373   0.778
10700SOL    HW233000   5.879   6.396   0.752
10701SOL     OW33001   3.041   6.886   6.016
10701SOL    HW133002   3.037   6.927   5.925
10701SOL    HW233003   3.124   6.917   6.062
10702SOL     OW33004   5.379   3.302   2.197
10702SOL    HW133005   5.362   3.209   2.231
10702SOL    HW233006   5.294   3.341   2.163
10703SOL     OW33007   2.620   2.778   5.540
10703SOL    HW133008   2.555   2.799   5.613
10703SOL    HW233009   2.633   2.679   5.536
10704SOL     OW33010   0.021   5.078   2.346
10704SOL    HW133011   0.052   5.060   2.253
10704SOL    HW233012   7.027   4.992   2.391
10705SOL     OW33013   6.284   5.335   1.914
10705SOL    HW133014   6.351   5.320   1.841
10705SOL    HW233015   6.194   5.305   1.884
10706SOL     OW33016   3.979   0.230   2.218
10706SOL    HW133017   3.909   0.241   2.147
10706SOL    HW233018   3.948   0.161   2.284
10707SOL     OW33019   0.690   6.651   3.425
10707SOL    HW133020   0.681   6.698   3.338
10707SOL    HW233021   0.709   6.717   3.498
10708SOL     OW33022   3.781   1.478   1.386
10708SOL    HW133023   3.848   1.413   1.420
10708SOL    HW233024   3.716   1.500   1.458
10709SOL     OW33025   5.468   5.076   4.766
10709SOL    HW133026   5.401   5.134   4.721
10709SOL    HW233027   5.479   4.991   4.715
10710SOL     OW33028   6.251   1.036   3.897
10710SOL    HW133029   6.277   0.971   3.967
10710SOL    HW233030   6.165   1.081   3.923
10711SOL     OW33031   1.708   6.573   3.753
10711SOL    HW133032   1.797   6.598   3.790
10711SOL    HW233033   1.649   6.654   3.749
10712SOL     OW33034   2.945   0.988   2.181
10712SOL    HW133035   2.906   0.999   2.273
10712SOL    HW233036   2.994   1.071   2.156
10713SOL     OW33037   0.556   3.386   0.695
10713SOL    HW133038   0.551   3.365   0.792
10713SOL    HW233039   0.565   3.485   0.683
10714SOL     OW33040   4.877   3.650   5.984
10714SOL    HW133041   4.933   3.683   6.059
10714SOL    HW233042   4.790   3.616   6.019
10715SOL     OW33043   4.576   0.614   2.208
10715SOL    HW133044   4.569   0.659   2.297
10715SOL    HW233045   4.668   0.579   2.195
10716SOL     OW33046   5.754   2.611   3.651
10716SOL    HW133047   5.770   2.534   3.712
10716SOL    HW233048   5.718   2.688   3.703
10717SOL     OW33049   1.728   2.620   1.335
10717SOL    HW133050   1.819   2.653   1.311
10717SOL    HW233051   1.715   2.529   1.296
10718SOL     OW33052   0.957   3.786   0.379
10718SOL    HW133053   0.965   3.859   0.312
10718SOL    HW233054   0.970   3.698   0.334
10719SOL     OW33055   0.069   5.698   2.557
10719SOL    HW133056   0.060   5.660   2.649
10719SOL    HW233057   0.052   5.796   2.560
10720SOL     OW33058   6.740   4.576   5.152
10720SOL    HW133059   6.788   4.639   5.214
10720SOL    HW233060   6.704   4.499   5.205
10721SOL     OW33061   4.942   3.309   5.477
10721SOL    HW133062   4.965   3.235   5.541
10721SOL    HW233063   4.937   3.395   5.528
10722SOL     OW33064   1.428   4.971   0.154
10722SOL    HW133065   1.393   4.913   0.080
10722SOL    HW233066   1.371   5.053   0.161
10723SOL     OW33067   6.981   2.575   6.655
10723SOL    HW133068   7.017   2.644   6.717
10723SOL    HW233069   7.018   2.486   6.679
10724SOL     OW33070   6.049   0.429   6.710
10724SOL    HW133071   6.006   0.472   6.789
10724SOL    HW233072   5.997   0.452   6.628
10725SOL     OW33073   1.508   5.678   5.003
10725SOL    HW133074   1.586   5.667   5.064
10725SOL    HW233075   1.534   5.735   4.926
10726SOL     OW33076   5.495   0.485   4.276
10726SOL    HW133077   5.498   0.546   4.355
10726SOL    HW233078   5.552   0.523   4.203
10727SOL     OW33079   0.302   5.553   5.982
10727SOL    HW133080   0.256   5.503   5.909
10727SOL    HW233081   0.396   5.520   5.991
10728SOL     OW33082   1.445   5.591   6.874
10728SOL    HW133083   1.467   5.508   6.923
10728SOL    HW233084   1.348   5.590   6.848
10729SOL     OW33085   4.562   1.221   2.679
10729SOL    HW133086   4.522   1.263   2.760
10729SOL    HW233087   4.632   1.155   2.706
10730SOL     OW33088   1.487   0.641   1.323
10730SOL    HW133089   1.389   0.660   1.312
10730SOL    HW233090   1.513   0.654   1.419
10731SOL     OW33091   3.456   1.021   0.602
10731SOL    HW133092   3.416   0.933   0.579
10731SOL    HW233093   3.486   1.021   0.698
10732SOL     OW33094   6.595   4.879   4.668
10732SOL    HW133095   6.518   4.815   4.670
10732SOL    HW233096   6.675   4.834   4.628
10733SOL     OW33097   6.895   1.428   0.288
10733SOL    HW133098   6.945   1.356   0.336
10733SOL    HW233099   6.842   1.387   0.213
10734SOL     OW33100   0.879   1.015   0.273
10734SOL    HW133101   0.962   1.070   0.274
10734SOL    HW233102   0.902   0.919   0.266
10735SOL     OW33103   7.029   2.649   2.622
10735SOL    HW133104   0.011   2.705   2.704
10735SOL    HW233105   6.932   2.637   2.603
10736SOL     OW33106   0.796   0.392   3.773
10736SOL    HW133107   0.884   0.396   3.726
10736SOL    HW233108   0.811   0.366   3.869
10737SOL     OW33109   1.223   1.865   0.402
10737SOL    HW133110   1.171   1.812   0.468
10737SOL    HW233111   1.166   1.883   0.321
10738SOL     OW33112   2.275   0.693   2.982
10738SOL    HW133113   2.207   0.690   2.909
10738SOL    HW233114   2.365   0.711   2.944
10739SOL     OW33115   1.765   1.326   0.980
10739SOL    HW133116   1.740   1.378   1.062
10739SOL    HW233117   1.692   1.336   0.912
10740SOL     OW33118   0.096   4.773   4.873
10740SOL    HW133119   0.020   4.710   4.886
10740SOL    HW233120   0.085   4.821   4.785
10741SOL     OW33121   4.692   0.903   1.013
10741SOL    HW133122   4.701   0.804   1.021
10741SOL    HW233123   4.709   0.930   0.918
10742SOL     OW33124   5.600   6.929   1.165
10742SOL    HW133125   5.534   6.857   1.188
10742SOL    HW233126   5.551   7.014   1.146
10743SOL     OW33127   1.669   1.561   5.510
10743SOL    HW133128   1.629   1.585   5.598
10743SOL    HW233129   1.597   1.527   5.449
10744SOL     OW33130   3.553   1.600   1.071
10744SOL    HW133131   3.484   1.607   0.999
10744SOL    HW233132   3.528   1.528   1.135
10745SOL     OW33133   0.454   5.920   6.594
10745SOL    HW133134   0.487   5.998   6.649
10745SOL    HW233135   0.355   5.927   6.584
10746SOL     OW33136   2.682   5.055   1.464
10746SOL    HW133137   2.676   4.987   1.537
10746SOL    HW233138   2.761   5.035   1.407
10747SOL     OW33139   4.259   1.214   4.721
10747SOL    HW133140   4.265   1.192   4.624
10747SOL    HW233141   4.315   1.149   4.773
10748SOL     OW33142   5.483   1.149   0.915
10748SOL    HW133143   5.447   1.154   0.822
10748SOL    HW233144   5.434   1.213   0.974
10749SOL     OW33145   0.091   5.788   3.537
10749SOL    HW133146   0.103   5.691   3.516
10749SOL    HW233147   0.121   5.806   3.631
10750SOL     OW33148   4.224   6.173   4.278
10750SOL    HW133149   4.276   6.097   4.239
10750SOL    HW233150   4.127   6.161   4.257
10751SOL     OW33151   1.834   4.647   4.520
10751SOL    HW133152   1.850   4.739   4.485
10751SOL    HW233153   1.768   4.650   4.595
10752SOL     OW33154   6.358   4.300   5.496
10752SOL    HW133155   6.299   4.332   5.571
10752SOL    HW233156   6.444   4.352   5.497
10753SOL     OW33157   5.087   4.669   4.447
10753SOL    HW133158   5.168   4.713   4.485
10753SOL    HW233159   5.080   4.691   4.349
10754SOL     OW33160   0.517   0.633   2.866
10754SOL    HW133161   0.605   0.598   2.834
10754SOL    HW233162   0.487   0.707   2.806
10755SOL     OW33163   0.180   1.067   0.257
10755SOL    HW133164   0.171   0.992   0.323
10755SOL    HW233165   0.276   1.090   0.246
10756SOL     OW33166   6.361   4.969   6.681
10756SOL    HW133167   6.296   5.044   6.671
10756SOL    HW233168   6.407   4.952   6.594
10757SOL     OW33169   1.384   2.996   0.219
10757SOL    HW133170   1.417   3.080   0.262
10757SOL    HW233171   1.406   2.918   0.278
10758SOL     OW33172   0.972   6.139   4.037
10758SOL    HW133173   0.915   6.120   4.118
10758SOL    HW233174   0.950   6.230   4.002
10759SOL     OW33175   1.992   3.001   1.367
10759SOL    HW133176   1.973   3.087   1.319
10759SOL    HW233177   2.070   2.956   1.325
10760SOL     OW33178   5.565   0.140   2.768
10760SOL    HW133179   5.541   0.179   2.679
10760SOL    HW233180   5.490   0.154   2.832
10761SOL     OW33181   0.811   6.189   6.249
10761SOL    HW133182   0.879   6.250   6.209
10761SOL    HW233183   0.809   6.103   6.198
10762SOL     OW33184   3.264   2.187   4.149
10762SOL    HW133185   3.263   2.211   4.052
10762SOL    HW233186   3.358   2.184   4.182
10763SOL     OW33187   4.883   6.809   3.009
10763SOL    HW133188   4.846   6.852   3.092
10763SOL    HW233189   4.822   6.735   2.980
10764SOL     OW33190   4.750   2.472   6.302
10764SOL    HW133191   4.716   2.469   6.209
10764SOL    HW233192   4.755   2.380   6.340
10765SOL     OW33193   5.168   2.487   0.998
10765SOL    HW133194   5.219   2.501   1.082
10765SOL    HW233195   5.142   2.575   0.959
10766SOL     OW33196   4.965   4.745   0.460
10766SOL    HW133197   4.942   4.799   0.379
10766SOL    HW233198   5.059   4.763   0.486
10767SOL     OW33199   1.798   0.092   0.662
10767SOL    HW133200   1.734   0.162   0.693
10767SOL    HW233201   1.832   0.116   0.571
10768SOL     OW33202   5.115   5.208   1.558
10768SOL    HW133203   5.026   5.195   1.514
10768SOL    HW233204   5.156   5.118   1.576
10769SOL     OW33205   2.341   4.206   5.326
10769SOL    HW133206   2.334   4.112   5.292
10769SOL    HW233207   2.414   4.254   5.277
10770SOL     OW33208   5.435   6.619   4.858
10770SOL    HW133209   5.521   6.568   4.852
10770SOL    HW233210   5.382   6.603   4.774
10771SOL     OW33211   5.192   0.209   3.100
10771SOL    HW133212   5.110   0.160   3.128
10771SOL    HW233213   5.235   0.251   3.180
10772SOL     OW33214   5.864   0.461   3.873
10772SOL    HW133215   5.962   0.448   3.859
10772SOL    HW233216   5.820   0.477   3.785
10773SOL     OW33217   6.126   5.237   6.185
10773SOL    HW133218   6.141   5.141   6.159
10773SOL    HW233219   6.143   5.248   6.283
10774SOL     OW33220   2.545   1.914   5.956
10774SOL    HW133221   2.543   1.952   6.048
10774SOL    HW233222   2.561   1.815   5.961
10775SOL     OW33223   0.673   4.558   2.218
10775SOL    HW133224   0.693   4.469   2.258
10775SOL    HW233225   0.637   4.619   2.289
10776SOL     OW33226   0.526   1.111   6.369
10776SOL    HW133227   0.600   1.045   6.385
10776SOL    HW233228   0.538   1.154   6.280
10777SOL     OW33229   4.138   5.598   1.709
10777SOL    HW133230   4.089   5.512   1.725
10777SOL    HW233231   4.135   5.621   1.612
10778SOL     OW33232   5.109   6.910   3.842
10778SOL    HW133233   5.205   6.908   3.816
10778SOL    HW233234   5.102   6.918   3.942
10779SOL     OW33235   6.695   2.788   3.206
10779SOL    HW133236   6.661   2.744   3.289
10779SOL    HW233237   6.786   2.826   3.224
10780SOL     OW33238   1.805   0.720   3.965
10780SOL    HW133239   1.898   0.683   3.957
10780SOL    HW233240   1.782   0.769   3.881
10781SOL     OW33241   4.462   1.090   4.234
10781SOL    HW133242   4.539   1.153   4.241
10781SOL    HW233243   4.391   1.116   4.300
10782SOL     OW33244   0.064   1.189   2.760
10782SOL    HW133245   0.158   1.210   2.731
10782SOL    HW233246   0.005   1.182   2.679
10783SOL     OW33247   0.662   2.392   2.736
10783SOL    HW133248   0.675   2.490   2.719
10783SOL    HW233249   0.569   2.375   2.768
10784SOL     OW33250   3.855   7.016   3.844
10784SOL    HW133251   3.934   7.017   3.783
10784SOL    HW233252   3.817   6.923   3.849
10785SOL     OW33253   0.286   4.447   0.710
10785SOL    HW133254   0.350   4.523   0.700
10785SOL    HW233255   0.201   4.480   0.752
10786SOL     OW33256   6.362   4.546   3.517
10786SOL    HW133257   6.331   4.638   3.539
10786SOL    HW233258   6.389   4.543   3.421
10787SOL     OW33259   1.476   1.182   5.794
10787SOL    HW133260   1.486   1.249   5.868
10787SOL    HW233261   1.536   1.104   5.812
10788SOL     OW33262   1.820   4.372   6.648
10788SOL    HW133263   1.889   4.305   6.676
10788SOL    HW233264   1.855   4.464   6.664
10789SOL     OW33265   6.247   3.000   6.485
10789SOL    HW133266   6.179   2.926   6.486
10789SOL    HW233267   6.326   2.972   6.430
10790SOL     OW33268   0.718   0.535   1.940
10790SOL    HW133269   0.663   0.512   2.020
10790SOL    HW233270   0.688   0.623   1.903
10791SOL     OW33271   0.049   6.492   1.686
10791SOL    HW133272   6.998   6.539   1.723
10791SOL    HW233273   0.095   6.443   1.760
10792SOL     OW33274   3.339   2.835   5.020
10792SOL    HW133275   3.276   2.839   5.098
10792SOL    HW233276   3.322   2.751   4.968
10793SOL     OW33277   5.815   3.197   5.662
10793SOL    HW133278   5.829   3.208   5.760
10793SOL    HW233279   5.819   3.100   5.638
10794SOL     OW33280   4.022   3.113   4.715
10794SOL    HW133281   3.991   3.068   4.798
10794SOL    HW233282   3.990   3.063   4.635
10795SOL     OW33283   0.378   4.890   2.513
10795SOL    HW133284   0.300   4.903   2.575
10795SOL    HW233285   0.359   4.934   2.425
10796SOL     OW33286   6.663   6.662   5.707
10796SOL    HW133287   6.630   6.571   5.730
10796SOL    HW233288   6.587   6.727   5.712
10797SOL     OW33289   3.064   2.544   1.278
10797SOL    HW133290   3.133   2.477   1.250
10797SOL    HW233291   3.087   2.634   1.239
10798SOL     OW33292   2.769   0.948   0.152
10798SOL    HW133293   2.807   0.980   0.239
10798SOL    HW233294   2.770   1.022   0.085
10799SOL     OW33295   4.055   1.310   2.189
10799SOL    HW133296   4.091   1.297   2.281
10799SOL    HW233297   3.997   1.392   2.188
10800SOL     OW33298   0.390   6.189   5.474
10800SOL    HW133299   0.422   6.234   5.391
10800SOL    HW233300   0.381   6.091   5.458
10801SOL     OW33301   1.355   0.223   0.128
10801SOL    HW133302   1.367   0.235   0.226
10801SOL    HW233303   1.332   0.310   0.085
10802SOL     OW33304   0.481   0.442   2.083
10802SOL    HW133305   0.383   0.452   2.070
10802SOL    HW233306   0.512   0.502   2.157
10803SOL     OW33307   1.787   5.410   5.735
10803SOL    HW133308   1.749   5.356   5.810
10803SOL    HW233309   1.713   5.452   5.683
10804SOL     OW33310   5.921   3.691   2.918
10804SOL    HW133311   5.964   3.734   2.839
10804SOL    HW233312   5.897   3.597   2.896
10805SOL     OW33313   4.791   6.982   5.414
10805SOL    HW133314   4.754   7.030   5.334
10805SOL    HW233315   4.807   0.019   5.487
10806SOL     OW33316   3.803   4.134   6.347
10806SOL    HW133317   3.771   4.080   6.269
10806SOL    HW233318   3.725   4.178   6.391
10807SOL     OW33319   1.864   0.070   3.372
10807SOL    HW133320   1.947   0.036   3.417
10807SOL    HW233321   1.799   0.102   3.441
10808SOL     OW33322   0.425   3.038   6.066
10808SOL    HW133323   0.477   2.995   6.140
10808SOL    HW233324   0.449   2.995   5.979
10809SOL     OW33325   2.177   4.233   3.714
10809SOL    HW133326   2.111   4.166   3.681
10809SOL    HW233327   2.253   4.187   3.759
10810SOL     OW33328   0.027   0.135   4.213
10810SOL    HW133329   7.028   0.116   4.120
10810SOL    HW233330   0.010   0.055   4.271
10811SOL     OW33331   4.346   4.438   5.752
10811SOL    HW133332   4.250   4.455   5.777
10811SOL    HW233333   4.397   4.410   5.833
10812SOL     OW33334   6.786   3.695   0.592
10812SOL    HW133335   6.715   3.645   0.642
10812SOL    HW233336   6.859   3.721   0.655
10813SOL     OW33337   0.691   3.985   5.972
10813SOL    HW133338   0.749   4.045   5.916
10813SOL    HW233339   0.678   3.898   5.924
10814SOL     OW33340   1.659   0.347   6.479
10814SOL    HW133341   1.618   0.403   6.551
10814SOL    HW233342   1.710   0.405   6.416
10815SOL     OW33343   4.860   3.208   3.043
10815SOL    HW133344   4.854   3.266   2.961
10815SOL    HW233345   4.953   3.171   3.050
10816SOL     OW33346   2.980   3.176   2.494
10816SOL    HW133347   3.017   3.100   2.440
10816SOL    HW233348   2.931   3.239   2.434
10817SOL     OW33349   3.669   0.491   3.683
10817SOL    HW133350   3.761   0.462   3.658
10817SOL    HW233351   3.673   0.578   3.732
10818SOL     OW33352   4.608   4.005   5.236
10818SOL    HW133353   4.629   4.072   5.308
10818SOL    HW233354   4.536   3.943   5.268
10819SOL     OW33355   5.838   4.675   6.336
10819SOL    HW133356   5.786   4.752   6.372
10819SOL    HW233357   5.783   4.627   6.268
10820SOL     OW33358   0.470   5.247   4.518
10820SOL    HW133359   0.491   5.151   4.539
10820SOL    HW233360   0.521   5.275   4.437
10821SOL     OW33361   4.321   7.026   3.423
10821SOL    HW133362   4.360   6.961   3.487
10821SOL    HW233363   4.233   6.993   3.391
10822SOL     OW33364   6.118   1.985   2.596
10822SOL    HW133365   6.138   2.030   2.509
10822SOL    HW233366   6.065   1.902   2.579
10823SOL     OW33367   1.005   0.720   2.179
10823SOL    HW133368   0.906   0.708   2.171
10823SOL    HW233369   1.048   0.631   2.192
10824SOL     OW33370   0.447   0.375   2.381
10824SOL    HW133371   0.499   0.388   2.297
10824SOL    HW233372   0.498   0.413   2.458
10825SOL     OW33373   2.363   2.002   0.448
10825SOL    HW133374   2.265   2.011   0.467
10825SOL    HW233375   2.375   1.949   0.364
10826SOL     OW33376   1.166   1.258   2.934
10826SOL    HW133377   1.204   1.170   2.963
10826SOL    HW233378   1.240   1.322   2.913
10827SOL     OW33379   0.085   3.499   5.036
10827SOL    HW133380   0.061   3.547   4.951
10827SOL    HW233381   0.185   3.492   5.043
10828SOL     OW33382   2.081   4.499   0.741
10828SOL    HW133383   2.132   4.438   0.681
10828SOL    HW233384   2.035   4.446   0.812
10829SOL     OW33385   5.387   2.938   0.205
10829SOL    HW133386   5.449   2.948   0.128
10829SOL    HW233387   5.311   2.877   0.180
10830SOL     OW33388   4.160   1.757   2.831
10830SOL    HW133389   4.236   1.758   2.766
10830SOL    HW233390   4.170   1.832   2.896
10831SOL     OW33391   3.204   6.300   2.295
10831SOL    HW133392   3.246   6.301   2.386
10831SOL    HW233393   3.104   6.295   2.305
10832SOL     OW33394   0.119   4.052   6.128
10832SOL    HW133395   0.058   4.103   6.189
10832SOL    HW233396   0.205   4.033   6.176
10833SOL     OW33397   0.254   1.450   1.321
10833SOL    HW133398   0.326   1.456   1.251
10833SOL    HW233399   0.292   1.414   1.406
10834SOL     OW33400   5.772   1.402   0.486
10834SOL    HW133401   5.823   1.372   0.405
10834SOL    HW233402   5.816   1.365   0.568
10835SOL     OW33403   6.163   2.990   6.908
10835SOL    HW133404   6.156   3.038   6.821
10835SOL    HW233405   6.256   2.956   6.921
10836SOL     OW33406   0.264   2.010   3.339
10836SOL    HW133407   0.233   1.921   3.372
10836SOL    HW233408   0.311   2.059   3.413
10837SOL     OW33409   6.866   4.972   1.377
10837SOL    HW133410   6.963   4.992   1.383
10837SOL    HW233411   6.814   5.057   1.374
10838SOL     OW33412   6.580   6.726   3.957
10838SOL    HW133413   6.653   6.657   3.959
10838SOL    HW233414   6.568   6.764   4.049
10839SOL     OW33415   4.237   3.918   0.752
10839SOL    HW133416   4.289   3.837   0.778
10839SOL    HW233417   4.281   3.962   0.673
10840SOL     OW33418   3.431   6.150   2.215
10840SOL    HW133419   3.458   6.187   2.126
10840SOL    HW233420   3.367   6.214   2.259
10841SOL     OW33421   5.945   4.564   4.987
10841SOL    HW133422   6.042   4.586   4.973
10841SOL    HW233423   5.890   4.615   4.920
10842SOL     OW33424   5.064   2.427   1.402
10842SOL    HW133425   5.017   2.441   1.315
10842SOL    HW233426   5.003   2.453   1.477
10843SOL     OW33427   1.427   1.222   1.255
10843SOL    HW133428   1.387   1.145   1.304
10843SOL    HW233429   1.525   1.208   1.243
10844SOL     OW33430   0.320   5.365   2.974
10844SOL    HW133431   0.318   5.416   2.888
10844SOL    HW233432   0.400   5.392   3.027
10845SOL     OW33433   3.930   6.321   5.478
10845SOL    HW133434   3.926   6.420   5.486
10845SOL    HW233435   3.970   6.282   5.560
10846SOL     OW33436   5.096   7.028   6.539
10846SOL    HW133437   5.051   0.056   6.471
10846SOL    HW233438   5.195   0.003   6.527
10847SOL     OW33439   3.377   2.339   6.990
10847SOL    HW133440   3.372   2.404   6.914
10847SOL    HW233441   3.469   2.299   6.994
10848SOL     OW33442   1.174   4.179   0.597
10848SOL    HW133443   1.256   4.155   0.650
10848SOL    HW233444   1.122   4.096   0.577
10849SOL     OW33445   2.577   4.672   3.991
10849SOL    HW133446   2.533   4.645   3.905
10849SOL    HW233447   2.570   4.596   4.056
10850SOL     OW33448   3.572   6.571   6.030
10850SOL    HW133449   3.512   6.519   5.969
10850SOL    HW233450   3.665   6.568   5.996
10851SOL     OW33451   3.303   3.661   0.875
10851SOL    HW133452   3.296   3.634   0.779
10851SOL    HW233453   3.297   3.581   0.934
10852SOL     OW33454   1.456   0.765   6.790
10852SOL    HW133455   1.484   0.856   6.819
10852SOL    HW233456   1.361   0.767   6.761
10853SOL     OW33457   2.471   2.881   5.738
10853SOL    HW133458   2.460   2.868   5.837
10853SOL    HW233459   2.399   2.942   5.704
10854SOL     OW33460   4.385   5.200   5.287
10854SOL    HW133461   4.354   5.126   5.227
10854SOL    HW233462   4.442   5.264   5.235
10855SOL     OW33463   4.124   0.538   0.039
10855SOL    HW133464   4.095   0.485   6.989
10855SOL    HW233465   4.210   0.500   0.074
10856SOL     OW33466   5.540   1.182   0.455
10856SOL    HW133467   5.589   1.099   0.431
10856SOL    HW233468   5.605   1.253   0.483
10857SOL     OW33469   1.013   2.250   2.553
10857SOL    HW133470   1.014   2.343   2.519
10857SOL    HW233471   0.927   2.205   2.529
10858SOL     OW33472   0.765   0.828   0.657
10858SOL    HW133473   0.730   0.753   0.712
10858SOL    HW233474   0.705   0.844   0.579
10859SOL     OW33475   0.859   4.652   4.445
10859SOL    HW133476   0.887   4.571   4.495
10859SOL    HW233477   0.938   4.712   4.432
10860SOL     OW33478   0.452   3.231   4.910
10860SOL    HW133479   0.419   3.237   4.815
10860SOL    HW233480   0.410   3.153   4.955
10861SOL     OW33481   3.215   3.604   3.310
10861SOL    HW133482   3.280   3.613   3.235
10861SOL    HW233483   3.246   3.658   3.388
10862SOL     OW33484   0.919   0.886   5.997
10862SOL    HW133485   0.861   0.849   6.069
10862SOL    HW233486   0.928   0.985   6.008
10863SOL     OW33487   1.579   0.730   4.310
10863SOL    HW133488   1.603   0.731   4.213
10863SOL    HW233489   1.479   0.729   4.319
10864SOL     OW33490   3.165   6.034   0.192
10864SOL    HW133491   3.101   6.090   0.245
10864SOL    HW233492   3.203   6.088   0.117
10865SOL     OW33493   6.482   1.078   0.869
10865SOL    HW133494   6.458   0.981   0.868
10865SOL    HW233495   6.421   1.127   0.932
10866SOL     OW33496   5.148   4.274   0.783
10866SOL    HW133497   5.185   4.229   0.702
10866SOL    HW233498   5.100   4.357   0.757
10867SOL     OW33499   3.465   4.130   0.889
10867SOL    HW133500   3.507   4.197   0.827
10867SOL    HW233501   3.464   4.167   0.982
10868SOL     OW33502   4.847   1.534   3.829
10868SOL    HW133503   4.875   1.608   3.889
10868SOL    HW233504   4.887   1.448   3.860
10869NA      NA33505   6.417   3.161   5.209
10870NA      NA33506   4.443   4.572   5.230
10871NA      NA33507   1.603   2.691   1.511
10872NA      NA33508   4.981   3.767   5.144
10873NA      NA33509   4.277   2.469   5.408
10874NA      NA33510   3.697   4.780   1.716
10875NA      NA33511   6.560   4.967   6.821
10876NA      NA33512   3.320   3.122   4.585
10877NA      NA33513   4.653   6.034   0.301
10878NA      NA33514   4.198   6.360   5.132
10879NA      NA33515   6.266   5.193   2.373
10880NA      NA33516   2.146   6.851   3.577
10881NA      NA33517   4.103   5.816   1.881
10882NA      NA33518   3.314   3.955   2.063
   7.02971   7.02971   7.02971
