Generated by trjconv : CNT in water t= 237.00000
33518
    1C        C    1   2.841   2.767   4.748
    1C        C    2   2.899   2.719   4.867
    1C        C    3   2.853   2.776   4.987
    1C        C    4   2.854   2.780   4.262
    1C        C    5   2.909   2.734   4.384
    1C        C    6   2.855   2.781   4.506
    1C        C    7   3.018   2.646   4.627
    1C        C    8   2.901   2.724   4.627
    1C        C    9   3.082   2.609   4.747
    1C        C   10   3.013   2.636   4.868
    1C        C   11   3.188   2.498   4.981
    1C        C   12   3.062   2.561   4.975
    1C        C   13   2.849   2.773   3.776
    1C        C   14   2.901   2.724   3.898
    1C        C   15   2.852   2.778   4.019
    1C        C   16   3.025   2.654   4.140
    1C        C   17   2.907   2.732   4.140
    1C        C   18   3.090   2.625   4.262
    1C        C   19   3.029   2.659   4.384
    1C        C   20   3.214   2.558   4.509
    1C        C   21   3.084   2.614   4.506
    1C        C   22   3.283   2.531   4.629
    1C        C   23   3.211   2.548   4.749
    1C        C   24   3.417   2.484   4.870
    1C        C   25   3.276   2.511   4.869
    1C        C   26   3.495   2.479   4.986
    1C        C   27   2.852   2.771   3.286
    1C        C   28   2.909   2.732   3.410
    1C        C   29   2.859   2.781   3.533
    1C        C   30   3.020   2.644   3.654
    1C        C   31   2.909   2.731   3.655
    1C        C   32   3.084   2.611   3.776
    1C        C   33   3.023   2.652   3.896
    1C        C   34   3.216   2.564   4.020
    1C        C   35   3.085   2.616   4.018
    1C        C   36   3.286   2.546   4.142
    1C        C   37   3.219   2.566   4.264
    1C        C   38   3.421   2.510   4.382
    1C        C   39   3.283   2.539   4.387
    1C        C   40   3.489   2.504   4.506
    1C        C   41   3.423   2.507   4.630
    1C        C   42   3.636   2.476   4.747
    1C        C   43   3.494   2.483   4.750
    1C        C   44   3.711   2.476   4.867
    1C        C   45   3.634   2.472   4.984
    1C        C   46   2.839   2.756   2.797
    1C        C   47   2.895   2.713   2.919
    1C        C   48   2.844   2.764   3.040
    1C        C   49   3.018   2.644   3.168
    1C        C   50   2.900   2.721   3.163
    1C        C   51   3.083   2.610   3.289
    1C        C   52   3.021   2.647   3.411
    1C        C   53   3.212   2.554   3.531
    1C        C   54   3.082   2.608   3.532
    1C        C   55   3.282   2.535   3.652
    1C        C   56   3.216   2.559   3.775
    1C        C   57   3.420   2.510   3.897
    1C        C   58   3.281   2.536   3.898
    1C        C   59   3.494   2.507   4.018
    1C        C   60   3.423   2.512   4.140
    1C        C   61   3.635   2.497   4.261
    1C        C   62   3.494   2.500   4.261
    1C        C   63   3.705   2.502   4.384
    1C        C   64   3.631   2.497   4.504
    1C        C   65   3.838   2.537   4.624
    1C        C   66   3.704   2.492   4.625
    1C        C   67   3.907   2.560   4.745
    1C        C   68   3.845   2.521   4.865
    1C        C   69   4.057   2.581   4.980
    1C        C   70   3.927   2.529   4.978
    1C        C   71   2.826   2.735   2.314
    1C        C   72   2.884   2.689   2.434
    1C        C   73   2.837   2.748   2.554
    1C        C   74   3.014   2.631   2.676
    1C        C   75   2.893   2.705   2.676
    1C        C   76   3.074   2.599   2.800
    1C        C   77   3.015   2.637   2.922
    1C        C   78   3.208   2.554   3.042
    1C        C   79   3.077   2.607   3.045
    1C        C   80   3.279   2.539   3.163
    1C        C   81   3.213   2.555   3.286
    1C        C   82   3.417   2.502   3.406
    1C        C   83   3.279   2.532   3.409
    1C        C   84   3.488   2.497   3.528
    1C        C   85   3.421   2.509   3.651
    1C        C   86   3.631   2.501   3.773
    1C        C   87   3.489   2.503   3.775
    1C        C   88   3.703   2.509   3.894
    1C        C   89   3.635   2.501   4.017
    1C        C   90   3.843   2.544   4.139
    1C        C   91   3.706   2.510   4.139
    1C        C   92   3.910   2.563   4.262
    1C        C   93   3.842   2.536   4.382
    1C        C   94   4.035   2.625   4.501
    1C        C   95   3.909   2.561   4.504
    1C        C   96   4.091   2.670   4.623
    1C        C   97   4.033   2.626   4.743
    1C        C   98   4.188   2.767   4.864
    1C        C   99   4.103   2.652   4.864
    1C        C  100   4.211   2.844   4.979
    1C        C  101   2.818   2.726   2.078
    1C        C  102   2.990   2.589   2.191
    1C        C  103   2.875   2.675   2.195
    1C        C  104   3.064   2.576   2.312
    1C        C  105   3.004   2.614   2.434
    1C        C  106   3.205   2.539   2.555
    1C        C  107   3.073   2.590   2.555
    1C        C  108   3.277   2.527   2.676
    1C        C  109   3.207   2.553   2.796
    1C        C  110   3.412   2.504   2.917
    1C        C  111   3.273   2.530   2.919
    1C        C  112   3.485   2.498   3.038
    1C        C  113   3.417   2.508   3.162
    1C        C  114   3.629   2.503   3.282
    1C        C  115   3.488   2.500   3.284
    1C        C  116   3.698   2.510   3.405
    1C        C  117   3.630   2.498   3.528
    1C        C  118   3.837   2.543   3.648
    1C        C  119   3.700   2.508   3.650
    1C        C  120   3.904   2.567   3.770
    1C        C  121   3.840   2.544   3.894
    1C        C  122   4.033   2.634   4.015
    1C        C  123   3.908   2.568   4.016
    1C        C  124   4.091   2.674   4.137
    1C        C  125   4.033   2.633   4.259
    1C        C  126   4.202   2.761   4.379
    1C        C  127   4.091   2.673   4.381
    1C        C  128   4.243   2.819   4.501
    1C        C  129   4.195   2.766   4.623
    1C        C  130   4.324   2.937   4.743
    1C        C  131   4.246   2.818   4.744
    1C        C  132   4.356   3.001   4.865
    1C        C  133   4.288   2.960   4.980
    1C        C  134   3.178   2.479   2.082
    1C        C  135   3.041   2.509   2.084
    1C        C  136   3.261   2.482   2.196
    1C        C  137   3.194   2.519   2.314
    1C        C  138   3.408   2.486   2.429
    1C        C  139   3.269   2.507   2.434
    1C        C  140   3.483   2.492   2.549
    1C        C  141   3.415   2.497   2.672
    1C        C  142   3.625   2.499   2.793
    1C        C  143   3.483   2.493   2.796
    1C        C  144   3.696   2.510   2.915
    1C        C  145   3.626   2.500   3.037
    1C        C  146   3.835   2.540   3.158
    1C        C  147   3.698   2.503   3.159
    1C        C  148   3.903   2.564   3.279
    1C        C  149   3.835   2.546   3.402
    1C        C  150   4.026   2.633   3.526
    1C        C  151   3.901   2.568   3.525
    1C        C  152   4.088   2.669   3.648
    1C        C  153   4.027   2.636   3.771
    1C        C  154   4.197   2.766   3.891
    1C        C  155   4.088   2.677   3.892
    1C        C  156   4.249   2.815   4.013
    1C        C  157   4.199   2.764   4.136
    1C        C  158   4.340   2.923   4.257
    1C        C  159   4.254   2.811   4.257
    1C        C  160   4.372   2.987   4.378
    1C        C  161   4.325   2.934   4.500
    1C        C  162   4.431   3.120   4.623
    1C        C  163   4.365   2.995   4.621
    1C        C  164   4.458   3.190   4.742
    1C        C  165   4.421   3.127   4.863
    1C        C  166   4.516   3.324   4.974
    1C        C  167   4.477   3.190   4.975
    1C        C  168   3.478   2.444   2.077
    1C        C  169   3.400   2.458   2.193
    1C        C  170   3.622   2.471   2.308
    1C        C  171   3.480   2.468   2.309
    1C        C  172   3.696   2.490   2.426
    1C        C  173   3.624   2.496   2.548
    1C        C  174   3.831   2.538   2.669
    1C        C  175   3.694   2.503   2.671
    1C        C  176   3.898   2.563   2.791
    1C        C  177   3.833   2.542   2.915
    1C        C  178   4.028   2.628   3.035
    1C        C  179   3.902   2.564   3.036
    1C        C  180   4.090   2.662   3.157
    1C        C  181   4.031   2.624   3.279
    1C        C  182   4.197   2.753   3.403
    1C        C  183   4.086   2.666   3.402
    1C        C  184   4.249   2.807   3.523
    1C        C  185   4.202   2.753   3.645
    1C        C  186   4.339   2.917   3.768
    1C        C  187   4.251   2.806   3.767
    1C        C  188   4.378   2.979   3.889
    1C        C  189   4.333   2.928   4.013
    1C        C  190   4.440   3.111   4.133
    1C        C  191   4.374   2.986   4.135
    1C        C  192   4.465   3.176   4.256
    1C        C  193   4.439   3.112   4.378
    1C        C  194   4.503   3.316   4.496
    1C        C  195   4.464   3.180   4.499
    1C        C  196   4.513   3.393   4.614
    1C        C  197   4.503   3.325   4.737
    1C        C  198   4.561   3.538   4.851
    1C        C  199   4.529   3.398   4.856
    1C        C  200   4.589   3.626   4.960
    1C        C  201   3.616   2.425   2.072
    1C        C  202   3.828   2.519   2.184
    1C        C  203   3.693   2.469   2.185
    1C        C  204   3.902   2.542   2.302
    1C        C  205   3.832   2.527   2.424
    1C        C  206   4.023   2.619   2.545
    1C        C  207   3.899   2.552   2.546
    1C        C  208   4.082   2.664   2.665
    1C        C  209   4.021   2.632   2.789
    1C        C  210   4.196   2.751   2.910
    1C        C  211   4.085   2.664   2.911
    1C        C  212   4.248   2.801   3.031
    1C        C  213   4.198   2.753   3.155
    1C        C  214   4.333   2.912   3.276
    1C        C  215   4.242   2.804   3.279
    1C        C  216   4.371   2.973   3.398
    1C        C  217   4.338   2.916   3.522
    1C        C  218   4.432   3.105   3.645
    1C        C  219   4.375   2.976   3.645
    1C        C  220   4.461   3.173   3.766
    1C        C  221   4.440   3.106   3.888
    1C        C  222   4.506   3.309   4.007
    1C        C  223   4.470   3.173   4.009
    1C        C  224   4.515   3.380   4.129
    1C        C  225   4.499   3.314   4.253
    1C        C  226   4.522   3.526   4.370
    1C        C  227   4.513   3.385   4.374
    1C        C  228   4.523   3.603   4.488
    1C        C  229   4.523   3.534   4.611
    1C        C  230   4.509   3.746   4.729
    1C        C  231   4.542   3.608   4.729
    1C        C  232   4.496   3.823   4.846
    1C        C  233   4.545   3.759   4.961
    1C        C  234   4.015   2.620   2.063
    1C        C  235   3.900   2.542   2.066
    1C        C  236   4.086   2.652   2.180
    1C        C  237   4.029   2.607   2.301
    1C        C  238   4.200   2.737   2.423
    1C        C  239   4.088   2.648   2.423
    1C        C  240   4.254   2.788   2.543
    1C        C  241   4.198   2.745   2.665
    1C        C  242   4.338   2.905   2.785
    1C        C  243   4.249   2.795   2.786
    1C        C  244   4.381   2.962   2.906
    1C        C  245   4.337   2.911   3.031
    1C        C  246   4.436   3.096   3.153
    1C        C  247   4.376   2.968   3.154
    1C        C  248   4.455   3.164   3.275
    1C        C  249   4.428   3.103   3.399
    1C        C  250   4.492   3.305   3.519
    1C        C  251   4.454   3.169   3.521
    1C        C  252   4.504   3.377   3.639
    1C        C  253   4.496   3.310   3.763
    1C        C  254   4.525   3.520   3.883
    1C        C  255   4.514   3.379   3.885
    1C        C  256   4.519   3.591   4.005
    1C        C  257   4.516   3.521   4.127
    1C        C  258   4.491   3.736   4.244
    1C        C  259   4.512   3.596   4.247
    1C        C  260   4.478   3.808   4.365
    1C        C  261   4.499   3.742   4.488
    1C        C  262   4.436   3.948   4.606
    1C        C  263   4.487   3.816   4.608
    1C        C  264   4.406   4.018   4.725
    1C        C  265   4.437   3.951   4.845
    1C        C  266   4.326   4.137   4.960
    1C        C  267   4.397   4.017   4.962
    1C        C  268   4.266   2.780   2.066
    1C        C  269   4.199   2.736   2.181
    1C        C  270   4.343   2.897   2.300
    1C        C  271   4.252   2.788   2.302
    1C        C  272   4.382   2.959   2.420
    1C        C  273   4.345   2.896   2.541
    1C        C  274   4.446   3.086   2.665
    1C        C  275   4.378   2.962   2.662
    1C        C  276   4.472   3.153   2.786
    1C        C  277   4.448   3.086   2.909
    1C        C  278   4.501   3.294   3.027
    1C        C  279   4.468   3.157   3.029
    1C        C  280   4.514   3.367   3.148
    1C        C  281   4.493   3.301   3.271
    1C        C  282   4.506   3.511   3.391
    1C        C  283   4.500   3.370   3.394
    1C        C  284   4.509   3.583   3.513
    1C        C  285   4.509   3.519   3.639
    1C        C  286   4.490   3.730   3.757
    1C        C  287   4.512   3.590   3.761
    1C        C  288   4.477   3.799   3.879
    1C        C  289   4.498   3.731   4.001
    1C        C  290   4.433   3.937   4.120
    1C        C  291   4.482   3.805   4.121
    1C        C  292   4.404   4.005   4.241
    1C        C  293   4.436   3.943   4.363
    1C        C  294   4.331   4.131   4.480
    1C        C  295   4.401   4.008   4.483
    1C        C  296   4.292   4.195   4.599
    1C        C  297   4.332   4.140   4.723
    1C        C  298   4.202   4.317   4.841
    1C        C  299   4.292   4.205   4.843
    1C        C  300   4.172   4.404   4.950
    1C        C  301   4.359   2.884   2.065
    1C        C  302   4.472   3.073   2.180
    1C        C  303   4.402   2.949   2.181
    1C        C  304   4.482   3.147   2.301
    1C        C  305   4.446   3.085   2.422
    1C        C  306   4.510   3.287   2.538
    1C        C  307   4.479   3.149   2.543
    1C        C  308   4.513   3.358   2.660
    1C        C  309   4.495   3.292   2.784
    1C        C  310   4.520   3.504   2.901
    1C        C  311   4.513   3.363   2.905
    1C        C  312   4.518   3.576   3.023
    1C        C  313   4.516   3.508   3.147
    1C        C  314   4.495   3.721   3.269
    1C        C  315   4.508   3.580   3.267
    1C        C  316   4.476   3.791   3.390
    1C        C  317   4.493   3.723   3.513
    1C        C  318   4.433   3.930   3.631
    1C        C  319   4.476   3.795   3.633
    1C        C  320   4.402   3.995   3.752
    1C        C  321   4.426   3.931   3.876
    1C        C  322   4.321   4.116   3.992
    1C        C  323   4.398   3.997   3.997
    1C        C  324   4.281   4.173   4.115
    1C        C  325   4.330   4.126   4.239
    1C        C  326   4.194   4.292   4.357
    1C        C  327   4.293   4.192   4.358
    1C        C  328   4.141   4.343   4.478
    1C        C  329   4.196   4.298   4.600
    1C        C  330   4.024   4.434   4.716
    1C        C  331   4.141   4.353   4.718
    1C        C  332   3.971   4.489   4.834
    1C        C  333   4.051   4.475   4.948
    1C        C  334   4.551   3.270   2.060
    1C        C  335   4.536   3.131   2.065
    1C        C  336   4.539   3.352   2.173
    1C        C  337   4.512   3.286   2.296
    1C        C  338   4.534   3.499   2.414
    1C        C  339   4.524   3.358   2.417
    1C        C  340   4.525   3.570   2.535
    1C        C  341   4.521   3.499   2.658
    1C        C  342   4.500   3.714   2.779
    1C        C  343   4.518   3.573   2.778
    1C        C  344   4.483   3.785   2.899
    1C        C  345   4.500   3.716   3.022
    1C        C  346   4.427   3.916   3.142
    1C        C  347   4.478   3.784   3.144
    1C        C  348   4.397   3.983   3.262
    1C        C  349   4.425   3.923   3.387
    1C        C  350   4.323   4.110   3.504
    1C        C  351   4.400   3.991   3.508
    1C        C  352   4.282   4.171   3.625
    1C        C  353   4.326   4.114   3.746
    1C        C  354   4.184   4.273   3.868
    1C        C  355   4.281   4.170   3.868
    1C        C  356   4.128   4.318   3.989
    1C        C  357   4.185   4.277   4.112
    1C        C  358   4.014   4.401   4.233
    1C        C  359   4.135   4.328   4.234
    1C        C  360   3.952   4.441   4.353
    1C        C  361   4.023   4.421   4.473
    1C        C  362   3.833   4.523   4.593
    1C        C  363   3.958   4.458   4.593
    1C        C  364   3.766   4.552   4.715
    1C        C  365   3.840   4.543   4.835
    1C        C  366   3.633   4.599   4.953
    1C        C  367   3.770   4.575   4.952
    1C        C  368   4.516   3.570   2.060
    1C        C  369   4.531   3.492   2.176
    1C        C  370   4.507   3.711   2.293
    1C        C  371   4.527   3.571   2.293
    1C        C  372   4.486   3.782   2.413
    1C        C  373   4.509   3.711   2.533
    1C        C  374   4.431   3.909   2.652
    1C        C  375   4.484   3.778   2.654
    1C        C  376   4.402   3.977   2.772
    1C        C  377   4.434   3.917   2.896
    1C        C  378   4.327   4.100   3.015
    1C        C  379   4.399   3.979   3.018
    1C        C  380   4.277   4.156   3.135
    1C        C  381   4.321   4.102   3.258
    1C        C  382   4.189   4.268   3.379
    1C        C  383   4.283   4.162   3.380
    1C        C  384   4.131   4.312   3.501
    1C        C  385   4.178   4.267   3.626
    1C        C  386   4.008   4.395   3.746
    1C        C  387   4.127   4.319   3.747
    1C        C  388   3.944   4.428   3.868
    1C        C  389   4.008   4.393   3.989
    1C        C  390   3.819   4.487   4.113
    1C        C  391   3.948   4.431   4.111
    1C        C  392   3.749   4.516   4.232
    1C        C  393   3.825   4.502   4.351
    1C        C  394   3.620   4.555   4.478
    1C        C  395   3.759   4.530   4.473
    1C        C  396   3.551   4.565   4.601
    1C        C  397   3.626   4.561   4.721
    1C        C  398   3.413   4.556   4.842
    1C        C  399   3.552   4.578   4.840
    1C        C  400   3.344   4.527   4.961
    1C        C  401   4.507   3.708   2.055
    1C        C  402   4.461   3.920   2.170
    1C        C  403   4.499   3.784   2.172
    1C        C  404   4.417   3.982   2.289
    1C        C  405   4.436   3.914   2.412
    1C        C  406   4.333   4.102   2.529
    1C        C  407   4.407   3.982   2.532
    1C        C  408   4.286   4.156   2.650
    1C        C  409   4.325   4.096   2.772
    1C        C  410   4.179   4.252   2.892
    1C        C  411   4.282   4.155   2.893
    1C        C  412   4.127   4.300   3.014
    1C        C  413   4.176   4.254   3.139
    1C        C  414   4.003   4.378   3.257
    1C        C  415   4.125   4.307   3.259
    1C        C  416   3.946   4.416   3.381
    1C        C  417   4.012   4.388   3.502
    1C        C  418   3.817   4.479   3.621
    1C        C  419   3.946   4.421   3.622
    1C        C  420   3.751   4.508   3.742
    1C        C  421   3.815   4.484   3.866
    1C        C  422   3.613   4.535   3.989
    1C        C  423   3.752   4.509   3.990
    1C        C  424   3.542   4.546   4.111
    1C        C  425   3.610   4.539   4.235
    1C        C  426   3.403   4.553   4.361
    1C        C  427   3.544   4.556   4.359
    1C        C  428   3.333   4.548   4.483
    1C        C  429   3.410   4.557   4.601
    1C        C  430   3.198   4.522   4.724
    1C        C  431   3.338   4.546   4.722
    1C        C  432   3.129   4.492   4.845
    1C        C  433   3.209   4.496   4.960
    1C        C  434   4.383   4.124   2.052
    1C        C  435   4.453   4.003   2.057
    1C        C  436   4.307   4.167   2.165
    1C        C  437   4.343   4.103   2.287
    1C        C  438   4.184   4.250   2.403
    1C        C  439   4.289   4.156   2.406
    1C        C  440   4.130   4.296   2.525
    1C        C  441   4.185   4.255   2.648
    1C        C  442   4.010   4.377   2.768
    1C        C  443   4.127   4.298   2.769
    1C        C  444   3.949   4.415   2.890
    1C        C  445   4.009   4.378   3.013
    1C        C  446   3.815   4.469   3.132
    1C        C  447   3.946   4.415   3.133
    1C        C  448   3.748   4.493   3.254
    1C        C  449   3.816   4.472   3.377
    1C        C  450   3.611   4.528   3.499
    1C        C  451   3.749   4.498   3.498
    1C        C  452   3.543   4.542   3.623
    1C        C  453   3.614   4.542   3.745
    1C        C  454   3.401   4.552   3.866
    1C        C  455   3.543   4.548   3.867
    1C        C  456   3.332   4.546   3.989
    1C        C  457   3.401   4.553   4.112
    1C        C  458   3.198   4.510   4.239
    1C        C  459   3.336   4.540   4.237
    1C        C  460   3.129   4.491   4.361
    1C        C  461   3.194   4.521   4.483
    1C        C  462   2.997   4.439   4.605
    1C        C  463   3.126   4.498   4.605
    1C        C  464   2.930   4.406   4.725
    1C        C  465   2.993   4.447   4.846
    1C        C  466   2.806   4.337   4.963
    1C        C  467   2.915   4.425   4.964
    1C        C  468   4.125   4.286   2.044
    1C        C  469   4.192   4.252   2.162
    1C        C  470   4.012   4.378   2.280
    1C        C  471   4.129   4.298   2.282
    1C        C  472   3.947   4.405   2.402
    1C        C  473   4.010   4.371   2.524
    1C        C  474   3.815   4.460   2.646
    1C        C  475   3.946   4.406   2.645
    1C        C  476   3.749   4.489   2.767
    1C        C  477   3.820   4.471   2.888
    1C        C  478   3.610   4.511   3.009
    1C        C  479   3.749   4.487   3.009
    1C        C  480   3.540   4.524   3.131
    1C        C  481   3.610   4.520   3.254
    1C        C  482   3.399   4.540   3.379
    1C        C  483   3.540   4.535   3.377
    1C        C  484   3.329   4.536   3.502
    1C        C  485   3.402   4.543   3.623
    1C        C  486   3.192   4.510   3.748
    1C        C  487   3.330   4.540   3.744
    1C        C  488   3.127   4.488   3.872
    1C        C  489   3.196   4.508   3.993
    1C        C  490   3.010   4.413   4.118
    1C        C  491   3.133   4.483   4.117
    1C        C  492   2.947   4.382   4.241
    1C        C  493   3.003   4.429   4.362
    1C        C  494   2.835   4.301   4.486
    1C        C  495   2.940   4.395   4.484
    1C        C  496   2.774   4.262   4.607
    1C        C  497   2.820   4.317   4.729
    1C        C  498   2.666   4.167   4.848
    1C        C  499   2.755   4.276   4.848
    1C        C  500   2.592   4.124   4.959
    1C        C  501   4.003   4.351   2.042
    1C        C  502   3.822   4.471   2.160
    1C        C  503   3.948   4.408   2.158
    1C        C  504   3.750   4.485   2.280
    1C        C  505   3.816   4.457   2.402
    1C        C  506   3.612   4.516   2.525
    1C        C  507   3.749   4.485   2.524
    1C        C  508   3.537   4.521   2.645
    1C        C  509   3.609   4.510   2.766
    1C        C  510   3.397   4.522   2.891
    1C        C  511   3.538   4.521   2.887
    1C        C  512   3.328   4.520   3.014
    1C        C  513   3.399   4.532   3.135
    1C        C  514   3.191   4.498   3.258
    1C        C  515   3.329   4.531   3.257
    1C        C  516   3.126   4.473   3.381
    1C        C  517   3.194   4.496   3.502
    1C        C  518   3.002   4.415   3.626
    1C        C  519   3.127   4.482   3.626
    1C        C  520   2.944   4.380   3.750
    1C        C  521   3.004   4.418   3.872
    1C        C  522   2.841   4.287   3.998
    1C        C  523   2.949   4.378   3.995
    1C        C  524   2.788   4.237   4.119
    1C        C  525   2.836   4.294   4.239
    1C        C  526   2.699   4.138   4.367
    1C        C  527   2.788   4.248   4.363
    1C        C  528   2.662   4.079   4.489
    1C        C  529   2.693   4.147   4.609
    1C        C  530   2.589   3.961   4.734
    1C        C  531   2.644   4.093   4.730
    1C        C  532   2.547   3.904   4.857
    1C        C  533   2.533   3.997   4.964
    1C        C  534   3.621   4.554   2.046
    1C        C  535   3.756   4.517   2.044
    1C        C  536   3.540   4.537   2.162
    1C        C  537   3.612   4.518   2.283
    1C        C  538   3.398   4.516   2.401
    1C        C  539   3.539   4.524   2.404
    1C        C  540   3.327   4.507   2.522
    1C        C  541   3.396   4.520   2.645
    1C        C  542   3.190   4.484   2.767
    1C        C  543   3.328   4.515   2.768
    1C        C  544   3.124   4.463   2.890
    1C        C  545   3.189   4.492   3.012
    1C        C  546   3.002   4.402   3.135
    1C        C  547   3.124   4.474   3.136
    1C        C  548   2.946   4.365   3.259
    1C        C  549   3.001   4.408   3.382
    1C        C  550   2.834   4.281   3.508
    1C        C  551   2.942   4.372   3.506
    1C        C  552   2.782   4.239   3.632
    1C        C  553   2.834   4.290   3.753
    1C        C  554   2.705   4.124   3.879
    1C        C  555   2.794   4.233   3.876
    1C        C  556   2.659   4.068   4.000
    1C        C  557   2.699   4.127   4.122
    1C        C  558   2.607   3.942   4.250
    1C        C  559   2.663   4.072   4.247
    1C        C  560   2.581   3.878   4.373
    1C        C  561   2.599   3.952   4.492
    1C        C  562   2.536   3.751   4.618
    1C        C  563   2.568   3.889   4.614
    1C        C  564   2.523   3.684   4.741
    1C        C  565   2.524   3.763   4.859
    1C        C  566   2.540   3.549   4.978
    1C        C  567   2.528   3.688   4.977
    1C        C  568   3.329   4.476   2.042
    1C        C  569   3.401   4.507   2.159
    1C        C  570   3.187   4.475   2.283
    1C        C  571   3.327   4.502   2.280
    1C        C  572   3.117   4.457   2.404
    1C        C  573   3.188   4.479   2.524
    1C        C  574   2.993   4.401   2.650
    1C        C  575   3.119   4.465   2.647
    1C        C  576   2.933   4.363   2.772
    1C        C  577   2.997   4.401   2.892
    1C        C  578   2.826   4.279   3.018
    1C        C  579   2.935   4.369   3.015
    1C        C  580   2.776   4.231   3.142
    1C        C  581   2.832   4.281   3.261
    1C        C  582   2.699   4.119   3.388
    1C        C  583   2.784   4.232   3.385
    1C        C  584   2.661   4.065   3.513
    1C        C  585   2.695   4.128   3.635
    1C        C  586   2.605   3.936   3.759
    1C        C  587   2.662   4.065   3.758
    1C        C  588   2.571   3.875   3.882
    1C        C  589   2.602   3.939   4.005
    1C        C  590   2.541   3.739   4.128
    1C        C  591   2.584   3.874   4.129
    1C        C  592   2.530   3.674   4.253
    1C        C  593   2.543   3.742   4.377
    1C        C  594   2.509   3.535   4.499
    1C        C  595   2.521   3.675   4.499
    1C        C  596   2.518   3.468   4.623
    1C        C  597   2.519   3.541   4.744
    1C        C  598   2.535   3.327   4.865
    1C        C  599   2.531   3.468   4.864
    1C        C  600   2.539   3.253   4.984
    1C        C  601   3.194   4.445   2.045
    1C        C  602   2.986   4.392   2.163
    1C        C  603   3.118   4.448   2.162
    1C        C  604   2.925   4.360   2.287
    1C        C  605   2.991   4.394   2.408
    1C        C  606   2.822   4.269   2.530
    1C        C  607   2.930   4.360   2.531
    1C        C  608   2.774   4.221   2.654
    1C        C  609   2.822   4.276   2.775
    1C        C  610   2.690   4.112   2.899
    1C        C  611   2.772   4.228   2.898
    1C        C  612   2.655   4.055   3.023
    1C        C  613   2.691   4.118   3.144
    1C        C  614   2.591   3.934   3.270
    1C        C  615   2.657   4.059   3.268
    1C        C  616   2.576   3.868   3.394
    1C        C  617   2.605   3.935   3.515
    1C        C  618   2.539   3.733   3.639
    1C        C  619   2.583   3.868   3.637
    1C        C  620   2.521   3.669   3.764
    1C        C  621   2.534   3.739   3.886
    1C        C  622   2.516   3.527   4.013
    1C        C  623   2.522   3.668   4.008
    1C        C  624   2.513   3.459   4.137
    1C        C  625   2.519   3.533   4.257
    1C        C  626   2.541   3.323   4.382
    1C        C  627   2.516   3.462   4.378
    1C        C  628   2.553   3.254   4.505
    1C        C  629   2.537   3.328   4.624
    1C        C  630   2.602   3.122   4.748
    1C        C  631   2.550   3.255   4.745
    1C        C  632   2.622   3.051   4.870
    1C        C  633   2.569   3.117   4.986
    1C        C  634   2.782   4.304   2.060
    1C        C  635   2.896   4.384   2.052
    1C        C  636   2.746   4.232   2.175
    1C        C  637   2.809   4.279   2.292
    1C        C  638   2.670   4.114   2.413
    1C        C  639   2.762   4.221   2.412
    1C        C  640   2.636   4.053   2.536
    1C        C  641   2.688   4.109   2.655
    1C        C  642   2.589   3.924   2.782
    1C        C  643   2.649   4.052   2.778
    1C        C  644   2.562   3.860   2.905
    1C        C  645   2.594   3.928   3.025
    1C        C  646   2.533   3.728   3.152
    1C        C  647   2.565   3.866   3.149
    1C        C  648   2.519   3.661   3.275
    1C        C  649   2.535   3.733   3.396
    1C        C  650   2.515   3.522   3.522
    1C        C  651   2.522   3.663   3.518
    1C        C  652   2.515   3.456   3.647
    1C        C  653   2.511   3.528   3.769
    1C        C  654   2.536   3.318   3.889
    1C        C  655   2.510   3.457   3.891
    1C        C  656   2.553   3.253   4.013
    1C        C  657   2.534   3.319   4.137
    1C        C  658   2.609   3.123   4.262
    1C        C  659   2.555   3.253   4.260
    1C        C  660   2.638   3.059   4.384
    1C        C  661   2.601   3.121   4.505
    1C        C  662   2.717   2.943   4.629
    1C        C  663   2.635   3.058   4.627
    1C        C  664   2.753   2.878   4.749
    1C        C  665   2.701   2.932   4.870
    1C        C  666   2.754   2.874   4.986
    1C        C  667   2.678   4.028   2.054
    1C        C  668   2.688   4.103   2.172
    1C        C  669   2.598   3.910   2.296
    1C        C  670   2.645   4.044   2.292
    1C        C  671   2.562   3.849   2.418
    1C        C  672   2.585   3.921   2.537
    1C        C  673   2.517   3.723   2.664
    1C        C  674   2.563   3.856   2.660
    1C        C  675   2.507   3.653   2.787
    1C        C  676   2.527   3.723   2.907
    1C        C  677   2.508   3.515   3.031
    1C        C  678   2.520   3.656   3.031
    1C        C  679   2.517   3.448   3.156
    1C        C  680   2.512   3.520   3.277
    1C        C  681   2.536   3.311   3.402
    1C        C  682   2.514   3.451   3.401
    1C        C  683   2.554   3.245   3.526
    1C        C  684   2.533   3.316   3.646
    1C        C  685   2.601   3.115   3.774
    1C        C  686   2.553   3.247   3.768
    1C        C  687   2.636   3.054   3.897
    1C        C  688   2.604   3.121   4.017
    1C        C  689   2.714   2.939   4.142
    1C        C  690   2.640   3.060   4.139
    1C        C  691   2.754   2.880   4.264
    1C        C  692   2.715   2.940   4.385
    1C        C  693   2.765   2.890   4.507
    1C        C  694   2.639   3.894   2.061
    1C        C  695   2.538   3.703   2.182
    1C        C  696   2.589   3.835   2.177
    1C        C  697   2.512   3.638   2.304
    1C        C  698   2.521   3.713   2.424
    1C        C  699   2.488   3.506   2.546
    1C        C  700   2.499   3.647   2.546
    1C        C  701   2.499   3.436   2.669
    1C        C  702   2.500   3.512   2.788
    1C        C  703   2.530   3.302   2.913
    1C        C  704   2.507   3.441   2.911
    1C        C  705   2.549   3.235   3.036
    1C        C  706   2.542   3.309   3.157
    1C        C  707   2.601   3.108   3.284
    1C        C  708   2.555   3.242   3.281
    1C        C  709   2.631   3.045   3.407
    1C        C  710   2.601   3.111   3.528
    1C        C  711   2.711   2.934   3.652
    1C        C  712   2.630   3.051   3.652
    1C        C  713   2.757   2.880   3.774
    1C        C  714   2.713   2.936   3.896
    1C        C  715   2.757   2.883   4.019
    1C        C  716   2.456   3.503   2.068
    1C        C  717   2.499   3.637   2.065
    1C        C  718   2.463   3.423   2.186
    1C        C  719   2.487   3.498   2.305
    1C        C  720   2.512   3.290   2.429
    1C        C  721   2.490   3.429   2.428
    1C        C  722   2.538   3.225   2.551
    1C        C  723   2.516   3.296   2.671
    1C        C  724   2.589   3.096   2.794
    1C        C  725   2.537   3.228   2.793
    1C        C  726   2.616   3.033   2.918
    1C        C  727   2.585   3.099   3.039
    1C        C  728   2.711   2.929   3.162
    1C        C  729   2.627   3.043   3.161
    1C        C  730   2.756   2.875   3.284
    1C        C  731   2.712   2.929   3.407
    1C        C  732   2.755   2.876   3.531
    1C        C  733   2.496   3.201   2.076
    1C        C  734   2.490   3.283   2.189
    1C        C  735   2.583   3.086   2.308
    1C        C  736   2.523   3.215   2.309
    1C        C  737   2.616   3.021   2.429
    1C        C  738   2.593   3.094   2.548
    1C        C  739   2.704   2.918   2.673
    1C        C  740   2.624   3.035   2.672
    1C        C  741   2.746   2.862   2.796
    1C        C  742   2.700   2.919   2.917
    1C        C  743   2.749   2.869   3.040
    1C        C  744   2.549   3.072   2.074
    1C        C  745   2.687   2.899   2.189
    1C        C  746   2.608   3.016   2.188
    1C        C  747   2.734   2.844   2.310
    1C        C  748   2.693   2.903   2.432
    1C        C  749   2.745   2.854   2.554
    1C        C  750   2.742   2.842   2.073
    1C        C  751   3.657   2.319   1.978
    1C        O  752   3.635   2.197   1.998
    1C        O  753   3.653   2.346   1.841
    1C        C  754   4.645   3.054   2.000
    1C        O  755   4.642   3.019   1.878
    1C        O  756   4.778   3.056   2.044
    1C        C  757   4.437   4.221   1.954
    1C        O  758   4.533   4.293   1.991
    1C        O  759   4.444   4.172   1.823
    1C        C  760   3.580   4.622   1.921
    1C        O  761   3.613   4.740   1.891
    1C        O  762   3.544   4.545   1.810
    1C        C  763   2.885   4.491   1.950
    1C        O  764   2.892   4.469   1.826
    1C        O  765   2.849   4.622   1.987
    1C        C  766   2.346   3.490   1.970
    1C        O  767   2.352   3.467   1.846
    1C        O  768   2.215   3.474   2.017
    1C        C  769   4.716   3.607   5.034
    1C        O  770   4.722   3.535   5.137
    1C        O  771   4.845   3.644   4.995
    1C        C  772   4.270   4.440   5.055
    1C        O  773   4.278   4.384   5.168
    1C        O  774   4.339   4.562   5.054
    1C        C  775   4.142   2.532   5.091
    1C        O  776   4.247   2.475   5.051
    1C        O  777   4.180   2.608   5.202
    1C        C  778   2.879   4.537   5.054
    1C        O  779   2.852   4.654   5.015
    1C        O  780   2.900   4.528   5.193
    1C        C  781   2.475   3.043   5.073
    1C        O  782   2.359   3.012   5.031
    1C        O  783   2.504   3.020   5.206
    1C        C  784   2.415   3.996   5.054
    1C        O  785   2.306   4.048   5.019
    1C        O  786   2.420   3.988   5.194
    1C        C  787   2.955   2.424   1.999
    1C        O  788   2.951   2.430   1.873
    1C        O  789   2.856   2.342   2.052
    1C        C  790   3.191   2.378   5.067
    1C        O  791   3.159   2.265   5.021
    1C        O  792   3.169   2.376   5.205
    1C        H  793   4.303   3.002   5.077
    1C        H  794   4.172   2.809   5.072
    1C        H  795   4.503   3.132   5.061
    1C        H  796   4.564   3.358   5.063
    1C        H  797   4.579   3.816   5.045
    1C        H  798   4.374   3.950   5.042
    1C        H  799   4.255   4.149   5.039
    1C        H  800   4.028   4.526   5.039
    1C        H  801   3.807   4.547   5.048
    1C        H  802   3.598   4.673   5.022
    1C        H  803   3.396   4.504   5.051
    1C        H  804   3.173   4.436   5.042
    1C        H  805   3.880   2.547   5.073
    1C        H  806   3.676   2.425   5.070
    1C        H  807   2.986   2.519   5.038
    1C        H  808   3.446   2.484   5.081
    1C        H  809   2.848   2.717   5.076
    1C        H  810   2.739   2.933   5.074
    1C        H  811   2.525   3.304   5.077
    1C        H  812   2.601   3.509   5.056
    1C        H  813   2.541   3.742   5.069
    1C        H  814   2.575   4.201   5.032
    1C        H  815   2.769   4.308   5.059
    1C        H  816   2.770   2.905   1.991
    1C        H  817   2.822   2.659   1.994
    1C        H  818   3.224   2.452   1.989
    1C        H  819   3.437   2.487   1.988
    1C        H  820   3.896   2.461   1.996
    1C        H  821   4.034   2.674   1.973
    1C        H  822   4.266   2.719   1.978
    1C        H  823   4.420   2.891   1.977
    1C        H  824   4.589   3.309   1.968
    1C        H  825   4.540   3.525   1.966
    1C        H  826   4.542   3.752   1.963
    1C        H  827   3.820   4.575   1.981
    1C        H  828   3.984   4.399   1.949
    1C        H  829   4.163   4.247   1.951
    1C        H  830   4.475   3.965   1.959
    1C        H  831   2.669   3.835   1.977
    1C        H  832   2.722   4.067   1.964
    1C        H  833   2.701   4.311   1.989
    1C        H  834   3.383   4.425   1.965
    1C        H  835   3.145   4.457   1.951
    1C        H  836   2.524   3.003   1.997
    1C        H  837   2.437   3.227   1.990
    1C        H  838   2.527   3.676   1.969
    2V3OU   H29  839   2.807   3.549   2.452
    2V3OU   C27  840   2.792   3.505   2.554
    2V3OU   H27  841   2.737   3.572   2.625
    2V3OU   H28  842   2.743   3.405   2.541
    2V3OU   O11  843   2.916   3.478   2.619
    2V3OU   C15  844   2.930   3.408   2.737
    2V3OU   C13  845   3.058   3.373   2.784
    2V3OU   C14  846   3.084   3.268   2.874
    2V3OU   C16  847   2.981   3.189   2.923
    2V3OU    H6  848   2.995   3.105   2.993
    2V3OU   C12  849   3.222   3.233   2.913
    2V3OU    O2  850   3.245   3.128   2.978
    2V3OU   C10  851   3.334   3.315   2.864
    2V3OU    C8  852   3.465   3.278   2.891
    2V3OU   O10  853   3.494   3.157   2.945
    2V3OU   H26  854   3.404   3.123   2.962
    2V3OU    C6  855   3.572   3.353   2.831
    2V3OU    C5  856   3.543   3.465   2.754
    2V3OU    C4  857   3.709   3.294   2.837
    2V3OU    H4  858   3.730   3.233   2.929
    2V3OU    H5  859   3.715   3.230   2.744
    2V3OU    C2  860   3.822   3.397   2.827
    2V3OU    O6  861   3.813   3.476   2.947
    2V3OU   H21  862   3.764   3.555   2.918
    2V3OU    C3  863   3.786   3.498   2.718
    2V3OU    H2  864   3.866   3.575   2.725
    2V3OU    H3  865   3.790   3.441   2.621
    2V3OU   C25  866   3.957   3.332   2.798
    2V3OU    O7  867   3.994   3.309   2.683
    2V3OU   C26  868   4.031   3.291   2.924
    2V3OU   H22  869   4.061   3.389   2.970
    2V3OU   H23  870   4.120   3.229   2.899
    2V3OU    O8  871   3.959   3.211   3.016
    2V3OU   H24  872   3.929   3.274   3.083
    2V3OU    C1  873   3.649   3.565   2.719
    2V3OU    H1  874   3.633   3.619   2.622
    2V3OU    O3  875   3.665   3.658   2.827
    2V3OU   C19  876   3.623   3.793   2.814
    2V3OU    H9  877   3.522   3.805   2.764
    2V3OU    O4  878   3.716   3.860   2.732
    2V3OU   C20  879   3.851   3.878   2.777
    2V3OU   H10  880   3.902   3.777   2.786
    2V3OU   C24  881   3.612   3.864   2.950
    2V3OU   H16  882   3.548   3.801   3.018
    2V3OU   H17  883   3.570   3.967   2.939
    2V3OU   C23  884   3.753   3.880   3.007
    2V3OU   H15  885   3.794   3.775   3.028
    2V3OU    N1  886   3.739   3.958   3.128
    2V3OU   H19  887   3.813   3.932   3.191
    2V3OU   H20  888   3.655   3.937   3.179
    2V3OU   C21  889   3.851   3.953   2.910
    2V3OU   H11  890   3.955   3.923   2.943
    2V3OU    O5  891   3.839   4.094   2.919
    2V3OU   H18  892   3.784   4.103   2.998
    2V3OU   C22  893   3.917   3.954   2.663
    2V3OU   H12  894   3.868   4.053   2.645
    2V3OU   H13  895   3.908   3.895   2.568
    2V3OU   H14  896   4.027   3.962   2.679
    2V3OU   C11  897   3.164   3.472   2.759
    2V3OU    O1  898   3.139   3.589   2.723
    2V3OU    C9  899   3.302   3.425   2.780
    2V3OU    C7  900   3.407   3.502   2.731
    2V3OU    O9  901   3.389   3.619   2.660
    2V3OU   H25  902   3.293   3.633   2.650
    2V3OU   C17  903   2.829   3.327   2.792
    2V3OU    H7  904   2.729   3.354   2.758
    2V3OU   C18  905   2.853   3.221   2.879
    2V3OU    H8  906   2.781   3.176   2.949
    3SOL     OW  907   2.614   4.967   0.495
    3SOL    HW1  908   2.559   4.908   0.436
    3SOL    HW2  909   2.560   4.992   0.576
    4SOL     OW  910   0.084   6.675   2.287
    4SOL    HW1  911   0.168   6.727   2.303
    4SOL    HW2  912   0.010   6.738   2.262
    5SOL     OW  913   4.485   1.603   2.834
    5SOL    HW1  914   4.477   1.580   2.931
    5SOL    HW2  915   4.397   1.591   2.789
    6SOL     OW  916   4.355   1.031   1.977
    6SOL    HW1  917   4.315   0.956   1.925
    6SOL    HW2  918   4.404   1.092   1.915
    7SOL     OW  919   6.849   2.977   2.525
    7SOL    HW1  920   6.754   2.973   2.495
    7SOL    HW2  921   6.859   2.927   2.611
    8SOL     OW  922   3.415   0.800   0.247
    8SOL    HW1  923   3.409   0.743   0.329
    8SOL    HW2  924   3.404   0.743   0.165
    9SOL     OW  925   5.293   0.562   5.838
    9SOL    HW1  926   5.295   0.661   5.846
    9SOL    HW2  927   5.304   0.521   5.929
   10SOL     OW  928   1.683   4.901   6.379
   10SOL    HW1  929   1.670   4.928   6.474
   10SOL    HW2  930   1.635   4.964   6.319
   11SOL     OW  931   3.053   0.220   5.835
   11SOL    HW1  932   2.995   0.140   5.849
   11SOL    HW2  933   3.064   0.269   5.922
   12SOL     OW  934   3.441   5.858   3.338
   12SOL    HW1  935   3.502   5.917   3.285
   12SOL    HW2  936   3.482   5.841   3.428
   13SOL     OW  937   3.773   6.408   4.646
   13SOL    HW1  938   3.744   6.461   4.725
   13SOL    HW2  939   3.825   6.466   4.583
   14SOL     OW  940   3.619   5.893   5.646
   14SOL    HW1  941   3.575   5.823   5.702
   14SOL    HW2  942   3.631   5.858   5.553
   15SOL     OW  943   1.213   6.036   1.978
   15SOL    HW1  944   1.117   6.064   1.978
   15SOL    HW2  945   1.248   6.034   2.072
   16SOL     OW  946   5.037   2.572   5.816
   16SOL    HW1  947   5.059   2.668   5.802
   16SOL    HW2  948   4.938   2.560   5.811
   17SOL     OW  949   5.461   6.579   6.102
   17SOL    HW1  950   5.438   6.659   6.047
   17SOL    HW2  951   5.560   6.577   6.118
   18SOL     OW  952   3.186   0.944   5.654
   18SOL    HW1  953   3.265   0.954   5.716
   18SOL    HW2  954   3.197   0.860   5.601
   19SOL     OW  955   0.054   1.660   3.018
   19SOL    HW1  956   0.091   1.568   3.008
   19SOL    HW2  957   0.006   1.667   3.106
   20SOL     OW  958   5.024   1.622   3.736
   20SOL    HW1  959   5.011   1.543   3.676
   20SOL    HW2  960   5.094   1.599   3.805
   21SOL     OW  961   3.346   1.482   2.493
   21SOL    HW1  962   3.315   1.452   2.583
   21SOL    HW2  963   3.436   1.444   2.473
   22SOL     OW  964   2.451   6.644   0.189
   22SOL    HW1  965   2.376   6.686   0.241
   22SOL    HW2  966   2.539   6.680   0.222
   23SOL     OW  967   5.501   5.582   3.356
   23SOL    HW1  968   5.574   5.595   3.289
   23SOL    HW2  969   5.455   5.495   3.338
   24SOL     OW  970   4.297   0.429   3.174
   24SOL    HW1  971   4.394   0.412   3.186
   24SOL    HW2  972   4.275   0.521   3.207
   25SOL     OW  973   2.847   0.978   4.919
   25SOL    HW1  974   2.852   1.057   4.858
   25SOL    HW2  975   2.837   1.009   5.013
   26SOL     OW  976   0.687   0.871   0.186
   26SOL    HW1  977   0.616   0.916   0.132
   26SOL    HW2  978   0.685   0.908   0.279
   27SOL     OW  979   1.342   2.654   2.227
   27SOL    HW1  980   1.330   2.751   2.248
   27SOL    HW2  981   1.253   2.611   2.215
   28SOL     OW  982   3.001   1.918   5.769
   28SOL    HW1  983   3.015   2.004   5.818
   28SOL    HW2  984   2.909   1.915   5.731
   29SOL     OW  985   6.061   1.367   1.909
   29SOL    HW1  986   6.034   1.459   1.879
   29SOL    HW2  987   6.152   1.347   1.874
   30SOL     OW  988   4.266   0.809   4.106
   30SOL    HW1  989   4.192   0.757   4.149
   30SOL    HW2  990   4.238   0.904   4.094
   31SOL     OW  991   1.004   2.396   6.434
   31SOL    HW1  992   0.904   2.389   6.434
   31SOL    HW2  993   1.042   2.331   6.368
   32SOL     OW  994   0.499   1.676   2.480
   32SOL    HW1  995   0.524   1.590   2.522
   32SOL    HW2  996   0.582   1.729   2.459
   33SOL     OW  997   1.675   4.443   6.113
   33SOL    HW1  998   1.580   4.432   6.083
   33SOL    HW2  999   1.722   4.508   6.053
   34SOL     OW 1000   2.975   0.366   4.238
   34SOL    HW1 1001   3.041   0.440   4.224
   34SOL    HW2 1002   2.931   0.344   4.151
   35SOL     OW 1003   3.724   4.017   6.843
   35SOL    HW1 1004   3.659   3.942   6.831
   35SOL    HW2 1005   3.816   3.979   6.855
   36SOL     OW 1006   6.117   1.249   4.547
   36SOL    HW1 1007   6.120   1.223   4.451
   36SOL    HW2 1008   6.028   1.288   4.569
   37SOL     OW 1009   1.144   1.960   0.147
   37SOL    HW1 1010   1.122   1.953   0.050
   37SOL    HW2 1011   1.155   1.869   0.186
   38SOL     OW 1012   0.205   5.146   2.036
   38SOL    HW1 1013   0.232   5.082   1.964
   38SOL    HW2 1014   0.127   5.109   2.086
   39SOL     OW 1015   6.792   4.585   6.633
   39SOL    HW1 1016   6.720   4.654   6.643
   39SOL    HW2 1017   6.754   4.494   6.649
   40SOL     OW 1018   5.238   1.963   0.489
   40SOL    HW1 1019   5.285   1.900   0.550
   40SOL    HW2 1020   5.178   1.912   0.428
   41SOL     OW 1021   6.833   5.206   3.012
   41SOL    HW1 1022   6.828   5.298   3.052
   41SOL    HW2 1023   6.846   5.139   3.085
   42SOL     OW 1024   3.023   5.708   4.821
   42SOL    HW1 1025   2.984   5.783   4.874
   42SOL    HW2 1026   2.986   5.621   4.853
   43SOL     OW 1027   5.808   0.018   5.606
   43SOL    HW1 1028   5.880   0.028   5.675
   43SOL    HW2 1029   5.739   0.089   5.620
   44SOL     OW 1030   4.396   1.338   5.997
   44SOL    HW1 1031   4.411   1.403   6.071
   44SOL    HW2 1032   4.479   1.330   5.941
   45SOL     OW 1033   4.130   5.998   2.274
   45SOL    HW1 1034   4.184   5.916   2.255
   45SOL    HW2 1035   4.189   6.079   2.269
   46SOL     OW 1036   0.386   3.047   2.656
   46SOL    HW1 1037   0.474   3.088   2.681
   46SOL    HW2 1038   0.323   3.119   2.626
   47SOL     OW 1039   4.982   3.959   0.987
   47SOL    HW1 1040   5.064   4.000   1.027
   47SOL    HW2 1041   4.961   3.874   1.036
   48SOL     OW 1042   6.835   3.479   5.624
   48SOL    HW1 1043   6.923   3.436   5.601
   48SOL    HW2 1044   6.852   3.559   5.682
   49SOL     OW 1045   4.832   3.879   1.844
   49SOL    HW1 1046   4.859   3.847   1.934
   49SOL    HW2 1047   4.802   3.974   1.850
   50SOL     OW 1048   5.583   1.007   5.086
   50SOL    HW1 1049   5.676   1.044   5.084
   50SOL    HW2 1050   5.564   0.960   5.000
   51SOL     OW 1051   2.168   6.521   2.760
   51SOL    HW1 1052   2.069   6.532   2.754
   51SOL    HW2 1053   2.213   6.595   2.708
   52SOL     OW 1054   6.088   3.287   2.609
   52SOL    HW1 1055   6.107   3.343   2.529
   52SOL    HW2 1056   6.170   3.281   2.666
   53SOL     OW 1057   3.771   6.589   4.139
   53SOL    HW1 1058   3.733   6.608   4.048
   53SOL    HW2 1059   3.830   6.665   4.167
   54SOL     OW 1060   3.757   4.911   1.168
   54SOL    HW1 1061   3.746   4.987   1.232
   54SOL    HW2 1062   3.775   4.827   1.218
   55SOL     OW 1063   2.232   3.133   6.203
   55SOL    HW1 1064   2.285   3.185   6.269
   55SOL    HW2 1065   2.138   3.121   6.236
   56SOL     OW 1066   0.266   0.313   1.040
   56SOL    HW1 1067   0.186   0.367   1.013
   56SOL    HW2 1068   0.344   0.340   0.985
   57SOL     OW 1069   4.726   1.004   1.735
   57SOL    HW1 1070   4.727   0.916   1.689
   57SOL    HW2 1071   4.658   1.064   1.693
   58SOL     OW 1072   6.947   6.366   5.760
   58SOL    HW1 1073   6.984   6.415   5.839
   58SOL    HW2 1074   6.995   6.396   5.677
   59SOL     OW 1075   1.299   2.331   5.290
   59SOL    HW1 1076   1.317   2.355   5.385
   59SOL    HW2 1077   1.203   2.305   5.280
   60SOL     OW 1078   5.584   2.389   4.531
   60SOL    HW1 1079   5.531   2.306   4.516
   60SOL    HW2 1080   5.638   2.379   4.615
   61SOL     OW 1081   6.647   2.194   4.765
   61SOL    HW1 1082   6.659   2.108   4.814
   61SOL    HW2 1083   6.595   2.178   4.681
   62SOL     OW 1084   1.204   1.070   1.477
   62SOL    HW1 1085   1.108   1.091   1.460
   62SOL    HW2 1086   1.240   1.013   1.403
   63SOL     OW 1087   5.293   1.085   3.378
   63SOL    HW1 1088   5.281   1.130   3.290
   63SOL    HW2 1089   5.387   1.095   3.408
   64SOL     OW 1090   0.138   3.827   5.731
   64SOL    HW1 1091   0.203   3.753   5.747
   64SOL    HW2 1092   0.046   3.789   5.726
   65SOL     OW 1093   0.567   5.164   6.620
   65SOL    HW1 1094   0.505   5.129   6.549
   65SOL    HW2 1095   0.591   5.259   6.599
   66SOL     OW 1096   4.382   1.238   5.394
   66SOL    HW1 1097   4.471   1.244   5.349
   66SOL    HW2 1098   4.335   1.326   5.386
   67SOL     OW 1099   5.988   3.729   5.935
   67SOL    HW1 1100   6.087   3.726   5.948
   67SOL    HW2 1101   5.945   3.658   5.990
   68SOL     OW 1102   6.062   0.853   6.608
   68SOL    HW1 1103   5.966   0.829   6.623
   68SOL    HW2 1104   6.120   0.774   6.626
   69SOL     OW 1105   1.006   3.783   6.001
   69SOL    HW1 1106   0.990   3.698   6.051
   69SOL    HW2 1107   0.991   3.861   6.061
   70SOL     OW 1108   5.335   4.263   4.913
   70SOL    HW1 1109   5.319   4.171   4.948
   70SOL    HW2 1110   5.409   4.260   4.845
   71SOL     OW 1111   4.234   1.617   3.373
   71SOL    HW1 1112   4.246   1.592   3.277
   71SOL    HW2 1113   4.281   1.550   3.431
   72SOL     OW 1114   2.072   0.001   4.159
   72SOL    HW1 1115   2.130   0.059   4.216
   72SOL    HW2 1116   1.976   0.010   4.188
   73SOL     OW 1117   3.732   0.719   1.349
   73SOL    HW1 1118   3.808   0.775   1.380
   73SOL    HW2 1119   3.648   0.774   1.353
   74SOL     OW 1120   3.979   6.979   0.195
   74SOL    HW1 1121   3.941   6.948   0.282
   74SOL    HW2 1122   3.909   6.974   0.124
   75SOL     OW 1123   4.688   0.727   0.868
   75SOL    HW1 1124   4.698   0.752   0.772
   75SOL    HW2 1125   4.594   0.698   0.885
   76SOL     OW 1126   2.990   3.405   1.593
   76SOL    HW1 1127   2.965   3.479   1.531
   76SOL    HW2 1128   2.921   3.333   1.590
   77SOL     OW 1129   0.282   0.003   3.436
   77SOL    HW1 1130   0.376   0.025   3.412
   77SOL    HW2 1131   0.240   6.983   3.360
   78SOL     OW 1132   5.885   1.448   0.269
   78SOL    HW1 1133   5.823   1.371   0.286
   78SOL    HW2 1134   5.933   1.471   0.353
   79SOL     OW 1135   2.986   5.727   0.754
   79SOL    HW1 1136   2.988   5.792   0.831
   79SOL    HW2 1137   2.971   5.635   0.789
   80SOL     OW 1138   4.704   1.176   4.651
   80SOL    HW1 1139   4.733   1.270   4.633
   80SOL    HW2 1140   4.765   1.135   4.718
   81SOL     OW 1141   2.151   0.098   2.466
   81SOL    HW1 1142   2.054   0.115   2.447
   81SOL    HW2 1143   2.186   0.031   2.400
   82SOL     OW 1144   5.593   4.806   0.659
   82SOL    HW1 1145   5.569   4.726   0.714
   82SOL    HW2 1146   5.676   4.786   0.606
   83SOL     OW 1147   0.582   0.605   0.246
   83SOL    HW1 1148   0.595   0.690   0.195
   83SOL    HW2 1149   0.520   0.545   0.196
   84SOL     OW 1150   6.472   2.955   3.551
   84SOL    HW1 1151   6.521   2.928   3.634
   84SOL    HW2 1152   6.538   2.988   3.483
   85SOL     OW 1153   1.546   0.935   3.608
   85SOL    HW1 1154   1.491   0.934   3.524
   85SOL    HW2 1155   1.642   0.949   3.585
   86SOL     OW 1156   0.414   1.474   5.829
   86SOL    HW1 1157   0.354   1.491   5.750
   86SOL    HW2 1158   0.401   1.546   5.897
   87SOL     OW 1159   4.677   4.094   0.968
   87SOL    HW1 1160   4.666   4.188   1.000
   87SOL    HW2 1161   4.715   4.038   1.042
   88SOL     OW 1162   3.392   1.696   5.868
   88SOL    HW1 1163   3.345   1.784   5.879
   88SOL    HW2 1164   3.443   1.675   5.951
   89SOL     OW 1165   2.046   2.754   5.730
   89SOL    HW1 1166   2.141   2.754   5.760
   89SOL    HW2 1167   2.007   2.662   5.741
   90SOL     OW 1168   3.911   5.172   2.210
   90SOL    HW1 1169   3.892   5.084   2.255
   90SOL    HW2 1170   3.927   5.156   2.112
   91SOL     OW 1171   5.912   4.215   5.664
   91SOL    HW1 1172   5.860   4.162   5.731
   91SOL    HW2 1173   5.907   4.171   5.575
   92SOL     OW 1174   4.577   4.687   0.963
   92SOL    HW1 1175   4.671   4.673   0.995
   92SOL    HW2 1176   4.531   4.753   1.021
   93SOL     OW 1177   3.103   3.710   0.486
   93SOL    HW1 1178   3.068   3.627   0.442
   93SOL    HW2 1179   3.028   3.773   0.504
   94SOL     OW 1180   1.844   6.213   6.133
   94SOL    HW1 1181   1.862   6.309   6.152
   94SOL    HW2 1182   1.894   6.156   6.199
   95SOL     OW 1183   0.632   0.583   3.120
   95SOL    HW1 1184   0.548   0.597   3.174
   95SOL    HW2 1185   0.668   0.672   3.092
   96SOL     OW 1186   2.936   0.732   4.863
   96SOL    HW1 1187   2.963   0.686   4.948
   96SOL    HW2 1188   2.889   0.817   4.884
   97SOL     OW 1189   2.331   3.481   6.329
   97SOL    HW1 1190   2.254   3.436   6.373
   97SOL    HW2 1191   2.301   3.567   6.288
   98SOL     OW 1192   0.562   3.780   0.977
   98SOL    HW1 1193   0.496   3.844   1.015
   98SOL    HW2 1194   0.586   3.807   0.884
   99SOL     OW 1195   3.992   2.388   1.372
   99SOL    HW1 1196   3.945   2.450   1.309
   99SOL    HW2 1197   3.996   2.429   1.463
  100SOL     OW 1198   0.553   6.814   5.038
  100SOL    HW1 1199   0.498   6.797   4.956
  100SOL    HW2 1200   0.527   6.749   5.109
  101SOL     OW 1201   1.342   5.142   2.700
  101SOL    HW1 1202   1.261   5.105   2.655
  101SOL    HW2 1203   1.357   5.094   2.787
  102SOL     OW 1204   4.049   5.624   1.304
  102SOL    HW1 1205   4.048   5.543   1.364
  102SOL    HW2 1206   4.017   5.598   1.213
  103SOL     OW 1207   2.227   2.295   1.620
  103SOL    HW1 1208   2.267   2.228   1.557
  103SOL    HW2 1209   2.281   2.298   1.704
  104SOL     OW 1210   1.419   5.477   2.345
  104SOL    HW1 1211   1.481   5.489   2.267
  104SOL    HW2 1212   1.468   5.428   2.418
  105SOL     OW 1213   6.675   1.324   6.202
  105SOL    HW1 1214   6.585   1.281   6.211
  105SOL    HW2 1215   6.734   1.292   6.276
  106SOL     OW 1216   3.648   6.332   4.985
  106SOL    HW1 1217   3.736   6.287   4.976
  106SOL    HW2 1218   3.641   6.407   4.919
  107SOL     OW 1219   1.127   1.012   1.016
  107SOL    HW1 1220   1.175   0.985   1.099
  107SOL    HW2 1221   1.179   0.983   0.936
  108SOL     OW 1222   2.632   6.459   5.824
  108SOL    HW1 1223   2.574   6.539   5.827
  108SOL    HW2 1224   2.623   6.407   5.909
  109SOL     OW 1225   0.723   0.976   2.166
  109SOL    HW1 1226   0.699   1.052   2.225
  109SOL    HW2 1227   0.768   0.905   2.219
  110SOL     OW 1228   3.069   5.861   3.919
  110SOL    HW1 1229   3.026   5.796   3.857
  110SOL    HW2 1230   3.153   5.821   3.957
  111SOL     OW 1231   1.151   1.032   4.229
  111SOL    HW1 1232   1.096   0.970   4.286
  111SOL    HW2 1233   1.127   1.018   4.133
  112SOL     OW 1234   3.632   6.551   6.151
  112SOL    HW1 1235   3.534   6.529   6.157
  112SOL    HW2 1236   3.662   6.542   6.056
  113SOL     OW 1237   0.458   5.314   2.718
  113SOL    HW1 1238   0.410   5.393   2.757
  113SOL    HW2 1239   0.545   5.301   2.766
  114SOL     OW 1240   1.611   0.209   2.370
  114SOL    HW1 1241   1.708   0.215   2.345
  114SOL    HW2 1242   1.576   0.118   2.346
  115SOL     OW 1243   4.687   1.534   3.370
  115SOL    HW1 1244   4.748   1.462   3.336
  115SOL    HW2 1245   4.740   1.598   3.426
  116SOL     OW 1246   6.395   5.586   2.134
  116SOL    HW1 1247   6.302   5.577   2.170
  116SOL    HW2 1248   6.457   5.528   2.187
  117SOL     OW 1249   1.689   2.150   0.656
  117SOL    HW1 1250   1.689   2.191   0.565
  117SOL    HW2 1251   1.640   2.209   0.720
  118SOL     OW 1252   2.026   0.906   2.368
  118SOL    HW1 1253   2.015   0.997   2.409
  118SOL    HW2 1254   1.939   0.857   2.373
  119SOL     OW 1255   0.543   0.151   0.134
  119SOL    HW1 1256   0.608   0.075   0.127
  119SOL    HW2 1257   0.572   0.212   0.208
  120SOL     OW 1258   5.744   0.382   6.749
  120SOL    HW1 1259   5.712   0.322   6.676
  120SOL    HW2 1260   5.704   0.353   6.836
  121SOL     OW 1261   1.678   3.313   5.795
  121SOL    HW1 1262   1.753   3.370   5.759
  121SOL    HW2 1263   1.597   3.325   5.738
  122SOL     OW 1264   1.680   3.546   6.441
  122SOL    HW1 1265   1.617   3.523   6.367
  122SOL    HW2 1266   1.650   3.501   6.526
  123SOL     OW 1267   0.928   1.265   2.697
  123SOL    HW1 1268   1.007   1.236   2.644
  123SOL    HW2 1269   0.851   1.205   2.678
  124SOL     OW 1270   3.712   2.558   0.304
  124SOL    HW1 1271   3.676   2.470   0.334
  124SOL    HW2 1272   3.706   2.566   0.205
  125SOL     OW 1273   3.410   1.842   0.578
  125SOL    HW1 1274   3.373   1.885   0.496
  125SOL    HW2 1275   3.510   1.850   0.577
  126SOL     OW 1276   1.840   4.591   0.541
  126SOL    HW1 1277   1.934   4.569   0.566
  126SOL    HW2 1278   1.780   4.570   0.619
  127SOL     OW 1279   0.596   4.902   7.007
  127SOL    HW1 1280   0.599   4.983   6.948
  127SOL    HW2 1281   0.682   4.851   6.998
  128SOL     OW 1282   5.007   2.396   1.397
  128SOL    HW1 1283   5.055   2.318   1.356
  128SOL    HW2 1284   4.957   2.364   1.478
  129SOL     OW 1285   2.742   3.521   6.166
  129SOL    HW1 1286   2.824   3.520   6.108
  129SOL    HW2 1287   2.714   3.426   6.185
  130SOL     OW 1288   1.355   1.866   4.466
  130SOL    HW1 1289   1.268   1.889   4.423
  130SOL    HW2 1290   1.384   1.941   4.525
  131SOL     OW 1291   4.404   0.864   3.457
  131SOL    HW1 1292   4.345   0.900   3.529
  131SOL    HW2 1293   4.498   0.896   3.472
  132SOL     OW 1294   2.857   3.335   2.019
  132SOL    HW1 1295   2.863   3.278   1.937
  132SOL    HW2 1296   2.813   3.282   2.092
  133SOL     OW 1297   5.631   1.072   4.483
  133SOL    HW1 1298   5.726   1.042   4.490
  133SOL    HW2 1299   5.612   1.100   4.389
  134SOL     OW 1300   6.575   0.808   2.464
  134SOL    HW1 1301   6.552   0.796   2.367
  134SOL    HW2 1302   6.568   0.905   2.488
  135SOL     OW 1303   5.422   3.691   3.459
  135SOL    HW1 1304   5.347   3.625   3.457
  135SOL    HW2 1305   5.496   3.657   3.517
  136SOL     OW 1306   2.070   5.259   5.541
  136SOL    HW1 1307   2.025   5.282   5.455
  136SOL    HW2 1308   2.019   5.297   5.617
  137SOL     OW 1309   5.775   1.725   3.291
  137SOL    HW1 1310   5.875   1.717   3.290
  137SOL    HW2 1311   5.743   1.744   3.198
  138SOL     OW 1312   1.264   4.134   2.398
  138SOL    HW1 1313   1.219   4.224   2.400
  138SOL    HW2 1314   1.333   4.130   2.471
  139SOL     OW 1315   1.539   6.813   5.415
  139SOL    HW1 1316   1.587   6.893   5.451
  139SOL    HW2 1317   1.585   6.781   5.332
  140SOL     OW 1318   1.186   6.531   3.683
  140SOL    HW1 1319   1.260   6.556   3.621
  140SOL    HW2 1320   1.208   6.561   3.776
  141SOL     OW 1321   0.452   2.649   5.104
  141SOL    HW1 1322   0.549   2.662   5.123
  141SOL    HW2 1323   0.438   2.646   5.005
  142SOL     OW 1324   1.025   4.052   1.276
  142SOL    HW1 1325   1.099   4.006   1.326
  142SOL    HW2 1326   1.010   4.143   1.316
  143SOL     OW 1327   5.466   4.063   0.606
  143SOL    HW1 1328   5.423   4.065   0.515
  143SOL    HW2 1329   5.422   4.130   0.665
  144SOL     OW 1330   1.450   4.651   6.006
  144SOL    HW1 1331   1.407   4.620   5.921
  144SOL    HW2 1332   1.549   4.639   5.999
  145SOL     OW 1333   0.433   5.697   0.796
  145SOL    HW1 1334   0.525   5.664   0.818
  145SOL    HW2 1335   0.433   5.797   0.793
  146SOL     OW 1336   4.687   0.830   5.814
  146SOL    HW1 1337   4.760   0.885   5.771
  146SOL    HW2 1338   4.727   0.750   5.858
  147SOL     OW 1339   5.430   3.040   6.657
  147SOL    HW1 1340   5.448   3.138   6.656
  147SOL    HW2 1341   5.426   3.007   6.751
  148SOL     OW 1342   6.586   5.449   0.874
  148SOL    HW1 1343   6.570   5.425   0.970
  148SOL    HW2 1344   6.539   5.384   0.814
  149SOL     OW 1345   3.962   2.171   4.006
  149SOL    HW1 1346   4.015   2.187   3.923
  149SOL    HW2 1347   4.007   2.217   4.083
  150SOL     OW 1348   5.868   6.839   0.699
  150SOL    HW1 1349   5.869   6.756   0.755
  150SOL    HW2 1350   5.774   6.861   0.674
  151SOL     OW 1351   3.316   2.147   1.355
  151SOL    HW1 1352   3.320   2.246   1.358
  151SOL    HW2 1353   3.251   2.118   1.284
  152SOL     OW 1354   0.069   0.494   1.897
  152SOL    HW1 1355   0.160   0.454   1.886
  152SOL    HW2 1356   0.076   0.594   1.887
  153SOL     OW 1357   2.773   0.662   3.640
  153SOL    HW1 1358   2.783   0.614   3.553
  153SOL    HW2 1359   2.856   0.650   3.695
  154SOL     OW 1360   1.042   3.437   1.658
  154SOL    HW1 1361   1.035   3.431   1.758
  154SOL    HW2 1362   1.120   3.494   1.633
  155SOL     OW 1363   0.536   1.564   4.629
  155SOL    HW1 1364   0.582   1.628   4.690
  155SOL    HW2 1365   0.438   1.583   4.629
  156SOL     OW 1366   0.065   0.784   1.022
  156SOL    HW1 1367   0.011   0.786   1.106
  156SOL    HW2 1368   0.137   0.853   1.026
  157SOL     OW 1369   5.172   2.963   1.782
  157SOL    HW1 1370   5.106   2.924   1.716
  157SOL    HW2 1371   5.129   3.038   1.831
  158SOL     OW 1372   1.946   3.790   2.262
  158SOL    HW1 1373   1.959   3.794   2.361
  158SOL    HW2 1374   2.035   3.780   2.218
  159SOL     OW 1375   4.801   4.194   3.099
  159SOL    HW1 1376   4.806   4.126   3.025
  159SOL    HW2 1377   4.762   4.279   3.063
  160SOL     OW 1378   5.425   6.017   1.039
  160SOL    HW1 1379   5.421   6.104   0.989
  160SOL    HW2 1380   5.485   6.028   1.118
  161SOL     OW 1381   1.761   6.245   3.547
  161SOL    HW1 1382   1.765   6.269   3.450
  161SOL    HW2 1383   1.814   6.162   3.563
  162SOL     OW 1384   3.360   6.227   0.364
  162SOL    HW1 1385   3.359   6.173   0.447
  162SOL    HW2 1386   3.304   6.309   0.377
  163SOL     OW 1387   6.219   5.592   1.389
  163SOL    HW1 1388   6.286   5.531   1.346
  163SOL    HW2 1389   6.261   5.635   1.470
  164SOL     OW 1390   6.740   4.213   2.306
  164SOL    HW1 1391   6.743   4.248   2.400
  164SOL    HW2 1392   6.821   4.157   2.288
  165SOL     OW 1393   5.294   3.239   1.050
  165SOL    HW1 1394   5.378   3.265   1.099
  165SOL    HW2 1395   5.311   3.156   0.998
  166SOL     OW 1396   1.280   3.864   2.444
  166SOL    HW1 1397   1.250   3.956   2.418
  166SOL    HW2 1398   1.272   3.803   2.365
  167SOL     OW 1399   4.961   3.061   6.985
  167SOL    HW1 1400   4.954   2.996   6.910
  167SOL    HW2 1401   4.902   3.032   0.031
  168SOL     OW 1402   3.236   2.900   1.170
  168SOL    HW1 1403   3.239   2.800   1.162
  168SOL    HW2 1404   3.188   2.938   1.091
  169SOL     OW 1405   5.675   2.165   1.767
  169SOL    HW1 1406   5.634   2.160   1.858
  169SOL    HW2 1407   5.755   2.226   1.770
  170SOL     OW 1408   0.741   0.238   2.974
  170SOL    HW1 1409   0.759   0.145   3.004
  170SOL    HW2 1410   0.691   0.236   2.887
  171SOL     OW 1411   2.398   4.525   6.954
  171SOL    HW1 1412   2.466   4.586   6.996
  171SOL    HW2 1413   2.307   4.562   6.970
  172SOL     OW 1414   6.524   1.016   2.717
  172SOL    HW1 1415   6.533   1.091   2.782
  172SOL    HW2 1416   6.525   0.929   2.766
  173SOL     OW 1417   6.502   1.155   4.100
  173SOL    HW1 1418   6.495   1.253   4.076
  173SOL    HW2 1419   6.582   1.140   4.157
  174SOL     OW 1420   3.924   5.811   3.806
  174SOL    HW1 1421   4.016   5.809   3.846
  174SOL    HW2 1422   3.930   5.822   3.707
  175SOL     OW 1423   3.321   6.761   1.656
  175SOL    HW1 1424   3.276   6.728   1.738
  175SOL    HW2 1425   3.385   6.834   1.680
  176SOL     OW 1426   6.671   4.094   0.662
  176SOL    HW1 1427   6.592   4.104   0.601
  176SOL    HW2 1428   6.696   4.184   0.697
  177SOL     OW 1429   6.019   2.950   2.702
  177SOL    HW1 1430   5.988   2.980   2.792
  177SOL    HW2 1431   5.961   2.990   2.631
  178SOL     OW 1432   2.604   3.715   6.604
  178SOL    HW1 1433   2.560   3.628   6.626
  178SOL    HW2 1434   2.619   3.721   6.506
  179SOL     OW 1435   4.418   1.915   5.591
  179SOL    HW1 1436   4.383   1.979   5.659
  179SOL    HW2 1437   4.353   1.909   5.514
  180SOL     OW 1438   2.096   6.996   0.314
  180SOL    HW1 1439   2.084   7.016   0.217
  180SOL    HW2 1440   2.114   0.052   0.363
  181SOL     OW 1441   3.526   3.077   5.920
  181SOL    HW1 1442   3.426   3.074   5.922
  181SOL    HW2 1443   3.558   3.165   5.957
  182SOL     OW 1444   3.693   1.955   5.312
  182SOL    HW1 1445   3.594   1.943   5.303
  182SOL    HW2 1446   3.724   1.912   5.397
  183SOL     OW 1447   3.710   2.088   3.325
  183SOL    HW1 1448   3.705   2.126   3.417
  183SOL    HW2 1449   3.618   2.081   3.287
  184SOL     OW 1450   0.830   6.701   4.531
  184SOL    HW1 1451   0.902   6.675   4.596
  184SOL    HW2 1452   0.740   6.690   4.575
  185SOL     OW 1453   0.369   1.377   6.405
  185SOL    HW1 1454   0.442   1.352   6.341
  185SOL    HW2 1455   0.353   1.302   6.469
  186SOL     OW 1456   5.809   0.667   4.329
  186SOL    HW1 1457   5.860   0.581   4.340
  186SOL    HW2 1458   5.726   0.650   4.277
  187SOL     OW 1459   4.988   6.982   2.684
  187SOL    HW1 1460   5.078   6.959   2.721
  187SOL    HW2 1461   4.998   7.013   2.589
  188SOL     OW 1462   1.069   3.165   2.674
  188SOL    HW1 1463   0.994   3.230   2.687
  188SOL    HW2 1464   1.052   3.112   2.591
  189SOL     OW 1465   2.524   5.196   1.297
  189SOL    HW1 1466   2.430   5.213   1.323
  189SOL    HW2 1467   2.530   5.109   1.248
  190SOL     OW 1468   5.076   2.618   4.663
  190SOL    HW1 1469   5.140   2.565   4.609
  190SOL    HW2 1470   5.012   2.665   4.602
  191SOL     OW 1471   6.032   0.391   6.814
  191SOL    HW1 1472   5.933   0.379   6.806
  191SOL    HW2 1473   6.053   0.436   6.901
  192SOL     OW 1474   1.003   5.327   1.733
  192SOL    HW1 1475   0.971   5.392   1.665
  192SOL    HW2 1476   1.103   5.334   1.741
  193SOL     OW 1477   4.358   3.773   5.262
  193SOL    HW1 1478   4.305   3.765   5.178
  193SOL    HW2 1479   4.426   3.700   5.266
  194SOL     OW 1480   4.110   1.040   2.975
  194SOL    HW1 1481   4.183   1.069   2.913
  194SOL    HW2 1482   4.021   1.057   2.931
  195SOL     OW 1483   1.361   0.131   4.436
  195SOL    HW1 1484   1.381   0.096   4.527
  195SOL    HW2 1485   1.389   0.227   4.430
  196SOL     OW 1486   3.021   0.692   1.011
  196SOL    HW1 1487   3.010   0.596   1.038
  196SOL    HW2 1488   3.012   0.750   1.092
  197SOL     OW 1489   2.454   6.810   1.512
  197SOL    HW1 1490   2.422   6.905   1.515
  197SOL    HW2 1491   2.550   6.807   1.540
  198SOL     OW 1492   5.074   6.948   1.518
  198SOL    HW1 1493   4.996   6.928   1.458
  198SOL    HW2 1494   5.048   6.931   1.613
  199SOL     OW 1495   0.315   1.585   3.270
  199SOL    HW1 1496   0.231   1.578   3.324
  199SOL    HW2 1497   0.305   1.532   3.186
  200SOL     OW 1498   0.939   4.537   2.031
  200SOL    HW1 1499   0.950   4.529   2.130
  200SOL    HW2 1500   0.950   4.447   1.988
  201SOL     OW 1501   6.477   6.864   5.778
  201SOL    HW1 1502   6.423   6.946   5.797
  201SOL    HW2 1503   6.571   6.890   5.754
  202SOL     OW 1504   4.703   0.801   6.309
  202SOL    HW1 1505   4.719   0.871   6.378
  202SOL    HW2 1506   4.783   0.792   6.250
  203SOL     OW 1507   4.854   2.283   4.174
  203SOL    HW1 1508   4.890   2.356   4.233
  203SOL    HW2 1509   4.785   2.322   4.112
  204SOL     OW 1510   0.683   0.840   6.302
  204SOL    HW1 1511   0.607   0.775   6.300
  204SOL    HW2 1512   0.726   0.843   6.212
  205SOL     OW 1513   0.893   1.448   2.929
  205SOL    HW1 1514   0.901   1.450   3.028
  205SOL    HW2 1515   0.903   1.354   2.896
  206SOL     OW 1516   6.862   4.688   0.943
  206SOL    HW1 1517   6.816   4.603   0.966
  206SOL    HW2 1518   6.960   4.671   0.934
  207SOL     OW 1519   5.721   1.378   3.422
  207SOL    HW1 1520   5.657   1.328   3.481
  207SOL    HW2 1521   5.790   1.423   3.479
  208SOL     OW 1522   5.871   2.602   4.929
  208SOL    HW1 1523   5.864   2.511   4.968
  208SOL    HW2 1524   5.861   2.670   5.002
  209SOL     OW 1525   0.202   4.826   3.557
  209SOL    HW1 1526   0.229   4.754   3.621
  209SOL    HW2 1527   0.152   4.785   3.481
  210SOL     OW 1528   4.126   1.971   0.773
  210SOL    HW1 1529   4.191   1.983   0.848
  210SOL    HW2 1530   4.037   1.942   0.809
  211SOL     OW 1531   2.318   6.130   2.895
  211SOL    HW1 1532   2.370   6.212   2.919
  211SOL    HW2 1533   2.366   6.081   2.823
  212SOL     OW 1534   1.115   4.280   1.709
  212SOL    HW1 1535   1.189   4.343   1.687
  212SOL    HW2 1536   1.150   4.206   1.766
  213SOL     OW 1537   3.098   0.592   0.437
  213SOL    HW1 1538   3.055   0.671   0.481
  213SOL    HW2 1539   3.121   0.615   0.342
  214SOL     OW 1540   4.780   5.126   1.321
  214SOL    HW1 1541   4.766   5.038   1.276
  214SOL    HW2 1542   4.709   5.190   1.294
  215SOL     OW 1543   2.072   3.811   1.013
  215SOL    HW1 1544   2.012   3.858   0.949
  215SOL    HW2 1545   2.019   3.745   1.066
  216SOL     OW 1546   2.321   5.913   3.852
  216SOL    HW1 1547   2.367   5.852   3.787
  216SOL    HW2 1548   2.359   5.898   3.943
  217SOL     OW 1549   1.561   2.456   4.208
  217SOL    HW1 1550   1.572   2.367   4.163
  217SOL    HW2 1551   1.483   2.452   4.271
  218SOL     OW 1552   0.605   4.028   4.418
  218SOL    HW1 1553   0.536   3.969   4.376
  218SOL    HW2 1554   0.688   4.026   4.363
  219SOL     OW 1555   4.596   6.758   6.182
  219SOL    HW1 1556   4.679   6.705   6.166
  219SOL    HW2 1557   4.569   6.750   6.278
  220SOL     OW 1558   3.537   0.194   0.950
  220SOL    HW1 1559   3.451   0.166   0.908
  220SOL    HW2 1560   3.528   0.191   1.050
  221SOL     OW 1561   6.647   3.090   1.487
  221SOL    HW1 1562   6.658   3.137   1.399
  221SOL    HW2 1563   6.587   3.144   1.546
  222SOL     OW 1564   2.511   5.123   5.259
  222SOL    HW1 1565   2.576   5.084   5.194
  222SOL    HW2 1566   2.428   5.152   5.209
  223SOL     OW 1567   5.505   2.793   0.184
  223SOL    HW1 1568   5.428   2.761   0.240
  223SOL    HW2 1569   5.579   2.824   0.244
  224SOL     OW 1570   1.754   1.640   4.783
  224SOL    HW1 1571   1.697   1.698   4.841
  224SOL    HW2 1572   1.803   1.574   4.840
  225SOL     OW 1573   4.731   3.370   6.345
  225SOL    HW1 1574   4.743   3.393   6.249
  225SOL    HW2 1575   4.712   3.453   6.397
  226SOL     OW 1576   1.398   0.890   6.026
  226SOL    HW1 1577   1.447   0.975   6.048
  226SOL    HW2 1578   1.300   0.905   6.034
  227SOL     OW 1579   1.733   3.611   3.016
  227SOL    HW1 1580   1.712   3.608   3.114
  227SOL    HW2 1581   1.806   3.546   2.996
  228SOL     OW 1582   2.946   6.357   3.991
  228SOL    HW1 1583   3.025   6.415   3.974
  228SOL    HW2 1584   2.896   6.390   4.071
  229SOL     OW 1585   5.242   6.097   6.888
  229SOL    HW1 1586   5.285   6.015   6.852
  229SOL    HW2 1587   5.163   6.120   6.832
  230SOL     OW 1588   3.398   4.978   3.531
  230SOL    HW1 1589   3.408   5.074   3.503
  230SOL    HW2 1590   3.466   4.957   3.601
  231SOL     OW 1591   6.365   1.950   6.898
  231SOL    HW1 1592   6.424   1.872   6.919
  231SOL    HW2 1593   6.275   1.935   6.938
  232SOL     OW 1594   1.037   3.279   6.482
  232SOL    HW1 1595   1.084   3.355   6.437
  232SOL    HW2 1596   0.997   3.219   6.412
  233SOL     OW 1597   2.551   2.046   3.743
  233SOL    HW1 1598   2.555   2.131   3.691
  233SOL    HW2 1599   2.630   1.990   3.720
  234SOL     OW 1600   4.954   0.321   5.018
  234SOL    HW1 1601   4.971   0.321   5.116
  234SOL    HW2 1602   4.892   0.246   4.995
  235SOL     OW 1603   3.416   2.858   1.774
  235SOL    HW1 1604   3.404   2.936   1.712
  235SOL    HW2 1605   3.512   2.828   1.772
  236SOL     OW 1606   4.341   3.164   6.690
  236SOL    HW1 1607   4.262   3.105   6.678
  236SOL    HW2 1608   4.398   3.161   6.608
  237SOL     OW 1609   5.705   4.555   2.221
  237SOL    HW1 1610   5.651   4.562   2.137
  237SOL    HW2 1611   5.802   4.544   2.198
  238SOL     OW 1612   5.215   2.238   0.514
  238SOL    HW1 1613   5.186   2.265   0.605
  238SOL    HW2 1614   5.205   2.139   0.503
  239SOL     OW 1615   0.715   5.700   6.247
  239SOL    HW1 1616   0.775   5.720   6.324
  239SOL    HW2 1617   0.706   5.601   6.236
  240SOL     OW 1618   0.545   2.755   3.156
  240SOL    HW1 1619   0.449   2.727   3.143
  240SOL    HW2 1620   0.604   2.691   3.106
  241SOL     OW 1621   2.201   0.471   4.617
  241SOL    HW1 1622   2.153   0.537   4.675
  241SOL    HW2 1623   2.171   0.483   4.522
  242SOL     OW 1624   3.572   3.277   5.144
  242SOL    HW1 1625   3.516   3.200   5.175
  242SOL    HW2 1626   3.659   3.276   5.192
  243SOL     OW 1627   4.068   0.402   5.905
  243SOL    HW1 1628   3.988   0.438   5.858
  243SOL    HW2 1629   4.142   0.388   5.839
  244SOL     OW 1630   6.002   2.480   4.540
  244SOL    HW1 1631   5.904   2.495   4.546
  244SOL    HW2 1632   6.029   2.472   4.444
  245SOL     OW 1633   6.577   3.756   4.180
  245SOL    HW1 1634   6.607   3.667   4.144
  245SOL    HW2 1635   6.590   3.826   4.110
  246SOL     OW 1636   5.097   2.630   3.599
  246SOL    HW1 1637   5.037   2.553   3.621
  246SOL    HW2 1638   5.102   2.692   3.676
  247SOL     OW 1639   2.789   1.827   1.604
  247SOL    HW1 1640   2.695   1.839   1.570
  247SOL    HW2 1641   2.803   1.731   1.629
  248SOL     OW 1642   3.881   1.894   2.677
  248SOL    HW1 1643   3.927   1.980   2.696
  248SOL    HW2 1644   3.848   1.855   2.763
  249SOL     OW 1645   3.922   0.125   5.281
  249SOL    HW1 1646   3.884   0.091   5.195
  249SOL    HW2 1647   4.014   0.086   5.294
  250SOL     OW 1648   5.451   2.650   1.005
  250SOL    HW1 1649   5.500   2.734   0.980
  250SOL    HW2 1650   5.511   2.592   1.060
  251SOL     OW 1651   4.708   4.035   5.688
  251SOL    HW1 1652   4.706   3.963   5.619
  251SOL    HW2 1653   4.802   4.062   5.707
  252SOL     OW 1654   6.466   6.560   6.915
  252SOL    HW1 1655   6.556   6.516   6.918
  252SOL    HW2 1656   6.436   6.566   6.820
  253SOL     OW 1657   2.882   4.829   0.551
  253SOL    HW1 1658   2.807   4.785   0.501
  253SOL    HW2 1659   2.844   4.884   0.625
  254SOL     OW 1660   5.277   2.991   3.507
  254SOL    HW1 1661   5.355   2.993   3.570
  254SOL    HW2 1662   5.271   2.901   3.464
  255SOL     OW 1663   1.871   3.072   4.609
  255SOL    HW1 1664   1.949   3.070   4.546
  255SOL    HW2 1665   1.792   3.028   4.566
  256SOL     OW 1666   6.547   4.314   6.317
  256SOL    HW1 1667   6.490   4.257   6.375
  256SOL    HW2 1668   6.490   4.365   6.253
  257SOL     OW 1669   5.149   6.379   4.049
  257SOL    HW1 1670   5.204   6.442   4.104
  257SOL    HW2 1671   5.210   6.319   3.996
  258SOL     OW 1672   1.497   5.203   4.665
  258SOL    HW1 1673   1.549   5.289   4.659
  258SOL    HW2 1674   1.399   5.223   4.665
  259SOL     OW 1675   1.448   1.625   2.146
  259SOL    HW1 1676   1.455   1.534   2.104
  259SOL    HW2 1677   1.532   1.676   2.128
  260SOL     OW 1678   4.664   1.081   1.012
  260SOL    HW1 1679   4.700   0.999   1.058
  260SOL    HW2 1680   4.707   1.162   1.050
  261SOL     OW 1681   5.997   4.095   0.385
  261SOL    HW1 1682   5.969   4.184   0.421
  261SOL    HW2 1683   6.062   4.108   0.310
  262SOL     OW 1684   6.432   4.124   0.520
  262SOL    HW1 1685   6.424   4.032   0.484
  262SOL    HW2 1686   6.423   4.190   0.446
  263SOL     OW 1687   0.416   1.073   3.456
  263SOL    HW1 1688   0.375   1.000   3.402
  263SOL    HW2 1689   0.405   1.160   3.408
  264SOL     OW 1690   4.885   3.569   6.624
  264SOL    HW1 1691   4.841   3.496   6.676
  264SOL    HW2 1692   4.886   3.653   6.677
  265SOL     OW 1693   4.776   5.224   2.764
  265SOL    HW1 1694   4.848   5.159   2.738
  265SOL    HW2 1695   4.731   5.258   2.682
  266SOL     OW 1696   3.021   2.947   5.680
  266SOL    HW1 1697   3.033   2.938   5.581
  266SOL    HW2 1698   2.933   2.992   5.698
  267SOL     OW 1699   0.360   1.607   6.543
  267SOL    HW1 1700   0.384   1.516   6.509
  267SOL    HW2 1701   0.439   1.667   6.536
  268SOL     OW 1702   3.849   0.666   5.288
  268SOL    HW1 1703   3.924   0.677   5.223
  268SOL    HW2 1704   3.767   0.637   5.240
  269SOL     OW 1705   1.406   3.322   1.562
  269SOL    HW1 1706   1.389   3.233   1.603
  269SOL    HW2 1707   1.337   3.387   1.593
  270SOL     OW 1708   6.851   0.392   0.163
  270SOL    HW1 1709   6.919   0.320   0.147
  270SOL    HW2 1710   6.774   0.380   0.100
  271SOL     OW 1711   1.611   1.894   6.950
  271SOL    HW1 1712   1.587   1.943   0.005
  271SOL    HW2 1713   1.529   1.879   6.896
  272SOL     OW 1714   3.132   4.975   4.260
  272SOL    HW1 1715   3.221   4.947   4.297
  272SOL    HW2 1716   3.143   5.000   4.164
  273SOL     OW 1717   1.759   4.017   5.022
  273SOL    HW1 1718   1.742   3.919   5.036
  273SOL    HW2 1719   1.854   4.031   4.994
  274SOL     OW 1720   4.885   1.476   2.665
  274SOL    HW1 1721   4.968   1.523   2.695
  274SOL    HW2 1722   4.872   1.394   2.720
  275SOL     OW 1723   6.146   4.717   4.908
  275SOL    HW1 1724   6.183   4.672   4.989
  275SOL    HW2 1725   6.221   4.750   4.851
  276SOL     OW 1726   0.080   5.737   2.697
  276SOL    HW1 1727   0.024   5.819   2.685
  276SOL    HW2 1728   0.165   5.748   2.645
  277SOL     OW 1729   1.634   3.759   0.841
  277SOL    HW1 1730   1.667   3.675   0.883
  277SOL    HW2 1731   1.640   3.751   0.741
  278SOL     OW 1732   6.609   5.273   1.784
  278SOL    HW1 1733   6.552   5.194   1.804
  278SOL    HW2 1734   6.623   5.281   1.686
  279SOL     OW 1735   6.140   2.973   4.628
  279SOL    HW1 1736   6.043   2.991   4.643
  279SOL    HW2 1737   6.187   3.060   4.610
  280SOL     OW 1738   3.077   6.604   2.902
  280SOL    HW1 1739   3.024   6.680   2.865
  280SOL    HW2 1740   3.086   6.533   2.832
  281SOL     OW 1741   3.540   4.916   2.197
  281SOL    HW1 1742   3.552   4.932   2.099
  281SOL    HW2 1743   3.629   4.905   2.241
  282SOL     OW 1744   3.482   1.674   5.414
  282SOL    HW1 1745   3.421   1.724   5.352
  282SOL    HW2 1746   3.527   1.600   5.364
  283SOL     OW 1747   6.514   1.258   5.793
  283SOL    HW1 1748   6.501   1.357   5.782
  283SOL    HW2 1749   6.464   1.210   5.721
  284SOL     OW 1750   1.140   4.295   4.623
  284SOL    HW1 1751   1.108   4.275   4.715
  284SOL    HW2 1752   1.209   4.367   4.626
  285SOL     OW 1753   6.014   4.928   5.440
  285SOL    HW1 1754   6.078   4.922   5.516
  285SOL    HW2 1755   5.922   4.943   5.475
  286SOL     OW 1756   3.340   6.029   4.902
  286SOL    HW1 1757   3.421   5.988   4.860
  286SOL    HW2 1758   3.305   5.969   4.974
  287SOL     OW 1759   0.179   4.380   0.015
  287SOL    HW1 1760   0.207   4.305   6.984
  287SOL    HW2 1761   0.129   4.344   0.093
  288SOL     OW 1762   3.574   1.991   5.775
  288SOL    HW1 1763   3.480   1.976   5.804
  288SOL    HW2 1764   3.634   1.991   5.855
  289SOL     OW 1765   0.081   4.664   4.886
  289SOL    HW1 1766   0.163   4.677   4.941
  289SOL    HW2 1767   0.081   4.571   4.848
  290SOL     OW 1768   5.202   1.509   3.903
  290SOL    HW1 1769   5.291   1.545   3.928
  290SOL    HW2 1770   5.182   1.427   3.957
  291SOL     OW 1771   1.885   2.119   4.834
  291SOL    HW1 1772   1.808   2.134   4.772
  291SOL    HW2 1773   1.860   2.049   4.901
  292SOL     OW 1774   1.731   1.878   2.956
  292SOL    HW1 1775   1.803   1.822   2.914
  292SOL    HW2 1776   1.756   1.898   3.050
  293SOL     OW 1777   4.742   4.463   1.653
  293SOL    HW1 1778   4.811   4.404   1.609
  293SOL    HW2 1779   4.737   4.550   1.604
  294SOL     OW 1780   6.454   5.532   6.236
  294SOL    HW1 1781   6.400   5.462   6.282
  294SOL    HW2 1782   6.550   5.503   6.230
  295SOL     OW 1783   2.910   1.856   3.961
  295SOL    HW1 1784   2.812   1.878   3.956
  295SOL    HW2 1785   2.954   1.920   4.025
  296SOL     OW 1786   5.510   1.825   2.293
  296SOL    HW1 1787   5.560   1.749   2.335
  296SOL    HW2 1788   5.491   1.894   2.363
  297SOL     OW 1789   2.380   4.649   3.021
  297SOL    HW1 1790   2.432   4.720   3.070
  297SOL    HW2 1791   2.425   4.561   3.034
  298SOL     OW 1792   3.356   6.083   0.588
  298SOL    HW1 1793   3.435   6.025   0.608
  298SOL    HW2 1794   3.324   6.127   0.672
  299SOL     OW 1795   3.995   3.445   6.643
  299SOL    HW1 1796   4.081   3.439   6.594
  299SOL    HW2 1797   3.946   3.358   6.636
  300SOL     OW 1798   5.767   0.723   1.686
  300SOL    HW1 1799   5.743   0.637   1.731
  300SOL    HW2 1800   5.737   0.800   1.743
  301SOL     OW 1801   5.353   3.010   0.941
  301SOL    HW1 1802   5.436   2.976   0.897
  301SOL    HW2 1803   5.276   2.949   0.919
  302SOL     OW 1804   0.382   1.029   3.766
  302SOL    HW1 1805   0.395   1.041   3.667
  302SOL    HW2 1806   0.321   0.952   3.782
  303SOL     OW 1807   6.312   0.032   1.617
  303SOL    HW1 1808   6.279   6.970   1.595
  303SOL    HW2 1809   6.319   0.042   1.716
  304SOL     OW 1810   2.328   0.051   4.878
  304SOL    HW1 1811   2.335   7.009   4.948
  304SOL    HW2 1812   2.419   0.089   4.860
  305SOL     OW 1813   0.407   3.045   0.454
  305SOL    HW1 1814   0.324   2.993   0.473
  305SOL    HW2 1815   0.456   3.002   0.378
  306SOL     OW 1816   2.270   7.011   3.473
  306SOL    HW1 1817   2.199   0.034   3.426
  306SOL    HW2 1818   2.357   0.030   3.467
  307SOL     OW 1819   4.747   6.279   0.216
  307SOL    HW1 1820   4.750   6.365   0.266
  307SOL    HW2 1821   4.655   6.239   0.224
  308SOL     OW 1822   6.185   3.398   5.128
  308SOL    HW1 1823   6.174   3.305   5.162
  308SOL    HW2 1824   6.104   3.452   5.150
  309SOL     OW 1825   2.935   6.113   6.551
  309SOL    HW1 1826   2.880   6.177   6.498
  309SOL    HW2 1827   3.013   6.161   6.592
  310SOL     OW 1828   6.494   0.041   4.983
  310SOL    HW1 1829   6.543   0.010   5.065
  310SOL    HW2 1830   6.478   6.992   4.923
  311SOL     OW 1831   4.743   4.893   3.076
  311SOL    HW1 1832   4.737   4.990   3.050
  311SOL    HW2 1833   4.839   4.864   3.074
  312SOL     OW 1834   4.268   0.731   5.323
  312SOL    HW1 1835   4.195   0.700   5.261
  312SOL    HW2 1836   4.317   0.807   5.281
  313SOL     OW 1837   3.244   3.851   2.514
  313SOL    HW1 1838   3.284   3.932   2.471
  313SOL    HW2 1839   3.149   3.841   2.485
  314SOL     OW 1840   3.615   5.501   6.887
  314SOL    HW1 1841   3.658   5.503   6.797
  314SOL    HW2 1842   3.631   5.412   6.930
  315SOL     OW 1843   1.440   2.711   3.943
  315SOL    HW1 1844   1.509   2.657   3.992
  315SOL    HW2 1845   1.470   2.725   3.848
  316SOL     OW 1846   2.628   1.852   3.937
  316SOL    HW1 1847   2.557   1.917   3.912
  316SOL    HW2 1848   2.622   1.772   3.877
  317SOL     OW 1849   0.235   1.000   0.991
  317SOL    HW1 1850   0.308   0.980   1.057
  317SOL    HW2 1851   0.275   1.027   0.904
  318SOL     OW 1852   1.131   5.653   6.696
  318SOL    HW1 1853   1.230   5.659   6.685
  318SOL    HW2 1854   1.091   5.745   6.688
  319SOL     OW 1855   6.768   0.582   3.778
  319SOL    HW1 1856   6.730   0.652   3.717
  319SOL    HW2 1857   6.696   0.517   3.803
  320SOL     OW 1858   6.335   2.201   0.494
  320SOL    HW1 1859   6.388   2.117   0.502
  320SOL    HW2 1860   6.238   2.179   0.486
  321SOL     OW 1861   3.863   1.562   0.317
  321SOL    HW1 1862   3.928   1.515   0.257
  321SOL    HW2 1863   3.857   1.513   0.404
  322SOL     OW 1864   4.152   3.333   4.471
  322SOL    HW1 1865   4.151   3.408   4.538
  322SOL    HW2 1866   4.242   3.289   4.472
  323SOL     OW 1867   0.904   3.177   6.263
  323SOL    HW1 1868   0.878   3.264   6.221
  323SOL    HW2 1869   0.939   3.115   6.193
  324SOL     OW 1870   2.311   1.566   5.183
  324SOL    HW1 1871   2.281   1.656   5.153
  324SOL    HW2 1872   2.344   1.514   5.105
  325SOL     OW 1873   1.001   2.959   1.469
  325SOL    HW1 1874   1.012   2.906   1.553
  325SOL    HW2 1875   0.947   3.041   1.489
  326SOL     OW 1876   0.927   5.022   6.917
  326SOL    HW1 1877   1.009   5.070   6.885
  326SOL    HW2 1878   0.896   5.062   7.003
  327SOL     OW 1879   1.424   5.217   3.904
  327SOL    HW1 1880   1.346   5.157   3.889
  327SOL    HW2 1881   1.436   5.232   4.003
  328SOL     OW 1882   0.936   4.903   2.002
  328SOL    HW1 1883   0.891   4.956   1.931
  328SOL    HW2 1884   0.899   4.928   2.091
  329SOL     OW 1885   4.058   3.803   4.795
  329SOL    HW1 1886   4.130   3.862   4.759
  329SOL    HW2 1887   3.990   3.858   4.843
  330SOL     OW 1888   3.322   6.937   1.397
  330SOL    HW1 1889   3.285   6.984   1.316
  330SOL    HW2 1890   3.254   6.940   1.470
  331SOL     OW 1891   3.602   5.122   0.890
  331SOL    HW1 1892   3.555   5.059   0.829
  331SOL    HW2 1893   3.691   5.146   0.852
  332SOL     OW 1894   3.980   1.887   4.940
  332SOL    HW1 1895   3.981   1.813   4.873
  332SOL    HW2 1896   3.937   1.854   5.024
  333SOL     OW 1897   3.536   0.183   5.929
  333SOL    HW1 1898   3.625   0.165   5.972
  333SOL    HW2 1899   3.476   0.229   5.994
  334SOL     OW 1900   2.475   0.447   1.486
  334SOL    HW1 1901   2.416   0.521   1.454
  334SOL    HW2 1902   2.562   0.485   1.517
  335SOL     OW 1903   4.141   6.873   5.089
  335SOL    HW1 1904   4.161   6.785   5.048
  335SOL    HW2 1905   4.108   6.936   5.019
  336SOL     OW 1906   1.998   0.606   3.903
  336SOL    HW1 1907   1.904   0.639   3.911
  336SOL    HW2 1908   2.032   0.622   3.811
  337SOL     OW 1909   0.456   2.829   7.028
  337SOL    HW1 1910   0.513   2.872   0.068
  337SOL    HW2 1911   0.366   2.809   0.037
  338SOL     OW 1912   2.789   2.367   1.539
  338SOL    HW1 1913   2.876   2.332   1.503
  338SOL    HW2 1914   2.808   2.428   1.616
  339SOL     OW 1915   3.159   6.920   3.481
  339SOL    HW1 1916   3.103   6.863   3.541
  339SOL    HW2 1917   3.255   6.897   3.493
  340SOL     OW 1918   4.818   4.477   5.556
  340SOL    HW1 1919   4.781   4.547   5.617
  340SOL    HW2 1920   4.892   4.517   5.501
  341SOL     OW 1921   6.697   1.351   4.831
  341SOL    HW1 1922   6.775   1.372   4.890
  341SOL    HW2 1923   6.716   1.267   4.780
  342SOL     OW 1924   6.058   4.125   6.916
  342SOL    HW1 1925   6.060   4.044   6.857
  342SOL    HW2 1926   6.004   4.106   6.997
  343SOL     OW 1927   1.798   5.150   0.408
  343SOL    HW1 1928   1.780   5.082   0.479
  343SOL    HW2 1929   1.721   5.214   0.402
  344SOL     OW 1930   0.892   4.928   2.464
  344SOL    HW1 1931   0.827   4.870   2.513
  344SOL    HW2 1932   0.851   4.960   2.379
  345SOL     OW 1933   4.808   1.705   3.576
  345SOL    HW1 1934   4.760   1.792   3.569
  345SOL    HW2 1935   4.891   1.717   3.629
  346SOL     OW 1936   1.977   1.115   2.566
  346SOL    HW1 1937   1.888   1.101   2.610
  346SOL    HW2 1938   2.049   1.120   2.635
  347SOL     OW 1939   3.362   5.534   6.193
  347SOL    HW1 1940   3.444   5.485   6.164
  347SOL    HW2 1941   3.345   5.517   6.290
  348SOL     OW 1942   5.715   4.038   1.667
  348SOL    HW1 1943   5.633   3.997   1.627
  348SOL    HW2 1944   5.791   3.974   1.660
  349SOL     OW 1945   6.463   4.729   0.455
  349SOL    HW1 1946   6.554   4.689   0.443
  349SOL    HW2 1947   6.394   4.662   0.428
  350SOL     OW 1948   3.797   3.401   1.002
  350SOL    HW1 1949   3.705   3.431   0.979
  350SOL    HW2 1950   3.793   3.314   1.050
  351SOL     OW 1951   1.888   2.654   0.248
  351SOL    HW1 1952   1.888   2.632   0.346
  351SOL    HW2 1953   1.834   2.737   0.233
  352SOL     OW 1954   3.015   1.470   4.750
  352SOL    HW1 1955   3.066   1.533   4.808
  352SOL    HW2 1956   2.923   1.457   4.786
  353SOL     OW 1957   2.759   6.103   0.788
  353SOL    HW1 1958   2.764   6.022   0.729
  353SOL    HW2 1959   2.793   6.079   0.879
  354SOL     OW 1960   3.247   2.646   0.554
  354SOL    HW1 1961   3.301   2.589   0.616
  354SOL    HW2 1962   3.219   2.730   0.602
  355SOL     OW 1963   0.500   3.551   2.829
  355SOL    HW1 1964   0.561   3.596   2.895
  355SOL    HW2 1965   0.444   3.620   2.785
  356SOL     OW 1966   3.434   6.896   5.188
  356SOL    HW1 1967   3.464   6.801   5.178
  356SOL    HW2 1968   3.506   6.949   5.232
  357SOL     OW 1969   6.591   0.104   5.341
  357SOL    HW1 1970   6.561   0.032   5.404
  357SOL    HW2 1971   6.657   0.065   5.275
  358SOL     OW 1972   4.793   0.127   1.713
  358SOL    HW1 1973   4.784   0.175   1.626
  358SOL    HW2 1974   4.851   0.181   1.775
  359SOL     OW 1975   1.734   2.218   2.124
  359SOL    HW1 1976   1.767   2.200   2.217
  359SOL    HW2 1977   1.672   2.144   2.095
  360SOL     OW 1978   0.978   5.765   6.423
  360SOL    HW1 1979   1.009   5.856   6.451
  360SOL    HW2 1980   1.031   5.734   6.344
  361SOL     OW 1981   5.792   5.913   3.236
  361SOL    HW1 1982   5.725   5.985   3.217
  361SOL    HW2 1983   5.879   5.937   3.193
  362SOL     OW 1984   3.904   3.731   1.471
  362SOL    HW1 1985   3.859   3.800   1.414
  362SOL    HW2 1986   3.884   3.748   1.567
  363SOL     OW 1987   5.307   4.804   4.123
  363SOL    HW1 1988   5.311   4.851   4.035
  363SOL    HW2 1989   5.364   4.851   4.189
  364SOL     OW 1990   6.249   5.392   5.975
  364SOL    HW1 1991   6.301   5.469   6.012
  364SOL    HW2 1992   6.310   5.315   5.961
  365SOL     OW 1993   5.567   5.794   2.252
  365SOL    HW1 1994   5.596   5.743   2.333
  365SOL    HW2 1995   5.648   5.814   2.196
  366SOL     OW 1996   6.237   0.639   6.552
  366SOL    HW1 1997   6.269   0.554   6.594
  366SOL    HW2 1998   6.154   0.620   6.499
  367SOL     OW 1999   4.869   3.062   1.078
  367SOL    HW1 2000   4.957   3.051   1.031
  367SOL    HW2 2001   4.802   3.099   1.014
  368SOL     OW 2002   0.146   3.702   5.186
  368SOL    HW1 2003   0.239   3.674   5.164
  368SOL    HW2 2004   0.114   3.768   5.118
  369SOL     OW 2005   6.250   5.244   1.013
  369SOL    HW1 2006   6.268   5.161   1.064
  369SOL    HW2 2007   6.249   5.223   0.915
  370SOL     OW 2008   2.585   1.719   5.975
  370SOL    HW1 2009   2.654   1.647   5.971
  370SOL    HW2 2010   2.540   1.728   5.886
  371SOL     OW 2011   2.496   3.801   6.938
  371SOL    HW1 2012   2.553   3.883   6.936
  371SOL    HW2 2013   2.546   3.725   6.896
  372SOL     OW 2014   0.732   6.710   6.047
  372SOL    HW1 2015   0.816   6.705   6.101
  372SOL    HW2 2016   0.668   6.639   6.078
  373SOL     OW 2017   6.192   6.156   4.801
  373SOL    HW1 2018   6.146   6.131   4.715
  373SOL    HW2 2019   6.124   6.169   4.873
  374SOL     OW 2020   2.977   1.864   2.963
  374SOL    HW1 2021   3.017   1.889   2.875
  374SOL    HW2 2022   3.042   1.886   3.036
  375SOL     OW 2023   0.876   4.930   3.912
  375SOL    HW1 2024   0.892   4.986   3.993
  375SOL    HW2 2025   0.792   4.877   3.924
  376SOL     OW 2026   2.052   1.494   4.604
  376SOL    HW1 2027   2.029   1.406   4.560
  376SOL    HW2 2028   1.990   1.510   4.680
  377SOL     OW 2029   0.911   2.215   1.708
  377SOL    HW1 2030   0.947   2.288   1.650
  377SOL    HW2 2031   0.825   2.245   1.749
  378SOL     OW 2032   2.930   2.651   5.647
  378SOL    HW1 2033   2.994   2.727   5.648
  378SOL    HW2 2034   2.836   2.686   5.652
  379SOL     OW 2035   5.812   4.428   0.587
  379SOL    HW1 2036   5.808   4.477   0.500
  379SOL    HW2 2037   5.896   4.454   0.635
  380SOL     OW 2038   3.021   1.202   1.279
  380SOL    HW1 2039   2.970   1.287   1.271
  380SOL    HW2 2040   3.004   1.161   1.368
  381SOL     OW 2041   1.448   4.770   2.874
  381SOL    HW1 2042   1.436   4.689   2.930
  381SOL    HW2 2043   1.394   4.760   2.790
  382SOL     OW 2044   5.370   6.347   5.758
  382SOL    HW1 2045   5.353   6.297   5.673
  382SOL    HW2 2046   5.291   6.338   5.819
  383SOL     OW 2047   4.866   3.131   5.537
  383SOL    HW1 2048   4.777   3.099   5.507
  383SOL    HW2 2049   4.930   3.130   5.460
  384SOL     OW 2050   6.084   5.556   4.427
  384SOL    HW1 2051   6.093   5.565   4.526
  384SOL    HW2 2052   6.074   5.647   4.386
  385SOL     OW 2053   4.404   6.250   5.226
  385SOL    HW1 2054   4.352   6.299   5.296
  385SOL    HW2 2055   4.349   6.173   5.193
  386SOL     OW 2056   2.655   6.089   5.425
  386SOL    HW1 2057   2.721   6.155   5.390
  386SOL    HW2 2058   2.628   6.115   5.518
  387SOL     OW 2059   0.840   6.679   3.447
  387SOL    HW1 2060   0.880   6.615   3.513
  387SOL    HW2 2061   0.908   6.702   3.378
  388SOL     OW 2062   1.341   1.808   3.739
  388SOL    HW1 2063   1.440   1.799   3.753
  388SOL    HW2 2064   1.309   1.892   3.782
  389SOL     OW 2065   4.312   4.175   1.442
  389SOL    HW1 2066   4.399   4.208   1.479
  389SOL    HW2 2067   4.330   4.101   1.377
  390SOL     OW 2068   3.573   1.010   0.192
  390SOL    HW1 2069   3.524   0.923   0.206
  390SOL    HW2 2070   3.527   1.063   0.121
  391SOL     OW 2071   2.027   4.111   5.590
  391SOL    HW1 2072   1.986   4.193   5.549
  391SOL    HW2 2073   1.965   4.075   5.660
  392SOL     OW 2074   1.792   4.170   1.330
  392SOL    HW1 2075   1.825   4.241   1.392
  392SOL    HW2 2076   1.721   4.208   1.271
  393SOL     OW 2077   0.938   4.740   6.922
  393SOL    HW1 2078   0.893   4.706   6.839
  393SOL    HW2 2079   0.935   4.840   6.923
  394SOL     OW 2080   0.165   2.750   6.920
  394SOL    HW1 2081   0.154   2.772   7.017
  394SOL    HW2 2082   0.161   2.650   6.908
  395SOL     OW 2083   4.756   4.555   3.326
  395SOL    HW1 2084   4.699   4.494   3.382
  395SOL    HW2 2085   4.697   4.615   3.272
  396SOL     OW 2086   2.975   3.420   2.256
  396SOL    HW1 2087   3.005   3.345   2.314
  396SOL    HW2 2088   2.953   3.385   2.165
  397SOL     OW 2089   5.506   2.374   6.160
  397SOL    HW1 2090   5.480   2.294   6.106
  397SOL    HW2 2091   5.444   2.450   6.140
  398SOL     OW 2092   1.440   0.373   3.313
  398SOL    HW1 2093   1.470   0.465   3.288
  398SOL    HW2 2094   1.340   0.369   3.312
  399SOL     OW 2095   5.608   6.268   3.914
  399SOL    HW1 2096   5.609   6.367   3.928
  399SOL    HW2 2097   5.701   6.233   3.917
  400SOL     OW 2098   6.189   6.467   5.705
  400SOL    HW1 2099   6.207   6.556   5.749
  400SOL    HW2 2100   6.221   6.394   5.765
  401SOL     OW 2101   4.874   0.329   5.983
  401SOL    HW1 2102   4.921   0.244   5.957
  401SOL    HW2 2103   4.909   0.360   6.072
  402SOL     OW 2104   6.872   1.137   3.369
  402SOL    HW1 2105   6.889   1.056   3.425
  402SOL    HW2 2106   6.833   1.109   3.281
  403SOL     OW 2107   3.813   0.893   5.094
  403SOL    HW1 2108   3.796   0.812   5.037
  403SOL    HW2 2109   3.728   0.921   5.139
  404SOL     OW 2110   1.710   5.032   4.594
  404SOL    HW1 2111   1.613   5.056   4.596
  404SOL    HW2 2112   1.724   4.946   4.642
  405SOL     OW 2113   2.128   3.275   3.041
  405SOL    HW1 2114   2.144   3.228   3.128
  405SOL    HW2 2115   2.210   3.323   3.013
  406SOL     OW 2116   0.159   4.198   5.241
  406SOL    HW1 2117   0.166   4.174   5.338
  406SOL    HW2 2118   0.166   4.297   5.231
  407SOL     OW 2119   1.614   2.207   5.003
  407SOL    HW1 2120   1.601   2.173   4.910
  407SOL    HW2 2121   1.559   2.152   5.067
  408SOL     OW 2122   3.448   2.146   3.217
  408SOL    HW1 2123   3.490   2.171   3.130
  408SOL    HW2 2124   3.349   2.163   3.212
  409SOL     OW 2125   6.661   3.251   1.236
  409SOL    HW1 2126   6.610   3.255   1.150
  409SOL    HW2 2127   6.744   3.196   1.223
  410SOL     OW 2128   0.910   1.667   1.264
  410SOL    HW1 2129   0.868   1.710   1.344
  410SOL    HW2 2130   0.867   1.704   1.181
  411SOL     OW 2131   6.629   0.668   1.594
  411SOL    HW1 2132   6.551   0.720   1.628
  411SOL    HW2 2133   6.635   0.678   1.495
  412SOL     OW 2134   3.566   4.938   2.943
  412SOL    HW1 2135   3.480   4.908   2.982
  412SOL    HW2 2136   3.641   4.914   3.005
  413SOL     OW 2137   5.225   4.152   1.534
  413SOL    HW1 2138   5.191   4.131   1.442
  413SOL    HW2 2139   5.318   4.187   1.528
  414SOL     OW 2140   3.135   6.757   3.923
  414SOL    HW1 2141   3.129   6.660   3.947
  414SOL    HW2 2142   3.088   6.773   3.836
  415SOL     OW 2143   0.762   0.072   6.920
  415SOL    HW1 2144   0.740   0.029   7.007
  415SOL    HW2 2145   0.862   0.082   6.911
  416SOL     OW 2146   4.727   5.373   5.279
  416SOL    HW1 2147   4.692   5.466   5.291
  416SOL    HW2 2148   4.807   5.375   5.220
  417SOL     OW 2149   2.539   0.325   5.826
  417SOL    HW1 2150   2.609   0.301   5.893
  417SOL    HW2 2151   2.540   0.258   5.752
  418SOL     OW 2152   2.850   0.112   5.996
  418SOL    HW1 2153   2.766   0.130   6.046
  418SOL    HW2 2154   2.922   0.085   6.060
  419SOL     OW 2155   0.894   0.000   3.092
  419SOL    HW1 2156   0.986   7.017   3.054
  419SOL    HW2 2157   0.829   6.975   3.039
  420SOL     OW 2158   6.012   1.392   6.677
  420SOL    HW1 2159   5.984   1.365   6.585
  420SOL    HW2 2160   5.948   1.354   6.744
  421SOL     OW 2161   5.839   3.626   4.698
  421SOL    HW1 2162   5.749   3.663   4.724
  421SOL    HW2 2163   5.903   3.638   4.774
  422SOL     OW 2164   4.679   3.177   0.324
  422SOL    HW1 2165   4.595   3.184   0.271
  422SOL    HW2 2166   4.704   3.267   0.359
  423SOL     OW 2167   2.071   1.636   0.128
  423SOL    HW1 2168   2.001   1.651   0.198
  423SOL    HW2 2169   2.026   1.619   0.040
  424SOL     OW 2170   1.660   4.718   2.511
  424SOL    HW1 2171   1.715   4.769   2.577
  424SOL    HW2 2172   1.600   4.654   2.559
  425SOL     OW 2173   5.088   1.796   4.078
  425SOL    HW1 2174   4.989   1.782   4.081
  425SOL    HW2 2175   5.114   1.830   3.988
  426SOL     OW 2176   2.529   2.533   4.481
  426SOL    HW1 2177   2.443   2.501   4.441
  426SOL    HW2 2178   2.510   2.606   4.547
  427SOL     OW 2179   6.125   7.026   3.737
  427SOL    HW1 2180   6.198   6.966   3.706
  427SOL    HW2 2181   6.124   0.080   3.681
  428SOL     OW 2182   3.878   0.803   2.922
  428SOL    HW1 2183   3.848   0.770   3.011
  428SOL    HW2 2184   3.866   0.902   2.916
  429SOL     OW 2185   0.652   4.982   3.731
  429SOL    HW1 2186   0.568   5.029   3.760
  429SOL    HW2 2187   0.731   5.042   3.749
  430SOL     OW 2188   0.999   6.874   4.423
  430SOL    HW1 2189   0.917   6.819   4.437
  430SOL    HW2 2190   1.006   6.944   4.494
  431SOL     OW 2191   2.934   1.642   0.747
  431SOL    HW1 2192   3.003   1.714   0.748
  431SOL    HW2 2193   2.959   1.572   0.814
  432SOL     OW 2194   5.975   2.052   0.938
  432SOL    HW1 2195   5.984   2.150   0.918
  432SOL    HW2 2196   5.887   2.034   0.980
  433SOL     OW 2197   2.379   6.340   6.060
  433SOL    HW1 2198   2.360   6.406   5.987
  433SOL    HW2 2199   2.303   6.339   6.124
  434SOL     OW 2200   4.263   5.625   3.064
  434SOL    HW1 2201   4.169   5.645   3.036
  434SOL    HW2 2202   4.325   5.690   3.022
  435SOL     OW 2203   3.642   2.311   5.345
  435SOL    HW1 2204   3.651   2.244   5.419
  435SOL    HW2 2205   3.727   2.314   5.293
  436SOL     OW 2206   3.349   5.622   2.261
  436SOL    HW1 2207   3.289   5.674   2.322
  436SOL    HW2 2208   3.406   5.685   2.208
  437SOL     OW 2209   0.680   1.425   5.782
  437SOL    HW1 2210   0.587   1.390   5.776
  437SOL    HW2 2211   0.684   1.517   5.744
  438SOL     OW 2212   1.152   3.762   3.825
  438SOL    HW1 2213   1.229   3.826   3.830
  438SOL    HW2 2214   1.124   3.750   3.730
  439SOL     OW 2215   5.565   6.262   2.152
  439SOL    HW1 2216   5.515   6.176   2.163
  439SOL    HW2 2217   5.516   6.322   2.090
  440SOL     OW 2218   3.290   1.449   6.206
  440SOL    HW1 2219   3.364   1.464   6.271
  440SOL    HW2 2220   3.232   1.531   6.201
  441SOL     OW 2221   6.275   3.883   3.862
  441SOL    HW1 2222   6.287   3.788   3.837
  441SOL    HW2 2223   6.188   3.917   3.824
  442SOL     OW 2224   4.724   5.542   5.566
  442SOL    HW1 2225   4.771   5.626   5.595
  442SOL    HW2 2226   4.665   5.562   5.488
  443SOL     OW 2227   5.818   3.826   4.219
  443SOL    HW1 2228   5.757   3.768   4.273
  443SOL    HW2 2229   5.913   3.798   4.236
  444SOL     OW 2230   4.350   0.505   6.249
  444SOL    HW1 2231   4.426   0.448   6.218
  444SOL    HW2 2232   4.375   0.552   6.334
  445SOL     OW 2233   1.983   6.050   2.575
  445SOL    HW1 2234   2.043   6.129   2.565
  445SOL    HW2 2235   1.994   6.011   2.667
  446SOL     OW 2236   4.128   6.009   2.706
  446SOL    HW1 2237   4.038   6.047   2.724
  446SOL    HW2 2238   4.119   5.920   2.662
  447SOL     OW 2239   6.246   3.245   4.879
  447SOL    HW1 2240   6.196   3.301   4.945
  447SOL    HW2 2241   6.334   3.218   4.918
  448SOL     OW 2242   2.801   0.690   2.833
  448SOL    HW1 2243   2.848   0.724   2.914
  448SOL    HW2 2244   2.752   0.606   2.856
  449SOL     OW 2245   2.584   1.536   4.188
  449SOL    HW1 2246   2.583   1.445   4.230
  449SOL    HW2 2247   2.503   1.547   4.131
  450SOL     OW 2248   1.810   4.814   3.790
  450SOL    HW1 2249   1.733   4.856   3.838
  450SOL    HW2 2250   1.896   4.856   3.821
  451SOL     OW 2251   1.893   2.416   4.347
  451SOL    HW1 2252   1.952   2.442   4.271
  451SOL    HW2 2253   1.910   2.320   4.371
  452SOL     OW 2254   4.579   6.762   1.928
  452SOL    HW1 2255   4.647   6.690   1.919
  452SOL    HW2 2256   4.497   6.737   1.877
  453SOL     OW 2257   3.367   6.717   6.236
  453SOL    HW1 2258   3.440   6.684   6.295
  453SOL    HW2 2259   3.389   6.809   6.204
  454SOL     OW 2260   6.743   3.931   0.173
  454SOL    HW1 2261   6.732   4.014   0.227
  454SOL    HW2 2262   6.725   3.952   0.077
  455SOL     OW 2263   6.234   2.992   5.036
  455SOL    HW1 2264   6.145   2.946   5.036
  455SOL    HW2 2265   6.247   3.038   5.124
  456SOL     OW 2266   1.497   0.810   3.992
  456SOL    HW1 2267   1.579   0.757   4.014
  456SOL    HW2 2268   1.457   0.774   3.908
  457SOL     OW 2269   1.957   4.242   4.168
  457SOL    HW1 2270   1.897   4.169   4.200
  457SOL    HW2 2271   1.931   4.271   4.076
  458SOL     OW 2272   3.542   0.763   2.873
  458SOL    HW1 2273   3.639   0.748   2.895
  458SOL    HW2 2274   3.485   0.722   2.945
  459SOL     OW 2275   1.753   0.317   5.397
  459SOL    HW1 2276   1.851   0.333   5.409
  459SOL    HW2 2277   1.724   0.356   5.309
  460SOL     OW 2278   1.395   0.529   5.090
  460SOL    HW1 2279   1.396   0.563   5.184
  460SOL    HW2 2280   1.333   0.451   5.082
  461SOL     OW 2281   6.498   5.097   6.126
  461SOL    HW1 2282   6.464   5.134   6.039
  461SOL    HW2 2283   6.540   5.008   6.110
  462SOL     OW 2284   3.917   3.760   5.362
  462SOL    HW1 2285   3.880   3.845   5.400
  462SOL    HW2 2286   3.931   3.694   5.435
  463SOL     OW 2287   0.331   0.412   3.621
  463SOL    HW1 2288   0.338   0.511   3.632
  463SOL    HW2 2289   0.249   0.390   3.569
  464SOL     OW 2290   2.765   0.581   5.868
  464SOL    HW1 2291   2.769   0.557   5.964
  464SOL    HW2 2292   2.800   0.505   5.812
  465SOL     OW 2293   0.550   2.459   0.021
  465SOL    HW1 2294   0.596   2.548   0.022
  465SOL    HW2 2295   0.520   2.438   6.957
  466SOL     OW 2296   2.616   6.579   4.168
  466SOL    HW1 2297   2.519   6.560   4.155
  466SOL    HW2 2298   2.667   6.493   4.173
  467SOL     OW 2299   1.600   1.669   2.579
  467SOL    HW1 2300   1.526   1.690   2.515
  467SOL    HW2 2301   1.588   1.576   2.615
  468SOL     OW 2302   4.117   5.617   5.792
  468SOL    HW1 2303   4.145   5.628   5.888
  468SOL    HW2 2304   4.106   5.707   5.751
  469SOL     OW 2305   3.137   4.257   5.856
  469SOL    HW1 2306   3.090   4.275   5.769
  469SOL    HW2 2307   3.206   4.186   5.842
  470SOL     OW 2308   4.061   5.967   1.901
  470SOL    HW1 2309   4.152   5.995   1.932
  470SOL    HW2 2310   3.995   5.977   1.976
  471SOL     OW 2311   2.793   2.204   4.162
  471SOL    HW1 2312   2.767   2.290   4.205
  471SOL    HW2 2313   2.712   2.160   4.123
  472SOL     OW 2314   5.469   4.762   6.683
  472SOL    HW1 2315   5.542   4.776   6.750
  472SOL    HW2 2316   5.395   4.827   6.700
  473SOL     OW 2317   0.725   2.278   2.144
  473SOL    HW1 2318   0.670   2.359   2.120
  473SOL    HW2 2319   0.688   2.198   2.097
  474SOL     OW 2320   6.104   5.408   5.594
  474SOL    HW1 2321   6.202   5.411   5.578
  474SOL    HW2 2322   6.085   5.358   5.678
  475SOL     OW 2323   6.062   3.321   6.877
  475SOL    HW1 2324   6.024   3.413   6.876
  475SOL    HW2 2325   6.027   3.272   6.957
  476SOL     OW 2326   6.863   3.551   1.901
  476SOL    HW1 2327   6.901   3.594   1.819
  476SOL    HW2 2328   6.937   3.513   1.956
  477SOL     OW 2329   2.426   5.804   3.623
  477SOL    HW1 2330   2.385   5.819   3.533
  477SOL    HW2 2331   2.513   5.757   3.612
  478SOL     OW 2332   3.910   6.167   3.452
  478SOL    HW1 2333   3.956   6.194   3.537
  478SOL    HW2 2334   3.978   6.156   3.380
  479SOL     OW 2335   4.052   3.116   5.211
  479SOL    HW1 2336   4.048   3.156   5.120
  479SOL    HW2 2337   3.964   3.076   5.234
  480SOL     OW 2338   2.869   0.118   2.002
  480SOL    HW1 2339   2.825   0.088   1.917
  480SOL    HW2 2340   2.870   0.217   2.007
  481SOL     OW 2341   0.584   6.837   1.776
  481SOL    HW1 2342   0.679   6.811   1.761
  481SOL    HW2 2343   0.576   6.936   1.778
  482SOL     OW 2344   4.440   4.895   3.153
  482SOL    HW1 2345   4.384   4.934   3.080
  482SOL    HW2 2346   4.526   4.947   3.160
  483SOL     OW 2347   6.680   2.080   2.224
  483SOL    HW1 2348   6.703   2.165   2.270
  483SOL    HW2 2349   6.760   2.045   2.176
  484SOL     OW 2350   1.826   4.411   4.882
  484SOL    HW1 2351   1.817   4.510   4.896
  484SOL    HW2 2352   1.792   4.363   4.963
  485SOL     OW 2353   5.008   4.383   2.828
  485SOL    HW1 2354   4.932   4.330   2.866
  485SOL    HW2 2355   5.083   4.386   2.893
  486SOL     OW 2356   6.270   1.437   6.651
  486SOL    HW1 2357   6.278   1.496   6.571
  486SOL    HW2 2358   6.175   1.406   6.660
  487SOL     OW 2359   0.599   0.714   2.754
  487SOL    HW1 2360   0.560   0.628   2.720
  487SOL    HW2 2361   0.609   0.709   2.853
  488SOL     OW 2362   1.420   6.789   2.603
  488SOL    HW1 2363   1.462   6.876   2.631
  488SOL    HW2 2364   1.486   6.735   2.551
  489SOL     OW 2365   5.621   5.642   5.210
  489SOL    HW1 2366   5.686   5.698   5.158
  489SOL    HW2 2367   5.579   5.698   5.282
  490SOL     OW 2368   1.244   6.132   4.278
  490SOL    HW1 2369   1.201   6.175   4.198
  490SOL    HW2 2370   1.315   6.192   4.313
  491SOL     OW 2371   1.194   3.601   1.304
  491SOL    HW1 2372   1.140   3.684   1.317
  491SOL    HW2 2373   1.134   3.521   1.299
  492SOL     OW 2374   1.373   0.853   5.443
  492SOL    HW1 2375   1.423   0.934   5.412
  492SOL    HW2 2376   1.311   0.879   5.517
  493SOL     OW 2377   2.400   6.851   5.550
  493SOL    HW1 2378   2.485   6.806   5.576
  493SOL    HW2 2379   2.419   6.946   5.525
  494SOL     OW 2380   1.582   1.447   6.286
  494SOL    HW1 2381   1.646   1.393   6.341
  494SOL    HW2 2382   1.621   1.463   6.195
  495SOL     OW 2383   3.437   6.170   5.124
  495SOL    HW1 2384   3.384   6.134   5.047
  495SOL    HW2 2385   3.515   6.222   5.089
  496SOL     OW 2386   6.246   1.600   2.029
  496SOL    HW1 2387   6.310   1.525   2.017
  496SOL    HW2 2388   6.219   1.606   2.125
  497SOL     OW 2389   3.516   1.466   4.470
  497SOL    HW1 2390   3.503   1.384   4.525
  497SOL    HW2 2391   3.429   1.515   4.462
  498SOL     OW 2392   0.272   4.499   2.208
  498SOL    HW1 2393   0.214   4.579   2.226
  498SOL    HW2 2394   0.228   4.441   2.140
  499SOL     OW 2395   1.976   5.384   5.111
  499SOL    HW1 2396   1.916   5.434   5.049
  499SOL    HW2 2397   1.928   5.367   5.197
  500SOL     OW 2398   5.784   2.855   6.059
  500SOL    HW1 2399   5.704   2.813   6.102
  500SOL    HW2 2400   5.855   2.871   6.128
  501SOL     OW 2401   3.594   6.860   1.402
  501SOL    HW1 2402   3.605   6.931   1.333
  501SOL    HW2 2403   3.507   6.872   1.449
  502SOL     OW 2404   0.951   4.933   6.193
  502SOL    HW1 2405   0.878   4.877   6.233
  502SOL    HW2 2406   1.004   4.976   6.266
  503SOL     OW 2407   2.244   5.022   6.379
  503SOL    HW1 2408   2.150   5.055   6.384
  503SOL    HW2 2409   2.262   4.961   6.457
  504SOL     OW 2410   0.457   6.095   1.602
  504SOL    HW1 2411   0.480   6.156   1.678
  504SOL    HW2 2412   0.531   6.029   1.589
  505SOL     OW 2413   4.150   0.326   4.791
  505SOL    HW1 2414   4.180   0.361   4.880
  505SOL    HW2 2415   4.104   0.238   4.804
  506SOL     OW 2416   3.250   5.954   2.006
  506SOL    HW1 2417   3.280   5.914   1.919
  506SOL    HW2 2418   3.268   6.052   2.005
  507SOL     OW 2419   3.939   6.989   2.480
  507SOL    HW1 2420   3.898   7.029   2.398
  507SOL    HW2 2421   3.885   7.015   2.561
  508SOL     OW 2422   6.955   2.602   2.814
  508SOL    HW1 2423   7.010   2.551   2.880
  508SOL    HW2 2424   7.006   2.613   2.728
  509SOL     OW 2425   4.451   1.146   0.576
  509SOL    HW1 2426   4.403   1.082   0.635
  509SOL    HW2 2427   4.519   1.097   0.522
  510SOL     OW 2428   0.045   4.864   5.957
  510SOL    HW1 2429   7.029   4.775   5.962
  510SOL    HW2 2430   0.077   4.890   6.048
  511SOL     OW 2431   1.040   2.180   6.869
  511SOL    HW1 2432   1.087   2.253   6.818
  511SOL    HW2 2433   1.014   2.108   6.806
  512SOL     OW 2434   6.324   2.866   6.825
  512SOL    HW1 2435   6.225   2.877   6.837
  512SOL    HW2 2436   6.343   2.779   6.780
  513SOL     OW 2437   5.159   6.652   2.881
  513SOL    HW1 2438   5.069   6.665   2.839
  513SOL    HW2 2439   5.222   6.615   2.814
  514SOL     OW 2440   6.977   0.426   4.603
  514SOL    HW1 2441   0.040   0.433   4.639
  514SOL    HW2 2442   6.969   0.481   4.520
  515SOL     OW 2443   1.830   0.022   6.987
  515SOL    HW1 2444   1.917   7.021   7.025
  515SOL    HW2 2445   1.772   6.973   6.970
  516SOL     OW 2446   2.769   4.687   2.246
  516SOL    HW1 2447   2.860   4.720   2.269
  516SOL    HW2 2448   2.772   4.640   2.157
  517SOL     OW 2449   3.358   4.745   1.756
  517SOL    HW1 2450   3.417   4.676   1.796
  517SOL    HW2 2451   3.264   4.712   1.755
  518SOL     OW 2452   2.469   2.489   3.887
  518SOL    HW1 2453   2.538   2.558   3.865
  518SOL    HW2 2454   2.433   2.505   3.979
  519SOL     OW 2455   0.070   6.188   3.415
  519SOL    HW1 2456   0.016   6.104   3.430
  519SOL    HW2 2457   0.105   6.188   3.321
  520SOL     OW 2458   0.439   3.535   6.465
  520SOL    HW1 2459   0.405   3.521   6.558
  520SOL    HW2 2460   0.480   3.449   6.432
  521SOL     OW 2461   5.128   5.537   5.058
  521SOL    HW1 2462   5.126   5.598   4.979
  521SOL    HW2 2463   5.218   5.540   5.101
  522SOL     OW 2464   4.135   3.592   2.615
  522SOL    HW1 2465   4.228   3.553   2.617
  522SOL    HW2 2466   4.118   3.642   2.700
  523SOL     OW 2467   6.615   5.900   1.871
  523SOL    HW1 2468   6.532   5.896   1.926
  523SOL    HW2 2469   6.677   5.827   1.900
  524SOL     OW 2470   1.421   2.801   2.600
  524SOL    HW1 2471   1.482   2.749   2.660
  524SOL    HW2 2472   1.347   2.841   2.654
  525SOL     OW 2473   2.091   4.188   6.245
  525SOL    HW1 2474   2.025   4.152   6.310
  525SOL    HW2 2475   2.045   4.247   6.179
  526SOL     OW 2476   3.349   6.834   4.081
  526SOL    HW1 2477   3.275   6.819   4.016
  526SOL    HW2 2478   3.368   6.748   4.130
  527SOL     OW 2479   0.500   2.004   0.125
  527SOL    HW1 2480   0.420   1.949   0.106
  527SOL    HW2 2481   0.472   2.091   0.165
  528SOL     OW 2482   1.616   3.121   3.813
  528SOL    HW1 2483   1.534   3.067   3.791
  528SOL    HW2 2484   1.665   3.078   3.888
  529SOL     OW 2485   1.880   0.045   4.713
  529SOL    HW1 2486   1.878   0.108   4.790
  529SOL    HW2 2487   1.942   6.999   4.734
  530SOL     OW 2488   4.067   3.344   2.441
  530SOL    HW1 2489   4.036   3.428   2.396
  530SOL    HW2 2490   4.060   3.356   2.540
  531SOL     OW 2491   1.226   1.103   2.830
  531SOL    HW1 2492   1.227   1.140   2.923
  531SOL    HW2 2493   1.267   1.012   2.830
  532SOL     OW 2494   1.590   3.404   0.651
  532SOL    HW1 2495   1.660   3.374   0.587
  532SOL    HW2 2496   1.634   3.440   0.734
  533SOL     OW 2497   4.473   6.740   3.782
  533SOL    HW1 2498   4.380   6.768   3.763
  533SOL    HW2 2499   4.515   6.804   3.847
  534SOL     OW 2500   6.144   6.104   2.595
  534SOL    HW1 2501   6.221   6.050   2.563
  534SOL    HW2 2502   6.140   6.191   2.546
  535SOL     OW 2503   6.693   4.306   2.547
  535SOL    HW1 2504   6.600   4.333   2.523
  535SOL    HW2 2505   6.709   4.323   2.644
  536SOL     OW 2506   6.381   5.071   2.715
  536SOL    HW1 2507   6.358   4.991   2.658
  536SOL    HW2 2508   6.419   5.040   2.801
  537SOL     OW 2509   3.654   0.044   4.367
  537SOL    HW1 2510   3.567   7.025   4.355
  537SOL    HW2 2511   3.677   0.091   4.282
  538SOL     OW 2512   0.978   4.467   4.493
  538SOL    HW1 2513   1.038   4.405   4.543
  538SOL    HW2 2514   0.885   4.457   4.527
  539SOL     OW 2515   1.469   5.131   1.978
  539SOL    HW1 2516   1.515   5.064   1.920
  539SOL    HW2 2517   1.380   5.096   2.006
  540SOL     OW 2518   1.704   0.572   3.556
  540SOL    HW1 2519   1.631   0.529   3.610
  540SOL    HW2 2520   1.711   0.669   3.581
  541SOL     OW 2521   4.490   5.582   3.997
  541SOL    HW1 2522   4.494   5.492   4.042
  541SOL    HW2 2523   4.465   5.652   4.064
  542SOL     OW 2524   4.324   6.494   6.521
  542SOL    HW1 2525   4.329   6.422   6.451
  542SOL    HW2 2526   4.241   6.482   6.575
  543SOL     OW 2527   5.882   3.547   3.170
  543SOL    HW1 2528   5.914   3.550   3.265
  543SOL    HW2 2529   5.958   3.568   3.109
  544SOL     OW 2530   0.548   5.437   0.133
  544SOL    HW1 2531   0.628   5.397   0.088
  544SOL    HW2 2532   0.472   5.439   0.068
  545SOL     OW 2533   4.205   1.203   1.038
  545SOL    HW1 2534   4.121   1.165   1.001
  545SOL    HW2 2535   4.245   1.267   0.972
  546SOL     OW 2536   1.788   3.904   1.863
  546SOL    HW1 2537   1.721   3.868   1.799
  546SOL    HW2 2538   1.824   3.991   1.829
  547SOL     OW 2539   3.538   2.548   1.139
  547SOL    HW1 2540   3.596   2.533   1.058
  547SOL    HW2 2541   3.541   2.467   1.197
  548SOL     OW 2542   3.457   3.533   1.572
  548SOL    HW1 2543   3.421   3.440   1.577
  548SOL    HW2 2544   3.450   3.577   1.662
  549SOL     OW 2545   5.418   2.487   1.446
  549SOL    HW1 2546   5.462   2.498   1.534
  549SOL    HW2 2547   5.327   2.529   1.448
  550SOL     OW 2548   0.990   5.581   3.289
  550SOL    HW1 2549   0.911   5.592   3.228
  550SOL    HW2 2550   0.996   5.485   3.318
  551SOL     OW 2551   6.904   0.224   1.866
  551SOL    HW1 2552   6.862   0.314   1.859
  551SOL    HW2 2553   6.834   0.155   1.882
  552SOL     OW 2554   5.929   3.962   6.097
  552SOL    HW1 2555   5.839   3.977   6.055
  552SOL    HW2 2556   5.968   3.877   6.063
  553SOL     OW 2557   2.594   6.946   3.817
  553SOL    HW1 2558   2.497   6.946   3.791
  553SOL    HW2 2559   2.611   6.869   3.879
  554SOL     OW 2560   5.577   6.931   0.441
  554SOL    HW1 2561   5.646   6.957   0.374
  554SOL    HW2 2562   5.594   6.838   0.473
  555SOL     OW 2563   2.948   5.086   4.833
  555SOL    HW1 2564   2.920   5.021   4.903
  555SOL    HW2 2565   3.002   5.039   4.763
  556SOL     OW 2566   4.668   1.742   4.291
  556SOL    HW1 2567   4.591   1.757   4.228
  556SOL    HW2 2568   4.634   1.741   4.385
  557SOL     OW 2569   6.751   4.950   6.525
  557SOL    HW1 2570   6.679   4.882   6.509
  557SOL    HW2 2571   6.810   4.919   6.599
  558SOL     OW 2572   3.116   3.303   4.113
  558SOL    HW1 2573   3.107   3.204   4.120
  558SOL    HW2 2574   3.149   3.340   4.199
  559SOL     OW 2575   6.955   5.045   5.004
  559SOL    HW1 2576   6.956   5.140   5.036
  559SOL    HW2 2577   6.980   4.985   5.079
  560SOL     OW 2578   6.416   3.920   3.179
  560SOL    HW1 2579   6.506   3.952   3.209
  560SOL    HW2 2580   6.399   3.828   3.215
  561SOL     OW 2581   0.073   2.215   0.726
  561SOL    HW1 2582   0.137   2.268   0.671
  561SOL    HW2 2583   7.024   2.188   0.671
  562SOL     OW 2584   3.749   0.624   6.323
  562SOL    HW1 2585   3.840   0.663   6.308
  562SOL    HW2 2586   3.710   0.662   6.408
  563SOL     OW 2587   2.452   1.302   3.770
  563SOL    HW1 2588   2.449   1.399   3.791
  563SOL    HW2 2589   2.367   1.258   3.800
  564SOL     OW 2590   0.979   3.260   0.181
  564SOL    HW1 2591   0.908   3.200   0.145
  564SOL    HW2 2592   1.048   3.205   0.228
  565SOL     OW 2593   3.446   3.553   4.236
  565SOL    HW1 2594   3.360   3.601   4.252
  565SOL    HW2 2595   3.516   3.619   4.207
  566SOL     OW 2596   0.805   3.473   3.611
  566SOL    HW1 2597   0.708   3.464   3.591
  566SOL    HW2 2598   0.826   3.568   3.633
  567SOL     OW 2599   3.198   2.641   1.452
  567SOL    HW1 2600   3.160   2.732   1.463
  567SOL    HW2 2601   3.251   2.616   1.533
  568SOL     OW 2602   4.235   6.857   0.335
  568SOL    HW1 2603   4.259   6.947   0.298
  568SOL    HW2 2604   4.167   6.868   0.408
  569SOL     OW 2605   0.974   3.290   0.534
  569SOL    HW1 2606   0.916   3.210   0.525
  569SOL    HW2 2607   0.917   3.372   0.547
  570SOL     OW 2608   3.394   0.548   6.663
  570SOL    HW1 2609   3.400   0.647   6.653
  570SOL    HW2 2610   3.318   0.525   6.724
  571SOL     OW 2611   3.393   5.259   3.949
  571SOL    HW1 2612   3.489   5.235   3.934
  571SOL    HW2 2613   3.335   5.182   3.922
  572SOL     OW 2614   2.533   5.291   5.517
  572SOL    HW1 2615   2.574   5.204   5.492
  572SOL    HW2 2616   2.596   5.341   5.578
  573SOL     OW 2617   5.923   1.346   6.436
  573SOL    HW1 2618   5.931   1.418   6.367
  573SOL    HW2 2619   5.835   1.300   6.427
  574SOL     OW 2620   3.304   0.961   4.316
  574SOL    HW1 2621   3.312   1.050   4.361
  574SOL    HW2 2622   3.341   0.966   4.223
  575SOL     OW 2623   4.441   2.933   1.710
  575SOL    HW1 2624   4.501   2.960   1.786
  575SOL    HW2 2625   4.495   2.924   1.626
  576SOL     OW 2626   1.259   2.947   3.079
  576SOL    HW1 2627   1.240   2.942   3.177
  576SOL    HW2 2628   1.175   2.972   3.030
  577SOL     OW 2629   1.764   0.853   2.388
  577SOL    HW1 2630   1.710   0.859   2.305
  577SOL    HW2 2631   1.704   0.850   2.467
  578SOL     OW 2632   0.226   4.989   4.152
  578SOL    HW1 2633   0.269   4.929   4.219
  578SOL    HW2 2634   0.131   5.005   4.177
  579SOL     OW 2635   1.355   3.896   3.617
  579SOL    HW1 2636   1.441   3.846   3.613
  579SOL    HW2 2637   1.344   3.937   3.708
  580SOL     OW 2638   4.481   5.092   5.537
  580SOL    HW1 2639   4.537   5.121   5.615
  580SOL    HW2 2640   4.463   5.171   5.478
  581SOL     OW 2641   1.838   3.199   1.902
  581SOL    HW1 2642   1.779   3.239   1.972
  581SOL    HW2 2643   1.871   3.110   1.934
  582SOL     OW 2644   4.672   5.326   2.550
  582SOL    HW1 2645   4.592   5.295   2.499
  582SOL    HW2 2646   4.734   5.374   2.489
  583SOL     OW 2647   2.313   6.218   5.048
  583SOL    HW1 2648   2.392   6.157   5.043
  583SOL    HW2 2649   2.284   6.243   4.955
  584SOL     OW 2650   2.983   6.514   6.592
  584SOL    HW1 2651   3.056   6.555   6.537
  584SOL    HW2 2652   2.899   6.566   6.580
  585SOL     OW 2653   4.484   1.036   0.274
  585SOL    HW1 2654   4.443   1.045   0.184
  585SOL    HW2 2655   4.583   1.022   0.265
  586SOL     OW 2656   3.159   0.411   6.866
  586SOL    HW1 2657   3.239   0.412   6.926
  586SOL    HW2 2658   3.085   0.360   6.910
  587SOL     OW 2659   4.744   2.300   3.482
  587SOL    HW1 2660   4.730   2.230   3.413
  587SOL    HW2 2661   4.728   2.390   3.442
  588SOL     OW 2662   2.230   4.816   1.708
  588SOL    HW1 2663   2.287   4.820   1.790
  588SOL    HW2 2664   2.253   4.734   1.656
  589SOL     OW 2665   3.591   5.600   1.639
  589SOL    HW1 2666   3.607   5.501   1.638
  589SOL    HW2 2667   3.636   5.641   1.718
  590SOL     OW 2668   5.574   1.618   1.913
  590SOL    HW1 2669   5.652   1.612   1.852
  590SOL    HW2 2670   5.566   1.712   1.948
  591SOL     OW 2671   3.645   6.156   3.442
  591SOL    HW1 2672   3.628   6.105   3.358
  591SOL    HW2 2673   3.743   6.161   3.459
  592SOL     OW 2674   4.677   0.286   2.008
  592SOL    HW1 2675   4.770   0.320   2.023
  592SOL    HW2 2676   4.675   0.187   2.020
  593SOL     OW 2677   4.928   2.815   3.939
  593SOL    HW1 2678   4.899   2.858   4.024
  593SOL    HW2 2679   4.887   2.724   3.931
  594SOL     OW 2680   5.557   0.191   0.966
  594SOL    HW1 2681   5.505   0.113   1.001
  594SOL    HW2 2682   5.641   0.159   0.923
  595SOL     OW 2683   5.384   6.935   3.512
  595SOL    HW1 2684   5.421   6.852   3.552
  595SOL    HW2 2685   5.284   6.928   3.506
  596SOL     OW 2686   0.280   5.108   2.917
  596SOL    HW1 2687   0.311   5.185   2.861
  596SOL    HW2 2688   0.358   5.070   2.967
  597SOL     OW 2689   2.441   0.107   6.623
  597SOL    HW1 2690   2.432   0.063   6.534
  597SOL    HW2 2691   2.364   0.170   6.637
  598SOL     OW 2692   3.737   4.105   4.699
  598SOL    HW1 2693   3.644   4.113   4.664
  598SOL    HW2 2694   3.778   4.196   4.709
  599SOL     OW 2695   2.582   5.651   2.807
  599SOL    HW1 2696   2.661   5.593   2.827
  599SOL    HW2 2697   2.520   5.602   2.747
  600SOL     OW 2698   5.978   1.925   6.811
  600SOL    HW1 2699   6.055   1.877   6.769
  600SOL    HW2 2700   5.971   2.017   6.773
  601SOL     OW 2701   1.425   0.734   3.745
  601SOL    HW1 2702   1.463   0.823   3.723
  601SOL    HW2 2703   1.398   0.687   3.661
  602SOL     OW 2704   1.824   0.483   6.279
  602SOL    HW1 2705   1.798   0.562   6.223
  602SOL    HW2 2706   1.864   0.515   6.365
  603SOL     OW 2707   2.875   2.924   5.432
  603SOL    HW1 2708   2.947   2.871   5.388
  603SOL    HW2 2709   2.835   2.987   5.366
  604SOL     OW 2710   0.393   1.586   1.236
  604SOL    HW1 2711   0.423   1.515   1.173
  604SOL    HW2 2712   0.335   1.546   1.307
  605SOL     OW 2713   6.495   4.862   0.141
  605SOL    HW1 2714   6.586   4.898   0.162
  605SOL    HW2 2715   6.430   4.895   0.209
  606SOL     OW 2716   5.246   6.571   5.668
  606SOL    HW1 2717   5.280   6.607   5.581
  606SOL    HW2 2718   5.315   6.512   5.710
  607SOL     OW 2719   6.688   4.478   5.204
  607SOL    HW1 2720   6.626   4.424   5.147
  607SOL    HW2 2721   6.730   4.419   5.273
  608SOL     OW 2722   4.230   6.089   6.710
  608SOL    HW1 2723   4.140   6.105   6.670
  608SOL    HW2 2724   4.243   5.990   6.722
  609SOL     OW 2725   3.805   3.013   2.702
  609SOL    HW1 2726   3.793   2.998   2.800
  609SOL    HW2 2727   3.866   2.943   2.665
  610SOL     OW 2728   5.878   3.228   0.680
  610SOL    HW1 2729   5.960   3.171   0.684
  610SOL    HW2 2730   5.888   3.296   0.607
  611SOL     OW 2731   4.868   6.823   2.014
  611SOL    HW1 2732   4.866   6.806   2.113
  611SOL    HW2 2733   4.801   6.893   1.990
  612SOL     OW 2734   4.028   5.610   4.308
  612SOL    HW1 2735   3.937   5.572   4.290
  612SOL    HW2 2736   4.077   5.624   4.222
  613SOL     OW 2737   4.408   5.350   5.401
  613SOL    HW1 2738   4.443   5.438   5.368
  613SOL    HW2 2739   4.386   5.291   5.323
  614SOL     OW 2740   5.262   5.222   6.064
  614SOL    HW1 2741   5.193   5.294   6.063
  614SOL    HW2 2742   5.303   5.215   6.155
  615SOL     OW 2743   6.669   2.003   1.161
  615SOL    HW1 2744   6.728   1.976   1.085
  615SOL    HW2 2745   6.723   2.055   1.228
  616SOL     OW 2746   0.079   2.613   2.175
  616SOL    HW1 2747   7.028   2.637   2.229
  616SOL    HW2 2748   0.080   2.514   2.159
  617SOL     OW 2749   6.982   4.596   5.932
  617SOL    HW1 2750   7.015   4.596   6.026
  617SOL    HW2 2751   0.014   4.542   5.874
  618SOL     OW 2752   0.696   2.451   0.643
  618SOL    HW1 2753   0.714   2.359   0.677
  618SOL    HW2 2754   0.648   2.447   0.556
  619SOL     OW 2755   3.696   1.527   0.774
  619SOL    HW1 2756   3.617   1.525   0.835
  619SOL    HW2 2757   3.779   1.546   0.827
  620SOL     OW 2758   4.544   2.344   1.210
  620SOL    HW1 2759   4.617   2.329   1.142
  620SOL    HW2 2760   4.585   2.370   1.297
  621SOL     OW 2761   2.800   6.414   6.824
  621SOL    HW1 2762   2.897   6.435   6.839
  621SOL    HW2 2763   2.788   6.314   6.821
  622SOL     OW 2764   1.157   1.024   6.136
  622SOL    HW1 2765   1.124   1.100   6.193
  622SOL    HW2 2766   1.179   0.946   6.194
  623SOL     OW 2767   0.895   5.517   5.545
  623SOL    HW1 2768   0.858   5.504   5.637
  623SOL    HW2 2769   0.872   5.437   5.489
  624SOL     OW 2770   7.005   2.224   0.986
  624SOL    HW1 2771   6.989   2.256   0.892
  624SOL    HW2 2772   0.041   2.285   1.030
  625SOL     OW 2773   2.941   1.460   1.271
  625SOL    HW1 2774   2.841   1.455   1.280
  625SOL    HW2 2775   2.965   1.473   1.175
  626SOL     OW 2776   2.653   5.316   3.858
  626SOL    HW1 2777   2.721   5.293   3.928
  626SOL    HW2 2778   2.566   5.272   3.880
  627SOL     OW 2779   4.839   0.305   0.572
  627SOL    HW1 2780   4.783   0.227   0.601
  627SOL    HW2 2781   4.921   0.271   0.526
  628SOL     OW 2782   5.949   5.623   5.643
  628SOL    HW1 2783   5.923   5.679   5.564
  628SOL    HW2 2784   6.019   5.558   5.616
  629SOL     OW 2785   6.989   6.778   0.416
  629SOL    HW1 2786   0.059   6.792   0.410
  629SOL    HW2 2787   6.957   6.805   0.507
  630SOL     OW 2788   6.516   1.492   2.250
  630SOL    HW1 2789   6.561   1.564   2.197
  630SOL    HW2 2790   6.569   1.408   2.242
  631SOL     OW 2791   3.180   6.383   4.897
  631SOL    HW1 2792   3.148   6.388   4.991
  631SOL    HW2 2793   3.145   6.300   4.854
  632SOL     OW 2794   3.018   1.515   0.306
  632SOL    HW1 2795   3.036   1.612   0.316
  632SOL    HW2 2796   3.099   1.462   0.334
  633SOL     OW 2797   5.179   4.597   0.425
  633SOL    HW1 2798   5.122   4.577   0.345
  633SOL    HW2 2799   5.180   4.517   0.486
  634SOL     OW 2800   4.723   4.126   1.837
  634SOL    HW1 2801   4.629   4.156   1.857
  634SOL    HW2 2802   4.787   4.200   1.856
  635SOL     OW 2803   4.577   5.001   0.978
  635SOL    HW1 2804   4.507   4.954   1.032
  635SOL    HW2 2805   4.552   5.097   0.968
  636SOL     OW 2806   4.065   5.846   6.616
  636SOL    HW1 2807   4.087   5.829   6.712
  636SOL    HW2 2808   4.145   5.828   6.559
  637SOL     OW 2809   6.515   3.239   1.990
  637SOL    HW1 2810   6.569   3.184   1.927
  637SOL    HW2 2811   6.426   3.259   1.949
  638SOL     OW 2812   5.713   2.557   2.405
  638SOL    HW1 2813   5.652   2.606   2.467
  638SOL    HW2 2814   5.807   2.584   2.421
  639SOL     OW 2815   5.203   4.239   2.633
  639SOL    HW1 2816   5.128   4.289   2.676
  639SOL    HW2 2817   5.268   4.303   2.592
  640SOL     OW 2818   0.445   5.190   4.221
  640SOL    HW1 2819   0.531   5.148   4.193
  640SOL    HW2 2820   0.370   5.125   4.206
  641SOL     OW 2821   0.132   5.799   4.550
  641SOL    HW1 2822   0.100   5.894   4.546
  641SOL    HW2 2823   0.223   5.793   4.511
  642SOL     OW 2824   0.022   3.856   4.561
  642SOL    HW1 2825   0.009   3.953   4.583
  642SOL    HW2 2826   7.011   3.836   4.472
  643SOL     OW 2827   5.515   5.228   5.040
  643SOL    HW1 2828   5.502   5.257   5.135
  643SOL    HW2 2829   5.602   5.263   5.007
  644SOL     OW 2830   1.057   6.463   4.271
  644SOL    HW1 2831   1.091   6.552   4.240
  644SOL    HW2 2832   0.976   6.476   4.329
  645SOL     OW 2833   5.275   1.959   4.214
  645SOL    HW1 2834   5.320   1.887   4.267
  645SOL    HW2 2835   5.209   1.917   4.151
  646SOL     OW 2836   2.513   1.089   3.577
  646SOL    HW1 2837   2.514   1.141   3.662
  646SOL    HW2 2838   2.601   1.043   3.565
  647SOL     OW 2839   5.387   2.206   5.580
  647SOL    HW1 2840   5.404   2.291   5.630
  647SOL    HW2 2841   5.348   2.139   5.643
  648SOL     OW 2842   6.686   3.973   3.264
  648SOL    HW1 2843   6.696   3.875   3.244
  648SOL    HW2 2844   6.769   4.006   3.309
  649SOL     OW 2845   3.978   4.096   0.501
  649SOL    HW1 2846   3.947   4.168   0.563
  649SOL    HW2 2847   3.994   4.012   0.553
  650SOL     OW 2848   5.707   4.248   1.002
  650SOL    HW1 2849   5.635   4.255   1.072
  650SOL    HW2 2850   5.782   4.193   1.038
  651SOL     OW 2851   6.829   6.378   6.401
  651SOL    HW1 2852   6.899   6.448   6.415
  651SOL    HW2 2853   6.787   6.390   6.311
  652SOL     OW 2854   5.843   6.026   3.723
  652SOL    HW1 2855   5.872   6.059   3.633
  652SOL    HW2 2856   5.744   6.027   3.728
  653SOL     OW 2857   3.355   6.601   5.247
  653SOL    HW1 2858   3.427   6.534   5.228
  653SOL    HW2 2859   3.319   6.635   5.160
  654SOL     OW 2860   0.129   3.931   5.471
  654SOL    HW1 2861   0.079   3.868   5.411
  654SOL    HW2 2862   0.141   3.889   5.561
  655SOL     OW 2863   0.940   7.027   2.048
  655SOL    HW1 2864   0.957   0.081   2.100
  655SOL    HW2 2865   0.944   0.017   1.950
  656SOL     OW 2866   1.901   5.140   1.794
  656SOL    HW1 2867   1.833   5.108   1.861
  656SOL    HW2 2868   1.982   5.173   1.842
  657SOL     OW 2869   1.837   1.880   1.666
  657SOL    HW1 2870   1.887   1.868   1.751
  657SOL    HW2 2871   1.810   1.976   1.655
  658SOL     OW 2872   3.187   3.779   6.431
  658SOL    HW1 2873   3.250   3.740   6.498
  658SOL    HW2 2874   3.121   3.837   6.478
  659SOL     OW 2875   2.025   6.269   5.921
  659SOL    HW1 2876   2.107   6.221   5.953
  659SOL    HW2 2877   1.950   6.255   5.986
  660SOL     OW 2878   5.181   4.286   2.197
  660SOL    HW1 2879   5.199   4.382   2.172
  660SOL    HW2 2880   5.100   4.281   2.255
  661SOL     OW 2881   4.134   6.276   3.602
  661SOL    HW1 2882   4.214   6.312   3.555
  661SOL    HW2 2883   4.139   6.296   3.699
  662SOL     OW 2884   4.120   0.903   5.518
  662SOL    HW1 2885   4.198   0.863   5.470
  662SOL    HW2 2886   4.138   0.903   5.616
  663SOL     OW 2887   2.538   3.921   6.213
  663SOL    HW1 2888   2.446   3.958   6.227
  663SOL    HW2 2889   2.605   3.995   6.222
  664SOL     OW 2890   0.383   5.841   5.973
  664SOL    HW1 2891   0.360   5.818   5.878
  664SOL    HW2 2892   0.305   5.887   6.015
  665SOL     OW 2893   4.602   5.269   1.791
  665SOL    HW1 2894   4.532   5.219   1.741
  665SOL    HW2 2895   4.663   5.316   1.727
  666SOL     OW 2896   5.307   2.037   1.815
  666SOL    HW1 2897   5.342   2.102   1.747
  666SOL    HW2 2898   5.341   1.945   1.794
  667SOL     OW 2899   1.207   4.544   3.233
  667SOL    HW1 2900   1.220   4.446   3.225
  667SOL    HW2 2901   1.159   4.565   3.319
  668SOL     OW 2902   4.994   6.475   5.719
  668SOL    HW1 2903   4.935   6.458   5.640
  668SOL    HW2 2904   5.080   6.515   5.688
  669SOL     OW 2905   4.790   0.261   2.971
  669SOL    HW1 2906   4.836   0.246   3.059
  669SOL    HW2 2907   4.702   0.305   2.987
  670SOL     OW 2908   3.035   2.906   1.872
  670SOL    HW1 2909   3.017   2.813   1.838
  670SOL    HW2 2910   3.117   2.905   1.929
  671SOL     OW 2911   2.866   6.526   0.798
  671SOL    HW1 2912   2.854   6.467   0.878
  671SOL    HW2 2913   2.815   6.487   0.720
  672SOL     OW 2914   0.111   5.452   1.741
  672SOL    HW1 2915   0.163   5.466   1.826
  672SOL    HW2 2916   0.173   5.458   1.663
  673SOL     OW 2917   6.649   0.389   1.873
  673SOL    HW1 2918   6.623   0.412   1.779
  673SOL    HW2 2919   6.581   0.426   1.936
  674SOL     OW 2920   0.624   1.187   5.103
  674SOL    HW1 2921   0.723   1.202   5.103
  674SOL    HW2 2922   0.605   1.089   5.108
  675SOL     OW 2923   0.319   1.346   2.065
  675SOL    HW1 2924   0.352   1.368   2.157
  675SOL    HW2 2925   0.287   1.429   2.020
  676SOL     OW 2926   3.295   5.324   2.985
  676SOL    HW1 2927   3.293   5.416   2.945
  676SOL    HW2 2928   3.332   5.259   2.918
  677SOL     OW 2929   5.768   1.385   0.792
  677SOL    HW1 2930   5.861   1.352   0.779
  677SOL    HW2 2931   5.714   1.364   0.711
  678SOL     OW 2932   2.428   6.933   5.101
  678SOL    HW1 2933   2.467   6.844   5.074
  678SOL    HW2 2934   2.498   7.003   5.093
  679SOL     OW 2935   4.367   2.385   3.884
  679SOL    HW1 2936   4.274   2.377   3.850
  679SOL    HW2 2937   4.430   2.403   3.808
  680SOL     OW 2938   5.381   5.507   5.254
  680SOL    HW1 2939   5.391   5.424   5.308
  680SOL    HW2 2940   5.472   5.545   5.235
  681SOL     OW 2941   4.656   4.840   1.741
  681SOL    HW1 2942   4.734   4.838   1.679
  681SOL    HW2 2943   4.687   4.825   1.835
  682SOL     OW 2944   6.692   0.696   1.320
  682SOL    HW1 2945   6.724   0.613   1.274
  682SOL    HW2 2946   6.677   0.768   1.253
  683SOL     OW 2947   5.334   2.916   0.657
  683SOL    HW1 2948   5.267   2.978   0.619
  683SOL    HW2 2949   5.421   2.926   0.608
  684SOL     OW 2950   6.497   1.072   0.376
  684SOL    HW1 2951   6.489   1.080   0.276
  684SOL    HW2 2952   6.572   1.129   0.408
  685SOL     OW 2953   3.986   1.869   4.011
  685SOL    HW1 2954   3.967   1.821   4.097
  685SOL    HW2 2955   3.992   1.967   4.028
  686SOL     OW 2956   4.978   2.529   4.289
  686SOL    HW1 2957   4.983   2.587   4.208
  686SOL    HW2 2958   4.930   2.576   4.362
  687SOL     OW 2959   0.676   2.837   4.447
  687SOL    HW1 2960   0.669   2.778   4.528
  687SOL    HW2 2961   0.624   2.796   4.372
  688SOL     OW 2962   0.278   1.861   0.029
  688SOL    HW1 2963   0.245   1.785   0.085
  688SOL    HW2 2964   0.242   1.852   6.966
  689SOL     OW 2965   1.032   4.879   6.557
  689SOL    HW1 2966   0.981   4.809   6.507
  689SOL    HW2 2967   0.969   4.951   6.586
  690SOL     OW 2968   0.291   2.876   2.910
  690SOL    HW1 2969   0.254   2.929   2.834
  690SOL    HW2 2970   0.362   2.814   2.877
  691SOL     OW 2971   2.637   1.034   0.379
  691SOL    HW1 2972   2.724   0.987   0.369
  691SOL    HW2 2973   2.615   1.082   0.294
  692SOL     OW 2974   3.587   0.995   3.720
  692SOL    HW1 2975   3.543   0.910   3.750
  692SOL    HW2 2976   3.563   1.013   3.625
  693SOL     OW 2977   5.581   0.127   4.043
  693SOL    HW1 2978   5.626   0.107   3.956
  693SOL    HW2 2979   5.630   0.202   4.088
  694SOL     OW 2980   4.268   0.019   4.594
  694SOL    HW1 2981   4.196   6.982   4.572
  694SOL    HW2 2982   4.286   0.076   4.514
  695SOL     OW 2983   4.884   6.730   3.902
  695SOL    HW1 2984   4.902   6.640   3.941
  695SOL    HW2 2985   4.969   6.782   3.896
  696SOL     OW 2986   4.881   4.769   3.552
  696SOL    HW1 2987   4.844   4.689   3.505
  696SOL    HW2 2988   4.921   4.832   3.484
  697SOL     OW 2989   1.377   4.289   2.778
  697SOL    HW1 2990   1.387   4.252   2.686
  697SOL    HW2 2991   1.455   4.261   2.834
  698SOL     OW 2992   4.682   6.366   0.975
  698SOL    HW1 2993   4.706   6.447   1.029
  698SOL    HW2 2994   4.738   6.289   1.005
  699SOL     OW 2995   1.811   3.940   6.868
  699SOL    HW1 2996   1.888   3.877   6.854
  699SOL    HW2 2997   1.731   3.907   6.818
  700SOL     OW 2998   3.079   0.869   2.072
  700SOL    HW1 2999   3.151   0.891   2.137
  700SOL    HW2 3000   3.079   0.936   1.998
  701SOL     OW 3001   6.429   4.103   0.060
  701SOL    HW1 3002   6.422   4.097   6.991
  701SOL    HW2 3003   6.514   4.150   0.085
  702SOL     OW 3004   1.619   6.613   5.145
  702SOL    HW1 3005   1.646   6.685   5.080
  702SOL    HW2 3006   1.575   6.539   5.095
  703SOL     OW 3007   3.714   2.915   6.579
  703SOL    HW1 3008   3.652   2.849   6.623
  703SOL    HW2 3009   3.666   2.962   6.505
  704SOL     OW 3010   1.479   2.764   6.827
  704SOL    HW1 3011   1.428   2.838   6.870
  704SOL    HW2 3012   1.508   2.793   6.735
  705SOL     OW 3013   5.864   4.890   2.940
  705SOL    HW1 3014   5.950   4.926   2.904
  705SOL    HW2 3015   5.812   4.963   2.983
  706SOL     OW 3016   4.196   1.912   5.411
  706SOL    HW1 3017   4.127   1.883   5.477
  706SOL    HW2 3018   4.195   1.850   5.333
  707SOL     OW 3019   4.296   4.656   3.169
  707SOL    HW1 3020   4.318   4.751   3.192
  707SOL    HW2 3021   4.199   4.648   3.148
  708SOL     OW 3022   3.048   0.711   2.676
  708SOL    HW1 3023   2.976   0.746   2.736
  708SOL    HW2 3024   3.059   0.773   2.598
  709SOL     OW 3025   0.311   5.923   0.575
  709SOL    HW1 3026   0.356   5.960   0.656
  709SOL    HW2 3027   0.377   5.916   0.501
  710SOL     OW 3028   3.700   2.310   1.258
  710SOL    HW1 3029   3.730   2.384   1.198
  710SOL    HW2 3030   3.701   2.342   1.353
  711SOL     OW 3031   0.028   3.207   5.978
  711SOL    HW1 3032   0.090   3.256   5.915
  711SOL    HW2 3033   0.073   3.122   6.008
  712SOL     OW 3034   4.339   1.901   0.977
  712SOL    HW1 3035   4.261   1.843   1.002
  712SOL    HW2 3036   4.345   1.978   1.040
  713SOL     OW 3037   3.997   3.147   6.402
  713SOL    HW1 3038   3.972   3.053   6.380
  713SOL    HW2 3039   3.941   3.180   6.477
  714SOL     OW 3040   0.565   4.710   3.628
  714SOL    HW1 3041   0.593   4.661   3.546
  714SOL    HW2 3042   0.629   4.786   3.645
  715SOL     OW 3043   4.996   6.404   6.896
  715SOL    HW1 3044   5.040   6.375   6.981
  715SOL    HW2 3045   5.059   6.460   6.843
  716SOL     OW 3046   0.367   0.936   2.172
  716SOL    HW1 3047   0.390   0.998   2.096
  716SOL    HW2 3048   0.355   0.843   2.136
  717SOL     OW 3049   6.092   4.547   3.856
  717SOL    HW1 3050   6.075   4.623   3.918
  717SOL    HW2 3051   6.139   4.579   3.774
  718SOL     OW 3052   4.606   3.577   5.721
  718SOL    HW1 3053   4.521   3.574   5.772
  718SOL    HW2 3054   4.610   3.499   5.658
  719SOL     OW 3055   6.497   0.490   2.989
  719SOL    HW1 3056   6.573   0.434   2.955
  719SOL    HW2 3057   6.470   0.458   3.080
  720SOL     OW 3058   2.474   0.005   5.891
  720SOL    HW1 3059   2.456   6.937   5.885
  720SOL    HW2 3060   2.413   0.055   5.829
  721SOL     OW 3061   2.773   1.354   2.279
  721SOL    HW1 3062   2.767   1.441   2.230
  721SOL    HW2 3063   2.686   1.336   2.325
  722SOL     OW 3064   2.639   0.777   5.373
  722SOL    HW1 3065   2.564   0.842   5.384
  722SOL    HW2 3066   2.605   0.693   5.333
  723SOL     OW 3067   1.516   4.684   3.570
  723SOL    HW1 3068   1.499   4.595   3.528
  723SOL    HW2 3069   1.614   4.706   3.563
  724SOL     OW 3070   0.629   1.454   3.889
  724SOL    HW1 3071   0.684   1.372   3.898
  724SOL    HW2 3072   0.663   1.509   3.812
  725SOL     OW 3073   1.109   5.336   2.129
  725SOL    HW1 3074   1.084   5.245   2.094
  725SOL    HW2 3075   1.130   5.329   2.226
  726SOL     OW 3076   3.394   4.743   1.333
  726SOL    HW1 3077   3.299   4.770   1.315
  726SOL    HW2 3078   3.412   4.654   1.292
  727SOL     OW 3079   6.219   4.618   5.528
  727SOL    HW1 3080   6.146   4.555   5.555
  727SOL    HW2 3081   6.281   4.572   5.465
  728SOL     OW 3082   6.273   2.789   3.490
  728SOL    HW1 3083   6.346   2.851   3.519
  728SOL    HW2 3084   6.184   2.830   3.510
  729SOL     OW 3085   0.558   1.947   0.938
  729SOL    HW1 3086   0.509   2.009   0.876
  729SOL    HW2 3087   0.492   1.903   0.999
  730SOL     OW 3088   6.553   6.981   4.224
  730SOL    HW1 3089   6.638   7.027   4.252
  730SOL    HW2 3090   6.484   0.020   4.204
  731SOL     OW 3091   4.292   5.517   6.475
  731SOL    HW1 3092   4.202   5.510   6.432
  731SOL    HW2 3093   4.339   5.429   6.467
  732SOL     OW 3094   6.079   2.652   1.576
  732SOL    HW1 3095   6.032   2.655   1.488
  732SOL    HW2 3096   6.011   2.649   1.649
  733SOL     OW 3097   5.244   0.264   4.265
  733SOL    HW1 3098   5.341   0.261   4.241
  733SOL    HW2 3099   5.235   0.268   4.364
  734SOL     OW 3100   5.902   4.609   3.091
  734SOL    HW1 3101   5.903   4.666   3.009
  734SOL    HW2 3102   5.912   4.513   3.066
  735SOL     OW 3103   4.445   1.579   0.708
  735SOL    HW1 3104   4.531   1.586   0.759
  735SOL    HW2 3105   4.460   1.526   0.625
  736SOL     OW 3106   0.662   1.806   3.171
  736SOL    HW1 3107   0.703   1.724   3.132
  736SOL    HW2 3108   0.631   1.787   3.264
  737SOL     OW 3109   5.437   2.456   5.762
  737SOL    HW1 3110   5.340   2.455   5.786
  737SOL    HW2 3111   5.485   2.387   5.817
  738SOL     OW 3112   2.890   3.593   1.435
  738SOL    HW1 3113   2.800   3.559   1.409
  738SOL    HW2 3114   2.949   3.596   1.354
  739SOL     OW 3115   5.196   0.885   4.442
  739SOL    HW1 3116   5.212   0.926   4.532
  739SOL    HW2 3117   5.099   0.895   4.418
  740SOL     OW 3118   5.439   1.218   2.172
  740SOL    HW1 3119   5.470   1.309   2.201
  740SOL    HW2 3120   5.519   1.158   2.161
  741SOL     OW 3121   1.713   0.457   3.146
  741SOL    HW1 3122   1.698   0.542   3.198
  741SOL    HW2 3123   1.808   0.426   3.160
  742SOL     OW 3124   2.234   6.996   2.069
  742SOL    HW1 3125   2.318   6.969   2.022
  742SOL    HW2 3126   2.157   6.991   2.005
  743SOL     OW 3127   0.928   5.286   3.231
  743SOL    HW1 3128   0.840   5.269   3.188
  743SOL    HW2 3129   1.002   5.270   3.165
  744SOL     OW 3130   5.676   0.304   1.286
  744SOL    HW1 3131   5.715   0.318   1.195
  744SOL    HW2 3132   5.607   0.232   1.283
  745SOL     OW 3133   1.706   5.501   4.973
  745SOL    HW1 3134   1.677   5.554   5.053
  745SOL    HW2 3135   1.653   5.417   4.968
  746SOL     OW 3136   6.155   4.128   5.925
  746SOL    HW1 3137   6.149   4.061   5.850
  746SOL    HW2 3138   6.064   4.138   5.967
  747SOL     OW 3139   3.916   6.220   4.995
  747SOL    HW1 3140   3.942   6.218   4.898
  747SOL    HW2 3141   3.971   6.289   5.042
  748SOL     OW 3142   4.083   5.434   2.857
  748SOL    HW1 3143   4.007   5.377   2.827
  748SOL    HW2 3144   4.167   5.405   2.811
  749SOL     OW 3145   6.295   4.101   4.257
  749SOL    HW1 3146   6.320   4.105   4.354
  749SOL    HW2 3147   6.207   4.145   4.243
  750SOL     OW 3148   3.058   1.077   1.515
  750SOL    HW1 3149   3.148   1.067   1.559
  750SOL    HW2 3150   2.986   1.061   1.582
  751SOL     OW 3151   4.555   1.433   6.734
  751SOL    HW1 3152   4.528   1.417   6.829
  751SOL    HW2 3153   4.601   1.521   6.727
  752SOL     OW 3154   2.745   2.559   0.961
  752SOL    HW1 3155   2.844   2.544   0.950
  752SOL    HW2 3156   2.722   2.556   1.058
  753SOL     OW 3157   0.807   3.600   6.248
  753SOL    HW1 3158   0.855   3.535   6.189
  753SOL    HW2 3159   0.708   3.588   6.237
  754SOL     OW 3160   4.825   1.271   6.115
  754SOL    HW1 3161   4.802   1.242   6.208
  754SOL    HW2 3162   4.882   1.353   6.118
  755SOL     OW 3163   1.754   4.359   5.125
  755SOL    HW1 3164   1.716   4.281   5.175
  755SOL    HW2 3165   1.837   4.391   5.172
  756SOL     OW 3166   2.499   5.922   6.623
  756SOL    HW1 3167   2.448   5.960   6.546
  756SOL    HW2 3168   2.456   5.950   6.709
  757SOL     OW 3169   0.296   6.724   4.234
  757SOL    HW1 3170   0.366   6.723   4.162
  757SOL    HW2 3171   0.242   6.640   4.229
  758SOL     OW 3172   4.104   0.604   3.385
  758SOL    HW1 3173   4.106   0.607   3.485
  758SOL    HW2 3174   4.069   0.515   3.355
  759SOL     OW 3175   0.797   2.690   2.232
  759SOL    HW1 3176   0.864   2.628   2.191
  759SOL    HW2 3177   0.800   2.778   2.185
  760SOL     OW 3178   6.372   0.120   3.405
  760SOL    HW1 3179   6.285   0.114   3.357
  760SOL    HW2 3180   6.427   0.040   3.385
  761SOL     OW 3181   5.398   3.785   6.501
  761SOL    HW1 3182   5.491   3.769   6.468
  761SOL    HW2 3183   5.381   3.728   6.582
  762SOL     OW 3184   3.012   0.084   5.324
  762SOL    HW1 3185   2.931   0.120   5.278
  762SOL    HW2 3186   3.081   0.060   5.255
  763SOL     OW 3187   3.744   5.695   6.327
  763SOL    HW1 3188   3.664   5.750   6.351
  763SOL    HW2 3189   3.822   5.755   6.311
  764SOL     OW 3190   5.356   0.818   5.770
  764SOL    HW1 3191   5.456   0.821   5.762
  764SOL    HW2 3192   5.315   0.857   5.687
  765SOL     OW 3193   1.853   5.518   0.807
  765SOL    HW1 3194   1.764   5.505   0.852
  765SOL    HW2 3195   1.873   5.439   0.749
  766SOL     OW 3196   2.754   2.276   5.687
  766SOL    HW1 3197   2.709   2.285   5.598
  766SOL    HW2 3198   2.850   2.254   5.674
  767SOL     OW 3199   6.407   6.245   3.570
  767SOL    HW1 3200   6.487   6.210   3.521
  767SOL    HW2 3201   6.413   6.344   3.579
  768SOL     OW 3202   1.864   5.164   2.720
  768SOL    HW1 3203   1.947   5.196   2.765
  768SOL    HW2 3204   1.788   5.166   2.784
  769SOL     OW 3205   2.541   1.170   5.229
  769SOL    HW1 3206   2.626   1.132   5.193
  769SOL    HW2 3207   2.561   1.239   5.298
  770SOL     OW 3208   1.352   5.481   3.762
  770SOL    HW1 3209   1.350   5.399   3.819
  770SOL    HW2 3210   1.273   5.538   3.784
  771SOL     OW 3211   1.157   5.190   3.057
  771SOL    HW1 3212   1.119   5.278   3.029
  771SOL    HW2 3213   1.185   5.138   2.977
  772SOL     OW 3214   5.522   4.796   6.409
  772SOL    HW1 3215   5.503   4.774   6.505
  772SOL    HW2 3216   5.451   4.755   6.352
  773SOL     OW 3217   0.269   4.331   3.505
  773SOL    HW1 3218   0.245   4.249   3.453
  773SOL    HW2 3219   0.366   4.351   3.493
  774SOL     OW 3220   1.804   1.285   1.554
  774SOL    HW1 3221   1.768   1.224   1.624
  774SOL    HW2 3222   1.815   1.377   1.592
  775SOL     OW 3223   2.123   2.358   4.169
  775SOL    HW1 3224   2.211   2.364   4.216
  775SOL    HW2 3225   2.103   2.263   4.146
  776SOL     OW 3226   0.370   0.115   6.313
  776SOL    HW1 3227   0.308   0.125   6.391
  776SOL    HW2 3228   0.320   0.075   6.236
  777SOL     OW 3229   1.746   4.512   0.788
  777SOL    HW1 3230   1.705   4.598   0.817
  777SOL    HW2 3231   1.788   4.466   0.867
  778SOL     OW 3232   2.298   0.654   1.672
  778SOL    HW1 3233   2.330   0.675   1.579
  778SOL    HW2 3234   2.242   0.571   1.669
  779SOL     OW 3235   0.056   2.350   2.395
  779SOL    HW1 3236   0.026   2.270   2.342
  779SOL    HW2 3237   7.015   2.374   2.462
  780SOL     OW 3238   0.940   2.895   4.531
  780SOL    HW1 3239   1.008   2.868   4.463
  780SOL    HW2 3240   0.851   2.856   4.506
  781SOL     OW 3241   5.744   6.200   0.929
  781SOL    HW1 3242   5.648   6.222   0.951
  781SOL    HW2 3243   5.754   6.193   0.830
  782SOL     OW 3244   1.425   3.299   6.474
  782SOL    HW1 3245   1.451   3.319   6.379
  782SOL    HW2 3246   1.363   3.371   6.507
  783SOL     OW 3247   5.093   4.780   1.915
  783SOL    HW1 3248   5.096   4.849   1.842
  783SOL    HW2 3249   5.110   4.690   1.875
  784SOL     OW 3250   4.225   4.823   0.922
  784SOL    HW1 3251   4.263   4.772   0.845
  784SOL    HW2 3252   4.201   4.761   0.996
  785SOL     OW 3253   0.459   1.778   3.416
  785SOL    HW1 3254   0.400   1.711   3.371
  785SOL    HW2 3255   0.403   1.854   3.450
  786SOL     OW 3256   0.357   0.144   2.465
  786SOL    HW1 3257   0.385   0.090   2.545
  786SOL    HW2 3258   0.424   0.216   2.448
  787SOL     OW 3259   1.179   1.417   6.715
  787SOL    HW1 3260   1.254   1.482   6.725
  787SOL    HW2 3261   1.145   1.392   6.806
  788SOL     OW 3262   3.942   1.575   0.842
  788SOL    HW1 3263   3.964   1.506   0.911
  788SOL    HW2 3264   4.016   1.581   0.775
  789SOL     OW 3265   4.477   4.510   1.832
  789SOL    HW1 3266   4.465   4.445   1.908
  789SOL    HW2 3267   4.559   4.487   1.781
  790SOL     OW 3268   2.442   1.723   2.959
  790SOL    HW1 3269   2.434   1.809   2.909
  790SOL    HW2 3270   2.527   1.721   3.010
  791SOL     OW 3271   1.635   6.448   4.765
  791SOL    HW1 3272   1.612   6.434   4.861
  791SOL    HW2 3273   1.577   6.389   4.708
  792SOL     OW 3274   0.754   1.168   1.972
  792SOL    HW1 3275   0.761   1.082   2.022
  792SOL    HW2 3276   0.801   1.240   2.022
  793SOL     OW 3277   4.943   5.485   4.545
  793SOL    HW1 3278   4.863   5.448   4.498
  793SOL    HW2 3279   4.917   5.567   4.596
  794SOL     OW 3280   3.030   4.035   6.033
  794SOL    HW1 3281   2.979   3.982   5.966
  794SOL    HW2 3282   3.043   4.128   5.998
  795SOL     OW 3283   4.066   0.371   5.212
  795SOL    HW1 3284   4.114   0.384   5.299
  795SOL    HW2 3285   4.001   0.296   5.220
  796SOL     OW 3286   0.708   2.541   6.641
  796SOL    HW1 3287   0.647   2.497   6.707
  796SOL    HW2 3288   0.666   2.540   6.551
  797SOL     OW 3289   4.794   0.469   1.099
  797SOL    HW1 3290   4.714   0.449   1.043
  797SOL    HW2 3291   4.778   0.440   1.193
  798SOL     OW 3292   3.595   6.422   2.349
  798SOL    HW1 3293   3.683   6.376   2.361
  798SOL    HW2 3294   3.610   6.511   2.306
  799SOL     OW 3295   0.248   6.687   6.411
  799SOL    HW1 3296   0.246   6.784   6.435
  799SOL    HW2 3297   0.204   6.673   6.323
  800SOL     OW 3298   5.764   0.836   2.497
  800SOL    HW1 3299   5.797   0.899   2.567
  800SOL    HW2 3300   5.787   0.743   2.523
  801SOL     OW 3301   2.359   4.724   4.628
  801SOL    HW1 3302   2.424   4.794   4.656
  801SOL    HW2 3303   2.396   4.634   4.650
  802SOL     OW 3304   2.699   2.423   0.661
  802SOL    HW1 3305   2.613   2.374   0.677
  802SOL    HW2 3306   2.739   2.450   0.749
  803SOL     OW 3307   1.602   0.358   5.879
  803SOL    HW1 3308   1.623   0.377   5.975
  803SOL    HW2 3309   1.617   0.261   5.860
  804SOL     OW 3310   5.824   6.422   1.086
  804SOL    HW1 3311   5.814   6.341   1.027
  804SOL    HW2 3312   5.890   6.485   1.045
  805SOL     OW 3313   2.095   0.981   4.752
  805SOL    HW1 3314   2.144   1.041   4.689
  805SOL    HW2 3315   2.085   1.026   4.841
  806SOL     OW 3316   5.497   0.571   4.949
  806SOL    HW1 3317   5.591   0.545   4.925
  806SOL    HW2 3318   5.497   0.615   5.039
  807SOL     OW 3319   0.236   0.601   5.191
  807SOL    HW1 3320   0.217   0.664   5.265
  807SOL    HW2 3321   0.196   0.636   5.106
  808SOL     OW 3322   4.460   4.188   6.950
  808SOL    HW1 3323   4.440   4.218   6.857
  808SOL    HW2 3324   4.375   4.159   6.995
  809SOL     OW 3325   0.541   4.921   0.751
  809SOL    HW1 3326   0.529   4.871   0.666
  809SOL    HW2 3327   0.557   5.018   0.731
  810SOL     OW 3328   3.340   4.344   0.545
  810SOL    HW1 3329   3.437   4.332   0.525
  810SOL    HW2 3330   3.313   4.438   0.527
  811SOL     OW 3331   5.388   5.800   4.627
  811SOL    HW1 3332   5.420   5.750   4.708
  811SOL    HW2 3333   5.296   5.835   4.644
  812SOL     OW 3334   6.736   0.797   2.941
  812SOL    HW1 3335   6.775   0.879   2.899
  812SOL    HW2 3336   6.642   0.785   2.910
  813SOL     OW 3337   3.828   6.869   4.194
  813SOL    HW1 3338   3.811   6.913   4.282
  813SOL    HW2 3339   3.768   6.908   4.124
  814SOL     OW 3340   6.593   5.726   2.532
  814SOL    HW1 3341   6.666   5.777   2.487
  814SOL    HW2 3342   6.583   5.636   2.490
  815SOL     OW 3343   6.672   2.998   3.352
  815SOL    HW1 3344   6.673   3.062   3.275
  815SOL    HW2 3345   6.752   3.013   3.409
  816SOL     OW 3346   5.682   5.489   0.721
  816SOL    HW1 3347   5.662   5.435   0.802
  816SOL    HW2 3348   5.748   5.560   0.743
  817SOL     OW 3349   1.099   5.057   1.267
  817SOL    HW1 3350   1.179   5.012   1.227
  817SOL    HW2 3351   1.080   5.142   1.218
  818SOL     OW 3352   6.352   3.185   3.658
  818SOL    HW1 3353   6.367   3.098   3.610
  818SOL    HW2 3354   6.264   3.181   3.706
  819SOL     OW 3355   6.370   3.521   1.488
  819SOL    HW1 3356   6.452   3.538   1.544
  819SOL    HW2 3357   6.395   3.464   1.410
  820SOL     OW 3358   2.671   2.227   5.037
  820SOL    HW1 3359   2.642   2.320   5.061
  820SOL    HW2 3360   2.757   2.206   5.084
  821SOL     OW 3361   6.357   4.527   6.466
  821SOL    HW1 3362   6.336   4.594   6.395
  821SOL    HW2 3363   6.441   4.478   6.442
  822SOL     OW 3364   0.277   3.052   3.144
  822SOL    HW1 3365   0.253   2.993   3.068
  822SOL    HW2 3366   0.336   3.003   3.208
  823SOL     OW 3367   6.420   4.485   6.111
  823SOL    HW1 3368   6.341   4.539   6.141
  823SOL    HW2 3369   6.499   4.546   6.097
  824SOL     OW 3370   3.880   0.987   6.240
  824SOL    HW1 3371   3.890   0.900   6.192
  824SOL    HW2 3372   3.917   0.978   6.333
  825SOL     OW 3373   6.659   5.529   1.267
  825SOL    HW1 3374   6.653   5.565   1.360
  825SOL    HW2 3375   6.588   5.571   1.211
  826SOL     OW 3376   4.414   2.208   5.857
  826SOL    HW1 3377   4.355   2.285   5.882
  826SOL    HW2 3378   4.361   2.142   5.804
  827SOL     OW 3379   2.408   4.454   4.988
  827SOL    HW1 3380   2.507   4.458   5.002
  827SOL    HW2 3381   2.373   4.546   4.974
  828SOL     OW 3382   5.393   6.758   6.735
  828SOL    HW1 3383   5.405   6.811   6.651
  828SOL    HW2 3384   5.421   6.813   6.813
  829SOL     OW 3385   4.107   3.643   2.104
  829SOL    HW1 3386   4.041   3.629   2.178
  829SOL    HW2 3387   4.188   3.588   2.122
  830SOL     OW 3388   5.373   5.055   6.409
  830SOL    HW1 3389   5.301   5.001   6.451
  830SOL    HW2 3390   5.446   4.994   6.376
  831SOL     OW 3391   5.923   6.829   0.307
  831SOL    HW1 3392   5.863   6.765   0.354
  831SOL    HW2 3393   6.005   6.782   0.274
  832SOL     OW 3394   3.966   1.921   3.464
  832SOL    HW1 3395   4.003   1.966   3.383
  832SOL    HW2 3396   4.042   1.898   3.526
  833SOL     OW 3397   1.837   3.768   6.456
  833SOL    HW1 3398   1.928   3.744   6.423
  833SOL    HW2 3399   1.782   3.685   6.469
  834SOL     OW 3400   5.163   3.494   0.992
  834SOL    HW1 3401   5.179   3.517   0.896
  834SOL    HW2 3402   5.183   3.397   1.007
  835SOL     OW 3403   3.204   6.898   5.418
  835SOL    HW1 3404   3.162   6.871   5.331
  835SOL    HW2 3405   3.304   6.898   5.408
  836SOL     OW 3406   3.905   6.942   4.780
  836SOL    HW1 3407   4.004   6.949   4.795
  836SOL    HW2 3408   3.887   6.930   4.683
  837SOL     OW 3409   6.980   0.727   1.277
  837SOL    HW1 3410   6.901   0.780   1.310
  837SOL    HW2 3411   0.027   0.740   1.339
  838SOL     OW 3412   2.406   6.809   4.560
  838SOL    HW1 3413   2.375   6.854   4.476
  838SOL    HW2 3414   2.332   6.808   4.626
  839SOL     OW 3415   2.158   1.302   1.797
  839SOL    HW1 3416   2.089   1.234   1.821
  839SOL    HW2 3417   2.248   1.271   1.829
  840SOL     OW 3418   6.351   6.058   6.957
  840SOL    HW1 3419   6.275   6.110   6.917
  840SOL    HW2 3420   6.376   5.983   6.897
  841SOL     OW 3421   3.563   5.348   6.171
  841SOL    HW1 3422   3.576   5.292   6.253
  841SOL    HW2 3423   3.651   5.380   6.138
  842SOL     OW 3424   3.847   0.405   5.436
  842SOL    HW1 3425   3.869   0.488   5.386
  842SOL    HW2 3426   3.860   0.325   5.377
  843SOL     OW 3427   1.186   1.786   1.624
  843SOL    HW1 3428   1.164   1.780   1.526
  843SOL    HW2 3429   1.284   1.768   1.636
  844SOL     OW 3430   6.632   0.246   0.341
  844SOL    HW1 3431   6.552   0.208   0.387
  844SOL    HW2 3432   6.637   0.344   0.358
  845SOL     OW 3433   5.080   4.022   3.940
  845SOL    HW1 3434   5.121   3.957   3.876
  845SOL    HW2 3435   5.153   4.068   3.991
  846SOL     OW 3436   2.271   1.056   5.999
  846SOL    HW1 3437   2.318   1.019   5.919
  846SOL    HW2 3438   2.241   1.149   5.981
  847SOL     OW 3439   1.310   3.629   1.060
  847SOL    HW1 3440   1.334   3.535   1.036
  847SOL    HW2 3441   1.294   3.635   1.159
  848SOL     OW 3442   6.781   0.047   6.087
  848SOL    HW1 3443   6.778   0.071   5.990
  848SOL    HW2 3444   6.845   7.001   6.101
  849SOL     OW 3445   5.896   4.304   6.632
  849SOL    HW1 3446   5.984   4.324   6.588
  849SOL    HW2 3447   5.899   4.333   6.728
  850SOL     OW 3448   5.812   1.283   4.633
  850SOL    HW1 3449   5.733   1.334   4.668
  850SOL    HW2 3450   5.828   1.203   4.691
  851SOL     OW 3451   0.144   2.698   1.006
  851SOL    HW1 3452   0.045   2.712   1.016
  851SOL    HW2 3453   0.161   2.608   0.967
  852SOL     OW 3454   0.723   4.189   0.484
  852SOL    HW1 3455   0.713   4.264   0.549
  852SOL    HW2 3456   0.784   4.120   0.522
  853SOL     OW 3457   0.804   4.439   0.668
  853SOL    HW1 3458   0.877   4.501   0.697
  853SOL    HW2 3459   0.723   4.491   0.644
  854SOL     OW 3460   5.097   5.912   0.821
  854SOL    HW1 3461   5.128   5.856   0.744
  854SOL    HW2 3462   5.118   5.865   0.907
  855SOL     OW 3463   6.542   6.882   1.372
  855SOL    HW1 3464   6.545   6.811   1.442
  855SOL    HW2 3465   6.525   6.840   1.283
  856SOL     OW 3466   1.283   1.805   6.662
  856SOL    HW1 3467   1.343   1.871   6.708
  856SOL    HW2 3468   1.218   1.767   6.728
  857SOL     OW 3469   6.241   5.259   2.170
  857SOL    HW1 3470   6.143   5.262   2.191
  857SOL    HW2 3471   6.255   5.275   2.072
  858SOL     OW 3472   3.004   3.917   1.280
  858SOL    HW1 3473   2.982   3.830   1.236
  858SOL    HW2 3474   3.031   3.900   1.375
  859SOL     OW 3475   5.592   6.965   5.094
  859SOL    HW1 3476   5.684   6.999   5.077
  859SOL    HW2 3477   5.526   0.011   5.086
  860SOL     OW 3478   6.364   2.951   0.050
  860SOL    HW1 3479   6.352   2.927   6.984
  860SOL    HW2 3480   6.275   2.951   0.096
  861SOL     OW 3481   2.498   5.036   3.851
  861SOL    HW1 3482   2.549   5.056   3.935
  861SOL    HW2 3483   2.533   4.952   3.810
  862SOL     OW 3484   1.503   3.936   3.157
  862SOL    HW1 3485   1.428   3.941   3.223
  862SOL    HW2 3486   1.588   3.914   3.204
  863SOL     OW 3487   5.872   0.636   6.625
  863SOL    HW1 3488   5.795   0.697   6.646
  863SOL    HW2 3489   5.883   0.570   6.700
  864SOL     OW 3490   3.691   5.874   3.978
  864SOL    HW1 3491   3.662   5.965   3.950
  864SOL    HW2 3492   3.777   5.850   3.932
  865SOL     OW 3493   1.464   0.056   5.916
  865SOL    HW1 3494   1.436   0.019   6.005
  865SOL    HW2 3495   1.553   0.017   5.891
  866SOL     OW 3496   2.425   1.243   0.471
  866SOL    HW1 3497   2.511   1.208   0.509
  866SOL    HW2 3498   2.348   1.197   0.515
  867SOL     OW 3499   5.067   4.026   0.286
  867SOL    HW1 3500   5.127   3.948   0.301
  867SOL    HW2 3501   5.036   4.026   0.190
  868SOL     OW 3502   6.375   0.710   1.648
  868SOL    HW1 3503   6.349   0.710   1.551
  868SOL    HW2 3504   6.309   0.655   1.700
  869SOL     OW 3505   0.145   4.413   2.648
  869SOL    HW1 3506   0.222   4.352   2.665
  869SOL    HW2 3507   0.175   4.489   2.590
  870SOL     OW 3508   4.061   3.879   0.678
  870SOL    HW1 3509   4.023   3.793   0.643
  870SOL    HW2 3510   4.066   3.874   0.778
  871SOL     OW 3511   5.262   2.406   3.293
  871SOL    HW1 3512   5.345   2.456   3.270
  871SOL    HW2 3513   5.271   2.369   3.385
  872SOL     OW 3514   5.931   3.357   4.007
  872SOL    HW1 3515   5.960   3.416   3.931
  872SOL    HW2 3516   5.887   3.275   3.971
  873SOL     OW 3517   5.347   5.795   5.133
  873SOL    HW1 3518   5.370   5.719   5.194
  873SOL    HW2 3519   5.304   5.868   5.186
  874SOL     OW 3520   6.722   3.998   6.377
  874SOL    HW1 3521   6.699   4.084   6.424
  874SOL    HW2 3522   6.664   3.925   6.412
  875SOL     OW 3523   5.236   4.879   0.742
  875SOL    HW1 3524   5.253   4.976   0.729
  875SOL    HW2 3525   5.291   4.826   0.678
  876SOL     OW 3526   0.548   4.763   2.784
  876SOL    HW1 3527   0.522   4.757   2.880
  876SOL    HW2 3528   0.510   4.846   2.744
  877SOL     OW 3529   3.567   5.050   5.456
  877SOL    HW1 3530   3.641   5.072   5.520
  877SOL    HW2 3531   3.598   4.979   5.393
  878SOL     OW 3532   4.564   6.427   4.779
  878SOL    HW1 3533   4.580   6.407   4.875
  878SOL    HW2 3534   4.524   6.519   4.770
  879SOL     OW 3535   4.591   1.112   1.488
  879SOL    HW1 3536   4.580   1.013   1.484
  879SOL    HW2 3537   4.528   1.156   1.424
  880SOL     OW 3538   3.119   4.006   4.551
  880SOL    HW1 3539   3.043   4.023   4.614
  880SOL    HW2 3540   3.151   3.912   4.563
  881SOL     OW 3541   5.694   3.853   5.630
  881SOL    HW1 3542   5.695   3.950   5.652
  881SOL    HW2 3543   5.609   3.829   5.585
  882SOL     OW 3544   1.163   2.114   3.828
  882SOL    HW1 3545   1.134   2.198   3.875
  882SOL    HW2 3546   1.116   2.109   3.739
  883SOL     OW 3547   3.611   0.484   0.599
  883SOL    HW1 3548   3.706   0.486   0.567
  883SOL    HW2 3549   3.597   0.403   0.657
  884SOL     OW 3550   6.893   4.546   0.201
  884SOL    HW1 3551   6.937   4.595   0.125
  884SOL    HW2 3552   6.924   4.451   0.202
  885SOL     OW 3553   4.737   7.020   4.986
  885SOL    HW1 3554   4.724   0.007   5.083
  885SOL    HW2 3555   4.659   6.969   4.950
  886SOL     OW 3556   3.861   0.522   0.482
  886SOL    HW1 3557   3.921   0.485   0.553
  886SOL    HW2 3558   3.901   0.605   0.444
  887SOL     OW 3559   3.735   6.214   3.882
  887SOL    HW1 3560   3.759   6.193   3.977
  887SOL    HW2 3561   3.814   6.194   3.824
  888SOL     OW 3562   6.960   6.290   3.773
  888SOL    HW1 3563   7.004   6.279   3.862
  888SOL    HW2 3564   7.019   6.342   3.712
  889SOL     OW 3565   6.979   1.139   6.580
  889SOL    HW1 3566   6.929   1.169   6.661
  889SOL    HW2 3567   6.986   1.040   6.579
  890SOL     OW 3568   2.760   4.887   2.700
  890SOL    HW1 3569   2.686   4.820   2.707
  890SOL    HW2 3570   2.742   4.963   2.763
  891SOL     OW 3571   6.560   3.639   0.769
  891SOL    HW1 3572   6.627   3.640   0.842
  891SOL    HW2 3573   6.600   3.680   0.686
  892SOL     OW 3574   3.204   3.643   4.890
  892SOL    HW1 3575   3.196   3.549   4.923
  892SOL    HW2 3576   3.117   3.691   4.901
  893SOL     OW 3577   1.937   6.656   3.073
  893SOL    HW1 3578   1.929   6.696   2.982
  893SOL    HW2 3579   2.026   6.679   3.112
  894SOL     OW 3580   1.164   2.679   2.895
  894SOL    HW1 3581   1.191   2.666   2.991
  894SOL    HW2 3582   1.230   2.739   2.851
  895SOL     OW 3583   1.224   5.386   4.176
  895SOL    HW1 3584   1.307   5.332   4.168
  895SOL    HW2 3585   1.178   5.364   4.263
  896SOL     OW 3586   5.854   5.170   1.508
  896SOL    HW1 3587   5.926   5.129   1.452
  896SOL    HW2 3588   5.888   5.185   1.600
  897SOL     OW 3589   4.349   0.905   6.788
  897SOL    HW1 3590   4.276   0.839   6.805
  897SOL    HW2 3591   4.436   0.857   6.782
  898SOL     OW 3592   4.216   6.466   2.562
  898SOL    HW1 3593   4.240   6.385   2.615
  898SOL    HW2 3594   4.138   6.512   2.605
  899SOL     OW 3595   0.266   5.923   0.029
  899SOL    HW1 3596   0.186   5.930   7.000
  899SOL    HW2 3597   0.338   5.983   7.024
  900SOL     OW 3598   5.051   6.903   6.834
  900SOL    HW1 3599   4.991   6.831   6.800
  900SOL    HW2 3600   4.999   6.988   6.845
  901SOL     OW 3601   0.988   0.819   3.755
  901SOL    HW1 3602   1.017   0.724   3.740
  901SOL    HW2 3603   1.057   0.881   3.717
  902SOL     OW 3604   1.375   3.006   1.581
  902SOL    HW1 3605   1.321   2.984   1.500
  902SOL    HW2 3606   1.451   2.942   1.589
  903SOL     OW 3607   0.714   3.442   0.178
  903SOL    HW1 3608   0.801   3.433   0.228
  903SOL    HW2 3609   0.724   3.511   0.107
  904SOL     OW 3610   2.001   2.721   2.401
  904SOL    HW1 3611   1.934   2.647   2.401
  904SOL    HW2 3612   2.087   2.688   2.362
  905SOL     OW 3613   4.724   3.854   6.399
  905SOL    HW1 3614   4.679   3.891   6.317
  905SOL    HW2 3615   4.675   3.885   6.481
  906SOL     OW 3616   0.624   1.951   6.345
  906SOL    HW1 3617   0.702   1.903   6.385
  906SOL    HW2 3618   0.546   1.945   6.406
  907SOL     OW 3619   4.674   2.689   1.158
  907SOL    HW1 3620   4.615   2.665   1.081
  907SOL    HW2 3621   4.744   2.618   1.169
  908SOL     OW 3622   2.586   4.739   3.407
  908SOL    HW1 3623   2.488   4.762   3.403
  908SOL    HW2 3624   2.626   4.777   3.490
  909SOL     OW 3625   3.855   6.467   1.862
  909SOL    HW1 3626   3.783   6.481   1.930
  909SOL    HW2 3627   3.940   6.506   1.896
  910SOL     OW 3628   3.416   1.573   1.404
  910SOL    HW1 3629   3.372   1.489   1.373
  910SOL    HW2 3630   3.393   1.588   1.500
  911SOL     OW 3631   1.190   6.439   6.757
  911SOL    HW1 3632   1.258   6.366   6.754
  911SOL    HW2 3633   1.225   6.519   6.708
  912SOL     OW 3634   5.618   1.116   3.104
  912SOL    HW1 3635   5.521   1.094   3.110
  912SOL    HW2 3636   5.647   1.111   3.008
  913SOL     OW 3637   2.826   0.686   4.093
  913SOL    HW1 3638   2.732   0.717   4.079
  913SOL    HW2 3639   2.826   0.605   4.152
  914SOL     OW 3640   2.313   6.547   5.423
  914SOL    HW1 3641   2.293   6.627   5.367
  914SOL    HW2 3642   2.227   6.505   5.453
  915SOL     OW 3643   0.002   3.065   0.606
  915SOL    HW1 3644   0.070   3.025   0.544
  915SOL    HW2 3645   0.048   3.097   0.689
  916SOL     OW 3646   1.768   3.216   2.709
  916SOL    HW1 3647   1.775   3.116   2.711
  916SOL    HW2 3648   1.860   3.256   2.719
  917SOL     OW 3649   0.443   6.617   2.218
  917SOL    HW1 3650   0.450   6.682   2.143
  917SOL    HW2 3651   0.377   6.546   2.196
  918SOL     OW 3652   3.697   0.390   0.885
  918SOL    HW1 3653   3.622   0.326   0.898
  918SOL    HW2 3654   3.661   0.483   0.873
  919SOL     OW 3655   0.018   6.579   3.007
  919SOL    HW1 3656   0.016   6.611   3.102
  919SOL    HW2 3657   6.968   6.613   2.958
  920SOL     OW 3658   2.596   4.618   2.452
  920SOL    HW1 3659   2.655   4.649   2.526
  920SOL    HW2 3660   2.639   4.637   2.364
  921SOL     OW 3661   3.578   5.578   3.628
  921SOL    HW1 3662   3.511   5.593   3.555
  921SOL    HW2 3663   3.530   5.563   3.715
  922SOL     OW 3664   2.944   3.728   4.932
  922SOL    HW1 3665   2.949   3.641   4.980
  922SOL    HW2 3666   2.874   3.786   4.973
  923SOL     OW 3667   2.560   3.629   5.924
  923SOL    HW1 3668   2.632   3.624   5.993
  923SOL    HW2 3669   2.481   3.678   5.962
  924SOL     OW 3670   6.306   3.402   2.163
  924SOL    HW1 3671   6.261   3.313   2.164
  924SOL    HW2 3672   6.397   3.393   2.203
  925SOL     OW 3673   6.977   2.282   0.044
  925SOL    HW1 3674   6.954   2.356   7.011
  925SOL    HW2 3675   6.953   2.194   0.003
  926SOL     OW 3676   6.124   0.572   1.024
  926SOL    HW1 3677   6.073   0.639   0.970
  926SOL    HW2 3678   6.085   0.566   1.116
  927SOL     OW 3679   5.668   4.329   3.220
  927SOL    HW1 3680   5.605   4.278   3.279
  927SOL    HW2 3681   5.726   4.264   3.171
  928SOL     OW 3682   1.699   6.495   0.205
  928SOL    HW1 3683   1.700   6.427   0.132
  928SOL    HW2 3684   1.768   6.564   0.186
  929SOL     OW 3685   0.965   0.396   6.640
  929SOL    HW1 3686   0.956   0.493   6.618
  929SOL    HW2 3687   0.874   0.355   6.645
  930SOL     OW 3688   5.202   5.969   5.247
  930SOL    HW1 3689   5.157   5.984   5.159
  930SOL    HW2 3690   5.172   6.039   5.312
  931SOL     OW 3691   6.094   1.665   4.984
  931SOL    HW1 3692   6.125   1.577   4.949
  931SOL    HW2 3693   6.173   1.719   5.012
  932SOL     OW 3694   3.276   0.389   3.222
  932SOL    HW1 3695   3.177   0.402   3.231
  932SOL    HW2 3696   3.295   0.294   3.195
  933SOL     OW 3697   2.062   6.382   3.400
  933SOL    HW1 3698   2.061   6.346   3.494
  933SOL    HW2 3699   2.104   6.314   3.340
  934SOL     OW 3700   2.384   6.393   0.065
  934SOL    HW1 3701   2.420   6.452   0.137
  934SOL    HW2 3702   2.334   6.449   7.028
  935SOL     OW 3703   5.168   4.162   4.573
  935SOL    HW1 3704   5.250   4.130   4.525
  935SOL    HW2 3705   5.090   4.161   4.510
  936SOL     OW 3706   6.891   0.346   6.316
  936SOL    HW1 3707   6.939   0.279   6.372
  936SOL    HW2 3708   6.957   0.401   6.265
  937SOL     OW 3709   5.308   1.828   6.004
  937SOL    HW1 3710   5.247   1.751   5.986
  937SOL    HW2 3711   5.403   1.796   6.006
  938SOL     OW 3712   5.989   5.216   6.304
  938SOL    HW1 3713   5.982   5.179   6.211
  938SOL    HW2 3714   5.920   5.288   6.316
  939SOL     OW 3715   0.174   0.069   4.349
  939SOL    HW1 3716   0.139   7.025   4.291
  939SOL    HW2 3717   0.115   0.149   4.340
  940SOL     OW 3718   0.902   4.022   1.695
  940SOL    HW1 3719   0.889   4.039   1.792
  940SOL    HW2 3720   0.935   4.105   1.650
  941SOL     OW 3721   5.824   1.332   6.870
  941SOL    HW1 3722   5.857   1.247   6.911
  941SOL    HW2 3723   5.741   1.361   6.916
  942SOL     OW 3724   5.801   6.978   2.752
  942SOL    HW1 3725   5.806   6.912   2.677
  942SOL    HW2 3726   5.860   0.027   2.730
  943SOL     OW 3727   1.752   3.883   3.279
  943SOL    HW1 3728   1.805   3.947   3.334
  943SOL    HW2 3729   1.760   3.791   3.317
  944SOL     OW 3730   0.229   4.858   5.744
  944SOL    HW1 3731   0.276   4.946   5.732
  944SOL    HW2 3732   0.171   4.863   5.825
  945SOL     OW 3733   6.996   3.659   6.008
  945SOL    HW1 3734   0.047   3.604   5.988
  945SOL    HW2 3735   7.023   3.752   6.031
  946SOL     OW 3736   4.893   4.264   5.299
  946SOL    HW1 3737   4.963   4.334   5.317
  946SOL    HW2 3738   4.810   4.285   5.350
  947SOL     OW 3739   3.917   3.157   3.500
  947SOL    HW1 3740   3.967   3.243   3.508
  947SOL    HW2 3741   3.946   3.109   3.416
  948SOL     OW 3742   5.045   0.994   2.932
  948SOL    HW1 3743   5.069   0.898   2.926
  948SOL    HW2 3744   5.094   1.046   2.861
  949SOL     OW 3745   1.852   6.206   0.514
  949SOL    HW1 3746   1.878   6.172   0.604
  949SOL    HW2 3747   1.921   6.179   0.446
  950SOL     OW 3748   4.850   5.811   2.285
  950SOL    HW1 3749   4.914   5.802   2.209
  950SOL    HW2 3750   4.808   5.901   2.283
  951SOL     OW 3751   1.558   0.457   3.738
  951SOL    HW1 3752   1.584   0.454   3.835
  951SOL    HW2 3753   1.484   0.523   3.726
  952SOL     OW 3754   4.274   2.403   3.431
  952SOL    HW1 3755   4.318   2.487   3.399
  952SOL    HW2 3756   4.222   2.363   3.356
  953SOL     OW 3757   5.473   5.448   4.520
  953SOL    HW1 3758   5.429   5.488   4.440
  953SOL    HW2 3759   5.430   5.361   4.542
  954SOL     OW 3760   4.149   5.728   1.802
  954SOL    HW1 3761   4.124   5.821   1.831
  954SOL    HW2 3762   4.066   5.677   1.780
  955SOL     OW 3763   0.244   3.848   1.623
  955SOL    HW1 3764   0.341   3.875   1.621
  955SOL    HW2 3765   0.231   3.779   1.695
  956SOL     OW 3766   5.890   0.362   1.903
  956SOL    HW1 3767   5.832   0.349   1.984
  956SOL    HW2 3768   5.851   0.311   1.827
  957SOL     OW 3769   6.138   3.118   3.268
  957SOL    HW1 3770   6.186   3.075   3.192
  957SOL    HW2 3771   6.168   3.213   3.277
  958SOL     OW 3772   4.249   1.037   1.575
  958SOL    HW1 3773   4.316   1.111   1.578
  958SOL    HW2 3774   4.170   1.062   1.632
  959SOL     OW 3775   3.281   6.414   4.610
  959SOL    HW1 3776   3.379   6.402   4.620
  959SOL    HW2 3777   3.239   6.426   4.700
  960SOL     OW 3778   0.399   0.791   2.453
  960SOL    HW1 3779   0.303   0.789   2.424
  960SOL    HW2 3780   0.456   0.748   2.384
  961SOL     OW 3781   3.927   6.460   3.564
  961SOL    HW1 3782   3.958   6.531   3.501
  961SOL    HW2 3783   3.995   6.386   3.568
  962SOL     OW 3784   0.397   1.275   5.254
  962SOL    HW1 3785   0.489   1.249   5.225
  962SOL    HW2 3786   0.330   1.220   5.204
  963SOL     OW 3787   5.207   1.300   6.018
  963SOL    HW1 3788   5.204   1.400   6.017
  963SOL    HW2 3789   5.128   1.263   5.968
  964SOL     OW 3790   5.467   5.081   0.102
  964SOL    HW1 3791   5.461   5.072   0.201
  964SOL    HW2 3792   5.421   5.003   0.059
  965SOL     OW 3793   5.296   1.535   1.981
  965SOL    HW1 3794   5.287   1.441   1.949
  965SOL    HW2 3795   5.382   1.573   1.949
  966SOL     OW 3796   5.811   3.313   1.980
  966SOL    HW1 3797   5.870   3.292   2.057
  966SOL    HW2 3798   5.865   3.358   1.908
  967SOL     OW 3799   2.805   4.108   1.335
  967SOL    HW1 3800   2.892   4.066   1.311
  967SOL    HW2 3801   2.730   4.047   1.307
  968SOL     OW 3802   3.706   0.746   2.268
  968SOL    HW1 3803   3.689   0.812   2.341
  968SOL    HW2 3804   3.700   0.653   2.304
  969SOL     OW 3805   2.599   4.782   5.456
  969SOL    HW1 3806   2.608   4.757   5.553
  969SOL    HW2 3807   2.571   4.702   5.403
  970SOL     OW 3808   5.643   0.809   6.695
  970SOL    HW1 3809   5.603   0.826   6.785
  970SOL    HW2 3810   5.570   0.791   6.629
  971SOL     OW 3811   0.269   2.653   1.979
  971SOL    HW1 3812   0.252   2.750   1.962
  971SOL    HW2 3813   0.192   2.614   2.030
  972SOL     OW 3814   5.763   1.920   1.396
  972SOL    HW1 3815   5.711   1.858   1.454
  972SOL    HW2 3816   5.815   1.867   1.329
  973SOL     OW 3817   0.952   5.216   6.422
  973SOL    HW1 3818   1.048   5.244   6.428
  973SOL    HW2 3819   0.923   5.174   6.508
  974SOL     OW 3820   5.384   6.443   2.469
  974SOL    HW1 3821   5.387   6.459   2.567
  974SOL    HW2 3822   5.291   6.418   2.442
  975SOL     OW 3823   1.692   0.742   0.052
  975SOL    HW1 3824   1.674   0.756   6.984
  975SOL    HW2 3825   1.788   0.721   0.066
  976SOL     OW 3826   0.064   4.034   1.700
  976SOL    HW1 3827   0.136   3.982   1.656
  976SOL    HW2 3828   7.004   4.000   1.671
  977SOL     OW 3829   0.682   0.321   1.980
  977SOL    HW1 3830   0.697   0.255   2.054
  977SOL    HW2 3831   0.740   0.402   1.995
  978SOL     OW 3832   5.559   2.737   6.155
  978SOL    HW1 3833   5.483   2.738   6.221
  978SOL    HW2 3834   5.522   2.721   6.063
  979SOL     OW 3835   0.649   2.711   6.887
  979SOL    HW1 3836   0.589   2.766   6.945
  979SOL    HW2 3837   0.647   2.746   6.793
  980SOL     OW 3838   5.378   1.983   3.770
  980SOL    HW1 3839   5.420   1.963   3.681
  980SOL    HW2 3840   5.291   1.935   3.778
  981SOL     OW 3841   0.289   1.871   4.946
  981SOL    HW1 3842   0.189   1.872   4.951
  981SOL    HW2 3843   0.318   1.900   4.855
  982SOL     OW 3844   1.126   1.413   4.953
  982SOL    HW1 3845   1.108   1.512   4.952
  982SOL    HW2 3846   1.095   1.374   4.866
  983SOL     OW 3847   6.210   2.727   3.223
  983SOL    HW1 3848   6.217   2.804   3.159
  983SOL    HW2 3849   6.232   2.758   3.315
  984SOL     OW 3850   2.700   2.287   4.542
  984SOL    HW1 3851   2.798   2.295   4.520
  984SOL    HW2 3852   2.653   2.369   4.511
  985SOL     OW 3853   6.477   3.119   4.945
  985SOL    HW1 3854   6.404   3.052   4.953
  985SOL    HW2 3855   6.538   3.112   5.025
  986SOL     OW 3856   4.853   4.642   1.023
  986SOL    HW1 3857   4.941   4.684   0.999
  986SOL    HW2 3858   4.848   4.551   0.981
  987SOL     OW 3859   4.872   6.676   2.735
  987SOL    HW1 3860   4.877   6.736   2.656
  987SOL    HW2 3861   4.871   6.731   2.819
  988SOL     OW 3862   3.514   3.674   1.836
  988SOL    HW1 3863   3.553   3.603   1.894
  988SOL    HW2 3864   3.436   3.716   1.882
  989SOL     OW 3865   6.549   1.958   6.689
  989SOL    HW1 3866   6.470   1.966   6.751
  989SOL    HW2 3867   6.517   1.934   6.598
  990SOL     OW 3868   3.537   1.200   2.088
  990SOL    HW1 3869   3.541   1.163   1.995
  990SOL    HW2 3870   3.602   1.276   2.097
  991SOL     OW 3871   0.750   3.571   4.410
  991SOL    HW1 3872   0.655   3.575   4.441
  991SOL    HW2 3873   0.787   3.479   4.425
  992SOL     OW 3874   0.576   3.295   1.301
  992SOL    HW1 3875   0.529   3.295   1.389
  992SOL    HW2 3876   0.523   3.241   1.235
  993SOL     OW 3877   6.701   4.601   0.410
  993SOL    HW1 3878   6.769   4.626   0.479
  993SOL    HW2 3879   6.735   4.624   0.319
  994SOL     OW 3880   4.089   5.270   1.759
  994SOL    HW1 3881   4.052   5.210   1.830
  994SOL    HW2 3882   4.153   5.335   1.800
  995SOL     OW 3883   4.361   3.025   5.860
  995SOL    HW1 3884   4.345   2.933   5.825
  995SOL    HW2 3885   4.422   3.021   5.939
  996SOL     OW 3886   3.127   5.359   4.611
  996SOL    HW1 3887   3.041   5.355   4.662
  996SOL    HW2 3888   3.113   5.413   4.527
  997SOL     OW 3889   0.962   0.235   3.223
  997SOL    HW1 3890   0.925   0.151   3.183
  997SOL    HW2 3891   0.917   0.314   3.181
  998SOL     OW 3892   5.739   0.483   5.208
  998SOL    HW1 3893   5.657   0.518   5.254
  998SOL    HW2 3894   5.766   0.397   5.251
  999SOL     OW 3895   5.371   4.408   2.473
  999SOL    HW1 3896   5.315   4.486   2.445
  999SOL    HW2 3897   5.451   4.440   2.522
 1000SOL     OW 3898   3.857   1.718   1.706
 1000SOL    HW1 3899   3.762   1.722   1.674
 1000SOL    HW2 3900   3.873   1.790   1.774
 1001SOL     OW 3901   4.907   5.683   1.191
 1001SOL    HW1 3902   4.810   5.673   1.168
 1001SOL    HW2 3903   4.932   5.779   1.190
 1002SOL     OW 3904   5.753   1.694   1.629
 1002SOL    HW1 3905   5.747   1.597   1.650
 1002SOL    HW2 3906   5.849   1.723   1.634
 1003SOL     OW 3907   1.805   6.292   2.656
 1003SOL    HW1 3908   1.853   6.218   2.610
 1003SOL    HW2 3909   1.776   6.261   2.747
 1004SOL     OW 3910   0.408   0.975   1.564
 1004SOL    HW1 3911   0.325   1.026   1.585
 1004SOL    HW2 3912   0.413   0.894   1.622
 1005SOL     OW 3913   1.903   2.768   3.900
 1005SOL    HW1 3914   1.987   2.715   3.890
 1005SOL    HW2 3915   1.880   2.810   3.812
 1006SOL     OW 3916   0.972   4.348   7.025
 1006SOL    HW1 3917   1.062   4.306   7.025
 1006SOL    HW2 3918   0.918   4.310   6.950
 1007SOL     OW 3919   4.860   0.609   5.307
 1007SOL    HW1 3920   4.832   0.656   5.223
 1007SOL    HW2 3921   4.935   0.660   5.350
 1008SOL     OW 3922   0.593   2.873   6.302
 1008SOL    HW1 3923   0.664   2.874   6.372
 1008SOL    HW2 3924   0.634   2.893   6.213
 1009SOL     OW 3925   0.623   5.235   5.147
 1009SOL    HW1 3926   0.629   5.258   5.244
 1009SOL    HW2 3927   0.631   5.136   5.135
 1010SOL     OW 3928   2.641   2.187   0.406
 1010SOL    HW1 3929   2.717   2.157   0.464
 1010SOL    HW2 3930   2.639   2.132   0.323
 1011SOL     OW 3931   1.176   5.697   3.460
 1011SOL    HW1 3932   1.233   5.696   3.379
 1011SOL    HW2 3933   1.091   5.647   3.442
 1012SOL     OW 3934   0.660   6.988   2.310
 1012SOL    HW1 3935   0.694   6.959   2.220
 1012SOL    HW2 3936   0.568   6.953   2.324
 1013SOL     OW 3937   0.877   1.823   6.383
 1013SOL    HW1 3938   0.969   1.862   6.384
 1013SOL    HW2 3939   0.854   1.795   6.290
 1014SOL     OW 3940   0.526   4.446   6.077
 1014SOL    HW1 3941   0.501   4.369   6.018
 1014SOL    HW2 3942   0.575   4.413   6.157
 1015SOL     OW 3943   2.816   6.947   5.772
 1015SOL    HW1 3944   2.910   6.942   5.738
 1015SOL    HW2 3945   2.815   6.994   5.860
 1016SOL     OW 3946   4.424   3.701   0.233
 1016SOL    HW1 3947   4.399   3.774   0.169
 1016SOL    HW2 3948   4.384   3.721   0.322
 1017SOL     OW 3949   4.403   2.544   1.070
 1017SOL    HW1 3950   4.436   2.463   1.118
 1017SOL    HW2 3951   4.373   2.612   1.137
 1018SOL     OW 3952   0.857   4.370   3.919
 1018SOL    HW1 3953   0.840   4.382   4.016
 1018SOL    HW2 3954   0.773   4.387   3.868
 1019SOL     OW 3955   6.863   6.515   1.099
 1019SOL    HW1 3956   6.794   6.466   1.152
 1019SOL    HW2 3957   6.918   6.572   1.160
 1020SOL     OW 3958   6.343   0.952   1.297
 1020SOL    HW1 3959   6.326   0.858   1.326
 1020SOL    HW2 3960   6.324   0.960   1.199
 1021SOL     OW 3961   5.652   6.789   1.673
 1021SOL    HW1 3962   5.569   6.821   1.626
 1021SOL    HW2 3963   5.636   6.697   1.709
 1022SOL     OW 3964   2.804   4.774   5.285
 1022SOL    HW1 3965   2.829   4.677   5.289
 1022SOL    HW2 3966   2.715   4.787   5.330
 1023SOL     OW 3967   0.291   1.083   2.772
 1023SOL    HW1 3968   0.266   1.156   2.708
 1023SOL    HW2 3969   0.352   1.018   2.726
 1024SOL     OW 3970   0.767   2.804   3.987
 1024SOL    HW1 3971   0.754   2.844   3.897
 1024SOL    HW2 3972   0.752   2.705   3.982
 1025SOL     OW 3973   3.327   3.357   1.146
 1025SOL    HW1 3974   3.346   3.270   1.192
 1025SOL    HW2 3975   3.412   3.409   1.137
 1026SOL     OW 3976   2.883   2.782   1.500
 1026SOL    HW1 3977   2.960   2.827   1.456
 1026SOL    HW2 3978   2.904   2.766   1.596
 1027SOL     OW 3979   3.677   6.689   1.974
 1027SOL    HW1 3980   3.755   6.725   1.923
 1027SOL    HW2 3981   3.622   6.765   2.009
 1028SOL     OW 3982   1.765   0.257   2.762
 1028SOL    HW1 3983   1.813   0.204   2.692
 1028SOL    HW2 3984   1.786   0.221   2.853
 1029SOL     OW 3985   1.080   1.230   6.273
 1029SOL    HW1 3986   1.167   1.270   6.246
 1029SOL    HW2 3987   1.074   1.228   6.373
 1030SOL     OW 3988   3.466   3.343   2.151
 1030SOL    HW1 3989   3.394   3.314   2.088
 1030SOL    HW2 3990   3.506   3.264   2.196
 1031SOL     OW 3991   4.677   3.601   1.276
 1031SOL    HW1 3992   4.595   3.631   1.325
 1031SOL    HW2 3993   4.747   3.574   1.342
 1032SOL     OW 3994   0.928   1.365   5.505
 1032SOL    HW1 3995   0.899   1.370   5.409
 1032SOL    HW2 3996   0.984   1.284   5.518
 1033SOL     OW 3997   1.064   5.450   0.893
 1033SOL    HW1 3998   1.008   5.367   0.897
 1033SOL    HW2 3999   1.040   5.510   0.969
 1034SOL     OW 4000   1.250   5.252   4.569
 1034SOL    HW1 4001   1.168   5.206   4.534
 1034SOL    HW2 4002   1.231   5.350   4.580
 1035SOL     OW 4003   6.985   1.074   5.984
 1035SOL    HW1 4004   0.034   1.133   5.967
 1035SOL    HW2 4005   6.902   1.118   5.948
 1036SOL     OW 4006   4.004   0.736   2.181
 1036SOL    HW1 4007   4.048   0.821   2.207
 1036SOL    HW2 4008   3.914   0.730   2.223
 1037SOL     OW 4009   1.499   1.449   2.732
 1037SOL    HW1 4010   1.521   1.418   2.825
 1037SOL    HW2 4011   1.497   1.371   2.670
 1038SOL     OW 4012   1.779   0.859   5.422
 1038SOL    HW1 4013   1.796   0.839   5.325
 1038SOL    HW2 4014   1.863   0.892   5.464
 1039SOL     OW 4015   3.664   3.783   4.668
 1039SOL    HW1 4016   3.620   3.722   4.734
 1039SOL    HW2 4017   3.623   3.874   4.673
 1040SOL     OW 4018   4.840   0.857   2.348
 1040SOL    HW1 4019   4.810   0.939   2.299
 1040SOL    HW2 4020   4.763   0.816   2.395
 1041SOL     OW 4021   0.004   6.657   3.272
 1041SOL    HW1 4022   0.026   6.672   3.369
 1041SOL    HW2 4023   6.939   6.686   3.255
 1042SOL     OW 4024   3.941   5.433   2.578
 1042SOL    HW1 4025   4.037   5.415   2.557
 1042SOL    HW2 4026   3.884   5.404   2.502
 1043SOL     OW 4027   3.550   2.154   3.675
 1043SOL    HW1 4028   3.636   2.111   3.648
 1043SOL    HW2 4029   3.568   2.222   3.745
 1044SOL     OW 4030   5.808   5.009   2.302
 1044SOL    HW1 4031   5.801   4.966   2.392
 1044SOL    HW2 4032   5.717   5.030   2.267
 1045SOL     OW 4033   4.020   0.455   2.250
 1045SOL    HW1 4034   4.003   0.456   2.349
 1045SOL    HW2 4035   4.001   0.545   2.212
 1046SOL     OW 4036   1.700   1.152   0.025
 1046SOL    HW1 4037   1.772   1.092   0.059
 1046SOL    HW2 4038   1.632   1.167   0.097
 1047SOL     OW 4039   2.351   6.965   3.714
 1047SOL    HW1 4040   2.315   6.980   3.621
 1047SOL    HW2 4041   2.325   0.012   3.772
 1048SOL     OW 4042   3.579   6.353   3.076
 1048SOL    HW1 4043   3.520   6.424   3.114
 1048SOL    HW2 4044   3.524   6.275   3.047
 1049SOL     OW 4045   6.696   6.675   3.927
 1049SOL    HW1 4046   6.612   6.700   3.975
 1049SOL    HW2 4047   6.673   6.629   3.842
 1050SOL     OW 4048   3.486   5.291   2.066
 1050SOL    HW1 4049   3.562   5.345   2.030
 1050SOL    HW2 4050   3.479   5.304   2.165
 1051SOL     OW 4051   0.563   5.190   0.690
 1051SOL    HW1 4052   0.558   5.170   0.592
 1051SOL    HW2 4053   0.520   5.279   0.708
 1052SOL     OW 4054   4.446   0.964   5.534
 1052SOL    HW1 4055   4.468   0.890   5.598
 1052SOL    HW2 4056   4.401   1.038   5.583
 1053SOL     OW 4057   5.745   3.942   3.352
 1053SOL    HW1 4058   5.658   3.954   3.304
 1053SOL    HW2 4059   5.747   4.002   3.432
 1054SOL     OW 4060   3.097   3.308   0.618
 1054SOL    HW1 4061   3.018   3.310   0.679
 1054SOL    HW2 4062   3.079   3.364   0.537
 1055SOL     OW 4063   4.146   6.831   5.362
 1055SOL    HW1 4064   4.154   6.863   5.268
 1055SOL    HW2 4065   4.194   6.893   5.423
 1056SOL     OW 4066   1.997   3.531   0.327
 1056SOL    HW1 4067   2.022   3.616   0.372
 1056SOL    HW2 4068   2.012   3.539   0.228
 1057SOL     OW 4069   3.341   3.288   1.587
 1057SOL    HW1 4070   3.340   3.193   1.617
 1057SOL    HW2 4071   3.280   3.342   1.644
 1058SOL     OW 4072   5.530   2.767   3.514
 1058SOL    HW1 4073   5.565   2.854   3.479
 1058SOL    HW2 4074   5.436   2.754   3.481
 1059SOL     OW 4075   2.265   0.901   2.082
 1059SOL    HW1 4076   2.279   1.000   2.092
 1059SOL    HW2 4077   2.317   0.868   2.003
 1060SOL     OW 4078   0.185   4.545   4.236
 1060SOL    HW1 4079   0.099   4.595   4.234
 1060SOL    HW2 4080   0.232   4.556   4.148
 1061SOL     OW 4081   6.260   3.637   0.118
 1061SOL    HW1 4082   6.320   3.716   0.129
 1061SOL    HW2 4083   6.292   3.582   0.041
 1062SOL     OW 4084   5.552   5.415   5.803
 1062SOL    HW1 4085   5.615   5.462   5.864
 1062SOL    HW2 4086   5.504   5.342   5.853
 1063SOL     OW 4087   1.191   5.504   0.656
 1063SOL    HW1 4088   1.220   5.594   0.622
 1063SOL    HW2 4089   1.160   5.513   0.751
 1064SOL     OW 4090   1.501   4.824   3.192
 1064SOL    HW1 4091   1.430   4.841   3.261
 1064SOL    HW2 4092   1.486   4.735   3.150
 1065SOL     OW 4093   4.905   0.859   3.455
 1065SOL    HW1 4094   4.819   0.810   3.441
 1065SOL    HW2 4095   4.917   0.878   3.553
 1066SOL     OW 4096   4.842   6.797   2.996
 1066SOL    HW1 4097   4.838   6.723   3.063
 1066SOL    HW2 4098   4.860   6.884   3.044
 1067SOL     OW 4099   0.724   2.693   0.196
 1067SOL    HW1 4100   0.808   2.639   0.199
 1067SOL    HW2 4101   0.741   2.778   0.146
 1068SOL     OW 4102   6.498   4.918   2.038
 1068SOL    HW1 4103   6.591   4.884   2.048
 1068SOL    HW2 4104   6.462   4.942   2.128
 1069SOL     OW 4105   4.736   5.512   0.546
 1069SOL    HW1 4106   4.750   5.414   0.543
 1069SOL    HW2 4107   4.717   5.546   0.454
 1070SOL     OW 4108   1.166   0.343   1.346
 1070SOL    HW1 4109   1.228   0.285   1.399
 1070SOL    HW2 4110   1.079   0.353   1.395
 1071SOL     OW 4111   1.558   1.038   3.857
 1071SOL    HW1 4112   1.561   0.997   3.766
 1071SOL    HW2 4113   1.506   0.979   3.919
 1072SOL     OW 4114   2.067   0.761   1.085
 1072SOL    HW1 4115   1.986   0.703   1.094
 1072SOL    HW2 4116   2.144   0.706   1.055
 1073SOL     OW 4117   5.031   0.535   3.860
 1073SOL    HW1 4118   5.093   0.585   3.799
 1073SOL    HW2 4119   4.937   0.563   3.842
 1074SOL     OW 4120   2.483   5.621   1.521
 1074SOL    HW1 4121   2.404   5.681   1.529
 1074SOL    HW2 4122   2.465   5.534   1.566
 1075SOL     OW 4123   5.080   6.907   3.493
 1075SOL    HW1 4124   5.028   6.909   3.408
 1075SOL    HW2 4125   5.039   6.970   3.559
 1076SOL     OW 4126   1.013   2.500   5.530
 1076SOL    HW1 4127   1.093   2.534   5.580
 1076SOL    HW2 4128   1.032   2.408   5.496
 1077SOL     OW 4129   6.393   0.171   0.467
 1077SOL    HW1 4130   6.294   0.182   0.459
 1077SOL    HW2 4131   6.424   0.208   0.555
 1078SOL     OW 4132   6.897   0.742   2.434
 1078SOL    HW1 4133   6.800   0.765   2.427
 1078SOL    HW2 4134   6.944   0.811   2.488
 1079SOL     OW 4135   1.596   6.228   2.171
 1079SOL    HW1 4136   1.687   6.208   2.206
 1079SOL    HW2 4137   1.566   6.154   2.111
 1080SOL     OW 4138   2.191   5.166   3.479
 1080SOL    HW1 4139   2.212   5.263   3.481
 1080SOL    HW2 4140   2.091   5.153   3.477
 1081SOL     OW 4141   6.672   5.078   5.024
 1081SOL    HW1 4142   6.765   5.041   5.012
 1081SOL    HW2 4143   6.676   5.160   5.081
 1082SOL     OW 4144   5.383   2.325   5.214
 1082SOL    HW1 4145   5.320   2.264   5.262
 1082SOL    HW2 4146   5.446   2.270   5.158
 1083SOL     OW 4147   4.426   4.163   0.297
 1083SOL    HW1 4148   4.331   4.166   0.265
 1083SOL    HW2 4149   4.428   4.169   0.397
 1084SOL     OW 4150   6.274   6.306   6.550
 1084SOL    HW1 4151   6.213   6.286   6.474
 1084SOL    HW2 4152   6.356   6.249   6.543
 1085SOL     OW 4153   1.642   3.728   4.597
 1085SOL    HW1 4154   1.671   3.751   4.690
 1085SOL    HW2 4155   1.553   3.683   4.600
 1086SOL     OW 4156   0.091   4.589   0.429
 1086SOL    HW1 4157   0.018   4.602   0.497
 1086SOL    HW2 4158   0.051   4.583   0.338
 1087SOL     OW 4159   0.192   2.466   5.217
 1087SOL    HW1 4160   0.216   2.534   5.148
 1087SOL    HW2 4161   0.093   2.451   5.216
 1088SOL     OW 4162   0.252   3.501   2.354
 1088SOL    HW1 4163   0.256   3.601   2.356
 1088SOL    HW2 4164   0.343   3.465   2.335
 1089SOL     OW 4165   7.028   6.274   4.624
 1089SOL    HW1 4166   6.984   6.273   4.714
 1089SOL    HW2 4167   6.985   6.344   4.567
 1090SOL     OW 4168   2.962   1.598   3.518
 1090SOL    HW1 4169   3.045   1.601   3.463
 1090SOL    HW2 4170   2.980   1.637   3.608
 1091SOL     OW 4171   2.782   1.909   4.688
 1091SOL    HW1 4172   2.830   1.980   4.740
 1091SOL    HW2 4173   2.714   1.865   4.746
 1092SOL     OW 4174   1.107   4.581   0.448
 1092SOL    HW1 4175   1.043   4.550   0.378
 1092SOL    HW2 4176   1.089   4.677   0.469
 1093SOL     OW 4177   2.422   0.059   1.504
 1093SOL    HW1 4178   2.416   0.095   1.597
 1093SOL    HW2 4179   2.441   0.134   1.440
 1094SOL     OW 4180   1.339   0.032   2.989
 1094SOL    HW1 4181   1.333   0.006   3.085
 1094SOL    HW2 4182   1.350   0.131   2.981
 1095SOL     OW 4183   0.989   2.914   6.096
 1095SOL    HW1 4184   0.978   2.830   6.150
 1095SOL    HW2 4185   1.067   2.904   6.035
 1096SOL     OW 4186   3.422   4.074   1.663
 1096SOL    HW1 4187   3.491   4.035   1.602
 1096SOL    HW2 4188   3.466   4.140   1.725
 1097SOL     OW 4189   2.734   4.673   3.912
 1097SOL    HW1 4190   2.716   4.683   4.010
 1097SOL    HW2 4191   2.711   4.580   3.883
 1098SOL     OW 4192   4.596   3.608   0.035
 1098SOL    HW1 4193   4.541   3.621   0.117
 1098SOL    HW2 4194   4.610   3.510   0.019
 1099SOL     OW 4195   3.393   1.002   5.839
 1099SOL    HW1 4196   3.322   1.024   5.906
 1099SOL    HW2 4197   3.441   0.919   5.869
 1100SOL     OW 4198   4.083   1.488   4.906
 1100SOL    HW1 4199   3.983   1.484   4.896
 1100SOL    HW2 4200   4.125   1.498   4.816
 1101SOL     OW 4201   5.681   2.968   5.826
 1101SOL    HW1 4202   5.591   2.938   5.792
 1101SOL    HW2 4203   5.708   2.910   5.903
 1102SOL     OW 4204   0.811   0.559   4.783
 1102SOL    HW1 4205   0.783   0.504   4.862
 1102SOL    HW2 4206   0.849   0.498   4.713
 1103SOL     OW 4207   4.150   1.177   0.153
 1103SOL    HW1 4208   4.134   1.158   0.250
 1103SOL    HW2 4209   4.232   1.127   0.123
 1104SOL     OW 4210   2.154   3.457   4.889
 1104SOL    HW1 4211   2.243   3.473   4.932
 1104SOL    HW2 4212   2.120   3.367   4.915
 1105SOL     OW 4213   5.648   3.300   4.585
 1105SOL    HW1 4214   5.615   3.304   4.491
 1105SOL    HW2 4215   5.573   3.321   4.648
 1106SOL     OW 4216   0.217   2.422   0.912
 1106SOL    HW1 4217   0.181   2.376   0.831
 1106SOL    HW2 4218   0.314   2.402   0.922
 1107SOL     OW 4219   1.056   0.126   6.827
 1107SOL    HW1 4220   1.069   0.137   6.925
 1107SOL    HW2 4221   1.017   0.209   6.788
 1108SOL     OW 4222   3.514   6.771   5.467
 1108SOL    HW1 4223   3.442   6.715   5.426
 1108SOL    HW2 4224   3.563   6.718   5.537
 1109SOL     OW 4225   5.157   0.618   3.627
 1109SOL    HW1 4226   5.206   0.704   3.613
 1109SOL    HW2 4227   5.129   0.581   3.538
 1110SOL     OW 4228   4.070   1.937   3.122
 1110SOL    HW1 4229   4.130   1.927   3.043
 1110SOL    HW2 4230   4.123   1.928   3.206
 1111SOL     OW 4231   4.941   5.995   6.961
 1111SOL    HW1 4232   5.033   5.967   6.989
 1111SOL    HW2 4233   4.875   5.965   0.001
 1112SOL     OW 4234   5.586   0.707   2.070
 1112SOL    HW1 4235   5.669   0.709   2.126
 1112SOL    HW2 4236   5.607   0.738   1.977
 1113SOL     OW 4237   5.936   4.296   1.496
 1113SOL    HW1 4238   5.910   4.392   1.485
 1113SOL    HW2 4239   5.981   4.284   1.584
 1114SOL     OW 4240   3.014   1.432   5.816
 1114SOL    HW1 4241   3.090   1.367   5.815
 1114SOL    HW2 4242   3.046   1.520   5.780
 1115SOL     OW 4243   3.787   3.552   6.285
 1115SOL    HW1 4244   3.837   3.466   6.281
 1115SOL    HW2 4245   3.693   3.538   6.254
 1116SOL     OW 4246   4.523   6.396   5.711
 1116SOL    HW1 4247   4.486   6.365   5.798
 1116SOL    HW2 4248   4.534   6.495   5.713
 1117SOL     OW 4249   2.151   2.032   1.864
 1117SOL    HW1 4250   2.100   1.954   1.827
 1117SOL    HW2 4251   2.087   2.107   1.883
 1118SOL     OW 4252   2.624   4.793   0.823
 1118SOL    HW1 4253   2.720   4.818   0.837
 1118SOL    HW2 4254   2.612   4.756   0.731
 1119SOL     OW 4255   4.188   4.459   1.695
 1119SOL    HW1 4256   4.286   4.446   1.681
 1119SOL    HW2 4257   4.171   4.550   1.731
 1120SOL     OW 4258   5.863   5.658   0.824
 1120SOL    HW1 4259   5.867   5.757   0.812
 1120SOL    HW2 4260   5.955   5.623   0.842
 1121SOL     OW 4261   6.490   4.590   4.785
 1121SOL    HW1 4262   6.473   4.556   4.693
 1121SOL    HW2 4263   6.489   4.690   4.785
 1122SOL     OW 4264   5.168   2.586   1.506
 1122SOL    HW1 4265   5.116   2.516   1.457
 1122SOL    HW2 4266   5.115   2.670   1.511
 1123SOL     OW 4267   4.755   2.281   2.983
 1123SOL    HW1 4268   4.696   2.270   2.903
 1123SOL    HW2 4269   4.851   2.286   2.953
 1124SOL     OW 4270   0.074   3.398   5.568
 1124SOL    HW1 4271   0.121   3.343   5.499
 1124SOL    HW2 4272   0.098   3.494   5.557
 1125SOL     OW 4273   2.731   1.859   3.664
 1125SOL    HW1 4274   2.822   1.822   3.683
 1125SOL    HW2 4275   2.715   1.859   3.565
 1126SOL     OW 4276   5.546   5.944   6.802
 1126SOL    HW1 4277   5.585   6.003   6.732
 1126SOL    HW2 4278   5.478   5.883   6.760
 1127SOL     OW 4279   5.534   6.004   4.157
 1127SOL    HW1 4280   5.574   6.066   4.224
 1127SOL    HW2 4281   5.477   6.056   4.093
 1128SOL     OW 4282   6.207   1.430   4.112
 1128SOL    HW1 4283   6.133   1.365   4.097
 1128SOL    HW2 4284   6.269   1.430   4.034
 1129SOL     OW 4285   1.888   0.059   0.584
 1129SOL    HW1 4286   1.795   0.058   0.622
 1129SOL    HW2 4287   1.925   0.152   0.590
 1130SOL     OW 4288   2.240   5.238   0.742
 1130SOL    HW1 4289   2.308   5.312   0.740
 1130SOL    HW2 4290   2.210   5.224   0.837
 1131SOL     OW 4291   1.170   6.356   5.706
 1131SOL    HW1 4292   1.262   6.320   5.692
 1131SOL    HW2 4293   1.143   6.342   5.801
 1132SOL     OW 4294   5.221   0.192   2.852
 1132SOL    HW1 4295   5.148   0.255   2.879
 1132SOL    HW2 4296   5.227   0.118   2.919
 1133SOL     OW 4297   1.148   1.029   0.374
 1133SOL    HW1 4298   1.076   0.989   0.317
 1133SOL    HW2 4299   1.195   0.957   0.425
 1134SOL     OW 4300   5.154   6.717   2.463
 1134SOL    HW1 4301   5.222   6.680   2.401
 1134SOL    HW2 4302   5.136   6.813   2.441
 1135SOL     OW 4303   3.004   6.756   3.671
 1135SOL    HW1 4304   2.929   6.823   3.674
 1135SOL    HW2 4305   2.966   6.665   3.658
 1136SOL     OW 4306   4.433   4.610   3.444
 1136SOL    HW1 4307   4.478   4.521   3.455
 1136SOL    HW2 4308   4.377   4.610   3.361
 1137SOL     OW 4309   1.370   6.954   0.312
 1137SOL    HW1 4310   1.348   6.979   0.406
 1137SOL    HW2 4311   1.338   7.026   0.250
 1138SOL     OW 4312   0.194   0.671   6.308
 1138SOL    HW1 4313   0.150   0.581   6.316
 1138SOL    HW2 4314   0.148   0.724   6.237
 1139SOL     OW 4315   3.248   4.866   2.675
 1139SOL    HW1 4316   3.163   4.881   2.625
 1139SOL    HW2 4317   3.279   4.772   2.661
 1140SOL     OW 4318   2.707   0.861   2.641
 1140SOL    HW1 4319   2.733   0.812   2.558
 1140SOL    HW2 4320   2.717   0.800   2.720
 1141SOL     OW 4321   0.712   6.241   0.253
 1141SOL    HW1 4322   0.669   6.180   0.187
 1141SOL    HW2 4323   0.713   6.198   0.343
 1142SOL     OW 4324   3.387   0.290   3.651
 1142SOL    HW1 4325   3.434   0.231   3.716
 1142SOL    HW2 4326   3.333   0.234   3.587
 1143SOL     OW 4327   2.454   2.689   3.324
 1143SOL    HW1 4328   2.423   2.772   3.369
 1143SOL    HW2 4329   2.440   2.697   3.225
 1144SOL     OW 4330   6.296   4.172   3.914
 1144SOL    HW1 4331   6.333   4.204   3.827
 1144SOL    HW2 4332   6.288   4.072   3.912
 1145SOL     OW 4333   6.186   3.732   1.005
 1145SOL    HW1 4334   6.091   3.701   1.008
 1145SOL    HW2 4335   6.222   3.735   1.099
 1146SOL     OW 4336   6.965   0.428   2.150
 1146SOL    HW1 4337   7.007   0.435   2.060
 1146SOL    HW2 4338   6.915   0.342   2.157
 1147SOL     OW 4339   3.466   5.849   2.121
 1147SOL    HW1 4340   3.389   5.883   2.068
 1147SOL    HW2 4341   3.481   5.908   2.200
 1148SOL     OW 4342   4.671   6.024   0.383
 1148SOL    HW1 4343   4.614   6.033   0.464
 1148SOL    HW2 4344   4.767   6.039   0.408
 1149SOL     OW 4345   6.236   2.786   2.703
 1149SOL    HW1 4346   6.301   2.844   2.752
 1149SOL    HW2 4347   6.143   2.824   2.712
 1150SOL     OW 4348   0.545   3.914   0.049
 1150SOL    HW1 4349   0.538   4.010   0.077
 1150SOL    HW2 4350   0.462   3.865   0.077
 1151SOL     OW 4351   5.716   4.399   5.726
 1151SOL    HW1 4352   5.796   4.351   5.692
 1151SOL    HW2 4353   5.633   4.361   5.684
 1152SOL     OW 4354   4.591   5.435   6.713
 1152SOL    HW1 4355   4.524   5.364   6.734
 1152SOL    HW2 4356   4.630   5.417   6.622
 1153SOL     OW 4357   0.288   0.195   2.207
 1153SOL    HW1 4358   0.319   0.288   2.187
 1153SOL    HW2 4359   0.329   0.165   2.294
 1154SOL     OW 4360   0.013   4.495   1.221
 1154SOL    HW1 4361   0.070   4.577   1.221
 1154SOL    HW2 4362   6.987   4.493   1.305
 1155SOL     OW 4363   2.495   4.871   6.166
 1155SOL    HW1 4364   2.459   4.779   6.180
 1155SOL    HW2 4365   2.595   4.867   6.160
 1156SOL     OW 4366   4.470   1.910   4.873
 1156SOL    HW1 4367   4.440   1.815   4.873
 1156SOL    HW2 4368   4.391   1.969   4.852
 1157SOL     OW 4369   5.246   1.118   6.271
 1157SOL    HW1 4370   5.251   1.192   6.204
 1157SOL    HW2 4371   5.152   1.111   6.305
 1158SOL     OW 4372   6.996   5.104   4.730
 1158SOL    HW1 4373   6.917   5.101   4.668
 1158SOL    HW2 4374   6.966   5.086   4.823
 1159SOL     OW 4375   6.850   0.154   3.666
 1159SOL    HW1 4376   6.851   0.060   3.632
 1159SOL    HW2 4377   6.858   0.154   3.766
 1160SOL     OW 4378   5.213   4.546   1.018
 1160SOL    HW1 4379   5.266   4.603   1.081
 1160SOL    HW2 4380   5.184   4.601   0.940
 1161SOL     OW 4381   6.807   5.413   5.735
 1161SOL    HW1 4382   6.814   5.410   5.835
 1161SOL    HW2 4383   6.863   5.341   5.696
 1162SOL     OW 4384   2.306   2.235   6.702
 1162SOL    HW1 4385   2.337   2.167   6.768
 1162SOL    HW2 4386   2.382   2.260   6.642
 1163SOL     OW 4387   6.624   4.067   1.585
 1163SOL    HW1 4388   6.563   3.992   1.562
 1163SOL    HW2 4389   6.571   4.143   1.623
 1164SOL     OW 4390   5.462   2.947   3.756
 1164SOL    HW1 4391   5.517   2.865   3.739
 1164SOL    HW2 4392   5.476   2.977   3.851
 1165SOL     OW 4393   3.861   5.512   3.646
 1165SOL    HW1 4394   3.880   5.529   3.549
 1165SOL    HW2 4395   3.763   5.515   3.662
 1166SOL     OW 4396   3.237   6.438   0.470
 1166SOL    HW1 4397   3.311   6.442   0.536
 1166SOL    HW2 4398   3.189   6.526   0.468
 1167SOL     OW 4399   3.898   6.589   0.611
 1167SOL    HW1 4400   3.941   6.509   0.654
 1167SOL    HW2 4401   3.834   6.631   0.674
 1168SOL     OW 4402   5.309   2.736   1.770
 1168SOL    HW1 4403   5.336   2.678   1.693
 1168SOL    HW2 4404   5.266   2.819   1.735
 1169SOL     OW 4405   4.554   2.548   5.855
 1169SOL    HW1 4406   4.644   2.591   5.850
 1169SOL    HW2 4407   4.551   2.469   5.794
 1170SOL     OW 4408   5.246   6.895   2.788
 1170SOL    HW1 4409   5.261   6.837   2.868
 1170SOL    HW2 4410   5.333   6.916   2.744
 1171SOL     OW 4411   3.132   6.657   6.784
 1171SOL    HW1 4412   3.099   6.564   6.802
 1171SOL    HW2 4413   3.099   6.688   6.695
 1172SOL     OW 4414   3.498   3.691   1.336
 1172SOL    HW1 4415   3.481   3.629   1.413
 1172SOL    HW2 4416   3.583   3.665   1.290
 1173SOL     OW 4417   3.569   1.019   1.100
 1173SOL    HW1 4418   3.633   1.073   1.154
 1173SOL    HW2 4419   3.534   1.073   1.024
 1174SOL     OW 4420   2.464   4.512   1.809
 1174SOL    HW1 4421   2.509   4.426   1.788
 1174SOL    HW2 4422   2.525   4.588   1.787
 1175SOL     OW 4423   4.128   4.922   6.465
 1175SOL    HW1 4424   4.146   5.019   6.444
 1175SOL    HW2 4425   4.104   4.874   6.380
 1176SOL     OW 4426   5.752   3.354   6.734
 1176SOL    HW1 4427   5.750   3.402   6.822
 1176SOL    HW2 4428   5.745   3.255   6.749
 1177SOL     OW 4429   0.108   3.815   4.902
 1177SOL    HW1 4430   0.012   3.844   4.911
 1177SOL    HW2 4431   0.162   3.890   4.865
 1178SOL     OW 4432   3.572   4.224   0.896
 1178SOL    HW1 4433   3.498   4.198   0.959
 1178SOL    HW2 4434   3.571   4.163   0.816
 1179SOL     OW 4435   2.709   5.782   1.100
 1179SOL    HW1 4436   2.707   5.770   1.199
 1179SOL    HW2 4437   2.616   5.776   1.063
 1180SOL     OW 4438   2.697   5.421   4.235
 1180SOL    HW1 4439   2.688   5.518   4.217
 1180SOL    HW2 4440   2.614   5.387   4.280
 1181SOL     OW 4441   0.395   5.302   4.961
 1181SOL    HW1 4442   0.456   5.324   4.884
 1181SOL    HW2 4443   0.444   5.315   5.047
 1182SOL     OW 4444   4.285   5.770   3.835
 1182SOL    HW1 4445   4.384   5.768   3.852
 1182SOL    HW2 4446   4.268   5.745   3.739
 1183SOL     OW 4447   3.179   4.316   1.124
 1183SOL    HW1 4448   3.218   4.294   1.213
 1183SOL    HW2 4449   3.117   4.394   1.132
 1184SOL     OW 4450   0.076   1.273   5.401
 1184SOL    HW1 4451   0.124   1.296   5.317
 1184SOL    HW2 4452   7.016   1.317   5.402
 1185SOL     OW 4453   1.487   1.107   0.880
 1185SOL    HW1 4454   1.487   1.157   0.794
 1185SOL    HW2 4455   1.434   1.023   0.870
 1186SOL     OW 4456   4.771   6.355   5.556
 1186SOL    HW1 4457   4.717   6.299   5.493
 1186SOL    HW2 4458   4.709   6.403   5.618
 1187SOL     OW 4459   5.162   0.480   5.481
 1187SOL    HW1 4460   5.140   0.571   5.516
 1187SOL    HW2 4461   5.172   0.416   5.557
 1188SOL     OW 4462   3.367   6.161   6.207
 1188SOL    HW1 4463   3.320   6.114   6.132
 1188SOL    HW2 4464   3.465   6.146   6.201
 1189SOL     OW 4465   6.104   1.513   1.475
 1189SOL    HW1 4466   6.189   1.533   1.427
 1189SOL    HW2 4467   6.103   1.417   1.503
 1190SOL     OW 4468   3.410   6.132   3.096
 1190SOL    HW1 4469   3.320   6.112   3.135
 1190SOL    HW2 4470   3.441   6.053   3.043
 1191SOL     OW 4471   4.253   5.392   5.008
 1191SOL    HW1 4472   4.179   5.388   4.941
 1191SOL    HW2 4473   4.261   5.303   5.054
 1192SOL     OW 4474   5.284   4.656   3.094
 1192SOL    HW1 4475   5.291   4.630   2.998
 1192SOL    HW2 4476   5.355   4.610   3.148
 1193SOL     OW 4477   0.004   2.512   5.465
 1193SOL    HW1 4478   6.988   2.430   5.502
 1193SOL    HW2 4479   0.099   2.514   5.496
 1194SOL     OW 4480   5.872   6.873   1.141
 1194SOL    HW1 4481   5.835   6.913   1.225
 1194SOL    HW2 4482   5.958   6.826   1.161
 1195SOL     OW 4483   0.174   4.205   0.927
 1195SOL    HW1 4484   0.149   4.125   0.872
 1195SOL    HW2 4485   0.253   4.251   0.885
 1196SOL     OW 4486   6.411   4.954   3.677
 1196SOL    HW1 4487   6.447   5.046   3.690
 1196SOL    HW2 4488   6.484   4.895   3.642
 1197SOL     OW 4489   4.738   6.789   4.766
 1197SOL    HW1 4490   4.714   6.859   4.833
 1197SOL    HW2 4491   4.838   6.779   4.763
 1198SOL     OW 4492   1.729   3.707   2.777
 1198SOL    HW1 4493   1.700   3.624   2.730
 1198SOL    HW2 4494   1.734   3.690   2.875
 1199SOL     OW 4495   3.760   3.658   1.794
 1199SOL    HW1 4496   3.666   3.687   1.809
 1199SOL    HW2 4497   3.791   3.601   1.870
 1200SOL     OW 4498   3.241   4.079   4.920
 1200SOL    HW1 4499   3.213   4.041   4.832
 1200SOL    HW2 4500   3.184   4.040   4.993
 1201SOL     OW 4501   1.324   1.480   3.826
 1201SOL    HW1 4502   1.408   1.468   3.880
 1201SOL    HW2 4503   1.347   1.524   3.739
 1202SOL     OW 4504   0.694   5.582   5.266
 1202SOL    HW1 4505   0.780   5.541   5.236
 1202SOL    HW2 4506   0.653   5.634   5.191
 1203SOL     OW 4507   0.497   5.778   0.160
 1203SOL    HW1 4508   0.535   5.704   0.106
 1203SOL    HW2 4509   0.411   5.809   0.119
 1204SOL     OW 4510   4.792   1.257   1.858
 1204SOL    HW1 4511   4.839   1.336   1.820
 1204SOL    HW2 4512   4.818   1.175   1.807
 1205SOL     OW 4513   4.021   3.545   0.926
 1205SOL    HW1 4514   3.940   3.490   0.946
 1205SOL    HW2 4515   4.085   3.491   0.871
 1206SOL     OW 4516   2.580   2.486   5.178
 1206SOL    HW1 4517   2.570   2.419   5.251
 1206SOL    HW2 4518   2.499   2.543   5.173
 1207SOL     OW 4519   1.968   6.482   1.195
 1207SOL    HW1 4520   1.897   6.416   1.217
 1207SOL    HW2 4521   2.045   6.435   1.152
 1208SOL     OW 4522   3.996   3.501   1.398
 1208SOL    HW1 4523   3.955   3.591   1.416
 1208SOL    HW2 4524   4.014   3.492   1.300
 1209SOL     OW 4525   4.780   0.636   3.843
 1209SOL    HW1 4526   4.726   0.665   3.922
 1209SOL    HW2 4527   4.720   0.619   3.765
 1210SOL     OW 4528   4.146   6.834   3.537
 1210SOL    HW1 4529   4.221   6.831   3.471
 1210SOL    HW2 4530   4.062   6.864   3.491
 1211SOL     OW 4531   1.198   3.501   2.529
 1211SOL    HW1 4532   1.210   3.413   2.483
 1211SOL    HW2 4533   1.102   3.528   2.524
 1212SOL     OW 4534   6.246   0.377   6.669
 1212SOL    HW1 4535   6.329   0.361   6.722
 1212SOL    HW2 4536   6.169   0.393   6.731
 1213SOL     OW 4537   5.965   2.680   1.331
 1213SOL    HW1 4538   5.970   2.657   1.234
 1213SOL    HW2 4539   5.877   2.725   1.349
 1214SOL     OW 4540   0.750   3.986   6.896
 1214SOL    HW1 4541   0.693   3.934   6.959
 1214SOL    HW2 4542   0.759   3.936   6.810
 1215SOL     OW 4543   0.795   4.534   3.657
 1215SOL    HW1 4544   0.716   4.513   3.713
 1215SOL    HW2 4545   0.818   4.631   3.666
 1216SOL     OW 4546   4.918   0.086   0.950
 1216SOL    HW1 4547   4.982   0.161   0.967
 1216SOL    HW2 4548   4.932   0.050   0.858
 1217SOL     OW 4549   2.339   4.399   1.216
 1217SOL    HW1 4550   2.252   4.351   1.220
 1217SOL    HW2 4551   2.327   4.493   1.248
 1218SOL     OW 4552   1.096   3.280   4.815
 1218SOL    HW1 4553   1.060   3.238   4.732
 1218SOL    HW2 4554   1.121   3.209   4.881
 1219SOL     OW 4555   5.235   5.963   1.904
 1219SOL    HW1 4556   5.307   6.030   1.891
 1219SOL    HW2 4557   5.256   5.907   1.985
 1220SOL     OW 4558   1.371   5.149   3.225
 1220SOL    HW1 4559   1.299   5.186   3.166
 1220SOL    HW2 4560   1.331   5.113   3.309
 1221SOL     OW 4561   4.363   4.429   6.041
 1221SOL    HW1 4562   4.382   4.368   6.117
 1221SOL    HW2 4563   4.268   4.419   6.012
 1222SOL     OW 4564   6.703   0.906   0.171
 1222SOL    HW1 4565   6.777   0.921   0.237
 1222SOL    HW2 4566   6.647   0.988   0.165
 1223SOL     OW 4567   4.311   2.021   0.164
 1223SOL    HW1 4568   4.332   1.928   0.193
 1223SOL    HW2 4569   4.322   2.083   0.241
 1224SOL     OW 4570   3.337   5.294   0.646
 1224SOL    HW1 4571   3.372   5.202   0.664
 1224SOL    HW2 4572   3.380   5.359   0.708
 1225SOL     OW 4573   3.110   3.277   6.727
 1225SOL    HW1 4574   3.166   3.241   6.801
 1225SOL    HW2 4575   3.169   3.325   6.661
 1226SOL     OW 4576   2.118   6.151   1.880
 1226SOL    HW1 4577   2.045   6.141   1.812
 1226SOL    HW2 4578   2.154   6.060   1.903
 1227SOL     OW 4579   6.538   4.668   5.772
 1227SOL    HW1 4580   6.607   4.620   5.826
 1227SOL    HW2 4581   6.579   4.699   5.686
 1228SOL     OW 4582   3.190   2.290   6.213
 1228SOL    HW1 4583   3.190   2.360   6.141
 1228SOL    HW2 4584   3.097   2.276   6.247
 1229SOL     OW 4585   3.927   5.078   6.088
 1229SOL    HW1 4586   4.000   5.017   6.058
 1229SOL    HW2 4587   3.943   5.169   6.051
 1230SOL     OW 4588   4.608   6.725   2.867
 1230SOL    HW1 4589   4.694   6.736   2.917
 1230SOL    HW2 4590   4.607   6.787   2.788
 1231SOL     OW 4591   1.715   2.414   4.606
 1231SOL    HW1 4592   1.753   2.443   4.518
 1231SOL    HW2 4593   1.789   2.390   4.669
 1232SOL     OW 4594   0.514   1.764   5.691
 1232SOL    HW1 4595   0.418   1.780   5.712
 1232SOL    HW2 4596   0.523   1.677   5.642
 1233SOL     OW 4597   1.005   4.892   4.941
 1233SOL    HW1 4598   0.929   4.837   4.975
 1233SOL    HW2 4599   1.080   4.889   5.008
 1234SOL     OW 4600   6.305   3.006   6.119
 1234SOL    HW1 4601   6.281   3.065   6.042
 1234SOL    HW2 4602   6.315   3.062   6.201
 1235SOL     OW 4603   6.814   5.636   2.969
 1235SOL    HW1 4604   6.792   5.636   2.872
 1235SOL    HW2 4605   6.755   5.571   3.017
 1236SOL     OW 4606   4.812   1.616   6.961
 1236SOL    HW1 4607   4.904   1.658   6.965
 1236SOL    HW2 4608   4.770   1.637   6.873
 1237SOL     OW 4609   2.390   4.564   6.685
 1237SOL    HW1 4610   2.361   4.660   6.687
 1237SOL    HW2 4611   2.416   4.535   6.777
 1238SOL     OW 4612   1.773   1.210   0.484
 1238SOL    HW1 4613   1.750   1.307   0.482
 1238SOL    HW2 4614   1.849   1.195   0.547
 1239SOL     OW 4615   6.948   6.868   6.387
 1239SOL    HW1 4616   6.949   6.950   6.444
 1239SOL    HW2 4617   6.863   6.818   6.403
 1240SOL     OW 4618   5.168   6.258   1.341
 1240SOL    HW1 4619   5.158   6.284   1.245
 1240SOL    HW2 4620   5.216   6.171   1.348
 1241SOL     OW 4621   5.204   3.618   4.446
 1241SOL    HW1 4622   5.258   3.682   4.500
 1241SOL    HW2 4623   5.153   3.557   4.506
 1242SOL     OW 4624   0.402   3.256   1.626
 1242SOL    HW1 4625   0.371   3.162   1.641
 1242SOL    HW2 4626   0.500   3.262   1.647
 1243SOL     OW 4627   6.663   6.646   4.628
 1243SOL    HW1 4628   6.616   6.696   4.555
 1243SOL    HW2 4629   6.651   6.694   4.715
 1244SOL     OW 4630   6.021   0.020   4.399
 1244SOL    HW1 4631   6.031   0.115   4.428
 1244SOL    HW2 4632   6.108   7.001   4.412
 1245SOL     OW 4633   5.158   5.232   0.506
 1245SOL    HW1 4634   5.073   5.225   0.453
 1245SOL    HW2 4635   5.218   5.301   0.465
 1246SOL     OW 4636   2.493   6.539   1.232
 1246SOL    HW1 4637   2.397   6.515   1.243
 1246SOL    HW2 4638   2.502   6.637   1.216
 1247SOL     OW 4639   1.797   0.059   6.597
 1247SOL    HW1 4640   1.825   0.149   6.633
 1247SOL    HW2 4641   1.724   0.023   6.655
 1248SOL     OW 4642   2.212   6.824   5.334
 1248SOL    HW1 4643   2.261   6.828   5.420
 1248SOL    HW2 4644   2.228   6.908   5.282
 1249SOL     OW 4645   6.412   1.912   2.583
 1249SOL    HW1 4646   6.405   1.918   2.682
 1249SOL    HW2 4647   6.433   1.818   2.557
 1250SOL     OW 4648   5.705   5.588   4.299
 1250SOL    HW1 4649   5.621   5.559   4.253
 1250SOL    HW2 4650   5.775   5.518   4.285
 1251SOL     OW 4651   2.950   0.626   3.849
 1251SOL    HW1 4652   2.902   0.653   3.932
 1251SOL    HW2 4653   2.976   0.529   3.855
 1252SOL     OW 4654   4.326   3.745   5.940
 1252SOL    HW1 4655   4.380   3.771   5.860
 1252SOL    HW2 4656   4.287   3.828   5.981
 1253SOL     OW 4657   2.832   5.848   2.640
 1253SOL    HW1 4658   2.772   5.852   2.719
 1253SOL    HW2 4659   2.893   5.928   2.640
 1254SOL     OW 4660   1.134   2.477   2.242
 1254SOL    HW1 4661   1.098   2.432   2.160
 1254SOL    HW2 4662   1.082   2.446   2.322
 1255SOL     OW 4663   6.447   2.167   5.217
 1255SOL    HW1 4664   6.442   2.266   5.204
 1255SOL    HW2 4665   6.509   2.148   5.294
 1256SOL     OW 4666   6.702   6.216   3.426
 1256SOL    HW1 4667   6.728   6.312   3.419
 1256SOL    HW2 4668   6.714   6.185   3.521
 1257SOL     OW 4669   0.079   6.488   5.211
 1257SOL    HW1 4670   0.132   6.469   5.128
 1257SOL    HW2 4671   7.011   6.488   5.188
 1258SOL     OW 4672   1.740   5.183   3.449
 1258SOL    HW1 4673   1.706   5.108   3.506
 1258SOL    HW2 4674   1.693   5.183   3.361
 1259SOL     OW 4675   4.340   1.074   4.293
 1259SOL    HW1 4676   4.295   1.016   4.362
 1259SOL    HW2 4677   4.281   1.081   4.212
 1260SOL     OW 4678   1.906   1.454   0.427
 1260SOL    HW1 4679   1.968   1.515   0.477
 1260SOL    HW2 4680   1.960   1.384   0.380
 1261SOL     OW 4681   0.507   5.676   6.614
 1261SOL    HW1 4682   0.492   5.775   6.619
 1261SOL    HW2 4683   0.605   5.657   6.615
 1262SOL     OW 4684   5.408   4.634   1.262
 1262SOL    HW1 4685   5.464   4.690   1.323
 1262SOL    HW2 4686   5.441   4.539   1.265
 1263SOL     OW 4687   0.614   2.037   2.042
 1263SOL    HW1 4688   0.572   1.953   2.075
 1263SOL    HW2 4689   0.652   2.022   1.951
 1264SOL     OW 4690   6.020   4.641   0.495
 1264SOL    HW1 4691   6.058   4.702   0.425
 1264SOL    HW2 4692   6.066   4.658   0.582
 1265SOL     OW 4693   5.625   5.513   4.741
 1265SOL    HW1 4694   5.585   5.493   4.652
 1265SOL    HW2 4695   5.577   5.589   4.783
 1266SOL     OW 4696   0.516   1.304   4.206
 1266SOL    HW1 4697   0.446   1.292   4.276
 1266SOL    HW2 4698   0.538   1.401   4.198
 1267SOL     OW 4699   5.262   1.235   1.121
 1267SOL    HW1 4700   5.323   1.156   1.114
 1267SOL    HW2 4701   5.307   1.316   1.083
 1268SOL     OW 4702   3.245   2.651   6.827
 1268SOL    HW1 4703   3.225   2.553   6.835
 1268SOL    HW2 4704   3.217   2.698   6.911
 1269SOL     OW 4705   6.056   3.786   4.366
 1269SOL    HW1 4706   6.137   3.780   4.309
 1269SOL    HW2 4707   6.022   3.694   4.387
 1270SOL     OW 4708   1.571   3.999   2.870
 1270SOL    HW1 4709   1.505   3.957   2.931
 1270SOL    HW2 4710   1.547   3.979   2.775
 1271SOL     OW 4711   3.608   1.800   2.369
 1271SOL    HW1 4712   3.555   1.722   2.338
 1271SOL    HW2 4713   3.574   1.884   2.326
 1272SOL     OW 4714   5.437   4.122   7.021
 1272SOL    HW1 4715   5.414   4.025   7.013
 1272SOL    HW2 4716   5.354   4.174   0.014
 1273SOL     OW 4717   0.449   3.414   6.763
 1273SOL    HW1 4718   0.526   3.395   6.825
 1273SOL    HW2 4719   0.401   3.330   6.742
 1274SOL     OW 4720   6.807   4.447   1.100
 1274SOL    HW1 4721   6.759   4.412   1.180
 1274SOL    HW2 4722   6.905   4.449   1.118
 1275SOL     OW 4723   4.129   1.397   3.829
 1275SOL    HW1 4724   4.142   1.399   3.730
 1275SOL    HW2 4725   4.163   1.310   3.866
 1276SOL     OW 4726   6.283   5.293   5.019
 1276SOL    HW1 4727   6.370   5.267   4.977
 1276SOL    HW2 4728   6.212   5.300   4.948
 1277SOL     OW 4729   1.939   5.751   6.334
 1277SOL    HW1 4730   2.005   5.724   6.405
 1277SOL    HW2 4731   1.983   5.747   6.244
 1278SOL     OW 4732   1.366   6.964   5.075
 1278SOL    HW1 4733   1.285   6.999   5.027
 1278SOL    HW2 4734   1.446   6.975   5.016
 1279SOL     OW 4735   1.827   4.889   0.012
 1279SOL    HW1 4736   1.917   4.913   0.050
 1279SOL    HW2 4737   1.835   4.880   6.942
 1280SOL     OW 4738   4.310   0.182   4.328
 1280SOL    HW1 4739   4.364   0.098   4.323
 1280SOL    HW2 4740   4.362   0.257   4.285
 1281SOL     OW 4741   2.909   6.170   3.184
 1281SOL    HW1 4742   2.966   6.138   3.261
 1281SOL    HW2 4743   2.860   6.092   3.145
 1282SOL     OW 4744   6.531   2.434   6.702
 1282SOL    HW1 4745   6.531   2.368   6.777
 1282SOL    HW2 4746   6.478   2.514   6.729
 1283SOL     OW 4747   6.724   3.562   4.949
 1283SOL    HW1 4748   6.750   3.649   4.907
 1283SOL    HW2 4749   6.696   3.497   4.877
 1284SOL     OW 4750   4.655   2.143   1.819
 1284SOL    HW1 4751   4.651   2.239   1.849
 1284SOL    HW2 4752   4.725   2.095   1.870
 1285SOL     OW 4753   4.540   2.040   6.021
 1285SOL    HW1 4754   4.577   2.090   6.099
 1285SOL    HW2 4755   4.506   2.105   5.953
 1286SOL     OW 4756   4.128   3.713   1.109
 1286SOL    HW1 4757   4.212   3.676   1.149
 1286SOL    HW2 4758   4.090   3.647   1.044
 1287SOL     OW 4759   5.366   4.394   5.211
 1287SOL    HW1 4760   5.299   4.403   5.138
 1287SOL    HW2 4761   5.399   4.485   5.237
 1288SOL     OW 4762   3.602   3.360   6.485
 1288SOL    HW1 4763   3.629   3.442   6.536
 1288SOL    HW2 4764   3.557   3.387   6.400
 1289SOL     OW 4765   0.147   6.937   0.985
 1289SOL    HW1 4766   0.218   7.005   0.972
 1289SOL    HW2 4767   0.152   6.869   0.912
 1290SOL     OW 4768   0.988   6.396   0.416
 1290SOL    HW1 4769   0.931   6.417   0.336
 1290SOL    HW2 4770   1.079   6.368   0.386
 1291SOL     OW 4771   0.616   4.400   3.812
 1291SOL    HW1 4772   0.601   4.310   3.771
 1291SOL    HW2 4773   0.561   4.408   3.895
 1292SOL     OW 4774   0.562   5.619   2.370
 1292SOL    HW1 4775   0.611   5.669   2.442
 1292SOL    HW2 4776   0.546   5.525   2.401
 1293SOL     OW 4777   1.999   2.352   6.827
 1293SOL    HW1 4778   2.024   2.282   6.894
 1293SOL    HW2 4779   2.016   2.318   6.735
 1294SOL     OW 4780   0.202   4.088   5.802
 1294SOL    HW1 4781   0.185   3.991   5.821
 1294SOL    HW2 4782   0.147   4.143   5.865
 1295SOL     OW 4783   6.680   3.524   1.390
 1295SOL    HW1 4784   6.677   3.621   1.365
 1295SOL    HW2 4785   6.656   3.468   1.311
 1296SOL     OW 4786   3.803   6.189   5.345
 1296SOL    HW1 4787   3.851   6.277   5.340
 1296SOL    HW2 4788   3.712   6.203   5.384
 1297SOL     OW 4789   0.561   7.026   1.211
 1297SOL    HW1 4790   0.567   7.002   1.308
 1297SOL    HW2 4791   0.620   6.967   1.158
 1298SOL     OW 4792   5.263   5.533   3.766
 1298SOL    HW1 4793   5.259   5.451   3.823
 1298SOL    HW2 4794   5.354   5.539   3.723
 1299SOL     OW 4795   2.232   2.416   3.730
 1299SOL    HW1 4796   2.219   2.326   3.689
 1299SOL    HW2 4797   2.328   2.428   3.755
 1300SOL     OW 4798   1.893   3.137   0.340
 1300SOL    HW1 4799   1.870   3.043   0.363
 1300SOL    HW2 4800   1.966   3.138   0.271
 1301SOL     OW 4801   0.398   6.571   1.786
 1301SOL    HW1 4802   0.354   6.541   1.870
 1301SOL    HW2 4803   0.421   6.668   1.793
 1302SOL     OW 4804   4.811   6.469   5.332
 1302SOL    HW1 4805   4.907   6.469   5.303
 1302SOL    HW2 4806   4.804   6.430   5.424
 1303SOL     OW 4807   3.993   1.593   1.511
 1303SOL    HW1 4808   3.945   1.640   1.584
 1303SOL    HW2 4809   3.996   1.651   1.429
 1304SOL     OW 4810   1.683   0.380   0.262
 1304SOL    HW1 4811   1.761   0.320   0.248
 1304SOL    HW2 4812   1.714   0.472   0.287
 1305SOL     OW 4813   5.457   3.635   0.374
 1305SOL    HW1 4814   5.385   3.568   0.391
 1305SOL    HW2 4815   5.533   3.618   0.436
 1306SOL     OW 4816   1.525   5.979   3.881
 1306SOL    HW1 4817   1.510   6.064   3.831
 1306SOL    HW2 4818   1.521   5.997   3.979
 1307SOL     OW 4819   2.157   4.165   3.917
 1307SOL    HW1 4820   2.193   4.190   4.006
 1307SOL    HW2 4821   2.085   4.229   3.890
 1308SOL     OW 4822   6.367   0.447   5.836
 1308SOL    HW1 4823   6.290   0.390   5.862
 1308SOL    HW2 4824   6.371   0.454   5.736
 1309SOL     OW 4825   5.923   5.308   5.347
 1309SOL    HW1 4826   5.965   5.349   5.428
 1309SOL    HW2 4827   5.961   5.217   5.333
 1310SOL     OW 4828   6.968   3.569   3.648
 1310SOL    HW1 4829   6.953   3.524   3.736
 1310SOL    HW2 4830   6.905   3.645   3.638
 1311SOL     OW 4831   6.617   5.729   5.945
 1311SOL    HW1 4832   6.652   5.648   5.994
 1311SOL    HW2 4833   6.607   5.707   5.848
 1312SOL     OW 4834   1.507   6.762   0.176
 1312SOL    HW1 4835   1.549   6.697   0.239
 1312SOL    HW2 4836   1.453   6.829   0.228
 1313SOL     OW 4837   6.950   4.547   2.720
 1313SOL    HW1 4838   7.017   4.473   2.711
 1313SOL    HW2 4839   6.988   4.621   2.776
 1314SOL     OW 4840   3.974   1.723   4.688
 1314SOL    HW1 4841   4.049   1.657   4.678
 1314SOL    HW2 4842   3.952   1.762   4.599
 1315SOL     OW 4843   0.275   1.941   2.706
 1315SOL    HW1 4844   0.287   1.842   2.700
 1315SOL    HW2 4845   0.354   1.981   2.753
 1316SOL     OW 4846   3.412   6.704   5.837
 1316SOL    HW1 4847   3.471   6.778   5.869
 1316SOL    HW2 4848   3.447   6.667   5.751
 1317SOL     OW 4849   2.210   4.440   6.338
 1317SOL    HW1 4850   2.248   4.395   6.418
 1317SOL    HW2 4851   2.157   4.375   6.284
 1318SOL     OW 4852   0.734   2.557   0.963
 1318SOL    HW1 4853   0.826   2.590   0.987
 1318SOL    HW2 4854   0.742   2.477   0.904
 1319SOL     OW 4855   6.963   6.093   1.303
 1319SOL    HW1 4856   7.023   6.157   1.254
 1319SOL    HW2 4857   7.016   6.043   1.371
 1320SOL     OW 4858   3.920   4.447   6.481
 1320SOL    HW1 4859   3.905   4.530   6.534
 1320SOL    HW2 4860   3.848   4.381   6.501
 1321SOL     OW 4861   5.218   2.997   6.478
 1321SOL    HW1 4862   5.279   3.015   6.555
 1321SOL    HW2 4863   5.272   2.984   6.395
 1322SOL     OW 4864   4.159   1.662   3.898
 1322SOL    HW1 4865   4.145   1.564   3.887
 1322SOL    HW2 4866   4.090   1.699   3.961
 1323SOL     OW 4867   3.797   6.731   6.255
 1323SOL    HW1 4868   3.867   6.748   6.186
 1323SOL    HW2 4869   3.744   6.650   6.230
 1324SOL     OW 4870   0.422   3.529   0.235
 1324SOL    HW1 4871   0.471   3.577   0.308
 1324SOL    HW2 4872   0.489   3.485   0.174
 1325SOL     OW 4873   2.937   6.277   4.487
 1325SOL    HW1 4874   2.889   6.317   4.565
 1325SOL    HW2 4875   2.961   6.182   4.507
 1326SOL     OW 4876   5.311   3.284   5.050
 1326SOL    HW1 4877   5.239   3.344   5.085
 1326SOL    HW2 4878   5.395   3.298   5.104
 1327SOL     OW 4879   1.223   6.106   1.407
 1327SOL    HW1 4880   1.206   6.170   1.482
 1327SOL    HW2 4881   1.321   6.100   1.389
 1328SOL     OW 4882   2.894   2.920   0.895
 1328SOL    HW1 4883   2.939   3.005   0.921
 1328SOL    HW2 4884   2.954   2.842   0.914
 1329SOL     OW 4885   1.197   2.077   2.094
 1329SOL    HW1 4886   1.112   2.098   2.142
 1329SOL    HW2 4887   1.203   1.978   2.079
 1330SOL     OW 4888   1.349   1.315   1.326
 1330SOL    HW1 4889   1.325   1.235   1.271
 1330SOL    HW2 4890   1.419   1.369   1.278
 1331SOL     OW 4891   4.850   2.928   3.024
 1331SOL    HW1 4892   4.912   2.960   2.954
 1331SOL    HW2 4893   4.853   2.990   3.103
 1332SOL     OW 4894   2.780   0.098   0.068
 1332SOL    HW1 4895   2.727   0.019   0.039
 1332SOL    HW2 4896   2.739   0.137   0.151
 1333SOL     OW 4897   2.991   3.405   3.779
 1333SOL    HW1 4898   2.970   3.395   3.876
 1333SOL    HW2 4899   2.935   3.478   3.740
 1334SOL     OW 4900   6.354   1.588   3.734
 1334SOL    HW1 4901   6.385   1.550   3.821
 1334SOL    HW2 4902   6.430   1.588   3.668
 1335SOL     OW 4903   2.900   1.812   1.946
 1335SOL    HW1 4904   2.807   1.783   1.922
 1335SOL    HW2 4905   2.907   1.911   1.942
 1336SOL     OW 4906   2.388   2.096   5.049
 1336SOL    HW1 4907   2.464   2.161   5.055
 1336SOL    HW2 4908   2.336   2.097   5.134
 1337SOL     OW 4909   1.162   1.394   3.054
 1337SOL    HW1 4910   1.241   1.359   3.106
 1337SOL    HW2 4911   1.079   1.348   3.085
 1338SOL     OW 4912   7.008   2.718   4.585
 1338SOL    HW1 4913   0.047   2.738   4.515
 1338SOL    HW2 4914   6.919   2.703   4.541
 1339SOL     OW 4915   6.562   1.750   0.187
 1339SOL    HW1 4916   6.626   1.827   0.183
 1339SOL    HW2 4917   6.475   1.780   0.227
 1340SOL     OW 4918   5.684   2.065   2.407
 1340SOL    HW1 4919   5.651   2.140   2.349
 1340SOL    HW2 4920   5.643   2.073   2.498
 1341SOL     OW 4921   3.903   6.490   6.673
 1341SOL    HW1 4922   3.903   6.565   6.606
 1341SOL    HW2 4923   3.995   6.479   6.710
 1342SOL     OW 4924   3.243   5.963   6.052
 1342SOL    HW1 4925   3.217   5.993   5.960
 1342SOL    HW2 4926   3.162   5.926   6.099
 1343SOL     OW 4927   5.188   5.229   2.598
 1343SOL    HW1 4928   5.109   5.214   2.539
 1343SOL    HW2 4929   5.217   5.325   2.589
 1344SOL     OW 4930   0.114   6.062   4.501
 1344SOL    HW1 4931   0.213   6.056   4.510
 1344SOL    HW2 4932   0.081   6.146   4.544
 1345SOL     OW 4933   0.871   6.104   2.718
 1345SOL    HW1 4934   0.798   6.104   2.649
 1345SOL    HW2 4935   0.954   6.144   2.679
 1346SOL     OW 4936   1.412   5.913   4.377
 1346SOL    HW1 4937   1.340   5.966   4.333
 1346SOL    HW2 4938   1.478   5.882   4.309
 1347SOL     OW 4939   7.005   6.777   5.943
 1347SOL    HW1 4940   0.013   6.806   5.855
 1347SOL    HW2 4941   6.907   6.763   5.934
 1348SOL     OW 4942   5.878   6.690   4.195
 1348SOL    HW1 4943   5.910   6.605   4.238
 1348SOL    HW2 4944   5.857   6.757   4.266
 1349SOL     OW 4945   5.328   3.157   5.457
 1349SOL    HW1 4946   5.307   3.064   5.488
 1349SOL    HW2 4947   5.427   3.172   5.460
 1350SOL     OW 4948   5.086   5.355   5.450
 1350SOL    HW1 4949   5.092   5.377   5.352
 1350SOL    HW2 4950   5.139   5.420   5.502
 1351SOL     OW 4951   6.135   1.790   2.693
 1351SOL    HW1 4952   6.200   1.857   2.730
 1351SOL    HW2 4953   6.130   1.712   2.755
 1352SOL     OW 4954   6.605   5.719   4.278
 1352SOL    HW1 4955   6.544   5.706   4.357
 1352SOL    HW2 4956   6.631   5.629   4.242
 1353SOL     OW 4957   0.521   2.737   0.388
 1353SOL    HW1 4958   0.568   2.789   0.460
 1353SOL    HW2 4959   0.587   2.705   0.321
 1354SOL     OW 4960   0.419   4.200   1.647
 1354SOL    HW1 4961   0.394   4.290   1.609
 1354SOL    HW2 4962   0.402   4.129   1.578
 1355SOL     OW 4963   5.561   3.060   4.270
 1355SOL    HW1 4964   5.580   3.007   4.352
 1355SOL    HW2 4965   5.525   3.149   4.296
 1356SOL     OW 4966   3.329   3.361   2.438
 1356SOL    HW1 4967   3.234   3.333   2.451
 1356SOL    HW2 4968   3.379   3.288   2.391
 1357SOL     OW 4969   0.282   4.359   6.565
 1357SOL    HW1 4970   0.359   4.296   6.579
 1357SOL    HW2 4971   0.197   4.315   6.594
 1358SOL     OW 4972   5.194   6.613   6.385
 1358SOL    HW1 4973   5.103   6.620   6.426
 1358SOL    HW2 4974   5.249   6.548   6.436
 1359SOL     OW 4975   5.536   5.035   2.840
 1359SOL    HW1 4976   5.525   5.134   2.850
 1359SOL    HW2 4977   5.598   5.016   2.764
 1360SOL     OW 4978   2.692   3.851   0.162
 1360SOL    HW1 4979   2.593   3.840   0.153
 1360SOL    HW2 4980   2.736   3.762   0.156
 1361SOL     OW 4981   6.271   4.582   5.122
 1361SOL    HW1 4982   6.202   4.544   5.185
 1361SOL    HW2 4983   6.314   4.508   5.072
 1362SOL     OW 4984   3.922   3.755   3.551
 1362SOL    HW1 4985   4.015   3.727   3.574
 1362SOL    HW2 4986   3.860   3.730   3.625
 1363SOL     OW 4987   6.433   5.224   3.408
 1363SOL    HW1 4988   6.440   5.125   3.400
 1363SOL    HW2 4989   6.492   5.255   3.483
 1364SOL     OW 4990   5.460   4.298   1.511
 1364SOL    HW1 4991   5.478   4.338   1.601
 1364SOL    HW2 4992   5.507   4.352   1.441
 1365SOL     OW 4993   0.283   3.994   6.469
 1365SOL    HW1 4994   0.355   4.060   6.493
 1365SOL    HW2 4995   0.196   4.042   6.460
 1366SOL     OW 4996   1.707   5.906   0.505
 1366SOL    HW1 4997   1.776   5.958   0.454
 1366SOL    HW2 4998   1.743   5.885   0.596
 1367SOL     OW 4999   2.699   0.045   3.173
 1367SOL    HW1 5000   2.771   0.057   3.242
 1367SOL    HW2 5001   2.628   7.015   3.209
 1368SOL     OW 5002   6.117   0.502   4.117
 1368SOL    HW1 5003   6.069   0.434   4.172
 1368SOL    HW2 5004   6.195   0.459   4.071
 1369SOL     OW 5005   1.835   6.171   2.251
 1369SOL    HW1 5006   1.880   6.232   2.317
 1369SOL    HW2 5007   1.903   6.111   2.210
 1370SOL     OW 5008   3.581   0.763   0.617
 1370SOL    HW1 5009   3.679   0.762   0.638
 1370SOL    HW2 5010   3.551   0.671   0.593
 1371SOL     OW 5011   5.469   1.598   3.927
 1371SOL    HW1 5012   5.463   1.643   4.016
 1371SOL    HW2 5013   5.565   1.584   3.903
 1372SOL     OW 5014   1.106   3.033   0.674
 1372SOL    HW1 5015   1.030   2.969   0.687
 1372SOL    HW2 5016   1.069   3.125   0.656
 1373SOL     OW 5017   5.810   3.641   0.175
 1373SOL    HW1 5018   5.892   3.685   0.139
 1373SOL    HW2 5019   5.771   3.696   0.249
 1374SOL     OW 5020   4.455   2.362   0.615
 1374SOL    HW1 5021   4.426   2.266   0.615
 1374SOL    HW2 5022   4.544   2.370   0.571
 1375SOL     OW 5023   6.629   4.164   6.569
 1375SOL    HW1 5024   6.593   4.119   6.651
 1375SOL    HW2 5025   6.617   4.263   6.578
 1376SOL     OW 5026   5.014   3.628   3.897
 1376SOL    HW1 5027   5.045   3.603   3.989
 1376SOL    HW2 5028   4.987   3.545   3.847
 1377SOL     OW 5029   6.759   3.886   5.217
 1377SOL    HW1 5030   6.848   3.931   5.222
 1377SOL    HW2 5031   6.763   3.797   5.263
 1378SOL     OW 5032   6.435   1.365   4.893
 1378SOL    HW1 5033   6.530   1.348   4.864
 1378SOL    HW2 5034   6.390   1.278   4.913
 1379SOL     OW 5035   3.388   0.063   2.135
 1379SOL    HW1 5036   3.455   0.129   2.166
 1379SOL    HW2 5037   3.325   0.041   2.210
 1380SOL     OW 5038   0.725   0.209   2.247
 1380SOL    HW1 5039   0.706   0.120   2.288
 1380SOL    HW2 5040   0.822   0.231   2.259
 1381SOL     OW 5041   5.435   2.720   6.752
 1381SOL    HW1 5042   5.469   2.684   6.840
 1381SOL    HW2 5043   5.342   2.755   6.764
 1382SOL     OW 5044   4.939   4.538   0.254
 1382SOL    HW1 5045   4.907   4.450   0.289
 1382SOL    HW2 5046   4.904   4.551   0.161
 1383SOL     OW 5047   0.648   0.679   0.506
 1383SOL    HW1 5048   0.674   0.775   0.505
 1383SOL    HW2 5049   0.629   0.649   0.412
 1384SOL     OW 5050   3.485   1.251   2.651
 1384SOL    HW1 5051   3.492   1.158   2.686
 1384SOL    HW2 5052   3.576   1.283   2.623
 1385SOL     OW 5053   0.790   3.059   2.690
 1385SOL    HW1 5054   0.787   3.146   2.642
 1385SOL    HW2 5055   0.774   3.074   2.788
 1386SOL     OW 5056   2.487   1.281   4.842
 1386SOL    HW1 5057   2.420   1.277   4.916
 1386SOL    HW2 5058   2.438   1.292   4.755
 1387SOL     OW 5059   3.923   6.877   3.403
 1387SOL    HW1 5060   3.913   6.930   3.319
 1387SOL    HW2 5061   3.842   6.819   3.416
 1388SOL     OW 5062   0.482   6.510   3.825
 1388SOL    HW1 5063   0.485   6.439   3.895
 1388SOL    HW2 5064   0.419   6.481   3.752
 1389SOL     OW 5065   0.091   1.232   3.622
 1389SOL    HW1 5066   0.104   1.239   3.523
 1389SOL    HW2 5067   0.025   1.301   3.652
 1390SOL     OW 5068   4.680   1.740   6.432
 1390SOL    HW1 5069   4.768   1.788   6.429
 1390SOL    HW2 5070   4.625   1.768   6.353
 1391SOL     OW 5071   6.363   1.151   5.596
 1391SOL    HW1 5072   6.287   1.128   5.537
 1391SOL    HW2 5073   6.446   1.165   5.541
 1392SOL     OW 5074   5.218   5.551   5.585
 1392SOL    HW1 5075   5.316   5.541   5.570
 1392SOL    HW2 5076   5.202   5.573   5.682
 1393SOL     OW 5077   6.070   3.162   6.421
 1393SOL    HW1 5078   6.040   3.162   6.517
 1393SOL    HW2 5079   6.155   3.111   6.412
 1394SOL     OW 5080   3.864   0.313   3.643
 1394SOL    HW1 5081   3.928   0.245   3.605
 1394SOL    HW2 5082   3.854   0.298   3.741
 1395SOL     OW 5083   0.947   4.009   2.693
 1395SOL    HW1 5084   0.973   3.913   2.704
 1395SOL    HW2 5085   0.938   4.051   2.784
 1396SOL     OW 5086   1.633   6.930   3.265
 1396SOL    HW1 5087   1.637   7.021   3.307
 1396SOL    HW2 5088   1.541   6.913   3.231
 1397SOL     OW 5089   0.396   6.528   5.021
 1397SOL    HW1 5090   0.447   6.565   5.098
 1397SOL    HW2 5091   0.458   6.479   4.960
 1398SOL     OW 5092   1.148   1.649   0.601
 1398SOL    HW1 5093   1.059   1.694   0.602
 1398SOL    HW2 5094   1.218   1.713   0.568
 1399SOL     OW 5095   4.296   0.467   0.490
 1399SOL    HW1 5096   4.285   0.403   0.414
 1399SOL    HW2 5097   4.385   0.512   0.483
 1400SOL     OW 5098   6.576   0.827   4.283
 1400SOL    HW1 5099   6.486   0.863   4.306
 1400SOL    HW2 5100   6.641   0.851   4.356
 1401SOL     OW 5101   5.926   6.738   4.610
 1401SOL    HW1 5102   5.886   6.690   4.688
 1401SOL    HW2 5103   5.853   6.783   4.558
 1402SOL     OW 5104   5.717   4.213   0.008
 1402SOL    HW1 5105   5.640   4.155   7.009
 1402SOL    HW2 5106   5.787   4.157   0.052
 1403SOL     OW 5107   2.083   3.099   0.112
 1403SOL    HW1 5108   2.046   3.037   0.043
 1403SOL    HW2 5109   2.177   3.124   0.087
 1404SOL     OW 5110   4.236   0.037   1.085
 1404SOL    HW1 5111   4.232   7.005   1.163
 1404SOL    HW2 5112   4.302   0.110   1.104
 1405SOL     OW 5113   2.002   3.517   0.686
 1405SOL    HW1 5114   2.016   3.441   0.750
 1405SOL    HW2 5115   1.905   3.523   0.662
 1406SOL     OW 5116   1.837   4.351   1.523
 1406SOL    HW1 5117   1.811   4.447   1.529
 1406SOL    HW2 5118   1.898   4.328   1.598
 1407SOL     OW 5119   1.483   3.677   2.959
 1407SOL    HW1 5120   1.576   3.654   2.987
 1407SOL    HW2 5121   1.462   3.630   2.873
 1408SOL     OW 5122   5.843   6.357   0.000
 1408SOL    HW1 5123   5.920   6.322   0.054
 1408SOL    HW2 5124   5.867   6.355   6.933
 1409SOL     OW 5125   0.247   0.388   5.921
 1409SOL    HW1 5126   0.228   0.486   5.924
 1409SOL    HW2 5127   0.313   0.365   5.993
 1410SOL     OW 5128   2.734   3.652   6.860
 1410SOL    HW1 5129   2.765   3.557   6.868
 1410SOL    HW2 5130   2.713   3.671   6.764
 1411SOL     OW 5131   3.404   6.432   6.502
 1411SOL    HW1 5132   3.365   6.344   6.477
 1411SOL    HW2 5133   3.349   6.506   6.463
 1412SOL     OW 5134   0.450   3.871   1.256
 1412SOL    HW1 5135   0.412   3.950   1.304
 1412SOL    HW2 5136   0.550   3.870   1.267
 1413SOL     OW 5137   1.582   1.756   4.335
 1413SOL    HW1 5138   1.490   1.755   4.372
 1413SOL    HW2 5139   1.578   1.769   4.236
 1414SOL     OW 5140   1.532   2.762   1.558
 1414SOL    HW1 5141   1.631   2.776   1.555
 1414SOL    HW2 5142   1.507   2.690   1.492
 1415SOL     OW 5143   2.819   2.207   4.785
 1415SOL    HW1 5144   2.763   2.222   4.867
 1415SOL    HW2 5145   2.785   2.265   4.711
 1416SOL     OW 5146   4.627   0.649   4.707
 1416SOL    HW1 5147   4.656   0.570   4.654
 1416SOL    HW2 5148   4.613   0.622   4.802
 1417SOL     OW 5149   3.930   3.126   6.058
 1417SOL    HW1 5150   3.965   3.200   6.115
 1417SOL    HW2 5151   3.918   3.044   6.113
 1418SOL     OW 5152   2.958   3.795   0.764
 1418SOL    HW1 5153   2.863   3.790   0.732
 1418SOL    HW2 5154   3.009   3.860   0.709
 1419SOL     OW 5155   1.706   5.506   4.078
 1419SOL    HW1 5156   1.619   5.554   4.078
 1419SOL    HW2 5157   1.715   5.454   4.163
 1420SOL     OW 5158   4.310   5.148   3.121
 1420SOL    HW1 5159   4.372   5.221   3.096
 1420SOL    HW2 5160   4.311   5.136   3.221
 1421SOL     OW 5161   0.824   4.394   4.196
 1421SOL    HW1 5162   0.912   4.389   4.244
 1421SOL    HW2 5163   0.768   4.465   4.238
 1422SOL     OW 5164   2.319   5.006   5.989
 1422SOL    HW1 5165   2.380   4.980   6.064
 1422SOL    HW2 5166   2.373   5.021   5.906
 1423SOL     OW 5167   4.155   2.023   4.583
 1423SOL    HW1 5168   4.095   1.943   4.574
 1423SOL    HW2 5169   4.236   2.011   4.525
 1424SOL     OW 5170   6.165   3.903   6.748
 1424SOL    HW1 5171   6.107   3.881   6.671
 1424SOL    HW2 5172   6.237   3.835   6.757
 1425SOL     OW 5173   2.758   6.283   4.700
 1425SOL    HW1 5174   2.686   6.340   4.660
 1425SOL    HW2 5175   2.724   6.189   4.709
 1426SOL     OW 5176   1.911   2.097   6.251
 1426SOL    HW1 5177   1.994   2.153   6.251
 1426SOL    HW2 5178   1.930   2.009   6.294
 1427SOL     OW 5179   0.356   0.678   3.645
 1427SOL    HW1 5180   0.455   0.680   3.660
 1427SOL    HW2 5181   0.311   0.738   3.712
 1428SOL     OW 5182   0.200   2.145   1.211
 1428SOL    HW1 5183   0.217   2.244   1.216
 1428SOL    HW2 5184   0.272   2.097   1.261
 1429SOL     OW 5185   5.865   1.634   6.764
 1429SOL    HW1 5186   5.916   1.550   6.741
 1429SOL    HW2 5187   5.770   1.611   6.783
 1430SOL     OW 5188   2.175   4.144   4.494
 1430SOL    HW1 5189   2.207   4.186   4.579
 1430SOL    HW2 5190   2.088   4.097   4.511
 1431SOL     OW 5191   2.719   2.548   6.103
 1431SOL    HW1 5192   2.748   2.492   6.026
 1431SOL    HW2 5193   2.773   2.633   6.106
 1432SOL     OW 5194   2.308   1.553   0.862
 1432SOL    HW1 5195   2.339   1.464   0.830
 1432SOL    HW2 5196   2.335   1.624   0.797
 1433SOL     OW 5197   3.534   0.552   3.696
 1433SOL    HW1 5198   3.541   0.607   3.613
 1433SOL    HW2 5199   3.470   0.476   3.680
 1434SOL     OW 5200   6.756   1.240   6.467
 1434SOL    HW1 5201   6.836   1.194   6.505
 1434SOL    HW2 5202   6.716   1.300   6.536
 1435SOL     OW 5203   0.165   0.600   3.977
 1435SOL    HW1 5204   0.239   0.642   4.028
 1435SOL    HW2 5205   0.191   0.506   3.952
 1436SOL     OW 5206   5.922   3.611   0.622
 1436SOL    HW1 5207   5.993   3.576   0.682
 1436SOL    HW2 5208   5.947   3.703   0.591
 1437SOL     OW 5209   3.643   1.032   5.436
 1437SOL    HW1 5210   3.660   0.934   5.432
 1437SOL    HW2 5211   3.552   1.052   5.400
 1438SOL     OW 5212   3.073   1.317   1.744
 1438SOL    HW1 5213   3.094   1.392   1.682
 1438SOL    HW2 5214   3.008   1.347   1.813
 1439SOL     OW 5215   0.908   5.817   0.502
 1439SOL    HW1 5216   0.983   5.763   0.538
 1439SOL    HW2 5217   0.878   5.779   0.415
 1440SOL     OW 5218   3.368   3.300   4.595
 1440SOL    HW1 5219   3.418   3.264   4.516
 1440SOL    HW2 5220   3.284   3.247   4.608
 1441SOL     OW 5221   6.401   3.638   3.280
 1441SOL    HW1 5222   6.441   3.601   3.196
 1441SOL    HW2 5223   6.413   3.571   3.354
 1442SOL     OW 5224   5.438   5.033   0.358
 1442SOL    HW1 5225   5.422   4.936   0.376
 1442SOL    HW2 5226   5.447   5.082   0.444
 1443SOL     OW 5227   0.791   0.997   3.976
 1443SOL    HW1 5228   0.877   0.948   3.992
 1443SOL    HW2 5229   0.799   1.052   3.893
 1444SOL     OW 5230   4.045   5.703   2.946
 1444SOL    HW1 5231   3.996   5.775   2.896
 1444SOL    HW2 5232   4.069   5.630   2.883
 1445SOL     OW 5233   0.597   2.859   1.754
 1445SOL    HW1 5234   0.513   2.911   1.736
 1445SOL    HW2 5235   0.574   2.763   1.767
 1446SOL     OW 5236   5.413   2.954   6.980
 1446SOL    HW1 5237   5.337   2.901   6.942
 1446SOL    HW2 5238   5.430   2.926   0.044
 1447SOL     OW 5239   6.578   0.462   5.073
 1447SOL    HW1 5240   6.555   0.451   5.169
 1447SOL    HW2 5241   6.510   0.522   5.029
 1448SOL     OW 5242   6.008   1.488   0.526
 1448SOL    HW1 5243   5.969   1.567   0.574
 1448SOL    HW2 5244   6.014   1.410   0.588
 1449SOL     OW 5245   5.847   6.604   0.101
 1449SOL    HW1 5246   5.870   6.524   0.045
 1449SOL    HW2 5247   5.922   6.670   0.094
 1450SOL     OW 5248   0.180   1.947   2.314
 1450SOL    HW1 5249   0.124   1.878   2.269
 1450SOL    HW2 5250   0.225   2.004   2.245
 1451SOL     OW 5251   3.003   1.089   2.944
 1451SOL    HW1 5252   3.045   1.146   3.016
 1451SOL    HW2 5253   2.904   1.102   2.945
 1452SOL     OW 5254   5.180   1.814   4.870
 1452SOL    HW1 5255   5.245   1.891   4.870
 1452SOL    HW2 5256   5.186   1.766   4.783
 1453SOL     OW 5257   5.978   3.911   4.920
 1453SOL    HW1 5258   6.075   3.937   4.921
 1453SOL    HW2 5259   5.923   3.991   4.895
 1454SOL     OW 5260   6.186   3.086   2.413
 1454SOL    HW1 5261   6.190   2.990   2.443
 1454SOL    HW2 5262   6.122   3.136   2.473
 1455SOL     OW 5263   0.794   0.580   1.935
 1455SOL    HW1 5264   0.833   0.546   1.849
 1455SOL    HW2 5265   0.768   0.676   1.924
 1456SOL     OW 5266   6.603   6.379   5.156
 1456SOL    HW1 5267   6.702   6.388   5.147
 1456SOL    HW2 5268   6.558   6.420   5.077
 1457SOL     OW 5269   1.625   0.414   1.913
 1457SOL    HW1 5270   1.583   0.473   1.982
 1457SOL    HW2 5271   1.604   0.448   1.822
 1458SOL     OW 5272   5.450   6.534   4.483
 1458SOL    HW1 5273   5.514   6.494   4.548
 1458SOL    HW2 5274   5.403   6.461   4.432
 1459SOL     OW 5275   2.431   4.129   6.402
 1459SOL    HW1 5276   2.368   4.052   6.410
 1459SOL    HW2 5277   2.412   4.195   6.475
 1460SOL     OW 5278   6.995   5.645   5.663
 1460SOL    HW1 5279   7.026   5.627   5.757
 1460SOL    HW2 5280   6.931   5.573   5.635
 1461SOL     OW 5281   6.645   4.824   3.553
 1461SOL    HW1 5282   6.701   4.826   3.470
 1461SOL    HW2 5283   6.659   4.738   3.601
 1462SOL     OW 5284   6.415   1.661   6.990
 1462SOL    HW1 5285   6.482   1.705   0.019
 1462SOL    HW2 5286   6.461   1.616   6.914
 1463SOL     OW 5287   0.279   6.414   5.931
 1463SOL    HW1 5288   0.182   6.424   5.953
 1463SOL    HW2 5289   0.323   6.504   5.930
 1464SOL     OW 5290   6.909   0.355   0.934
 1464SOL    HW1 5291   6.987   0.398   0.887
 1464SOL    HW2 5292   6.888   0.407   1.017
 1465SOL     OW 5293   1.340   1.277   3.220
 1465SOL    HW1 5294   1.435   1.260   3.246
 1465SOL    HW2 5295   1.293   1.325   3.294
 1466SOL     OW 5296   0.512   0.071   3.326
 1466SOL    HW1 5297   0.492   0.080   3.228
 1466SOL    HW2 5298   0.580   7.029   3.340
 1467SOL     OW 5299   1.900   0.113   2.020
 1467SOL    HW1 5300   1.953   0.093   1.938
 1467SOL    HW2 5301   1.881   0.211   2.025
 1468SOL     OW 5302   5.577   5.931   2.928
 1468SOL    HW1 5303   5.599   6.027   2.911
 1468SOL    HW2 5304   5.603   5.906   3.021
 1469SOL     OW 5305   0.343   1.123   3.090
 1469SOL    HW1 5306   0.247   1.131   3.114
 1469SOL    HW2 5307   0.368   1.195   3.025
 1470SOL     OW 5308   0.946   0.847   2.303
 1470SOL    HW1 5309   0.935   0.747   2.299
 1470SOL    HW2 5310   0.993   0.871   2.388
 1471SOL     OW 5311   0.939   0.635   6.867
 1471SOL    HW1 5312   1.033   0.634   6.833
 1471SOL    HW2 5313   0.889   0.710   6.824
 1472SOL     OW 5314   4.501   5.626   4.698
 1472SOL    HW1 5315   4.541   5.594   4.784
 1472SOL    HW2 5316   4.478   5.723   4.706
 1473SOL     OW 5317   6.036   6.090   3.946
 1473SOL    HW1 5318   6.102   6.130   3.884
 1473SOL    HW2 5319   5.974   6.030   3.895
 1474SOL     OW 5320   6.680   5.904   3.583
 1474SOL    HW1 5321   6.687   5.980   3.646
 1474SOL    HW2 5322   6.740   5.920   3.504
 1475SOL     OW 5323   0.656   0.310   1.625
 1475SOL    HW1 5324   0.675   0.408   1.635
 1475SOL    HW2 5325   0.593   0.296   1.548
 1476SOL     OW 5326   1.642   0.795   1.214
 1476SOL    HW1 5327   1.592   0.880   1.200
 1476SOL    HW2 5328   1.704   0.780   1.138
 1477SOL     OW 5329   2.668   0.239   6.514
 1477SOL    HW1 5330   2.741   0.231   6.582
 1477SOL    HW2 5331   2.582   0.208   6.553
 1478SOL     OW 5332   5.419   4.343   0.286
 1478SOL    HW1 5333   5.503   4.312   0.331
 1478SOL    HW2 5334   5.341   4.290   0.320
 1479SOL     OW 5335   1.319   4.350   0.244
 1479SOL    HW1 5336   1.295   4.438   0.204
 1479SOL    HW2 5337   1.277   4.343   0.335
 1480SOL     OW 5338   2.417   0.865   0.417
 1480SOL    HW1 5339   2.419   0.804   0.338
 1480SOL    HW2 5340   2.479   0.943   0.401
 1481SOL     OW 5341   6.184   1.837   4.673
 1481SOL    HW1 5342   6.226   1.885   4.750
 1481SOL    HW2 5343   6.108   1.892   4.638
 1482SOL     OW 5344   5.650   1.402   1.053
 1482SOL    HW1 5345   5.598   1.487   1.046
 1482SOL    HW2 5346   5.699   1.386   0.967
 1483SOL     OW 5347   0.394   3.039   6.172
 1483SOL    HW1 5348   0.430   2.982   6.246
 1483SOL    HW2 5349   0.456   3.032   6.093
 1484SOL     OW 5350   6.532   3.929   3.972
 1484SOL    HW1 5351   6.450   3.898   3.924
 1484SOL    HW2 5352   6.508   4.007   4.030
 1485SOL     OW 5353   4.561   2.512   2.576
 1485SOL    HW1 5354   4.624   2.508   2.498
 1485SOL    HW2 5355   4.573   2.600   2.623
 1486SOL     OW 5356   4.639   2.550   3.403
 1486SOL    HW1 5357   4.678   2.615   3.338
 1486SOL    HW2 5358   4.565   2.594   3.453
 1487SOL     OW 5359   6.129   1.745   6.691
 1487SOL    HW1 5360   6.198   1.675   6.709
 1487SOL    HW2 5361   6.038   1.705   6.701
 1488SOL     OW 5362   5.922   2.127   2.824
 1488SOL    HW1 5363   5.995   2.171   2.770
 1488SOL    HW2 5364   5.879   2.196   2.883
 1489SOL     OW 5365   3.982   4.844   4.229
 1489SOL    HW1 5366   3.913   4.889   4.285
 1489SOL    HW2 5367   4.027   4.911   4.170
 1490SOL     OW 5368   1.457   2.851   1.225
 1490SOL    HW1 5369   1.400   2.910   1.282
 1490SOL    HW2 5370   1.438   2.870   1.129
 1491SOL     OW 5371   0.235   3.750   3.056
 1491SOL    HW1 5372   0.227   3.845   3.027
 1491SOL    HW2 5373   0.205   3.690   2.982
 1492SOL     OW 5374   6.060   1.768   1.573
 1492SOL    HW1 5375   6.122   1.819   1.513
 1492SOL    HW2 5376   6.078   1.670   1.563
 1493SOL     OW 5377   5.039   0.662   4.679
 1493SOL    HW1 5378   5.133   0.646   4.706
 1493SOL    HW2 5379   5.019   0.760   4.680
 1494SOL     OW 5380   4.268   2.679   6.010
 1494SOL    HW1 5381   4.253   2.738   5.931
 1494SOL    HW2 5382   4.365   2.676   6.033
 1495SOL     OW 5383   1.044   3.263   3.265
 1495SOL    HW1 5384   1.009   3.199   3.333
 1495SOL    HW2 5385   1.143   3.274   3.275
 1496SOL     OW 5386   0.720   0.845   1.853
 1496SOL    HW1 5387   0.782   0.904   1.801
 1496SOL    HW2 5388   0.709   0.881   1.945
 1497SOL     OW 5389   0.164   4.133   3.335
 1497SOL    HW1 5390   0.236   4.080   3.380
 1497SOL    HW2 5391   0.076   4.109   3.375
 1498SOL     OW 5392   1.750   5.032   6.640
 1498SOL    HW1 5393   1.824   5.096   6.619
 1498SOL    HW2 5394   1.707   5.059   6.726
 1499SOL     OW 5395   1.139   3.614   5.090
 1499SOL    HW1 5396   1.232   3.579   5.085
 1499SOL    HW2 5397   1.082   3.566   5.023
 1500SOL     OW 5398   5.724   6.998   0.193
 1500SOL    HW1 5399   5.823   7.001   0.177
 1500SOL    HW2 5400   5.682   6.931   0.132
 1501SOL     OW 5401   4.224   0.799   6.426
 1501SOL    HW1 5402   4.184   0.746   6.501
 1501SOL    HW2 5403   4.322   0.782   6.422
 1502SOL     OW 5404   5.967   6.603   0.954
 1502SOL    HW1 5405   6.003   6.683   1.001
 1502SOL    HW2 5406   6.027   6.578   0.878
 1503SOL     OW 5407   2.674   2.592   1.240
 1503SOL    HW1 5408   2.628   2.656   1.302
 1503SOL    HW2 5409   2.769   2.581   1.268
 1504SOL     OW 5410   2.643   0.192   4.791
 1504SOL    HW1 5411   2.578   0.262   4.762
 1504SOL    HW2 5412   2.677   0.142   4.711
 1505SOL     OW 5413   5.369   0.676   6.663
 1505SOL    HW1 5414   5.336   0.765   6.693
 1505SOL    HW2 5415   5.410   0.628   6.740
 1506SOL     OW 5416   1.472   5.365   2.601
 1506SOL    HW1 5417   1.515   5.410   2.679
 1506SOL    HW2 5418   1.426   5.281   2.631
 1507SOL     OW 5419   1.493   1.850   4.737
 1507SOL    HW1 5420   1.429   1.773   4.736
 1507SOL    HW2 5421   1.547   1.847   4.821
 1508SOL     OW 5422   4.942   7.026   0.684
 1508SOL    HW1 5423   5.039   7.023   0.660
 1508SOL    HW2 5424   4.889   6.980   0.613
 1509SOL     OW 5425   3.983   2.759   6.147
 1509SOL    HW1 5426   3.907   2.709   6.105
 1509SOL    HW2 5427   4.067   2.742   6.096
 1510SOL     OW 5428   5.889   1.702   3.903
 1510SOL    HW1 5429   5.851   1.643   3.974
 1510SOL    HW2 5430   5.986   1.684   3.893
 1511SOL     OW 5431   2.530   2.388   6.968
 1511SOL    HW1 5432   2.620   2.350   6.946
 1511SOL    HW2 5433   2.540   2.485   6.990
 1512SOL     OW 5434   6.767   6.544   1.804
 1512SOL    HW1 5435   6.695   6.474   1.809
 1512SOL    HW2 5436   6.835   6.517   1.736
 1513SOL     OW 5437   4.515   0.603   3.730
 1513SOL    HW1 5438   4.440   0.540   3.711
 1513SOL    HW2 5439   4.515   0.628   3.826
 1514SOL     OW 5440   5.137   2.158   4.345
 1514SOL    HW1 5441   5.201   2.095   4.301
 1514SOL    HW2 5442   5.052   2.110   4.366
 1515SOL     OW 5443   6.795   2.923   6.036
 1515SOL    HW1 5444   6.831   2.896   6.125
 1515SOL    HW2 5445   6.842   3.006   6.005
 1516SOL     OW 5446   0.692   0.697   0.788
 1516SOL    HW1 5447   0.766   0.764   0.796
 1516SOL    HW2 5448   0.676   0.675   0.692
 1517SOL     OW 5449   4.642   5.855   3.641
 1517SOL    HW1 5450   4.622   5.783   3.708
 1517SOL    HW2 5451   4.740   5.856   3.622
 1518SOL     OW 5452   0.070   2.928   0.161
 1518SOL    HW1 5453   0.001   3.000   0.167
 1518SOL    HW2 5454   0.026   2.839   0.159
 1519SOL     OW 5455   0.116   4.719   1.914
 1519SOL    HW1 5456   0.050   4.645   1.916
 1519SOL    HW2 5457   0.069   4.806   1.896
 1520SOL     OW 5458   1.837   3.525   2.422
 1520SOL    HW1 5459   1.915   3.563   2.472
 1520SOL    HW2 5460   1.868   3.488   2.334
 1521SOL     OW 5461   2.178   3.492   6.740
 1521SOL    HW1 5462   2.081   3.476   6.760
 1521SOL    HW2 5463   2.203   3.585   6.768
 1522SOL     OW 5464   6.920   1.551   5.630
 1522SOL    HW1 5465   6.940   1.459   5.664
 1522SOL    HW2 5466   6.837   1.585   5.673
 1523SOL     OW 5467   5.120   3.812   6.881
 1523SOL    HW1 5468   5.136   3.910   6.870
 1523SOL    HW2 5469   5.030   3.789   6.845
 1524SOL     OW 5470   0.933   1.935   1.732
 1524SOL    HW1 5471   1.018   1.919   1.682
 1524SOL    HW2 5472   0.913   2.032   1.734
 1525SOL     OW 5473   4.992   2.865   5.938
 1525SOL    HW1 5474   5.006   2.890   5.843
 1525SOL    HW2 5475   5.019   2.941   5.997
 1526SOL     OW 5476   0.940   1.390   0.922
 1526SOL    HW1 5477   1.012   1.340   0.969
 1526SOL    HW2 5478   0.973   1.481   0.898
 1527SOL     OW 5479   3.703   1.119   4.748
 1527SOL    HW1 5480   3.760   1.124   4.666
 1527SOL    HW2 5481   3.614   1.079   4.724
 1528SOL     OW 5482   5.075   6.066   2.857
 1528SOL    HW1 5483   5.042   6.122   2.934
 1528SOL    HW2 5484   4.999   6.012   2.821
 1529SOL     OW 5485   3.939   1.445   6.407
 1529SOL    HW1 5486   3.957   1.352   6.374
 1529SOL    HW2 5487   4.006   1.469   6.477
 1530SOL     OW 5488   3.410   0.434   1.124
 1530SOL    HW1 5489   3.483   0.440   1.192
 1530SOL    HW2 5490   3.331   0.387   1.165
 1531SOL     OW 5491   6.176   1.441   4.831
 1531SOL    HW1 5492   6.272   1.416   4.843
 1531SOL    HW2 5493   6.164   1.486   4.742
 1532SOL     OW 5494   2.462   2.312   4.713
 1532SOL    HW1 5495   2.527   2.253   4.666
 1532SOL    HW2 5496   2.498   2.405   4.717
 1533SOL     OW 5497   6.799   3.655   6.753
 1533SOL    HW1 5498   6.847   3.663   6.665
 1533SOL    HW2 5499   6.848   3.591   6.812
 1534SOL     OW 5500   1.366   5.054   0.125
 1534SOL    HW1 5501   1.314   4.982   0.079
 1534SOL    HW2 5502   1.425   5.100   0.058
 1535SOL     OW 5503   5.719   6.376   4.372
 1535SOL    HW1 5504   5.669   6.458   4.342
 1535SOL    HW2 5505   5.810   6.402   4.404
 1536SOL     OW 5506   3.525   5.048   4.830
 1536SOL    HW1 5507   3.482   5.139   4.832
 1536SOL    HW2 5508   3.459   4.979   4.860
 1537SOL     OW 5509   3.731   5.729   3.129
 1537SOL    HW1 5510   3.695   5.638   3.151
 1537SOL    HW2 5511   3.749   5.734   3.030
 1538SOL     OW 5512   3.547   5.435   5.073
 1538SOL    HW1 5513   3.462   5.398   5.109
 1538SOL    HW2 5514   3.625   5.394   5.121
 1539SOL     OW 5515   3.973   4.454   1.457
 1539SOL    HW1 5516   4.041   4.520   1.489
 1539SOL    HW2 5517   3.901   4.503   1.408
 1540SOL     OW 5518   0.807   6.671   5.331
 1540SOL    HW1 5519   0.857   6.699   5.413
 1540SOL    HW2 5520   0.854   6.704   5.249
 1541SOL     OW 5521   4.052   2.374   1.070
 1541SOL    HW1 5522   4.132   2.334   1.025
 1541SOL    HW2 5523   4.033   2.323   1.154
 1542SOL     OW 5524   6.293   5.877   1.799
 1542SOL    HW1 5525   6.206   5.845   1.837
 1542SOL    HW2 5526   6.351   5.911   1.874
 1543SOL     OW 5527   2.918   3.508   4.044
 1543SOL    HW1 5528   2.950   3.434   4.102
 1543SOL    HW2 5529   2.882   3.582   4.100
 1544SOL     OW 5530   3.125   4.025   2.289
 1544SOL    HW1 5531   3.206   4.078   2.314
 1544SOL    HW2 5532   3.114   4.024   2.190
 1545SOL     OW 5533   5.832   1.196   5.340
 1545SOL    HW1 5534   5.856   1.287   5.307
 1545SOL    HW2 5535   5.732   1.189   5.349
 1546SOL     OW 5536   4.563   0.376   6.088
 1546SOL    HW1 5537   4.644   0.422   6.124
 1546SOL    HW2 5538   4.573   0.277   6.098
 1547SOL     OW 5539   2.096   3.802   2.681
 1547SOL    HW1 5540   1.996   3.811   2.674
 1547SOL    HW2 5541   2.129   3.748   2.603
 1548SOL     OW 5542   4.651   3.821   5.524
 1548SOL    HW1 5543   4.684   3.829   5.430
 1548SOL    HW2 5544   4.618   3.727   5.539
 1549SOL     OW 5545   5.816   0.663   2.255
 1549SOL    HW1 5546   5.780   0.727   2.322
 1549SOL    HW2 5547   5.914   0.648   2.272
 1550SOL     OW 5548   2.903   6.515   5.765
 1550SOL    HW1 5549   2.902   6.575   5.685
 1550SOL    HW2 5550   2.809   6.493   5.791
 1551SOL     OW 5551   1.587   3.287   1.076
 1551SOL    HW1 5552   1.579   3.325   1.168
 1551SOL    HW2 5553   1.619   3.192   1.081
 1552SOL     OW 5554   1.237   0.043   1.452
 1552SOL    HW1 5555   1.245   0.007   1.360
 1552SOL    HW2 5556   1.142   0.036   1.483
 1553SOL     OW 5557   6.262   2.291   6.571
 1553SOL    HW1 5558   6.347   2.338   6.550
 1553SOL    HW2 5559   6.226   2.326   6.658
 1554SOL     OW 5560   3.562   2.051   2.962
 1554SOL    HW1 5561   3.557   1.974   2.899
 1554SOL    HW2 5562   3.658   2.069   2.984
 1555SOL     OW 5563   4.800   2.719   5.481
 1555SOL    HW1 5564   4.894   2.746   5.458
 1555SOL    HW2 5565   4.735   2.778   5.433
 1556SOL     OW 5566   4.055   0.855   0.431
 1556SOL    HW1 5567   4.122   0.925   0.406
 1556SOL    HW2 5568   4.057   0.781   0.364
 1557SOL     OW 5569   2.794   2.099   0.604
 1557SOL    HW1 5570   2.729   2.076   0.677
 1557SOL    HW2 5571   2.878   2.135   0.646
 1558SOL     OW 5572   5.916   2.013   4.322
 1558SOL    HW1 5573   5.917   2.111   4.341
 1558SOL    HW2 5574   6.001   1.987   4.276
 1559SOL     OW 5575   0.453   2.568   1.359
 1559SOL    HW1 5576   0.544   2.602   1.381
 1559SOL    HW2 5577   0.412   2.628   1.290
 1560SOL     OW 5578   3.175   1.224   6.816
 1560SOL    HW1 5579   3.186   1.212   6.915
 1560SOL    HW2 5580   3.088   1.183   6.787
 1561SOL     OW 5581   4.790   5.187   3.398
 1561SOL    HW1 5582   4.816   5.274   3.441
 1561SOL    HW2 5583   4.698   5.161   3.427
 1562SOL     OW 5584   3.739   6.178   2.157
 1562SOL    HW1 5585   3.789   6.253   2.201
 1562SOL    HW2 5586   3.767   6.091   2.198
 1563SOL     OW 5587   2.445   1.811   5.481
 1563SOL    HW1 5588   2.493   1.884   5.530
 1563SOL    HW2 5589   2.489   1.797   5.392
 1564SOL     OW 5590   1.862   1.880   2.242
 1564SOL    HW1 5591   1.836   1.954   2.304
 1564SOL    HW2 5592   1.962   1.873   2.239
 1565SOL     OW 5593   4.546   5.336   4.561
 1565SOL    HW1 5594   4.498   5.421   4.583
 1565SOL    HW2 5595   4.616   5.319   4.630
 1566SOL     OW 5596   6.126   5.136   4.305
 1566SOL    HW1 5597   6.044   5.094   4.265
 1566SOL    HW2 5598   6.205   5.118   4.246
 1567SOL     OW 5599   6.060   5.665   7.013
 1567SOL    HW1 5600   6.133   5.701   0.042
 1567SOL    HW2 5601   5.971   5.681   0.027
 1568SOL     OW 5602   2.473   6.327   3.000
 1568SOL    HW1 5603   2.385   6.370   3.019
 1568SOL    HW2 5604   2.539   6.355   3.070
 1569SOL     OW 5605   3.742   6.885   2.840
 1569SOL    HW1 5606   3.809   6.836   2.896
 1569SOL    HW2 5607   3.659   6.901   2.894
 1570SOL     OW 5608   2.226   6.667   6.445
 1570SOL    HW1 5609   2.167   6.666   6.364
 1570SOL    HW2 5610   2.322   6.663   6.416
 1571SOL     OW 5611   0.894   2.676   2.917
 1571SOL    HW1 5612   0.986   2.657   2.882
 1571SOL    HW2 5613   0.835   2.704   2.840
 1572SOL     OW 5614   1.622   5.274   2.178
 1572SOL    HW1 5615   1.591   5.223   2.097
 1572SOL    HW2 5616   1.576   5.238   2.259
 1573SOL     OW 5617   5.400   5.052   2.518
 1573SOL    HW1 5618   5.325   5.111   2.547
 1573SOL    HW2 5619   5.379   4.957   2.543
 1574SOL     OW 5620   6.455   3.152   2.365
 1574SOL    HW1 5621   6.480   3.245   2.337
 1574SOL    HW2 5622   6.357   3.138   2.349
 1575SOL     OW 5623   2.422   0.233   1.313
 1575SOL    HW1 5624   2.454   0.252   1.220
 1575SOL    HW2 5625   2.438   0.314   1.370
 1576SOL     OW 5626   0.778   6.457   3.230
 1576SOL    HW1 5627   0.729   6.539   3.202
 1576SOL    HW2 5628   0.782   6.453   3.330
 1577SOL     OW 5629   2.398   0.321   6.167
 1577SOL    HW1 5630   2.434   0.373   6.245
 1577SOL    HW2 5631   2.362   0.385   6.099
 1578SOL     OW 5632   5.030   1.324   6.342
 1578SOL    HW1 5633   5.002   1.242   6.393
 1578SOL    HW2 5634   5.109   1.365   6.388
 1579SOL     OW 5635   6.725   2.364   1.003
 1579SOL    HW1 5636   6.814   2.390   1.039
 1579SOL    HW2 5637   6.673   2.317   1.075
 1580SOL     OW 5638   3.255   4.076   3.359
 1580SOL    HW1 5639   3.213   4.109   3.444
 1580SOL    HW2 5640   3.350   4.050   3.376
 1581SOL     OW 5641   6.912   4.152   5.781
 1581SOL    HW1 5642   6.945   4.154   5.687
 1581SOL    HW2 5643   6.984   4.184   5.842
 1582SOL     OW 5644   3.278   6.165   4.492
 1582SOL    HW1 5645   3.199   6.175   4.432
 1582SOL    HW2 5646   3.296   6.253   4.537
 1583SOL     OW 5647   0.732   5.848   4.374
 1583SOL    HW1 5648   0.829   5.834   4.354
 1583SOL    HW2 5649   0.677   5.794   4.311
 1584SOL     OW 5650   1.614   4.760   6.776
 1584SOL    HW1 5651   1.598   4.698   6.852
 1584SOL    HW2 5652   1.712   4.760   6.753
 1585SOL     OW 5653   4.166   1.382   2.945
 1585SOL    HW1 5654   4.198   1.300   2.898
 1585SOL    HW2 5655   4.079   1.411   2.906
 1586SOL     OW 5656   3.005   4.806   3.126
 1586SOL    HW1 5657   3.062   4.800   3.208
 1586SOL    HW2 5658   3.060   4.840   3.049
 1587SOL     OW 5659   2.102   4.865   5.178
 1587SOL    HW1 5660   2.078   4.920   5.099
 1587SOL    HW2 5661   2.118   4.924   5.257
 1588SOL     OW 5662   4.731   0.963   2.635
 1588SOL    HW1 5663   4.708   0.901   2.561
 1588SOL    HW2 5664   4.730   0.913   2.722
 1589SOL     OW 5665   0.147   3.200   2.270
 1589SOL    HW1 5666   0.052   3.173   2.286
 1589SOL    HW2 5667   0.187   3.233   2.355
 1590SOL     OW 5668   4.623   0.949   3.770
 1590SOL    HW1 5669   4.625   1.043   3.803
 1590SOL    HW2 5670   4.562   0.895   3.828
 1591SOL     OW 5671   0.132   6.267   1.201
 1591SOL    HW1 5672   0.191   6.236   1.274
 1591SOL    HW2 5673   0.119   6.366   1.209
 1592SOL     OW 5674   1.925   3.819   0.088
 1592SOL    HW1 5675   1.976   3.734   0.077
 1592SOL    HW2 5676   1.893   3.851   7.029
 1593SOL     OW 5677   0.760   0.038   5.959
 1593SOL    HW1 5678   0.751   6.990   5.897
 1593SOL    HW2 5679   0.808   0.010   6.042
 1594SOL     OW 5680   6.814   6.039   2.190
 1594SOL    HW1 5681   6.756   6.084   2.257
 1594SOL    HW2 5682   6.876   6.106   2.149
 1595SOL     OW 5683   0.889   4.479   0.305
 1595SOL    HW1 5684   0.817   4.493   0.374
 1595SOL    HW2 5685   0.894   4.382   0.282
 1596SOL     OW 5686   6.534   3.416   2.295
 1596SOL    HW1 5687   6.621   3.426   2.247
 1596SOL    HW2 5688   6.532   3.481   2.372
 1597SOL     OW 5689   2.135   6.110   1.210
 1597SOL    HW1 5690   2.068   6.145   1.276
 1597SOL    HW2 5691   2.132   6.010   1.210
 1598SOL     OW 5692   1.453   5.126   6.467
 1598SOL    HW1 5693   1.434   5.224   6.459
 1598SOL    HW2 5694   1.500   5.095   6.384
 1599SOL     OW 5695   5.398   4.975   5.311
 1599SOL    HW1 5696   5.375   4.926   5.227
 1599SOL    HW2 5697   5.417   4.909   5.384
 1600SOL     OW 5698   3.028   1.306   2.357
 1600SOL    HW1 5699   3.089   1.383   2.339
 1600SOL    HW2 5700   2.938   1.324   2.317
 1601SOL     OW 5701   0.578   6.592   4.582
 1601SOL    HW1 5702   0.602   6.540   4.500
 1601SOL    HW2 5703   0.501   6.652   4.563
 1602SOL     OW 5704   4.363   5.131   4.288
 1602SOL    HW1 5705   4.372   5.229   4.269
 1602SOL    HW2 5706   4.449   5.084   4.264
 1603SOL     OW 5707   2.882   5.292   3.572
 1603SOL    HW1 5708   2.869   5.278   3.671
 1603SOL    HW2 5709   2.886   5.203   3.526
 1604SOL     OW 5710   3.710   5.118   1.340
 1604SOL    HW1 5711   3.620   5.146   1.373
 1604SOL    HW2 5712   3.756   5.065   1.411
 1605SOL     OW 5713   6.757   5.394   1.562
 1605SOL    HW1 5714   6.844   5.391   1.514
 1605SOL    HW2 5715   6.694   5.328   1.521
 1606SOL     OW 5716   4.108   5.826   5.561
 1606SOL    HW1 5717   4.042   5.766   5.515
 1606SOL    HW2 5718   4.185   5.843   5.500
 1607SOL     OW 5719   4.053   0.434   0.661
 1607SOL    HW1 5720   4.060   0.366   0.588
 1607SOL    HW2 5721   4.124   0.503   0.649
 1608SOL     OW 5722   6.759   0.567   2.722
 1608SOL    HW1 5723   6.840   0.540   2.775
 1608SOL    HW2 5724   6.710   0.640   2.770
 1609SOL     OW 5725   3.398   6.664   0.818
 1609SOL    HW1 5726   3.424   6.601   0.745
 1609SOL    HW2 5727   3.304   6.646   0.846
 1610SOL     OW 5728   4.857   6.041   0.778
 1610SOL    HW1 5729   4.788   5.975   0.748
 1610SOL    HW2 5730   4.942   5.994   0.799
 1611SOL     OW 5731   1.709   3.494   0.905
 1611SOL    HW1 5732   1.680   3.408   0.947
 1611SOL    HW2 5733   1.799   3.520   0.942
 1612SOL     OW 5734   3.668   6.757   1.678
 1612SOL    HW1 5735   3.643   6.684   1.741
 1612SOL    HW2 5736   3.610   6.837   1.694
 1613SOL     OW 5737   0.735   5.375   1.856
 1613SOL    HW1 5738   0.831   5.400   1.844
 1613SOL    HW2 5739   0.678   5.457   1.855
 1614SOL     OW 5740   5.763   1.764   6.296
 1614SOL    HW1 5741   5.776   1.785   6.393
 1614SOL    HW2 5742   5.761   1.849   6.244
 1615SOL     OW 5743   6.672   6.052   6.703
 1615SOL    HW1 5744   6.593   6.065   6.645
 1615SOL    HW2 5745   6.754   6.087   6.657
 1616SOL     OW 5746   4.267   0.171   3.635
 1616SOL    HW1 5747   4.265   0.257   3.686
 1616SOL    HW2 5748   4.207   0.178   3.555
 1617SOL     OW 5749   5.019   6.258   3.054
 1617SOL    HW1 5750   5.080   6.335   3.039
 1617SOL    HW2 5751   5.015   6.236   3.152
 1618SOL     OW 5752   1.189   6.567   3.215
 1618SOL    HW1 5753   1.133   6.486   3.232
 1618SOL    HW2 5754   1.252   6.548   3.140
 1619SOL     OW 5755   0.343   5.169   0.028
 1619SOL    HW1 5756   0.275   5.106   0.065
 1619SOL    HW2 5757   0.312   5.263   0.039
 1620SOL     OW 5758   3.464   4.453   1.561
 1620SOL    HW1 5759   3.510   4.478   1.646
 1620SOL    HW2 5760   3.466   4.530   1.498
 1621SOL     OW 5761   5.812   0.077   0.892
 1621SOL    HW1 5762   5.881   0.092   0.963
 1621SOL    HW2 5763   5.845   0.008   0.828
 1622SOL     OW 5764   0.638   3.520   5.486
 1622SOL    HW1 5765   0.562   3.477   5.438
 1622SOL    HW2 5766   0.625   3.619   5.489
 1623SOL     OW 5767   0.474   2.500   4.764
 1623SOL    HW1 5768   0.472   2.400   4.768
 1623SOL    HW2 5769   0.392   2.536   4.809
 1624SOL     OW 5770   4.300   1.595   5.862
 1624SOL    HW1 5771   4.366   1.670   5.857
 1624SOL    HW2 5772   4.323   1.535   5.939
 1625SOL     OW 5773   1.485   5.292   6.956
 1625SOL    HW1 5774   1.575   5.255   6.980
 1625SOL    HW2 5775   1.447   5.239   6.880
 1626SOL     OW 5776   3.292   1.340   1.358
 1626SOL    HW1 5777   3.332   1.281   1.428
 1626SOL    HW2 5778   3.206   1.301   1.326
 1627SOL     OW 5779   5.822   2.919   3.660
 1627SOL    HW1 5780   5.777   2.857   3.724
 1627SOL    HW2 5781   5.757   2.946   3.589
 1628SOL     OW 5782   4.318   5.589   6.742
 1628SOL    HW1 5783   4.282   5.547   6.658
 1628SOL    HW2 5784   4.414   5.564   6.753
 1629SOL     OW 5785   2.632   1.167   3.953
 1629SOL    HW1 5786   2.613   1.206   4.044
 1629SOL    HW2 5787   2.567   1.205   3.887
 1630SOL     OW 5788   6.751   4.481   5.492
 1630SOL    HW1 5789   6.662   4.439   5.508
 1630SOL    HW2 5790   6.754   4.571   5.535
 1631SOL     OW 5791   0.646   2.876   0.607
 1631SOL    HW1 5792   0.683   2.965   0.581
 1631SOL    HW2 5793   0.667   2.858   0.703
 1632SOL     OW 5794   4.885   3.197   2.698
 1632SOL    HW1 5795   4.923   3.181   2.607
 1632SOL    HW2 5796   4.831   3.280   2.699
 1633SOL     OW 5797   4.977   4.170   4.782
 1633SOL    HW1 5798   5.056   4.170   4.721
 1633SOL    HW2 5799   4.896   4.138   4.733
 1634SOL     OW 5800   4.713   0.443   4.136
 1634SOL    HW1 5801   4.735   0.488   4.223
 1634SOL    HW2 5802   4.792   0.389   4.107
 1635SOL     OW 5803   0.848   5.056   6.641
 1635SOL    HW1 5804   0.843   5.048   6.740
 1635SOL    HW2 5805   0.759   5.034   6.601
 1636SOL     OW 5806   3.233   4.986   1.733
 1636SOL    HW1 5807   3.220   5.046   1.812
 1636SOL    HW2 5808   3.280   4.902   1.761
 1637SOL     OW 5809   0.053   6.563   3.885
 1637SOL    HW1 5810   0.145   6.602   3.879
 1637SOL    HW2 5811   0.047   6.506   3.967
 1638SOL     OW 5812   0.841   2.942   2.137
 1638SOL    HW1 5813   0.935   2.914   2.121
 1638SOL    HW2 5814   0.807   2.992   2.057
 1639SOL     OW 5815   5.455   5.213   1.933
 1639SOL    HW1 5816   5.436   5.117   1.916
 1639SOL    HW2 5817   5.536   5.221   1.992
 1640SOL     OW 5818   6.222   0.188   6.904
 1640SOL    HW1 5819   6.173   0.196   6.817
 1640SOL    HW2 5820   6.184   0.255   6.969
 1641SOL     OW 5821   6.323   2.254   2.894
 1641SOL    HW1 5822   6.246   2.285   2.838
 1641SOL    HW2 5823   6.403   2.309   2.874
 1642SOL     OW 5824   6.671   3.248   6.880
 1642SOL    HW1 5825   6.653   3.293   6.967
 1642SOL    HW2 5826   6.603   3.176   6.865
 1643SOL     OW 5827   2.762   4.692   3.054
 1643SOL    HW1 5828   2.690   4.759   3.036
 1643SOL    HW2 5829   2.849   4.740   3.071
 1644SOL     OW 5830   5.499   3.320   6.620
 1644SOL    HW1 5831   5.590   3.341   6.654
 1644SOL    HW2 5832   5.486   3.359   6.529
 1645SOL     OW 5833   3.049   6.384   6.021
 1645SOL    HW1 5834   3.048   6.313   5.951
 1645SOL    HW2 5835   3.071   6.473   5.979
 1646SOL     OW 5836   2.324   6.913   0.606
 1646SOL    HW1 5837   2.272   6.887   0.525
 1646SOL    HW2 5838   2.274   6.984   0.656
 1647SOL     OW 5839   6.452   2.519   4.206
 1647SOL    HW1 5840   6.364   2.567   4.198
 1647SOL    HW2 5841   6.450   2.437   4.149
 1648SOL     OW 5842   5.585   6.474   0.680
 1648SOL    HW1 5843   5.585   6.563   0.726
 1648SOL    HW2 5844   5.536   6.482   0.593
 1649SOL     OW 5845   3.482   1.501   4.777
 1649SOL    HW1 5846   3.479   1.525   4.874
 1649SOL    HW2 5847   3.542   1.565   4.729
 1650SOL     OW 5848   0.845   5.458   4.882
 1650SOL    HW1 5849   0.790   5.467   4.799
 1650SOL    HW2 5850   0.938   5.430   4.858
 1651SOL     OW 5851   0.748   2.271   2.431
 1651SOL    HW1 5852   0.714   2.177   2.430
 1651SOL    HW2 5853   0.721   2.317   2.346
 1652SOL     OW 5854   1.436   3.619   2.387
 1652SOL    HW1 5855   1.406   3.677   2.311
 1652SOL    HW2 5856   1.356   3.592   2.441
 1653SOL     OW 5857   0.484   6.615   1.171
 1653SOL    HW1 5858   0.419   6.631   1.246
 1653SOL    HW2 5859   0.435   6.595   1.087
 1654SOL     OW 5860   6.981   3.450   1.031
 1654SOL    HW1 5861   6.897   3.493   1.066
 1654SOL    HW2 5862   0.028   3.512   1.047
 1655SOL     OW 5863   6.794   1.788   4.405
 1655SOL    HW1 5864   6.790   1.705   4.461
 1655SOL    HW2 5865   6.880   1.791   4.355
 1656SOL     OW 5866   1.759   5.559   3.011
 1656SOL    HW1 5867   1.737   5.606   3.096
 1656SOL    HW2 5868   1.846   5.593   2.975
 1657SOL     OW 5869   5.723   0.347   4.133
 1657SOL    HW1 5870   5.804   0.319   4.081
 1657SOL    HW2 5871   5.703   0.443   4.113
 1658SOL     OW 5872   6.360   0.419   1.245
 1658SOL    HW1 5873   6.336   0.375   1.331
 1658SOL    HW2 5874   6.344   0.355   1.169
 1659SOL     OW 5875   3.335   0.332   0.068
 1659SOL    HW1 5876   3.426   0.372   0.079
 1659SOL    HW2 5877   3.321   0.262   0.138
 1660SOL     OW 5878   1.959   6.369   2.366
 1660SOL    HW1 5879   1.961   6.468   2.350
 1660SOL    HW2 5880   2.053   6.335   2.376
 1661SOL     OW 5881   1.878   5.830   1.703
 1661SOL    HW1 5882   1.957   5.792   1.752
 1661SOL    HW2 5883   1.904   5.917   1.661
 1662SOL     OW 5884   0.229   0.877   4.341
 1662SOL    HW1 5885   0.247   0.937   4.419
 1662SOL    HW2 5886   0.134   0.846   4.344
 1663SOL     OW 5887   4.528   5.370   3.639
 1663SOL    HW1 5888   4.462   5.410   3.703
 1663SOL    HW2 5889   4.599   5.437   3.618
 1664SOL     OW 5890   2.034   5.983   5.492
 1664SOL    HW1 5891   2.061   6.065   5.542
 1664SOL    HW2 5892   2.101   5.964   5.420
 1665SOL     OW 5893   6.518   3.614   1.702
 1665SOL    HW1 5894   6.429   3.618   1.746
 1665SOL    HW2 5895   6.590   3.627   1.771
 1666SOL     OW 5896   5.660   0.366   0.358
 1666SOL    HW1 5897   5.599   0.419   0.416
 1666SOL    HW2 5898   5.667   0.410   0.269
 1667SOL     OW 5899   6.631   5.633   1.532
 1667SOL    HW1 5900   6.702   5.703   1.530
 1667SOL    HW2 5901   6.673   5.544   1.548
 1668SOL     OW 5902   5.020   4.813   3.777
 1668SOL    HW1 5903   4.952   4.799   3.705
 1668SOL    HW2 5904   5.016   4.737   3.842
 1669SOL     OW 5905   6.559   4.859   5.989
 1669SOL    HW1 5906   6.618   4.934   5.958
 1669SOL    HW2 5907   6.537   4.799   5.912
 1670SOL     OW 5908   0.690   4.943   5.205
 1670SOL    HW1 5909   0.686   4.876   5.131
 1670SOL    HW2 5910   0.726   4.899   5.287
 1671SOL     OW 5911   5.739   1.110   3.659
 1671SOL    HW1 5912   5.762   1.197   3.703
 1671SOL    HW2 5913   5.821   1.054   3.652
 1672SOL     OW 5914   2.716   3.274   0.528
 1672SOL    HW1 5915   2.626   3.315   0.512
 1672SOL    HW2 5916   2.706   3.194   0.588
 1673SOL     OW 5917   1.290   1.675   4.653
 1673SOL    HW1 5918   1.239   1.757   4.680
 1673SOL    HW2 5919   1.320   1.684   4.558
 1674SOL     OW 5920   0.276   3.398   1.877
 1674SOL    HW1 5921   0.224   3.484   1.877
 1674SOL    HW2 5922   0.331   3.393   1.794
 1675SOL     OW 5923   4.445   0.228   6.971
 1675SOL    HW1 5924   4.509   0.184   0.003
 1675SOL    HW2 5925   4.424   0.320   7.005
 1676SOL     OW 5926   2.298   2.828   1.976
 1676SOL    HW1 5927   2.334   2.747   2.022
 1676SOL    HW2 5928   2.264   2.893   2.043
 1677SOL     OW 5929   4.084   3.796   4.144
 1677SOL    HW1 5930   4.089   3.795   4.244
 1677SOL    HW2 5931   4.013   3.859   4.114
 1678SOL     OW 5932   6.936   5.377   2.108
 1678SOL    HW1 5933   7.007   5.445   2.123
 1678SOL    HW2 5934   6.923   5.364   2.010
 1679SOL     OW 5935   1.708   1.337   4.585
 1679SOL    HW1 5936   1.675   1.418   4.536
 1679SOL    HW2 5937   1.781   1.293   4.531
 1680SOL     OW 5938   6.361   4.440   5.831
 1680SOL    HW1 5939   6.345   4.418   5.928
 1680SOL    HW2 5940   6.410   4.526   5.825
 1681SOL     OW 5941   1.349   5.731   6.096
 1681SOL    HW1 5942   1.444   5.703   6.114
 1681SOL    HW2 5943   1.341   5.830   6.112
 1682SOL     OW 5944   1.796   0.596   5.545
 1682SOL    HW1 5945   1.753   0.669   5.493
 1682SOL    HW2 5946   1.761   0.507   5.515
 1683SOL     OW 5947   6.001   5.420   2.513
 1683SOL    HW1 5948   5.946   5.422   2.598
 1683SOL    HW2 5949   6.098   5.428   2.536
 1684SOL     OW 5950   0.373   5.818   2.207
 1684SOL    HW1 5951   0.423   5.821   2.120
 1684SOL    HW2 5952   0.381   5.727   2.247
 1685SOL     OW 5953   1.892   1.376   5.897
 1685SOL    HW1 5954   1.964   1.414   5.838
 1685SOL    HW2 5955   1.906   1.277   5.908
 1686SOL     OW 5956   2.537   6.147   4.350
 1686SOL    HW1 5957   2.488   6.189   4.273
 1686SOL    HW2 5958   2.629   6.121   4.322
 1687SOL     OW 5959   1.305   2.478   1.903
 1687SOL    HW1 5960   1.254   2.403   1.862
 1687SOL    HW2 5961   1.343   2.449   1.990
 1688SOL     OW 5962   2.078   1.399   3.695
 1688SOL    HW1 5963   1.991   1.364   3.658
 1688SOL    HW2 5964   2.148   1.395   3.623
 1689SOL     OW 5965   6.320   0.899   3.013
 1689SOL    HW1 5966   6.363   0.833   2.952
 1689SOL    HW2 5967   6.240   0.859   3.056
 1690SOL     OW 5968   1.410   2.994   4.651
 1690SOL    HW1 5969   1.360   3.064   4.601
 1690SOL    HW2 5970   1.368   2.905   4.634
 1691SOL     OW 5971   6.119   3.165   3.853
 1691SOL    HW1 5972   6.029   3.148   3.894
 1691SOL    HW2 5973   6.156   3.251   3.889
 1692SOL     OW 5974   4.667   6.113   1.573
 1692SOL    HW1 5975   4.710   6.042   1.518
 1692SOL    HW2 5976   4.605   6.167   1.516
 1693SOL     OW 5977   6.708   2.299   3.310
 1693SOL    HW1 5978   6.785   2.299   3.247
 1693SOL    HW2 5979   6.735   2.340   3.397
 1694SOL     OW 5980   6.431   1.762   4.057
 1694SOL    HW1 5981   6.469   1.737   4.146
 1694SOL    HW2 5982   6.438   1.685   3.994
 1695SOL     OW 5983   3.311   0.874   6.380
 1695SOL    HW1 5984   3.327   0.932   6.300
 1695SOL    HW2 5985   3.220   0.894   6.417
 1696SOL     OW 5986   3.069   5.842   0.993
 1696SOL    HW1 5987   3.149   5.820   0.936
 1696SOL    HW2 5988   3.085   5.810   1.086
 1697SOL     OW 5989   6.703   1.375   0.764
 1697SOL    HW1 5990   6.680   1.335   0.675
 1697SOL    HW2 5991   6.780   1.325   0.804
 1698SOL     OW 5992   3.948   0.210   1.394
 1698SOL    HW1 5993   4.036   0.162   1.390
 1698SOL    HW2 5994   3.899   0.195   1.308
 1699SOL     OW 5995   1.656   1.776   5.799
 1699SOL    HW1 5996   1.748   1.814   5.810
 1699SOL    HW2 5997   1.601   1.838   5.743
 1700SOL     OW 5998   6.504   4.032   2.833
 1700SOL    HW1 5999   6.429   3.966   2.835
 1700SOL    HW2 6000   6.589   3.986   2.861
 1701SOL     OW 6001   5.821   6.035   5.712
 1701SOL    HW1 6002   5.830   6.115   5.770
 1701SOL    HW2 6003   5.774   5.962   5.762
 1702SOL     OW 6004   0.008   1.384   1.272
 1702SOL    HW1 6005   0.043   1.292   1.255
 1702SOL    HW2 6006   0.022   1.440   1.189
 1703SOL     OW 6007   3.741   1.242   6.864
 1703SOL    HW1 6008   3.795   1.325   6.876
 1703SOL    HW2 6009   3.644   1.265   6.872
 1704SOL     OW 6010   1.416   2.589   0.192
 1704SOL    HW1 6011   1.324   2.551   0.196
 1704SOL    HW2 6012   1.429   2.653   0.268
 1705SOL     OW 6013   3.438   2.416   1.674
 1705SOL    HW1 6014   3.392   2.332   1.645
 1705SOL    HW2 6015   3.516   2.393   1.731
 1706SOL     OW 6016   4.234   1.898   2.140
 1706SOL    HW1 6017   4.263   1.958   2.215
 1706SOL    HW2 6018   4.260   1.939   2.052
 1707SOL     OW 6019   4.629   2.725   2.717
 1707SOL    HW1 6020   4.645   2.823   2.709
 1707SOL    HW2 6021   4.686   2.688   2.790
 1708SOL     OW 6022   4.393   5.375   1.475
 1708SOL    HW1 6023   4.344   5.429   1.543
 1708SOL    HW2 6024   4.346   5.288   1.462
 1709SOL     OW 6025   3.710   6.650   2.598
 1709SOL    HW1 6026   3.666   6.733   2.566
 1709SOL    HW2 6027   3.644   6.574   2.596
 1710SOL     OW 6028   4.351   4.910   3.515
 1710SOL    HW1 6029   4.436   4.958   3.540
 1710SOL    HW2 6030   4.367   4.812   3.513
 1711SOL     OW 6031   2.120   5.392   4.660
 1711SOL    HW1 6032   2.120   5.447   4.577
 1711SOL    HW2 6033   2.041   5.416   4.717
 1712SOL     OW 6034   6.996   2.160   5.035
 1712SOL    HW1 6035   7.011   2.258   5.046
 1712SOL    HW2 6036   6.924   2.130   5.098
 1713SOL     OW 6037   4.076   1.345   2.488
 1713SOL    HW1 6038   4.133   1.270   2.453
 1713SOL    HW2 6039   4.126   1.431   2.480
 1714SOL     OW 6040   4.030   1.757   5.762
 1714SOL    HW1 6041   4.097   1.686   5.784
 1714SOL    HW2 6042   4.025   1.822   5.838
 1715SOL     OW 6043   1.820   6.323   3.296
 1715SOL    HW1 6044   1.831   6.252   3.227
 1715SOL    HW2 6045   1.910   6.350   3.331
 1716SOL     OW 6046   4.311   0.296   3.978
 1716SOL    HW1 6047   4.343   0.201   3.974
 1716SOL    HW2 6048   4.332   0.334   4.069
 1717SOL     OW 6049   3.395   5.931   4.178
 1717SOL    HW1 6050   3.451   5.995   4.230
 1717SOL    HW2 6051   3.299   5.960   4.182
 1718SOL     OW 6052   2.683   1.093   2.166
 1718SOL    HW1 6053   2.728   1.171   2.210
 1718SOL    HW2 6054   2.598   1.072   2.213
 1719SOL     OW 6055   2.115   3.183   1.080
 1719SOL    HW1 6056   2.109   3.201   0.981
 1719SOL    HW2 6057   2.191   3.121   1.098
 1720SOL     OW 6058   0.067   2.942   6.090
 1720SOL    HW1 6059   0.159   2.928   6.126
 1720SOL    HW2 6060   7.029   2.928   6.163
 1721SOL     OW 6061   1.602   6.573   1.573
 1721SOL    HW1 6062   1.689   6.569   1.523
 1721SOL    HW2 6063   1.617   6.615   1.662
 1722SOL     OW 6064   4.037   1.416   3.457
 1722SOL    HW1 6065   3.980   1.460   3.527
 1722SOL    HW2 6066   4.055   1.481   3.384
 1723SOL     OW 6067   5.095   2.637   0.055
 1723SOL    HW1 6068   5.164   2.568   0.078
 1723SOL    HW2 6069   5.021   2.594   0.004
 1724SOL     OW 6070   0.009   2.412   1.989
 1724SOL    HW1 6071   7.004   2.505   2.004
 1724SOL    HW2 6072   0.001   2.389   1.892
 1725SOL     OW 6073   2.094   4.943   0.089
 1725SOL    HW1 6074   2.182   4.965   0.046
 1725SOL    HW2 6075   2.109   4.926   0.187
 1726SOL     OW 6076   5.288   3.853   4.583
 1726SOL    HW1 6077   5.247   3.881   4.669
 1726SOL    HW2 6078   5.229   3.881   4.507
 1727SOL     OW 6079   4.126   3.642   3.640
 1727SOL    HW1 6080   4.210   3.696   3.641
 1727SOL    HW2 6081   4.094   3.629   3.734
 1728SOL     OW 6082   5.736   4.664   5.712
 1728SOL    HW1 6083   5.739   4.564   5.707
 1728SOL    HW2 6084   5.659   4.692   5.769
 1729SOL     OW 6085   1.925   3.470   3.255
 1729SOL    HW1 6086   1.870   3.396   3.217
 1729SOL    HW2 6087   1.995   3.497   3.189
 1730SOL     OW 6088   2.832   6.928   4.943
 1730SOL    HW1 6089   2.833   6.847   4.885
 1730SOL    HW2 6090   2.833   7.010   4.886
 1731SOL     OW 6091   6.553   4.212   3.441
 1731SOL    HW1 6092   6.526   4.136   3.500
 1731SOL    HW2 6093   6.503   4.294   3.467
 1732SOL     OW 6094   2.108   4.786   6.507
 1732SOL    HW1 6095   2.089   4.783   6.409
 1732SOL    HW2 6096   2.089   4.697   6.548
 1733SOL     OW 6097   1.962   4.102   1.801
 1733SOL    HW1 6098   2.032   4.132   1.865
 1733SOL    HW2 6099   2.001   4.097   1.709
 1734SOL     OW 6100   5.583   2.897   1.777
 1734SOL    HW1 6101   5.539   2.887   1.688
 1734SOL    HW2 6102   5.551   2.826   1.839
 1735SOL     OW 6103   4.911   5.823   6.163
 1735SOL    HW1 6104   4.981   5.767   6.207
 1735SOL    HW2 6105   4.950   5.868   6.083
 1736SOL     OW 6106   3.940   3.570   0.566
 1736SOL    HW1 6107   3.867   3.509   0.596
 1736SOL    HW2 6108   4.028   3.539   0.602
 1737SOL     OW 6109   4.860   6.452   4.953
 1737SOL    HW1 6110   4.769   6.475   4.917
 1737SOL    HW2 6111   4.901   6.534   4.993
 1738SOL     OW 6112   2.226   2.958   3.694
 1738SOL    HW1 6113   2.241   2.904   3.777
 1738SOL    HW2 6114   2.250   3.054   3.712
 1739SOL     OW 6115   6.590   1.517   4.655
 1739SOL    HW1 6116   6.616   1.479   4.744
 1739SOL    HW2 6117   6.526   1.455   4.610
 1740SOL     OW 6118   0.017   1.886   4.949
 1740SOL    HW1 6119   7.005   1.903   4.860
 1740SOL    HW2 6120   0.008   1.968   5.007
 1741SOL     OW 6121   2.522   0.878   4.776
 1741SOL    HW1 6122   2.524   0.936   4.694
 1741SOL    HW2 6123   2.602   0.818   4.776
 1742SOL     OW 6124   5.483   0.534   5.622
 1742SOL    HW1 6125   5.413   0.520   5.692
 1742SOL    HW2 6126   5.544   0.608   5.651
 1743SOL     OW 6127   0.681   1.159   2.636
 1743SOL    HW1 6128   0.632   1.244   2.656
 1743SOL    HW2 6129   0.616   1.085   2.620
 1744SOL     OW 6130   5.816   3.257   3.100
 1744SOL    HW1 6131   5.882   3.328   3.124
 1744SOL    HW2 6132   5.725   3.297   3.094
 1745SOL     OW 6133   5.327   6.501   2.719
 1745SOL    HW1 6134   5.386   6.458   2.789
 1745SOL    HW2 6135   5.260   6.434   2.688
 1746SOL     OW 6136   1.405   4.487   4.268
 1746SOL    HW1 6137   1.458   4.408   4.301
 1746SOL    HW2 6138   1.322   4.454   4.222
 1747SOL     OW 6139   3.246   1.832   2.453
 1747SOL    HW1 6140   3.157   1.795   2.479
 1747SOL    HW2 6141   3.296   1.859   2.536
 1748SOL     OW 6142   6.761   2.215   4.113
 1748SOL    HW1 6143   6.679   2.270   4.100
 1748SOL    HW2 6144   6.742   2.140   4.176
 1749SOL     OW 6145   2.013   0.068   6.338
 1749SOL    HW1 6146   2.059   7.028   6.394
 1749SOL    HW2 6147   1.915   0.047   6.332
 1750SOL     OW 6148   5.652   0.420   3.840
 1750SOL    HW1 6149   5.619   0.490   3.777
 1750SOL    HW2 6150   5.752   0.415   3.834
 1751SOL     OW 6151   5.461   1.653   5.064
 1751SOL    HW1 6152   5.472   1.690   5.156
 1751SOL    HW2 6153   5.494   1.720   4.997
 1752SOL     OW 6154   6.009   0.560   1.292
 1752SOL    HW1 6155   5.979   0.537   1.384
 1752SOL    HW2 6156   5.930   0.590   1.238
 1753SOL     OW 6157   6.763   0.647   1.917
 1753SOL    HW1 6158   6.765   0.562   1.866
 1753SOL    HW2 6159   6.849   0.696   1.904
 1754SOL     OW 6160   1.815   5.450   6.685
 1754SOL    HW1 6161   1.882   5.505   6.635
 1754SOL    HW2 6162   1.848   5.355   6.692
 1755SOL     OW 6163   0.142   6.147   6.745
 1755SOL    HW1 6164   0.182   6.115   6.660
 1755SOL    HW2 6165   0.071   6.215   6.725
 1756SOL     OW 6166   4.268   5.795   6.390
 1756SOL    HW1 6167   4.338   5.804   6.461
 1756SOL    HW2 6168   4.305   5.747   6.311
 1757SOL     OW 6169   3.675   5.645   4.932
 1757SOL    HW1 6170   3.760   5.669   4.979
 1757SOL    HW2 6171   3.633   5.566   4.978
 1758SOL     OW 6172   1.649   0.740   4.478
 1758SOL    HW1 6173   1.595   0.824   4.471
 1758SOL    HW2 6174   1.611   0.682   4.550
 1759SOL     OW 6175   2.073   6.451   5.538
 1759SOL    HW1 6176   2.066   6.524   5.605
 1759SOL    HW2 6177   2.067   6.362   5.585
 1760SOL     OW 6178   6.105   0.990   4.018
 1760SOL    HW1 6179   6.124   0.994   3.920
 1760SOL    HW2 6180   6.191   0.990   4.069
 1761SOL     OW 6181   6.973   0.699   1.591
 1761SOL    HW1 6182   6.897   0.689   1.527
 1761SOL    HW2 6183   0.025   0.727   1.541
 1762SOL     OW 6184   0.072   1.709   4.561
 1762SOL    HW1 6185   7.013   1.665   4.553
 1762SOL    HW2 6186   0.142   1.640   4.581
 1763SOL     OW 6187   1.503   4.785   4.588
 1763SOL    HW1 6188   1.460   4.777   4.498
 1763SOL    HW2 6189   1.574   4.715   4.597
 1764SOL     OW 6190   1.161   3.456   2.177
 1764SOL    HW1 6191   1.193   3.388   2.243
 1764SOL    HW2 6192   1.088   3.511   2.218
 1765SOL     OW 6193   3.694   1.497   1.485
 1765SOL    HW1 6194   3.632   1.535   1.416
 1765SOL    HW2 6195   3.780   1.548   1.484
 1766SOL     OW 6196   5.446   4.479   4.195
 1766SOL    HW1 6197   5.455   4.437   4.286
 1766SOL    HW2 6198   5.524   4.538   4.178
 1767SOL     OW 6199   0.761   5.037   3.467
 1767SOL    HW1 6200   0.821   5.111   3.498
 1767SOL    HW2 6201   0.711   4.999   3.545
 1768SOL     OW 6202   3.670   0.921   6.879
 1768SOL    HW1 6203   3.655   0.992   6.810
 1768SOL    HW2 6204   3.763   0.929   6.914
 1769SOL     OW 6205   5.904   1.067   6.925
 1769SOL    HW1 6206   5.839   1.044   6.997
 1769SOL    HW2 6207   5.984   1.111   6.965
 1770SOL     OW 6208   0.718   4.736   5.040
 1770SOL    HW1 6209   0.668   4.711   4.958
 1770SOL    HW2 6210   0.789   4.668   5.059
 1771SOL     OW 6211   1.451   5.141   0.606
 1771SOL    HW1 6212   1.478   5.202   0.531
 1771SOL    HW2 6213   1.369   5.177   0.651
 1772SOL     OW 6214   3.603   5.612   4.017
 1772SOL    HW1 6215   3.623   5.704   3.983
 1772SOL    HW2 6216   3.537   5.568   3.956
 1773SOL     OW 6217   2.036   2.163   5.849
 1773SOL    HW1 6218   2.030   2.227   5.772
 1773SOL    HW2 6219   2.099   2.201   5.917
 1774SOL     OW 6220   5.114   6.270   2.134
 1774SOL    HW1 6221   5.139   6.308   2.045
 1774SOL    HW2 6222   5.162   6.184   2.149
 1775SOL     OW 6223   2.243   5.779   6.240
 1775SOL    HW1 6224   2.320   5.794   6.179
 1775SOL    HW2 6225   2.249   5.686   6.278
 1776SOL     OW 6226   4.924   0.830   6.166
 1776SOL    HW1 6227   4.871   0.899   6.117
 1776SOL    HW2 6228   5.006   0.806   6.113
 1777SOL     OW 6229   3.629   7.019   6.574
 1777SOL    HW1 6230   3.698   6.964   6.527
 1777SOL    HW2 6231   3.615   0.075   6.523
 1778SOL     OW 6232   4.581   1.772   4.558
 1778SOL    HW1 6233   4.548   1.857   4.599
 1778SOL    HW2 6234   4.504   1.709   4.546
 1779SOL     OW 6235   4.854   0.351   5.714
 1779SOL    HW1 6236   4.840   0.343   5.813
 1779SOL    HW2 6237   4.950   0.371   5.695
 1780SOL     OW 6238   1.845   3.684   5.137
 1780SOL    HW1 6239   1.942   3.707   5.127
 1780SOL    HW2 6240   1.812   3.715   5.226
 1781SOL     OW 6241   5.244   6.701   5.399
 1781SOL    HW1 6242   5.234   6.784   5.344
 1781SOL    HW2 6243   5.338   6.668   5.393
 1782SOL     OW 6244   2.244   1.052   2.706
 1782SOL    HW1 6245   2.306   0.974   2.717
 1782SOL    HW2 6246   2.287   1.134   2.745
 1783SOL     OW 6247   2.639   3.698   6.350
 1783SOL    HW1 6248   2.626   3.774   6.287
 1783SOL    HW2 6249   2.661   3.615   6.298
 1784SOL     OW 6250   2.103   1.267   1.360
 1784SOL    HW1 6251   2.172   1.295   1.293
 1784SOL    HW2 6252   2.122   1.313   1.447
 1785SOL     OW 6253   6.973   6.684   4.236
 1785SOL    HW1 6254   7.000   6.643   4.323
 1785SOL    HW2 6255   6.917   6.619   4.185
 1786SOL     OW 6256   2.028   5.240   0.276
 1786SOL    HW1 6257   1.965   5.183   0.328
 1786SOL    HW2 6258   2.122   5.211   0.295
 1787SOL     OW 6259   1.815   2.221   5.604
 1787SOL    HW1 6260   1.821   2.123   5.584
 1787SOL    HW2 6261   1.906   2.262   5.600
 1788SOL     OW 6262   4.614   4.147   6.518
 1788SOL    HW1 6263   4.677   4.148   6.596
 1788SOL    HW2 6264   4.645   4.213   6.450
 1789SOL     OW 6265   6.282   3.047   1.505
 1789SOL    HW1 6266   6.341   3.104   1.560
 1789SOL    HW2 6267   6.189   3.049   1.542
 1790SOL     OW 6268   2.839   1.282   4.337
 1790SOL    HW1 6269   2.913   1.250   4.278
 1790SOL    HW2 6270   2.871   1.360   4.392
 1791SOL     OW 6271   6.669   1.303   3.216
 1791SOL    HW1 6272   6.592   1.306   3.152
 1791SOL    HW2 6273   6.643   1.342   3.303
 1792SOL     OW 6274   0.321   2.209   4.613
 1792SOL    HW1 6275   0.252   2.280   4.595
 1792SOL    HW2 6276   0.288   2.121   4.578
 1793SOL     OW 6277   6.318   1.757   4.435
 1793SOL    HW1 6278   6.291   1.661   4.429
 1793SOL    HW2 6279   6.282   1.797   4.519
 1794SOL     OW 6280   5.625   0.267   5.635
 1794SOL    HW1 6281   5.609   0.310   5.723
 1794SOL    HW2 6282   5.704   0.309   5.591
 1795SOL     OW 6283   6.032   5.008   1.290
 1795SOL    HW1 6284   6.049   5.102   1.261
 1795SOL    HW2 6285   6.103   4.980   1.355
 1796SOL     OW 6286   2.175   1.324   5.607
 1796SOL    HW1 6287   2.089   1.274   5.612
 1796SOL    HW2 6288   2.184   1.367   5.517
 1797SOL     OW 6289   1.318   0.027   5.639
 1797SOL    HW1 6290   1.348   6.966   5.610
 1797SOL    HW2 6291   1.363   0.053   5.724
 1798SOL     OW 6292   3.657   2.897   4.722
 1798SOL    HW1 6293   3.672   2.801   4.698
 1798SOL    HW2 6294   3.651   2.907   4.821
 1799SOL     OW 6295   4.007   2.485   6.564
 1799SOL    HW1 6296   3.988   2.534   6.649
 1799SOL    HW2 6297   3.988   2.545   6.486
 1800SOL     OW 6298   5.389   4.573   3.901
 1800SOL    HW1 6299   5.440   4.500   3.855
 1800SOL    HW2 6300   5.403   4.660   3.852
 1801SOL     OW 6301   1.011   1.673   1.789
 1801SOL    HW1 6302   1.089   1.703   1.733
 1801SOL    HW2 6303   0.947   1.749   1.799
 1802SOL     OW 6304   6.162   5.757   3.231
 1802SOL    HW1 6305   6.108   5.831   3.191
 1802SOL    HW2 6306   6.101   5.681   3.254
 1803SOL     OW 6307   0.069   6.574   2.541
 1803SOL    HW1 6308   0.089   6.666   2.574
 1803SOL    HW2 6309   0.059   6.576   2.442
 1804SOL     OW 6310   3.827   3.244   5.491
 1804SOL    HW1 6311   3.853   3.274   5.583
 1804SOL    HW2 6312   3.770   3.314   5.448
 1805SOL     OW 6313   1.030   5.489   6.301
 1805SOL    HW1 6314   1.092   5.412   6.284
 1805SOL    HW2 6315   1.040   5.555   6.227
 1806SOL     OW 6316   0.573   2.519   2.136
 1806SOL    HW1 6317   0.479   2.547   2.156
 1806SOL    HW2 6318   0.637   2.576   2.187
 1807SOL     OW 6319   5.794   3.498   6.973
 1807SOL    HW1 6320   5.816   3.561   6.898
 1807SOL    HW2 6321   5.798   3.548   0.030
 1808SOL     OW 6322   5.963   3.525   4.457
 1808SOL    HW1 6323   6.048   3.481   4.485
 1808SOL    HW2 6324   5.916   3.563   4.537
 1809SOL     OW 6325   3.157   1.163   5.008
 1809SOL    HW1 6326   3.091   1.127   4.942
 1809SOL    HW2 6327   3.239   1.193   4.960
 1810SOL     OW 6328   0.199   1.096   5.179
 1810SOL    HW1 6329   0.216   1.048   5.265
 1810SOL    HW2 6330   0.111   1.068   5.141
 1811SOL     OW 6331   5.310   4.676   1.572
 1811SOL    HW1 6332   5.232   4.695   1.511
 1811SOL    HW2 6333   5.389   4.728   1.541
 1812SOL     OW 6334   4.282   6.698   6.325
 1812SOL    HW1 6335   4.235   6.611   6.337
 1812SOL    HW2 6336   4.379   6.688   6.350
 1813SOL     OW 6337   4.774   4.159   2.129
 1813SOL    HW1 6338   4.687   4.152   2.079
 1813SOL    HW2 6339   4.758   4.201   2.218
 1814SOL     OW 6340   6.115   6.562   0.716
 1814SOL    HW1 6341   6.112   6.562   0.616
 1814SOL    HW2 6342   6.210   6.569   0.746
 1815SOL     OW 6343   5.876   6.508   2.878
 1815SOL    HW1 6344   5.807   6.547   2.940
 1815SOL    HW2 6345   5.874   6.409   2.885
 1816SOL     OW 6346   3.734   5.404   6.434
 1816SOL    HW1 6347   3.703   5.441   6.347
 1816SOL    HW2 6348   3.804   5.334   6.418
 1817SOL     OW 6349   3.261   1.185   3.634
 1817SOL    HW1 6350   3.271   1.117   3.561
 1817SOL    HW2 6351   3.336   1.176   3.699
 1818SOL     OW 6352   1.875   6.727   0.340
 1818SOL    HW1 6353   1.868   6.795   0.413
 1818SOL    HW2 6354   1.881   6.636   0.381
 1819SOL     OW 6355   1.286   4.801   2.244
 1819SOL    HW1 6356   1.213   4.786   2.311
 1819SOL    HW2 6357   1.364   4.844   2.290
 1820SOL     OW 6358   3.930   0.409   3.071
 1820SOL    HW1 6359   3.842   0.448   3.042
 1820SOL    HW2 6360   4.002   0.477   3.059
 1821SOL     OW 6361   3.618   1.284   1.679
 1821SOL    HW1 6362   3.645   1.358   1.617
 1821SOL    HW2 6363   3.520   1.267   1.670
 1822SOL     OW 6364   1.241   3.231   1.973
 1822SOL    HW1 6365   1.230   3.327   1.947
 1822SOL    HW2 6366   1.224   3.173   1.893
 1823SOL     OW 6367   3.362   6.332   3.367
 1823SOL    HW1 6368   3.371   6.291   3.276
 1823SOL    HW2 6369   3.389   6.265   3.437
 1824SOL     OW 6370   3.689   3.845   0.254
 1824SOL    HW1 6371   3.745   3.923   0.229
 1824SOL    HW2 6372   3.676   3.787   0.173
 1825SOL     OW 6373   0.408   3.061   5.045
 1825SOL    HW1 6374   0.394   3.156   5.017
 1825SOL    HW2 6375   0.502   3.034   5.024
 1826SOL     OW 6376   3.826   1.434   0.544
 1826SOL    HW1 6377   3.781   1.477   0.622
 1826SOL    HW2 6378   3.763   1.370   0.500
 1827SOL     OW 6379   4.863   5.589   0.787
 1827SOL    HW1 6380   4.811   5.577   0.703
 1827SOL    HW2 6381   4.853   5.507   0.844
 1828SOL     OW 6382   1.904   3.488   6.790
 1828SOL    HW1 6383   1.821   3.467   6.739
 1828SOL    HW2 6384   1.924   3.412   6.852
 1829SOL     OW 6385   3.678   0.101   3.379
 1829SOL    HW1 6386   3.680   0.044   3.461
 1829SOL    HW2 6387   3.671   0.198   3.405
 1830SOL     OW 6388   5.909   6.775   4.997
 1830SOL    HW1 6389   5.983   6.707   5.000
 1830SOL    HW2 6390   5.864   6.771   4.908
 1831SOL     OW 6391   4.613   5.985   2.744
 1831SOL    HW1 6392   4.526   5.940   2.726
 1831SOL    HW2 6393   4.647   6.028   2.660
 1832SOL     OW 6394   2.972   3.389   0.059
 1832SOL    HW1 6395   2.960   3.299   0.102
 1832SOL    HW2 6396   3.067   3.419   0.071
 1833SOL     OW 6397   4.775   0.052   1.181
 1833SOL    HW1 6398   4.818   0.090   1.100
 1833SOL    HW2 6399   4.827   0.080   1.262
 1834SOL     OW 6400   2.890   2.840   1.200
 1834SOL    HW1 6401   2.910   2.821   1.104
 1834SOL    HW2 6402   2.819   2.910   1.206
 1835SOL     OW 6403   0.382   5.085   1.724
 1835SOL    HW1 6404   0.473   5.126   1.720
 1835SOL    HW2 6405   0.390   4.986   1.734
 1836SOL     OW 6406   5.815   2.120   2.071
 1836SOL    HW1 6407   5.838   2.187   2.141
 1836SOL    HW2 6408   5.888   2.051   2.066
 1837SOL     OW 6409   2.257   0.524   5.646
 1837SOL    HW1 6410   2.351   0.549   5.626
 1837SOL    HW2 6411   2.201   0.607   5.655
 1838SOL     OW 6412   6.586   0.410   6.681
 1838SOL    HW1 6413   6.547   0.435   6.769
 1838SOL    HW2 6414   6.593   0.492   6.623
 1839SOL     OW 6415   6.664   1.730   6.823
 1839SOL    HW1 6416   6.761   1.723   6.847
 1839SOL    HW2 6417   6.650   1.809   6.764
 1840SOL     OW 6418   3.973   0.723   2.687
 1840SOL    HW1 6419   3.960   0.805   2.631
 1840SOL    HW2 6420   3.931   0.737   2.776
 1841SOL     OW 6421   2.344   0.648   2.532
 1841SOL    HW1 6422   2.274   0.577   2.527
 1841SOL    HW2 6423   2.313   0.729   2.482
 1842SOL     OW 6424   1.236   4.959   0.414
 1842SOL    HW1 6425   1.323   4.926   0.449
 1842SOL    HW2 6426   1.244   4.979   0.316
 1843SOL     OW 6427   4.735   0.599   4.360
 1843SOL    HW1 6428   4.713   0.693   4.387
 1843SOL    HW2 6429   4.777   0.551   4.436
 1844SOL     OW 6430   5.215   1.846   5.309
 1844SOL    HW1 6431   5.134   1.804   5.267
 1844SOL    HW2 6432   5.221   1.819   5.405
 1845SOL     OW 6433   2.945   0.073   3.315
 1845SOL    HW1 6434   2.995   0.142   3.367
 1845SOL    HW2 6435   2.974   7.011   3.344
 1846SOL     OW 6436   5.364   1.046   3.053
 1846SOL    HW1 6437   5.269   1.074   3.066
 1846SOL    HW2 6438   5.373   0.998   2.966
 1847SOL     OW 6439   1.652   0.449   5.185
 1847SOL    HW1 6440   1.560   0.463   5.148
 1847SOL    HW2 6441   1.701   0.536   5.188
 1848SOL     OW 6442   1.971   6.413   4.297
 1848SOL    HW1 6443   1.879   6.448   4.314
 1848SOL    HW2 6444   1.981   6.324   4.342
 1849SOL     OW 6445   4.939   3.132   1.830
 1849SOL    HW1 6446   4.900   3.118   1.738
 1849SOL    HW2 6447   4.868   3.116   1.898
 1850SOL     OW 6448   5.364   1.539   2.262
 1850SOL    HW1 6449   5.335   1.525   2.167
 1850SOL    HW2 6450   5.430   1.614   2.265
 1851SOL     OW 6451   0.538   3.092   6.786
 1851SOL    HW1 6452   0.514   3.134   6.698
 1851SOL    HW2 6453   0.460   3.040   6.820
 1852SOL     OW 6454   6.828   4.847   1.166
 1852SOL    HW1 6455   6.866   4.934   1.134
 1852SOL    HW2 6456   6.825   4.782   1.091
 1853SOL     OW 6457   0.364   2.272   3.591
 1853SOL    HW1 6458   0.369   2.205   3.516
 1853SOL    HW2 6459   0.454   2.314   3.603
 1854SOL     OW 6460   1.564   5.498   3.302
 1854SOL    HW1 6461   1.616   5.575   3.264
 1854SOL    HW2 6462   1.617   5.414   3.290
 1855SOL     OW 6463   5.384   3.237   4.790
 1855SOL    HW1 6464   5.329   3.234   4.874
 1855SOL    HW2 6465   5.475   3.202   4.809
 1856SOL     OW 6466   4.342   3.623   6.486
 1856SOL    HW1 6467   4.258   3.672   6.463
 1856SOL    HW2 6468   4.322   3.553   6.554
 1857SOL     OW 6469   5.410   1.036   0.321
 1857SOL    HW1 6470   5.452   0.945   0.315
 1857SOL    HW2 6471   5.440   1.081   0.405
 1858SOL     OW 6472   5.272   2.741   3.422
 1858SOL    HW1 6473   5.277   2.728   3.323
 1858SOL    HW2 6474   5.192   2.692   3.457
 1859SOL     OW 6475   5.142   1.843   3.819
 1859SOL    HW1 6476   5.082   1.914   3.784
 1859SOL    HW2 6477   5.114   1.754   3.784
 1860SOL     OW 6478   0.773   2.060   5.363
 1860SOL    HW1 6479   0.675   2.040   5.357
 1860SOL    HW2 6480   0.798   2.126   5.292
 1861SOL     OW 6481   5.379   0.651   2.829
 1861SOL    HW1 6482   5.411   0.710   2.903
 1861SOL    HW2 6483   5.407   0.689   2.741
 1862SOL     OW 6484   1.023   0.264   0.054
 1862SOL    HW1 6485   0.944   0.241   0.111
 1862SOL    HW2 6486   1.106   0.259   0.110
 1863SOL     OW 6487   0.086   2.830   1.374
 1863SOL    HW1 6488   0.035   2.823   1.460
 1863SOL    HW2 6489   0.178   2.864   1.393
 1864SOL     OW 6490   3.299   5.736   4.016
 1864SOL    HW1 6491   3.354   5.776   4.090
 1864SOL    HW2 6492   3.233   5.671   4.055
 1865SOL     OW 6493   3.710   1.299   1.236
 1865SOL    HW1 6494   3.758   1.275   1.320
 1865SOL    HW2 6495   3.653   1.379   1.252
 1866SOL     OW 6496   6.478   4.603   4.147
 1866SOL    HW1 6497   6.419   4.531   4.110
 1866SOL    HW2 6498   6.435   4.692   4.132
 1867SOL     OW 6499   2.496   3.173   1.230
 1867SOL    HW1 6500   2.467   3.098   1.172
 1867SOL    HW2 6501   2.446   3.256   1.204
 1868SOL     OW 6502   4.924   3.414   5.521
 1868SOL    HW1 6503   4.972   3.343   5.471
 1868SOL    HW2 6504   4.922   3.498   5.465
 1869SOL     OW 6505   5.367   2.781   4.369
 1869SOL    HW1 6506   5.464   2.803   4.377
 1869SOL    HW2 6507   5.348   2.696   4.419
 1870SOL     OW 6508   0.675   3.216   4.685
 1870SOL    HW1 6509   0.602   3.149   4.697
 1870SOL    HW2 6510   0.675   3.280   4.762
 1871SOL     OW 6511   6.711   6.604   0.342
 1871SOL    HW1 6512   6.765   6.682   0.375
 1871SOL    HW2 6513   6.633   6.639   0.289
 1872SOL     OW 6514   3.377   2.788   0.887
 1872SOL    HW1 6515   3.426   2.804   0.801
 1872SOL    HW2 6516   3.441   2.798   0.964
 1873SOL     OW 6517   6.257   1.021   6.067
 1873SOL    HW1 6518   6.213   1.074   6.139
 1873SOL    HW2 6519   6.307   0.945   6.107
 1874SOL     OW 6520   1.113   0.910   6.612
 1874SOL    HW1 6521   1.075   0.988   6.662
 1874SOL    HW2 6522   1.162   0.942   6.531
 1875SOL     OW 6523   6.507   6.128   0.795
 1875SOL    HW1 6524   6.604   6.148   0.780
 1875SOL    HW2 6525   6.460   6.116   0.707
 1876SOL     OW 6526   5.355   6.806   5.923
 1876SOL    HW1 6527   5.311   6.826   5.835
 1876SOL    HW2 6528   5.445   6.850   5.925
 1877SOL     OW 6529   0.083   1.405   2.682
 1877SOL    HW1 6530   0.031   1.414   2.597
 1877SOL    HW2 6531   0.026   1.431   2.759
 1878SOL     OW 6532   6.956   4.458   3.303
 1878SOL    HW1 6533   6.885   4.506   3.252
 1878SOL    HW2 6534   6.916   4.381   3.352
 1879SOL     OW 6535   2.696   5.033   4.048
 1879SOL    HW1 6536   2.742   5.108   4.095
 1879SOL    HW2 6537   2.756   4.998   3.975
 1880SOL     OW 6538   0.955   2.257   2.788
 1880SOL    HW1 6539   1.020   2.333   2.781
 1880SOL    HW2 6540   0.988   2.181   2.732
 1881SOL     OW 6541   0.959   2.334   3.393
 1881SOL    HW1 6542   1.038   2.340   3.332
 1881SOL    HW2 6543   0.925   2.426   3.414
 1882SOL     OW 6544   0.977   6.365   6.893
 1882SOL    HW1 6545   0.956   6.432   6.965
 1882SOL    HW2 6546   1.068   6.384   6.857
 1883SOL     OW 6547   1.715   3.627   3.388
 1883SOL    HW1 6548   1.635   3.568   3.381
 1883SOL    HW2 6549   1.795   3.579   3.351
 1884SOL     OW 6550   5.035   0.997   1.763
 1884SOL    HW1 6551   5.037   1.085   1.716
 1884SOL    HW2 6552   4.956   0.944   1.733
 1885SOL     OW 6553   6.740   2.017   0.721
 1885SOL    HW1 6554   6.813   2.038   0.656
 1885SOL    HW2 6555   6.683   2.099   0.734
 1886SOL     OW 6556   2.078   2.142   6.974
 1886SOL    HW1 6557   2.162   2.126   7.026
 1886SOL    HW2 6558   2.056   2.060   6.921
 1887SOL     OW 6559   0.088   4.262   5.973
 1887SOL    HW1 6560   0.095   4.275   6.071
 1887SOL    HW2 6561   0.125   4.342   5.925
 1888SOL     OW 6562   2.184   1.328   5.989
 1888SOL    HW1 6563   2.095   1.372   5.996
 1888SOL    HW2 6564   2.245   1.385   5.932
 1889SOL     OW 6565   4.410   3.939   6.439
 1889SOL    HW1 6566   4.409   3.881   6.358
 1889SOL    HW2 6567   4.480   4.010   6.429
 1890SOL     OW 6568   1.783   5.749   6.603
 1890SOL    HW1 6569   1.863   5.689   6.595
 1890SOL    HW2 6570   1.704   5.704   6.561
 1891SOL     OW 6571   5.055   2.335   5.086
 1891SOL    HW1 6572   5.109   2.368   5.163
 1891SOL    HW2 6573   5.116   2.291   5.020
 1892SOL     OW 6574   3.974   5.935   1.211
 1892SOL    HW1 6575   4.039   5.880   1.159
 1892SOL    HW2 6576   4.023   5.996   1.273
 1893SOL     OW 6577   3.460   2.077   4.726
 1893SOL    HW1 6578   3.551   2.058   4.763
 1893SOL    HW2 6579   3.406   2.127   4.794
 1894SOL     OW 6580   4.416   3.653   1.358
 1894SOL    HW1 6581   4.365   3.569   1.342
 1894SOL    HW2 6582   4.420   3.672   1.456
 1895SOL     OW 6583   6.338   0.706   2.615
 1895SOL    HW1 6584   6.411   0.715   2.547
 1895SOL    HW2 6585   6.287   0.792   2.622
 1896SOL     OW 6586   6.535   0.946   3.215
 1896SOL    HW1 6587   6.480   0.934   3.297
 1896SOL    HW2 6588   6.477   0.942   3.134
 1897SOL     OW 6589   6.424   5.468   3.267
 1897SOL    HW1 6590   6.388   5.401   3.333
 1897SOL    HW2 6591   6.395   5.560   3.295
 1898SOL     OW 6592   3.789   6.242   1.493
 1898SOL    HW1 6593   3.836   6.315   1.543
 1898SOL    HW2 6594   3.802   6.256   1.395
 1899SOL     OW 6595   1.434   3.563   2.723
 1899SOL    HW1 6596   1.355   3.509   2.696
 1899SOL    HW2 6597   1.509   3.547   2.659
 1900SOL     OW 6598   0.897   6.807   6.255
 1900SOL    HW1 6599   0.883   6.736   6.323
 1900SOL    HW2 6600   0.881   6.897   6.297
 1901SOL     OW 6601   2.182   1.309   0.652
 1901SOL    HW1 6602   2.137   1.397   0.640
 1901SOL    HW2 6603   2.113   1.237   0.661
 1902SOL     OW 6604   1.644   2.721   4.628
 1902SOL    HW1 6605   1.677   2.712   4.534
 1902SOL    HW2 6606   1.606   2.634   4.659
 1903SOL     OW 6607   0.141   3.784   3.335
 1903SOL    HW1 6608   0.174   3.713   3.397
 1903SOL    HW2 6609   0.175   3.766   3.243
 1904SOL     OW 6610   6.874   0.117   4.609
 1904SOL    HW1 6611   6.895   0.067   4.525
 1904SOL    HW2 6612   6.910   0.210   4.602
 1905SOL     OW 6613   0.402   2.598   3.730
 1905SOL    HW1 6614   0.396   2.665   3.804
 1905SOL    HW2 6615   0.473   2.625   3.665
 1906SOL     OW 6616   3.029   0.252   5.541
 1906SOL    HW1 6617   3.034   0.170   5.483
 1906SOL    HW2 6618   3.036   0.225   5.637
 1907SOL     OW 6619   3.486   6.925   3.324
 1907SOL    HW1 6620   3.441   6.882   3.402
 1907SOL    HW2 6621   3.575   6.960   3.352
 1908SOL     OW 6622   4.695   1.126   5.362
 1908SOL    HW1 6623   4.618   1.067   5.385
 1908SOL    HW2 6624   4.683   1.215   5.405
 1909SOL     OW 6625   2.270   4.173   4.160
 1909SOL    HW1 6626   2.226   4.166   4.249
 1909SOL    HW2 6627   2.365   4.142   4.167
 1910SOL     OW 6628   5.766   2.725   6.373
 1910SOL    HW1 6629   5.692   2.718   6.306
 1910SOL    HW2 6630   5.728   2.740   6.464
 1911SOL     OW 6631   6.576   2.019   5.511
 1911SOL    HW1 6632   6.645   1.974   5.568
 1911SOL    HW2 6633   6.530   2.090   5.565
 1912SOL     OW 6634   3.721   6.175   2.564
 1912SOL    HW1 6635   3.716   6.075   2.569
 1912SOL    HW2 6636   3.762   6.201   2.476
 1913SOL     OW 6637   1.499   6.409   5.018
 1913SOL    HW1 6638   1.404   6.388   4.998
 1913SOL    HW2 6639   1.549   6.324   5.037
 1914SOL     OW 6640   2.724   2.178   6.611
 1914SOL    HW1 6641   2.674   2.236   6.548
 1914SOL    HW2 6642   2.815   2.216   6.626
 1915SOL     OW 6643   3.639   1.377   5.586
 1915SOL    HW1 6644   3.692   1.434   5.648
 1915SOL    HW2 6645   3.542   1.395   5.600
 1916SOL     OW 6646   3.509   5.388   0.869
 1916SOL    HW1 6647   3.421   5.402   0.914
 1916SOL    HW2 6648   3.536   5.292   0.879
 1917SOL     OW 6649   3.497   3.358   4.884
 1917SOL    HW1 6650   3.441   3.282   4.854
 1917SOL    HW2 6651   3.548   3.332   4.966
 1918SOL     OW 6652   6.214   6.662   6.050
 1918SOL    HW1 6653   6.284   6.645   5.980
 1918SOL    HW2 6654   6.234   6.607   6.131
 1919SOL     OW 6655   1.176   6.833   2.186
 1919SOL    HW1 6656   1.119   6.842   2.268
 1919SOL    HW2 6657   1.132   6.881   2.110
 1920SOL     OW 6658   0.632   4.645   3.367
 1920SOL    HW1 6659   0.671   4.576   3.306
 1920SOL    HW2 6660   0.542   4.673   3.334
 1921SOL     OW 6661   0.579   5.056   0.211
 1921SOL    HW1 6662   0.520   5.108   0.149
 1921SOL    HW2 6663   0.629   4.987   0.159
 1922SOL     OW 6664   4.115   3.089   0.840
 1922SOL    HW1 6665   4.075   3.143   0.766
 1922SOL    HW2 6666   4.072   2.999   0.842
 1923SOL     OW 6667   2.802   1.293   6.941
 1923SOL    HW1 6668   2.848   1.381   6.949
 1923SOL    HW2 6669   2.848   1.238   6.872
 1924SOL     OW 6670   5.610   5.233   2.519
 1924SOL    HW1 6671   5.684   5.187   2.567
 1924SOL    HW2 6672   5.524   5.186   2.537
 1925SOL     OW 6673   3.024   3.778   2.045
 1925SOL    HW1 6674   2.967   3.753   1.967
 1925SOL    HW2 6675   3.010   3.712   2.119
 1926SOL     OW 6676   1.218   0.098   3.950
 1926SOL    HW1 6677   1.241   0.194   3.968
 1926SOL    HW2 6678   1.129   0.093   3.906
 1927SOL     OW 6679   3.694   5.035   6.428
 1927SOL    HW1 6680   3.613   5.063   6.377
 1927SOL    HW2 6681   3.674   4.953   6.481
 1928SOL     OW 6682   6.770   3.535   6.089
 1928SOL    HW1 6683   6.798   3.459   6.148
 1928SOL    HW2 6684   6.848   3.595   6.072
 1929SOL     OW 6685   0.533   5.630   1.325
 1929SOL    HW1 6686   0.474   5.675   1.257
 1929SOL    HW2 6687   0.534   5.532   1.309
 1930SOL     OW 6688   5.148   4.325   0.063
 1930SOL    HW1 6689   5.119   4.372   0.146
 1930SOL    HW2 6690   5.208   4.384   0.010
 1931SOL     OW 6691   6.947   3.478   3.109
 1931SOL    HW1 6692   7.028   3.493   3.052
 1931SOL    HW2 6693   6.974   3.432   3.193
 1932SOL     OW 6694   5.274   3.681   3.095
 1932SOL    HW1 6695   5.365   3.673   3.135
 1932SOL    HW2 6696   5.228   3.592   3.098
 1933SOL     OW 6697   2.336   4.928   1.361
 1933SOL    HW1 6698   2.326   5.025   1.337
 1933SOL    HW2 6699   2.411   4.917   1.426
 1934SOL     OW 6700   0.441   0.274   5.759
 1934SOL    HW1 6701   0.364   0.315   5.807
 1934SOL    HW2 6702   0.482   0.341   5.697
 1935SOL     OW 6703   3.210   0.798   5.194
 1935SOL    HW1 6704   3.262   0.814   5.110
 1935SOL    HW2 6705   3.120   0.761   5.172
 1936SOL     OW 6706   5.820   4.509   4.174
 1936SOL    HW1 6707   5.805   4.509   4.076
 1936SOL    HW2 6708   5.902   4.457   4.196
 1937SOL     OW 6709   4.240   6.377   1.919
 1937SOL    HW1 6710   4.171   6.317   1.878
 1937SOL    HW2 6711   4.198   6.464   1.943
 1938SOL     OW 6712   4.565   1.862   2.829
 1938SOL    HW1 6713   4.585   1.764   2.822
 1938SOL    HW2 6714   4.628   1.905   2.893
 1939SOL     OW 6715   0.658   6.544   4.159
 1939SOL    HW1 6716   0.721   6.615   4.192
 1939SOL    HW2 6717   0.591   6.584   4.098
 1940SOL     OW 6718   4.840   5.229   5.503
 1940SOL    HW1 6719   4.784   5.263   5.427
 1940SOL    HW2 6720   4.934   5.260   5.492
 1941SOL     OW 6721   6.976   3.967   3.440
 1941SOL    HW1 6722   6.943   3.925   3.525
 1941SOL    HW2 6723   7.027   3.900   3.387
 1942SOL     OW 6724   6.602   0.093   2.804
 1942SOL    HW1 6725   6.638   0.109   2.712
 1942SOL    HW2 6726   6.510   0.055   2.798
 1943SOL     OW 6727   3.114   6.177   2.263
 1943SOL    HW1 6728   3.209   6.147   2.257
 1943SOL    HW2 6729   3.055   6.110   2.219
 1944SOL     OW 6730   4.875   2.551   6.191
 1944SOL    HW1 6731   4.853   2.583   6.284
 1944SOL    HW2 6732   4.906   2.456   6.196
 1945SOL     OW 6733   4.052   5.760   2.626
 1945SOL    HW1 6734   4.024   5.791   2.535
 1945SOL    HW2 6735   4.041   5.661   2.633
 1946SOL     OW 6736   6.976   0.623   0.066
 1946SOL    HW1 6737   6.905   0.681   0.025
 1946SOL    HW2 6738   6.936   0.537   0.096
 1947SOL     OW 6739   5.086   6.425   3.627
 1947SOL    HW1 6740   5.025   6.504   3.622
 1947SOL    HW2 6741   5.040   6.345   3.590
 1948SOL     OW 6742   6.339   5.591   3.644
 1948SOL    HW1 6743   6.413   5.610   3.579
 1948SOL    HW2 6744   6.350   5.649   3.725
 1949SOL     OW 6745   4.688   4.871   5.908
 1949SOL    HW1 6746   4.714   4.967   5.918
 1949SOL    HW2 6747   4.653   4.836   5.995
 1950SOL     OW 6748   3.807   3.947   1.055
 1950SOL    HW1 6749   3.840   4.040   1.038
 1950SOL    HW2 6750   3.807   3.896   0.969
 1951SOL     OW 6751   6.452   3.866   0.434
 1951SOL    HW1 6752   6.382   3.818   0.487
 1951SOL    HW2 6753   6.543   3.835   0.464
 1952SOL     OW 6754   3.632   2.050   6.727
 1952SOL    HW1 6755   3.545   2.098   6.716
 1952SOL    HW2 6756   3.701   2.113   6.761
 1953SOL     OW 6757   5.984   2.433   0.165
 1953SOL    HW1 6758   6.019   2.499   0.232
 1953SOL    HW2 6759   5.962   2.482   0.080
 1954SOL     OW 6760   5.713   1.407   3.992
 1954SOL    HW1 6761   5.641   1.352   4.035
 1954SOL    HW2 6762   5.734   1.486   4.049
 1955SOL     OW 6763   1.408   0.042   2.084
 1955SOL    HW1 6764   1.502   0.024   2.113
 1955SOL    HW2 6765   1.362   0.100   2.151
 1956SOL     OW 6766   6.057   6.948   2.447
 1956SOL    HW1 6767   5.997   6.986   2.376
 1956SOL    HW2 6768   6.062   7.010   2.524
 1957SOL     OW 6769   6.341   5.094   4.622
 1957SOL    HW1 6770   6.249   5.134   4.627
 1957SOL    HW2 6771   6.395   5.126   4.700
 1958SOL     OW 6772   6.072   2.467   4.286
 1958SOL    HW1 6773   6.142   2.521   4.239
 1958SOL    HW2 6774   6.034   2.399   4.223
 1959SOL     OW 6775   6.792   2.116   6.023
 1959SOL    HW1 6776   6.754   2.208   6.018
 1959SOL    HW2 6777   6.776   2.077   6.113
 1960SOL     OW 6778   6.414   4.984   0.521
 1960SOL    HW1 6779   6.315   4.970   0.525
 1960SOL    HW2 6780   6.459   4.898   0.493
 1961SOL     OW 6781   5.722   4.691   4.583
 1961SOL    HW1 6782   5.785   4.651   4.649
 1961SOL    HW2 6783   5.637   4.717   4.630
 1962SOL     OW 6784   2.990   6.210   2.904
 1962SOL    HW1 6785   2.978   6.176   2.810
 1962SOL    HW2 6786   2.920   6.172   2.963
 1963SOL     OW 6787   0.766   1.151   0.981
 1963SOL    HW1 6788   0.833   1.223   0.962
 1963SOL    HW2 6789   0.794   1.100   1.062
 1964SOL     OW 6790   4.205   2.149   1.386
 1964SOL    HW1 6791   4.256   2.163   1.470
 1964SOL    HW2 6792   4.133   2.217   1.378
 1965SOL     OW 6793   1.305   3.571   3.168
 1965SOL    HW1 6794   1.296   3.477   3.135
 1965SOL    HW2 6795   1.378   3.617   3.118
 1966SOL     OW 6796   6.953   5.506   4.952
 1966SOL    HW1 6797   7.013   5.441   4.905
 1966SOL    HW2 6798   6.877   5.530   4.892
 1967SOL     OW 6799   4.786   2.149   5.129
 1967SOL    HW1 6800   4.719   2.075   5.126
 1967SOL    HW2 6801   4.872   2.117   5.089
 1968SOL     OW 6802   2.734   5.886   0.618
 1968SOL    HW1 6803   2.801   5.900   0.546
 1968SOL    HW2 6804   2.729   5.788   0.640
 1969SOL     OW 6805   0.372   1.311   1.135
 1969SOL    HW1 6806   0.304   1.343   1.070
 1969SOL    HW2 6807   0.327   1.263   1.210
 1970SOL     OW 6808   2.296   0.341   6.621
 1970SOL    HW1 6809   2.222   0.318   6.557
 1970SOL    HW2 6810   2.316   0.439   6.614
 1971SOL     OW 6811   6.075   6.852   6.221
 1971SOL    HW1 6812   6.058   6.772   6.165
 1971SOL    HW2 6813   6.174   6.860   6.239
 1972SOL     OW 6814   6.650   2.884   2.995
 1972SOL    HW1 6815   6.734   2.892   2.941
 1972SOL    HW2 6816   6.643   2.791   3.031
 1973SOL     OW 6817   2.683   3.526   1.097
 1973SOL    HW1 6818   2.656   3.479   1.013
 1973SOL    HW2 6819   2.771   3.491   1.129
 1974SOL     OW 6820   6.357   5.715   4.133
 1974SOL    HW1 6821   6.434   5.729   4.195
 1974SOL    HW2 6822   6.294   5.793   4.140
 1975SOL     OW 6823   2.358   1.239   3.256
 1975SOL    HW1 6824   2.264   1.207   3.250
 1975SOL    HW2 6825   2.420   1.160   3.253
 1976SOL     OW 6826   0.770   5.603   6.565
 1976SOL    HW1 6827   0.856   5.643   6.534
 1976SOL    HW2 6828   0.782   5.565   6.657
 1977SOL     OW 6829   1.716   2.813   3.494
 1977SOL    HW1 6830   1.745   2.723   3.460
 1977SOL    HW2 6831   1.792   2.856   3.542
 1978SOL     OW 6832   0.665   1.032   3.566
 1978SOL    HW1 6833   0.588   1.086   3.533
 1978SOL    HW2 6834   0.716   1.085   3.634
 1979SOL     OW 6835   6.836   4.088   4.898
 1979SOL    HW1 6836   6.782   4.133   4.827
 1979SOL    HW2 6837   6.916   4.145   4.920
 1980SOL     OW 6838   2.590   1.049   6.050
 1980SOL    HW1 6839   2.493   1.031   6.030
 1980SOL    HW2 6840   2.635   0.963   6.075
 1981SOL     OW 6841   6.089   1.843   2.425
 1981SOL    HW1 6842   6.155   1.903   2.380
 1981SOL    HW2 6843   6.121   1.822   2.518
 1982SOL     OW 6844   0.141   4.209   5.519
 1982SOL    HW1 6845   0.161   4.119   5.558
 1982SOL    HW2 6846   0.051   4.207   5.476
 1983SOL     OW 6847   1.006   1.960   2.693
 1983SOL    HW1 6848   1.044   1.977   2.603
 1983SOL    HW2 6849   1.062   1.894   2.742
 1984SOL     OW 6850   5.780   1.040   4.755
 1984SOL    HW1 6851   5.693   1.004   4.790
 1984SOL    HW2 6852   5.786   1.021   4.657
 1985SOL     OW 6853   1.049   0.873   2.558
 1985SOL    HW1 6854   1.117   0.812   2.598
 1985SOL    HW2 6855   0.976   0.890   2.624
 1986SOL     OW 6856   1.522   0.378   0.513
 1986SOL    HW1 6857   1.551   0.468   0.545
 1986SOL    HW2 6858   1.575   0.353   0.432
 1987SOL     OW 6859   1.829   2.756   1.583
 1987SOL    HW1 6860   1.913   2.704   1.600
 1987SOL    HW2 6861   1.823   2.778   1.486
 1988SOL     OW 6862   4.750   4.712   1.274
 1988SOL    HW1 6863   4.803   4.681   1.195
 1988SOL    HW2 6864   4.721   4.632   1.327
 1989SOL     OW 6865   2.477   6.414   5.184
 1989SOL    HW1 6866   2.445   6.472   5.258
 1989SOL    HW2 6867   2.401   6.363   5.145
 1990SOL     OW 6868   3.148   6.585   0.877
 1990SOL    HW1 6869   3.116   6.512   0.937
 1990SOL    HW2 6870   3.073   6.613   0.816
 1991SOL     OW 6871   4.461   5.093   6.213
 1991SOL    HW1 6872   4.406   5.013   6.187
 1991SOL    HW2 6873   4.514   5.071   6.296
 1992SOL     OW 6874   1.321   0.047   6.730
 1992SOL    HW1 6875   1.282   7.001   6.677
 1992SOL    HW2 6876   1.251   0.083   6.792
 1993SOL     OW 6877   4.172   3.731   5.067
 1993SOL    HW1 6878   4.077   3.734   5.096
 1993SOL    HW2 6879   4.178   3.755   4.970
 1994SOL     OW 6880   1.266   1.695   1.060
 1994SOL    HW1 6881   1.189   1.633   1.048
 1994SOL    HW2 6882   1.347   1.656   1.017
 1995SOL     OW 6883   6.137   2.255   1.668
 1995SOL    HW1 6884   6.104   2.190   1.599
 1995SOL    HW2 6885   6.226   2.291   1.640
 1996SOL     OW 6886   3.035   3.562   0.842
 1996SOL    HW1 6887   2.989   3.485   0.798
 1996SOL    HW2 6888   2.991   3.647   0.815
 1997SOL     OW 6889   4.947   0.374   5.278
 1997SOL    HW1 6890   5.034   0.398   5.320
 1997SOL    HW2 6891   4.891   0.457   5.267
 1998SOL     OW 6892   3.231   3.441   6.528
 1998SOL    HW1 6893   3.174   3.507   6.479
 1998SOL    HW2 6894   3.227   3.353   6.481
 1999SOL     OW 6895   3.091   6.547   1.809
 1999SOL    HW1 6896   3.144   6.507   1.734
 1999SOL    HW2 6897   3.099   6.488   1.890
 2000SOL     OW 6898   3.903   2.315   5.261
 2000SOL    HW1 6899   3.927   2.411   5.277
 2000SOL    HW2 6900   3.982   2.258   5.282
 2001SOL     OW 6901   3.358   2.173   1.857
 2001SOL    HW1 6902   3.438   2.212   1.903
 2001SOL    HW2 6903   3.385   2.141   1.766
 2002SOL     OW 6904   1.197   5.407   6.007
 2002SOL    HW1 6905   1.151   5.494   6.026
 2002SOL    HW2 6906   1.215   5.400   5.909
 2003SOL     OW 6907   5.998   6.947   3.427
 2003SOL    HW1 6908   5.910   6.930   3.382
 2003SOL    HW2 6909   6.012   6.878   3.499
 2004SOL     OW 6910   5.359   1.439   5.410
 2004SOL    HW1 6911   5.413   1.411   5.490
 2004SOL    HW2 6912   5.389   1.529   5.379
 2005SOL     OW 6913   1.119   5.423   6.578
 2005SOL    HW1 6914   1.041   5.429   6.515
 2005SOL    HW2 6915   1.133   5.511   6.622
 2006SOL     OW 6916   5.059   4.390   4.183
 2006SOL    HW1 6917   5.029   4.320   4.248
 2006SOL    HW2 6918   5.017   4.374   4.094
 2007SOL     OW 6919   3.917   5.431   0.614
 2007SOL    HW1 6920   3.971   5.371   0.556
 2007SOL    HW2 6921   3.957   5.523   0.614
 2008SOL     OW 6922   0.878   6.033   3.122
 2008SOL    HW1 6923   0.917   5.955   3.074
 2008SOL    HW2 6924   0.893   6.023   3.221
 2009SOL     OW 6925   6.384   0.035   1.238
 2009SOL    HW1 6926   6.334   0.103   1.292
 2009SOL    HW2 6927   6.441   7.009   1.299
 2010SOL     OW 6928   1.530   1.052   1.151
 2010SOL    HW1 6929   1.607   1.098   1.197
 2010SOL    HW2 6930   1.526   1.082   1.056
 2011SOL     OW 6931   0.278   2.236   5.360
 2011SOL    HW1 6932   0.258   2.322   5.312
 2011SOL    HW2 6933   0.199   2.176   5.356
 2012SOL     OW 6934   0.935   3.233   1.511
 2012SOL    HW1 6935   0.992   3.288   1.572
 2012SOL    HW2 6936   0.950   3.262   1.416
 2013SOL     OW 6937   5.560   0.529   3.329
 2013SOL    HW1 6938   5.483   0.589   3.307
 2013SOL    HW2 6939   5.567   0.457   3.261
 2014SOL     OW 6940   1.835   5.453   2.580
 2014SOL    HW1 6941   1.767   5.425   2.647
 2014SOL    HW2 6942   1.806   5.425   2.489
 2015SOL     OW 6943   2.420   1.601   6.398
 2015SOL    HW1 6944   2.506   1.585   6.447
 2015SOL    HW2 6945   2.436   1.668   6.326
 2016SOL     OW 6946   1.586   5.302   5.217
 2016SOL    HW1 6947   1.666   5.323   5.272
 2016SOL    HW2 6948   1.513   5.267   5.275
 2017SOL     OW 6949   2.819   6.616   4.360
 2017SOL    HW1 6950   2.748   6.609   4.290
 2017SOL    HW2 6951   2.901   6.658   4.322
 2018SOL     OW 6952   5.885   6.988   6.047
 2018SOL    HW1 6953   5.945   6.956   6.121
 2018SOL    HW2 6954   5.930   6.971   5.959
 2019SOL     OW 6955   4.589   2.099   2.212
 2019SOL    HW1 6956   4.559   2.030   2.146
 2019SOL    HW2 6957   4.683   2.127   2.189
 2020SOL     OW 6958   1.368   5.501   5.581
 2020SOL    HW1 6959   1.306   5.551   5.520
 2020SOL    HW2 6960   1.396   5.560   5.657
 2021SOL     OW 6961   2.075   5.831   3.726
 2021SOL    HW1 6962   2.096   5.779   3.643
 2021SOL    HW2 6963   2.161   5.855   3.773
 2022SOL     OW 6964   2.035   3.341   2.713
 2022SOL    HW1 6965   2.106   3.351   2.783
 2022SOL    HW2 6966   2.075   3.302   2.630
 2023SOL     OW 6967   6.503   1.491   6.781
 2023SOL    HW1 6968   6.576   1.529   6.724
 2023SOL    HW2 6969   6.422   1.475   6.726
 2024SOL     OW 6970   6.905   0.480   2.949
 2024SOL    HW1 6971   6.815   0.437   2.956
 2024SOL    HW2 6972   6.969   0.416   2.907
 2025SOL     OW 6973   2.203   3.009   2.168
 2025SOL    HW1 6974   2.225   3.103   2.140
 2025SOL    HW2 6975   2.246   2.990   2.256
 2026SOL     OW 6976   1.127   2.255   6.230
 2026SOL    HW1 6977   1.172   2.304   6.155
 2026SOL    HW2 6978   1.192   2.192   6.272
 2027SOL     OW 6979   0.837   1.341   1.218
 2027SOL    HW1 6980   0.914   1.320   1.158
 2027SOL    HW2 6981   0.870   1.385   1.301
 2028SOL     OW 6982   3.153   1.256   6.342
 2028SOL    HW1 6983   3.205   1.328   6.297
 2028SOL    HW2 6984   3.077   1.228   6.284
 2029SOL     OW 6985   0.072   0.472   0.514
 2029SOL    HW1 6986   0.137   0.458   0.440
 2029SOL    HW2 6987   0.113   0.444   0.601
 2030SOL     OW 6988   2.595   0.460   3.729
 2030SOL    HW1 6989   2.658   0.537   3.736
 2030SOL    HW2 6990   2.521   0.482   3.666
 2031SOL     OW 6991   5.133   6.326   2.646
 2031SOL    HW1 6992   5.123   6.238   2.693
 2031SOL    HW2 6993   5.042   6.365   2.630
 2032SOL     OW 6994   3.866   6.704   2.221
 2032SOL    HW1 6995   3.842   6.723   2.126
 2032SOL    HW2 6996   3.924   6.778   2.256
 2033SOL     OW 6997   3.654   4.311   6.882
 2033SOL    HW1 6998   3.673   4.214   6.896
 2033SOL    HW2 6999   3.600   4.346   6.960
 2034SOL     OW 7000   3.389   6.828   4.589
 2034SOL    HW1 7001   3.348   6.879   4.514
 2034SOL    HW2 7002   3.343   6.852   4.675
 2035SOL     OW 7003   0.036   0.752   2.141
 2035SOL    HW1 7004   7.011   0.668   2.139
 2035SOL    HW2 7005   7.024   0.820   2.081
 2036SOL     OW 7006   0.804   5.546   3.069
 2036SOL    HW1 7007   0.786   5.568   2.973
 2036SOL    HW2 7008   0.742   5.473   3.098
 2037SOL     OW 7009   0.647   2.744   6.037
 2037SOL    HW1 7010   0.734   2.696   6.049
 2037SOL    HW2 7011   0.640   2.776   5.942
 2038SOL     OW 7012   1.541   2.112   6.541
 2038SOL    HW1 7013   1.633   2.148   6.525
 2038SOL    HW2 7014   1.486   2.121   6.458
 2039SOL     OW 7015   0.340   5.132   2.275
 2039SOL    HW1 7016   0.295   5.141   2.186
 2039SOL    HW2 7017   0.273   5.147   2.348
 2040SOL     OW 7018   3.360   3.482   5.398
 2040SOL    HW1 7019   3.417   3.480   5.480
 2040SOL    HW2 7020   3.418   3.487   5.317
 2041SOL     OW 7021   0.028   5.879   5.544
 2041SOL    HW1 7022   7.011   5.890   5.456
 2041SOL    HW2 7023   0.015   5.786   5.577
 2042SOL     OW 7024   5.285   4.969   6.711
 2042SOL    HW1 7025   5.281   5.062   6.747
 2042SOL    HW2 7026   5.205   4.951   6.654
 2043SOL     OW 7027   6.234   4.226   2.421
 2043SOL    HW1 7028   6.276   4.135   2.420
 2043SOL    HW2 7029   6.135   4.217   2.412
 2044SOL     OW 7030   4.924   0.374   2.084
 2044SOL    HW1 7031   5.014   0.380   2.041
 2044SOL    HW2 7032   4.880   0.464   2.083
 2045SOL     OW 7033   2.130   4.825   4.564
 2045SOL    HW1 7034   2.081   4.738   4.555
 2045SOL    HW2 7035   2.224   4.807   4.595
 2046SOL     OW 7036   0.104   1.095   4.458
 2046SOL    HW1 7037   0.141   1.159   4.525
 2046SOL    HW2 7038   0.129   1.125   4.366
 2047SOL     OW 7039   4.732   2.265   0.140
 2047SOL    HW1 7040   4.643   2.256   0.186
 2047SOL    HW2 7041   4.764   2.360   0.149
 2048SOL     OW 7042   2.012   5.836   0.834
 2048SOL    HW1 7043   2.048   5.927   0.856
 2048SOL    HW2 7044   1.918   5.828   0.870
 2049SOL     OW 7045   4.609   1.452   6.467
 2049SOL    HW1 7046   4.639   1.547   6.467
 2049SOL    HW2 7047   4.581   1.426   6.559
 2050SOL     OW 7048   6.910   2.437   2.572
 2050SOL    HW1 7049   6.933   2.532   2.554
 2050SOL    HW2 7050   6.927   2.416   2.669
 2051SOL     OW 7051   0.422   5.982   0.871
 2051SOL    HW1 7052   0.339   6.024   0.907
 2051SOL    HW2 7053   0.486   6.053   0.843
 2052SOL     OW 7054   0.404   4.236   0.620
 2052SOL    HW1 7055   0.449   4.206   0.536
 2052SOL    HW2 7056   0.318   4.282   0.597
 2053SOL     OW 7057   6.071   0.473   5.743
 2053SOL    HW1 7058   6.108   0.565   5.727
 2053SOL    HW2 7059   6.129   0.405   5.697
 2054SOL     OW 7060   4.090   2.726   1.333
 2054SOL    HW1 7061   4.021   2.668   1.290
 2054SOL    HW2 7062   4.119   2.685   1.420
 2055SOL     OW 7063   6.092   3.555   2.757
 2055SOL    HW1 7064   6.042   3.476   2.723
 2055SOL    HW2 7065   6.168   3.575   2.695
 2056SOL     OW 7066   2.513   0.441   3.125
 2056SOL    HW1 7067   2.426   0.400   3.098
 2056SOL    HW2 7068   2.544   0.401   3.211
 2057SOL     OW 7069   5.616   3.005   3.426
 2057SOL    HW1 7070   5.552   2.983   3.352
 2057SOL    HW2 7071   5.615   3.104   3.442
 2058SOL     OW 7072   1.456   1.695   3.037
 2058SOL    HW1 7073   1.503   1.663   3.119
 2058SOL    HW2 7074   1.497   1.781   3.007
 2059SOL     OW 7075   2.516   6.139   6.332
 2059SOL    HW1 7076   2.567   6.224   6.343
 2059SOL    HW2 7077   2.423   6.151   6.367
 2060SOL     OW 7078   5.787   4.514   0.303
 2060SOL    HW1 7079   5.885   4.508   0.284
 2060SOL    HW2 7080   5.761   4.610   0.313
 2061SOL     OW 7081   0.808   1.663   2.774
 2061SOL    HW1 7082   0.832   1.580   2.824
 2061SOL    HW2 7083   0.806   1.741   2.837
 2062SOL     OW 7084   5.755   0.336   3.517
 2062SOL    HW1 7085   5.709   0.267   3.461
 2062SOL    HW2 7086   5.715   0.426   3.499
 2063SOL     OW 7087   2.076   0.686   6.116
 2063SOL    HW1 7088   2.080   0.646   6.207
 2063SOL    HW2 7089   2.162   0.667   6.067
 2064SOL     OW 7090   1.222   2.090   5.956
 2064SOL    HW1 7091   1.254   2.179   5.989
 2064SOL    HW2 7092   1.279   2.060   5.880
 2065SOL     OW 7093   6.988   3.448   3.398
 2065SOL    HW1 7094   7.016   3.470   3.492
 2065SOL    HW2 7095   6.895   3.482   3.382
 2066SOL     OW 7096   0.202   5.635   3.445
 2066SOL    HW1 7097   0.168   5.727   3.462
 2066SOL    HW2 7098   0.142   5.588   3.380
 2067SOL     OW 7099   6.857   5.510   0.835
 2067SOL    HW1 7100   6.894   5.456   0.759
 2067SOL    HW2 7101   6.757   5.508   0.832
 2068SOL     OW 7102   1.163   1.502   5.596
 2068SOL    HW1 7103   1.088   1.446   5.560
 2068SOL    HW2 7104   1.153   1.596   5.561
 2069SOL     OW 7105   1.264   2.981   3.343
 2069SOL    HW1 7106   1.197   2.993   3.416
 2069SOL    HW2 7107   1.356   2.983   3.383
 2070SOL     OW 7108   1.433   0.911   2.363
 2070SOL    HW1 7109   1.376   0.842   2.318
 2070SOL    HW2 7110   1.482   0.869   2.439
 2071SOL     OW 7111   6.177   6.024   5.106
 2071SOL    HW1 7112   6.114   5.959   5.062
 2071SOL    HW2 7113   6.137   6.116   5.104
 2072SOL     OW 7114   4.549   6.885   2.645
 2072SOL    HW1 7115   4.590   6.915   2.560
 2072SOL    HW2 7116   4.520   6.964   2.699
 2073SOL     OW 7117   3.840   0.161   4.541
 2073SOL    HW1 7118   3.903   0.186   4.467
 2073SOL    HW2 7119   3.746   0.176   4.511
 2074SOL     OW 7120   1.291   3.380   0.300
 2074SOL    HW1 7121   1.239   3.389   0.215
 2074SOL    HW2 7122   1.258   3.299   0.350
 2075SOL     OW 7123   5.484   2.895   1.516
 2075SOL    HW1 7124   5.468   2.982   1.470
 2075SOL    HW2 7125   5.479   2.821   1.448
 2076SOL     OW 7126   5.206   6.961   6.600
 2076SOL    HW1 7127   5.156   6.938   6.684
 2076SOL    HW2 7128   5.154   6.928   6.521
 2077SOL     OW 7129   5.645   2.383   2.781
 2077SOL    HW1 7130   5.731   2.432   2.770
 2077SOL    HW2 7131   5.594   2.385   2.695
 2078SOL     OW 7132   1.663   6.179   6.514
 2078SOL    HW1 7133   1.595   6.121   6.559
 2078SOL    HW2 7134   1.716   6.125   6.449
 2079SOL     OW 7135   6.023   1.586   3.314
 2079SOL    HW1 7136   6.049   1.547   3.402
 2079SOL    HW2 7137   6.104   1.623   3.269
 2080SOL     OW 7138   1.104   0.540   4.387
 2080SOL    HW1 7139   1.192   0.578   4.417
 2080SOL    HW2 7140   1.029   0.596   4.423
 2081SOL     OW 7141   1.881   5.819   4.209
 2081SOL    HW1 7142   1.949   5.767   4.261
 2081SOL    HW2 7143   1.904   5.817   4.112
 2082SOL     OW 7144   0.001   0.007   3.054
 2082SOL    HW1 7145   7.000   6.998   3.141
 2082SOL    HW2 7146   0.086   0.058   3.069
 2083SOL     OW 7147   5.493   5.182   5.925
 2083SOL    HW1 7148   5.405   5.205   5.967
 2083SOL    HW2 7149   5.561   5.166   5.996
 2084SOL     OW 7150   0.362   3.976   4.296
 2084SOL    HW1 7151   0.320   3.885   4.297
 2084SOL    HW2 7152   0.376   4.005   4.201
 2085SOL     OW 7153   4.773   0.369   6.499
 2085SOL    HW1 7154   4.683   0.405   6.524
 2085SOL    HW2 7155   4.775   0.270   6.514
 2086SOL     OW 7156   4.036   6.737   6.103
 2086SOL    HW1 7157   4.072   6.809   6.162
 2086SOL    HW2 7158   4.107   6.668   6.089
 2087SOL     OW 7159   5.114   0.143   1.630
 2087SOL    HW1 7160   5.110   0.134   1.729
 2087SOL    HW2 7161   5.098   0.054   1.588
 2088SOL     OW 7162   2.843   6.002   1.032
 2088SOL    HW1 7163   2.772   5.942   1.070
 2088SOL    HW2 7164   2.929   5.953   1.026
 2089SOL     OW 7165   5.574   2.415   6.416
 2089SOL    HW1 7166   5.549   2.404   6.320
 2089SOL    HW2 7167   5.512   2.480   6.459
 2090SOL     OW 7168   3.533   3.175   5.656
 2090SOL    HW1 7169   3.506   3.103   5.592
 2090SOL    HW2 7170   3.599   3.138   5.722
 2091SOL     OW 7171   0.125   5.436   0.462
 2091SOL    HW1 7172   0.047   5.417   0.522
 2091SOL    HW2 7173   0.193   5.489   0.512
 2092SOL     OW 7174   4.971   4.320   6.703
 2092SOL    HW1 7175   5.066   4.334   6.676
 2092SOL    HW2 7176   4.930   4.407   6.729
 2093SOL     OW 7177   2.281   2.503   1.352
 2093SOL    HW1 7178   2.327   2.480   1.438
 2093SOL    HW2 7179   2.348   2.503   1.278
 2094SOL     OW 7180   5.690   1.285   1.291
 2094SOL    HW1 7181   5.660   1.341   1.368
 2094SOL    HW2 7182   5.662   1.327   1.205
 2095SOL     OW 7183   5.327   0.695   4.715
 2095SOL    HW1 7184   5.380   0.732   4.792
 2095SOL    HW2 7185   5.385   0.688   4.635
 2096SOL     OW 7186   5.057   4.216   3.432
 2096SOL    HW1 7187   5.094   4.165   3.354
 2096SOL    HW2 7188   4.982   4.164   3.473
 2097SOL     OW 7189   2.177   3.343   6.511
 2097SOL    HW1 7190   2.204   3.385   6.597
 2097SOL    HW2 7191   2.220   3.253   6.503
 2098SOL     OW 7192   4.378   5.877   2.721
 2098SOL    HW1 7193   4.286   5.916   2.713
 2098SOL    HW2 7194   4.370   5.779   2.740
 2099SOL     OW 7195   2.488   3.403   5.546
 2099SOL    HW1 7196   2.485   3.306   5.570
 2099SOL    HW2 7197   2.526   3.455   5.623
 2100SOL     OW 7198   4.779   3.217   5.789
 2100SOL    HW1 7199   4.689   3.257   5.772
 2100SOL    HW2 7200   4.820   3.189   5.702
 2101SOL     OW 7201   1.556   6.121   2.501
 2101SOL    HW1 7202   1.606   6.085   2.422
 2101SOL    HW2 7203   1.555   6.220   2.497
 2102SOL     OW 7204   6.161   4.996   1.734
 2102SOL    HW1 7205   6.128   5.084   1.767
 2102SOL    HW2 7206   6.099   4.924   1.762
 2103SOL     OW 7207   3.852   4.335   6.005
 2103SOL    HW1 7208   3.771   4.311   5.952
 2103SOL    HW2 7209   3.925   4.269   5.986
 2104SOL     OW 7210   1.464   2.967   0.963
 2104SOL    HW1 7211   1.424   3.010   0.882
 2104SOL    HW2 7212   1.561   2.992   0.970
 2105SOL     OW 7213   5.329   6.022   4.950
 2105SOL    HW1 7214   5.383   5.957   5.004
 2105SOL    HW2 7215   5.247   5.977   4.916
 2106SOL     OW 7216   4.798   4.405   0.876
 2106SOL    HW1 7217   4.821   4.337   0.806
 2106SOL    HW2 7218   4.703   4.433   0.865
 2107SOL     OW 7219   5.403   2.626   5.121
 2107SOL    HW1 7220   5.312   2.666   5.111
 2107SOL    HW2 7221   5.396   2.534   5.159
 2108SOL     OW 7222   6.554   6.086   5.317
 2108SOL    HW1 7223   6.458   6.077   5.344
 2108SOL    HW2 7224   6.600   5.998   5.325
 2109SOL     OW 7225   4.287   6.234   2.669
 2109SOL    HW1 7226   4.235   6.153   2.697
 2109SOL    HW2 7227   4.366   6.207   2.614
 2110SOL     OW 7228   3.132   1.605   6.690
 2110SOL    HW1 7229   3.122   1.626   6.592
 2110SOL    HW2 7230   3.078   1.525   6.713
 2111SOL     OW 7231   0.944   2.521   0.283
 2111SOL    HW1 7232   0.915   2.530   0.379
 2111SOL    HW2 7233   1.035   2.480   0.280
 2112SOL     OW 7234   5.196   2.822   6.876
 2112SOL    HW1 7235   5.129   2.836   6.804
 2112SOL    HW2 7236   5.158   2.763   6.947
 2113SOL     OW 7237   1.205   1.382   5.269
 2113SOL    HW1 7238   1.244   1.327   5.195
 2113SOL    HW2 7239   1.111   1.408   5.245
 2114SOL     OW 7240   1.228   2.730   0.736
 2114SOL    HW1 7241   1.243   2.653   0.673
 2114SOL    HW2 7242   1.307   2.791   0.733
 2115SOL     OW 7243   1.900   3.416   2.946
 2115SOL    HW1 7244   1.923   3.426   2.849
 2115SOL    HW2 7245   1.970   3.360   2.992
 2116SOL     OW 7246   6.627   4.803   3.083
 2116SOL    HW1 7247   6.612   4.895   3.047
 2116SOL    HW2 7248   6.540   4.754   3.086
 2117SOL     OW 7249   6.518   4.665   1.916
 2117SOL    HW1 7250   6.495   4.754   1.955
 2117SOL    HW2 7251   6.594   4.675   1.852
 2118SOL     OW 7252   6.192   3.695   1.603
 2118SOL    HW1 7253   6.243   3.620   1.562
 2118SOL    HW2 7254   6.201   3.692   1.703
 2119SOL     OW 7255   2.392   5.903   1.188
 2119SOL    HW1 7256   2.407   5.923   1.092
 2119SOL    HW2 7257   2.301   5.862   1.200
 2120SOL     OW 7258   0.030   5.168   3.849
 2120SOL    HW1 7259   0.075   5.239   3.795
 2120SOL    HW2 7260   0.060   5.078   3.816
 2121SOL     OW 7261   1.020   3.489   5.839
 2121SOL    HW1 7262   0.961   3.455   5.765
 2121SOL    HW2 7263   1.052   3.581   5.816
 2122SOL     OW 7264   5.821   4.334   5.992
 2122SOL    HW1 7265   5.784   4.373   5.908
 2122SOL    HW2 7266   5.871   4.404   6.042
 2123SOL     OW 7267   6.424   5.858   2.046
 2123SOL    HW1 7268   6.441   5.763   2.071
 2123SOL    HW2 7269   6.359   5.898   2.110
 2124SOL     OW 7270   2.807   1.417   1.842
 2124SOL    HW1 7271   2.875   1.460   1.901
 2124SOL    HW2 7272   2.780   1.481   1.770
 2125SOL     OW 7273   1.959   0.682   1.880
 2125SOL    HW1 7274   1.876   0.681   1.825
 2125SOL    HW2 7275   2.037   0.657   1.823
 2126SOL     OW 7276   3.744   1.038   6.636
 2126SOL    HW1 7277   3.832   0.997   6.612
 2126SOL    HW2 7278   3.758   1.112   6.701
 2127SOL     OW 7279   6.914   3.219   4.245
 2127SOL    HW1 7280   6.942   3.280   4.320
 2127SOL    HW2 7281   6.865   3.141   4.283
 2128SOL     OW 7282   6.993   3.179   3.366
 2128SOL    HW1 7283   6.982   3.274   3.396
 2128SOL    HW2 7284   6.950   3.118   3.433
 2129SOL     OW 7285   4.142   3.891   5.555
 2129SOL    HW1 7286   4.105   3.800   5.575
 2129SOL    HW2 7287   4.155   3.941   5.640
 2130SOL     OW 7288   3.624   0.920   1.799
 2130SOL    HW1 7289   3.543   0.924   1.857
 2130SOL    HW2 7290   3.698   0.973   1.841
 2131SOL     OW 7291   6.377   0.390   0.138
 2131SOL    HW1 7292   6.363   0.318   0.205
 2131SOL    HW2 7293   6.417   0.470   0.182
 2132SOL     OW 7294   3.536   1.526   1.814
 2132SOL    HW1 7295   3.470   1.503   1.884
 2132SOL    HW2 7296   3.578   1.443   1.777
 2133SOL     OW 7297   3.300   3.311   0.225
 2133SOL    HW1 7298   3.304   3.397   0.174
 2133SOL    HW2 7299   3.290   3.235   0.162
 2134SOL     OW 7300   0.113   2.195   6.780
 2134SOL    HW1 7301   0.062   2.121   6.824
 2134SOL    HW2 7302   0.055   2.276   6.772
 2135SOL     OW 7303   0.464   3.590   4.421
 2135SOL    HW1 7304   0.369   3.604   4.452
 2135SOL    HW2 7305   0.463   3.546   4.332
 2136SOL     OW 7306   1.494   4.127   2.566
 2136SOL    HW1 7307   1.566   4.137   2.498
 2136SOL    HW2 7308   1.492   4.032   2.597
 2137SOL     OW 7309   2.367   5.858   5.404
 2137SOL    HW1 7310   2.435   5.790   5.376
 2137SOL    HW2 7311   2.302   5.873   5.330
 2138SOL     OW 7312   6.770   6.702   2.945
 2138SOL    HW1 7313   6.681   6.680   2.906
 2138SOL    HW2 7314   6.801   6.790   2.910
 2139SOL     OW 7315   4.637   1.002   3.490
 2139SOL    HW1 7316   4.659   0.990   3.586
 2139SOL    HW2 7317   4.721   1.013   3.437
 2140SOL     OW 7318   3.495   0.053   3.840
 2140SOL    HW1 7319   3.413   7.026   3.833
 2140SOL    HW2 7320   3.543   0.032   3.926
 2141SOL     OW 7321   6.658   3.044   1.805
 2141SOL    HW1 7322   6.750   3.046   1.764
 2141SOL    HW2 7323   6.638   2.952   1.837
 2142SOL     OW 7324   1.819   1.498   2.995
 2142SOL    HW1 7325   1.867   1.424   3.042
 2142SOL    HW2 7326   1.854   1.586   3.028
 2143SOL     OW 7327   3.172   4.387   1.420
 2143SOL    HW1 7328   3.222   4.471   1.398
 2143SOL    HW2 7329   3.074   4.400   1.404
 2144SOL     OW 7330   0.960   5.445   4.333
 2144SOL    HW1 7331   0.940   5.411   4.425
 2144SOL    HW2 7332   0.974   5.544   4.336
 2145SOL     OW 7333   3.920   6.610   4.535
 2145SOL    HW1 7334   3.949   6.703   4.555
 2145SOL    HW2 7335   3.994   6.547   4.560
 2146SOL     OW 7336   2.355   3.352   1.052
 2146SOL    HW1 7337   2.351   3.449   1.027
 2146SOL    HW2 7338   2.347   3.297   0.969
 2147SOL     OW 7339   6.445   1.555   5.774
 2147SOL    HW1 7340   6.392   1.529   5.693
 2147SOL    HW2 7341   6.382   1.577   5.849
 2148SOL     OW 7342   6.223   3.246   6.011
 2148SOL    HW1 7343   6.143   3.188   5.994
 2148SOL    HW2 7344   6.234   3.312   5.937
 2149SOL     OW 7345   3.257   1.797   1.161
 2149SOL    HW1 7346   3.351   1.783   1.192
 2149SOL    HW2 7347   3.240   1.743   1.079
 2150SOL     OW 7348   2.432   2.566   2.130
 2150SOL    HW1 7349   2.353   2.512   2.101
 2150SOL    HW2 7350   2.516   2.525   2.094
 2151SOL     OW 7351   1.753   7.029   5.880
 2151SOL    HW1 7352   1.771   0.036   5.971
 2151SOL    HW2 7353   1.838   7.026   5.827
 2152SOL     OW 7354   3.260   5.140   1.970
 2152SOL    HW1 7355   3.338   5.195   2.001
 2152SOL    HW2 7356   3.217   5.096   2.049
 2153SOL     OW 7357   4.815   1.975   2.979
 2153SOL    HW1 7358   4.859   2.050   2.930
 2153SOL    HW2 7359   4.870   1.950   3.059
 2154SOL     OW 7360   5.231   1.154   5.053
 2154SOL    HW1 7361   5.211   1.161   5.151
 2154SOL    HW2 7362   5.244   1.245   5.015
 2155SOL     OW 7363   3.688   6.510   0.967
 2155SOL    HW1 7364   3.743   6.561   1.034
 2155SOL    HW2 7365   3.608   6.564   0.942
 2156SOL     OW 7366   1.180   2.121   5.051
 2156SOL    HW1 7367   1.120   2.139   5.128
 2156SOL    HW2 7368   1.212   2.208   5.012
 2157SOL     OW 7369   5.887   0.175   3.048
 2157SOL    HW1 7370   5.903   0.076   3.049
 2157SOL    HW2 7371   5.973   0.222   3.032
 2158SOL     OW 7372   3.482   5.634   0.732
 2158SOL    HW1 7373   3.446   5.613   0.642
 2158SOL    HW2 7374   3.548   5.563   0.759
 2159SOL     OW 7375   1.573   0.001   4.908
 2159SOL    HW1 7376   1.593   0.078   4.969
 2159SOL    HW2 7377   1.651   6.969   4.905
 2160SOL     OW 7378   4.722   4.171   6.793
 2160SOL    HW1 7379   4.672   4.211   6.870
 2160SOL    HW2 7380   4.782   4.240   6.753
 2161SOL     OW 7381   5.694   4.919   2.542
 2161SOL    HW1 7382   5.721   4.858   2.617
 2161SOL    HW2 7383   5.624   4.875   2.487
 2162SOL     OW 7384   3.810   0.034   2.254
 2162SOL    HW1 7385   3.751   0.104   2.213
 2162SOL    HW2 7386   3.884   0.012   2.191
 2163SOL     OW 7387   1.582   4.424   6.886
 2163SOL    HW1 7388   1.640   4.445   6.807
 2163SOL    HW2 7389   1.639   4.386   6.960
 2164SOL     OW 7390   1.998   2.663   6.229
 2164SOL    HW1 7391   2.097   2.676   6.238
 2164SOL    HW2 7392   1.956   2.749   6.201
 2165SOL     OW 7393   0.046   2.506   3.202
 2165SOL    HW1 7394   0.091   2.441   3.263
 2165SOL    HW2 7395   0.071   2.486   3.108
 2166SOL     OW 7396   1.436   2.630   4.858
 2166SOL    HW1 7397   1.492   2.566   4.910
 2166SOL    HW2 7398   1.434   2.718   4.905
 2167SOL     OW 7399   1.325   2.606   3.128
 2167SOL    HW1 7400   1.320   2.516   3.086
 2167SOL    HW2 7401   1.402   2.657   3.089
 2168SOL     OW 7402   0.658   2.327   3.513
 2168SOL    HW1 7403   0.645   2.424   3.495
 2168SOL    HW2 7404   0.751   2.301   3.488
 2169SOL     OW 7405   5.806   2.046   7.004
 2169SOL    HW1 7406   5.874   2.094   6.948
 2169SOL    HW2 7407   5.814   2.076   0.069
 2170SOL     OW 7408   6.570   4.023   5.077
 2170SOL    HW1 7409   6.615   3.964   5.143
 2170SOL    HW2 7410   6.621   4.022   4.991
 2171SOL     OW 7411   0.110   5.251   1.061
 2171SOL    HW1 7412   0.041   5.292   1.120
 2171SOL    HW2 7413   0.193   5.306   1.064
 2172SOL     OW 7414   1.953   1.851   6.377
 2172SOL    HW1 7415   2.036   1.895   6.411
 2172SOL    HW2 7416   1.886   1.845   6.452
 2173SOL     OW 7417   4.068   0.645   5.126
 2173SOL    HW1 7418   4.054   0.549   5.149
 2173SOL    HW2 7419   4.150   0.655   5.070
 2174SOL     OW 7420   6.374   5.962   4.925
 2174SOL    HW1 7421   6.331   5.979   5.014
 2174SOL    HW2 7422   6.346   6.032   4.860
 2175SOL     OW 7423   1.954   2.385   4.791
 2175SOL    HW1 7424   1.976   2.445   4.868
 2175SOL    HW2 7425   1.955   2.289   4.822
 2176SOL     OW 7426   5.695   1.883   0.411
 2176SOL    HW1 7427   5.678   1.802   0.354
 2176SOL    HW2 7428   5.614   1.942   0.408
 2177SOL     OW 7429   6.869   1.997   3.597
 2177SOL    HW1 7430   6.913   1.946   3.670
 2177SOL    HW2 7431   6.933   2.009   3.521
 2178SOL     OW 7432   2.384   1.900   1.831
 2178SOL    HW1 7433   2.294   1.943   1.838
 2178SOL    HW2 7434   2.455   1.971   1.823
 2179SOL     OW 7435   2.152   5.022   5.411
 2179SOL    HW1 7436   2.248   4.997   5.414
 2179SOL    HW2 7437   2.132   5.091   5.480
 2180SOL     OW 7438   2.369   2.179   2.064
 2180SOL    HW1 7439   2.416   2.096   2.095
 2180SOL    HW2 7440   2.324   2.222   2.142
 2181SOL     OW 7441   4.876   4.955   4.792
 2181SOL    HW1 7442   4.839   4.929   4.880
 2181SOL    HW2 7443   4.832   4.902   4.719
 2182SOL     OW 7444   1.702   4.241   3.428
 2182SOL    HW1 7445   1.751   4.259   3.342
 2182SOL    HW2 7446   1.646   4.160   3.417
 2183SOL     OW 7447   2.067   4.772   6.226
 2183SOL    HW1 7448   2.150   4.791   6.172
 2183SOL    HW2 7449   1.989   4.816   6.182
 2184SOL     OW 7450   4.268   1.041   6.301
 2184SOL    HW1 7451   4.245   1.028   6.205
 2184SOL    HW2 7452   4.249   0.957   6.352
 2185SOL     OW 7453   0.654   0.549   1.007
 2185SOL    HW1 7454   0.673   0.600   0.923
 2185SOL    HW2 7455   0.596   0.470   0.985
 2186SOL     OW 7456   7.012   5.731   0.913
 2186SOL    HW1 7457   6.973   5.759   1.001
 2186SOL    HW2 7458   6.949   5.670   0.867
 2187SOL     OW 7459   6.372   6.017   2.984
 2187SOL    HW1 7460   6.427   5.934   2.987
 2187SOL    HW2 7461   6.383   6.062   2.895
 2188SOL     OW 7462   6.919   5.630   4.592
 2188SOL    HW1 7463   6.842   5.660   4.535
 2188SOL    HW2 7464   6.991   5.699   4.590
 2189SOL     OW 7465   2.118   6.758   0.814
 2189SOL    HW1 7466   2.138   6.855   0.830
 2189SOL    HW2 7467   2.200   6.704   0.832
 2190SOL     OW 7468   0.771   3.066   1.894
 2190SOL    HW1 7469   0.689   3.105   1.936
 2190SOL    HW2 7470   0.744   3.000   1.824
 2191SOL     OW 7471   2.605   1.458   6.184
 2191SOL    HW1 7472   2.529   1.418   6.133
 2191SOL    HW2 7473   2.609   1.419   6.276
 2192SOL     OW 7474   5.166   1.100   2.704
 2192SOL    HW1 7475   5.261   1.073   2.693
 2192SOL    HW2 7476   5.112   1.068   2.626
 2193SOL     OW 7477   5.476   6.201   0.010
 2193SOL    HW1 7478   5.539   6.136   0.053
 2193SOL    HW2 7479   5.398   6.151   7.001
 2194SOL     OW 7480   2.202   4.763   6.004
 2194SOL    HW1 7481   2.230   4.859   5.998
 2194SOL    HW2 7482   2.162   4.735   5.917
 2195SOL     OW 7483   0.289   0.162   5.050
 2195SOL    HW1 7484   0.367   0.220   5.027
 2195SOL    HW2 7485   0.205   0.216   5.042
 2196SOL     OW 7486   3.766   0.566   4.904
 2196SOL    HW1 7487   3.690   0.560   4.969
 2196SOL    HW2 7488   3.763   0.654   4.857
 2197SOL     OW 7489   2.526   3.513   0.210
 2197SOL    HW1 7490   2.619   3.550   0.218
 2197SOL    HW2 7491   2.501   3.467   0.296
 2198SOL     OW 7492   5.377   0.243   0.735
 2198SOL    HW1 7493   5.390   0.331   0.691
 2198SOL    HW2 7494   5.466   0.199   0.749
 2199SOL     OW 7495   4.929   0.158   3.348
 2199SOL    HW1 7496   4.838   0.163   3.389
 2199SOL    HW2 7497   4.997   0.195   3.412
 2200SOL     OW 7498   2.213   2.023   4.459
 2200SOL    HW1 7499   2.176   2.077   4.535
 2200SOL    HW2 7500   2.182   1.928   4.468
 2201SOL     OW 7501   6.710   2.730   3.288
 2201SOL    HW1 7502   6.809   2.736   3.302
 2201SOL    HW2 7503   6.666   2.810   3.328
 2202SOL     OW 7504   3.045   5.660   2.431
 2202SOL    HW1 7505   3.055   5.637   2.335
 2202SOL    HW2 7506   3.111   5.732   2.455
 2203SOL     OW 7507   1.915   2.988   0.738
 2203SOL    HW1 7508   2.012   3.003   0.716
 2203SOL    HW2 7509   1.907   2.954   0.832
 2204SOL     OW 7510   4.565   1.686   1.212
 2204SOL    HW1 7511   4.646   1.720   1.260
 2204SOL    HW2 7512   4.483   1.719   1.259
 2205SOL     OW 7513   0.622   6.935   6.269
 2205SOL    HW1 7514   0.523   6.940   6.281
 2205SOL    HW2 7515   0.644   6.871   6.195
 2206SOL     OW 7516   3.887   5.186   6.346
 2206SOL    HW1 7517   3.819   5.116   6.367
 2206SOL    HW2 7518   3.952   5.150   6.279
 2207SOL     OW 7519   2.696   4.996   6.529
 2207SOL    HW1 7520   2.786   5.038   6.544
 2207SOL    HW2 7521   2.649   4.986   6.617
 2208SOL     OW 7522   1.316   5.563   2.979
 2208SOL    HW1 7523   1.243   5.497   2.991
 2208SOL    HW2 7524   1.331   5.613   3.065
 2209SOL     OW 7525   1.341   6.777   5.662
 2209SOL    HW1 7526   1.436   6.745   5.662
 2209SOL    HW2 7527   1.286   6.718   5.721
 2210SOL     OW 7528   0.189   4.791   4.631
 2210SOL    HW1 7529   0.150   4.742   4.709
 2210SOL    HW2 7530   0.131   4.870   4.609
 2211SOL     OW 7531   6.496   0.197   0.750
 2211SOL    HW1 7532   6.527   0.285   0.785
 2211SOL    HW2 7533   6.571   0.130   0.757
 2212SOL     OW 7534   2.392   5.939   0.134
 2212SOL    HW1 7535   2.327   6.015   0.134
 2212SOL    HW2 7536   2.368   5.877   0.210
 2213SOL     OW 7537   3.032   1.803   5.261
 2213SOL    HW1 7538   3.129   1.779   5.265
 2213SOL    HW2 7539   2.978   1.720   5.245
 2214SOL     OW 7540   3.582   3.621   5.616
 2214SOL    HW1 7541   3.630   3.586   5.535
 2214SOL    HW2 7542   3.576   3.720   5.611
 2215SOL     OW 7543   6.100   1.168   0.035
 2215SOL    HW1 7544   6.192   1.167   7.026
 2215SOL    HW2 7545   6.103   1.131   0.128
 2216SOL     OW 7546   1.806   1.001   6.458
 2216SOL    HW1 7547   1.896   0.968   6.488
 2216SOL    HW2 7548   1.798   1.099   6.478
 2217SOL     OW 7549   4.198   6.965   2.212
 2217SOL    HW1 7550   4.178   6.922   2.301
 2217SOL    HW2 7551   4.169   0.031   2.214
 2218SOL     OW 7552   6.812   5.692   6.584
 2218SOL    HW1 7553   6.787   5.597   6.602
 2218SOL    HW2 7554   6.751   5.731   6.515
 2219SOL     OW 7555   5.312   1.531   0.997
 2219SOL    HW1 7556   5.374   1.584   1.055
 2219SOL    HW2 7557   5.229   1.585   0.979
 2220SOL     OW 7558   1.970   6.689   5.194
 2220SOL    HW1 7559   1.968   6.741   5.109
 2220SOL    HW2 7560   2.031   6.735   5.260
 2221SOL     OW 7561   6.219   1.535   5.549
 2221SOL    HW1 7562   6.205   1.620   5.499
 2221SOL    HW2 7563   6.278   1.474   5.497
 2222SOL     OW 7564   5.459   1.068   0.008
 2222SOL    HW1 7565   5.373   1.039   0.051
 2222SOL    HW2 7566   5.447   1.158   6.997
 2223SOL     OW 7567   5.946   1.315   4.972
 2223SOL    HW1 7568   6.016   1.351   4.911
 2223SOL    HW2 7569   5.855   1.338   4.936
 2224SOL     OW 7570   0.412   3.165   1.137
 2224SOL    HW1 7571   0.361   3.180   1.222
 2224SOL    HW2 7572   0.363   3.100   1.079
 2225SOL     OW 7573   6.845   6.912   3.647
 2225SOL    HW1 7574   6.893   6.890   3.732
 2225SOL    HW2 7575   6.791   6.833   3.618
 2226SOL     OW 7576   3.295   5.296   1.222
 2226SOL    HW1 7577   3.377   5.343   1.254
 2226SOL    HW2 7578   3.229   5.290   1.297
 2227SOL     OW 7579   5.325   3.345   6.843
 2227SOL    HW1 7580   5.226   3.327   6.849
 2227SOL    HW2 7581   5.350   3.362   6.747
 2228SOL     OW 7582   3.912   4.796   0.976
 2228SOL    HW1 7583   3.835   4.841   1.021
 2228SOL    HW2 7584   3.973   4.757   1.045
 2229SOL     OW 7585   4.487   2.720   5.374
 2229SOL    HW1 7586   4.527   2.690   5.460
 2229SOL    HW2 7587   4.559   2.730   5.305
 2230SOL     OW 7588   5.691   6.653   0.350
 2230SOL    HW1 7589   5.734   6.647   0.260
 2230SOL    HW2 7590   5.596   6.623   0.345
 2231SOL     OW 7591   0.788   0.568   1.557
 2231SOL    HW1 7592   0.870   0.517   1.580
 2231SOL    HW2 7593   0.752   0.534   1.470
 2232SOL     OW 7594   1.068   2.616   4.830
 2232SOL    HW1 7595   1.103   2.708   4.849
 2232SOL    HW2 7596   0.970   2.613   4.850
 2233SOL     OW 7597   1.765   3.373   0.187
 2233SOL    HW1 7598   1.800   3.427   0.264
 2233SOL    HW2 7599   1.724   3.289   0.223
 2234SOL     OW 7600   4.287   1.460   1.575
 2234SOL    HW1 7601   4.207   1.517   1.594
 2234SOL    HW2 7602   4.257   1.366   1.559
 2235SOL     OW 7603   2.806   6.909   1.548
 2235SOL    HW1 7604   2.852   6.840   1.604
 2235SOL    HW2 7605   2.766   6.866   1.467
 2236SOL     OW 7606   2.001   4.331   6.590
 2236SOL    HW1 7607   2.076   4.281   6.548
 2236SOL    HW2 7608   1.919   4.273   6.593
 2237SOL     OW 7609   5.765   4.876   4.424
 2237SOL    HW1 7610   5.764   4.801   4.490
 2237SOL    HW2 7611   5.743   4.962   4.470
 2238SOL     OW 7612   4.874   4.566   1.882
 2238SOL    HW1 7613   4.847   4.553   1.786
 2238SOL    HW2 7614   4.902   4.478   1.920
 2239SOL     OW 7615   3.613   5.076   3.912
 2239SOL    HW1 7616   3.642   5.024   3.993
 2239SOL    HW2 7617   3.607   5.015   3.833
 2240SOL     OW 7618   4.008   5.848   3.312
 2240SOL    HW1 7619   3.992   5.876   3.217
 2240SOL    HW2 7620   4.106   5.839   3.328
 2241SOL     OW 7621   0.449   5.559   3.349
 2241SOL    HW1 7622   0.359   5.586   3.385
 2241SOL    HW2 7623   0.500   5.641   3.323
 2242SOL     OW 7624   5.577   3.217   2.796
 2242SOL    HW1 7625   5.541   3.306   2.823
 2242SOL    HW2 7626   5.501   3.154   2.779
 2243SOL     OW 7627   1.512   6.663   6.275
 2243SOL    HW1 7628   1.541   6.704   6.361
 2243SOL    HW2 7629   1.545   6.569   6.269
 2244SOL     OW 7630   1.573   6.137   1.772
 2244SOL    HW1 7631   1.486   6.181   1.749
 2244SOL    HW2 7632   1.568   6.101   1.865
 2245SOL     OW 7633   0.735   2.259   0.856
 2245SOL    HW1 7634   0.739   2.195   0.779
 2245SOL    HW2 7635   0.799   2.230   0.927
 2246SOL     OW 7636   1.319   1.099   4.676
 2246SOL    HW1 7637   1.337   1.191   4.711
 2246SOL    HW2 7638   1.268   1.105   4.590
 2247SOL     OW 7639   3.564   2.891   3.725
 2247SOL    HW1 7640   3.652   2.937   3.736
 2247SOL    HW2 7641   3.578   2.792   3.722
 2248SOL     OW 7642   6.193   3.919   5.732
 2248SOL    HW1 7643   6.107   3.939   5.685
 2248SOL    HW2 7644   6.260   3.888   5.666
 2249SOL     OW 7645   5.646   6.441   3.613
 2249SOL    HW1 7646   5.547   6.429   3.624
 2249SOL    HW2 7647   5.664   6.528   3.568
 2250SOL     OW 7648   4.321   3.523   5.749
 2250SOL    HW1 7649   4.312   3.609   5.798
 2250SOL    HW2 7650   4.313   3.540   5.650
 2251SOL     OW 7651   5.169   0.105   6.222
 2251SOL    HW1 7652   5.136   0.153   6.303
 2251SOL    HW2 7653   5.269   0.108   6.219
 2252SOL     OW 7654   4.684   2.394   2.345
 2252SOL    HW1 7655   4.690   2.295   2.334
 2252SOL    HW2 7656   4.776   2.432   2.354
 2253SOL     OW 7657   0.255   4.180   6.887
 2253SOL    HW1 7658   0.293   4.091   6.915
 2253SOL    HW2 7659   0.198   4.168   6.806
 2254SOL     OW 7660   3.618   2.827   5.323
 2254SOL    HW1 7661   3.557   2.892   5.368
 2254SOL    HW2 7662   3.582   2.734   5.335
 2255SOL     OW 7663   4.670   3.189   6.040
 2255SOL    HW1 7664   4.729   3.146   6.109
 2255SOL    HW2 7665   4.728   3.226   5.967
 2256SOL     OW 7666   4.770   6.089   2.300
 2256SOL    HW1 7667   4.838   6.099   2.228
 2256SOL    HW2 7668   4.679   6.103   2.262
 2257SOL     OW 7669   0.146   2.413   4.555
 2257SOL    HW1 7670   0.100   2.469   4.624
 2257SOL    HW2 7671   0.217   2.467   4.510
 2258SOL     OW 7672   1.400   5.519   4.807
 2258SOL    HW1 7673   1.483   5.560   4.768
 2258SOL    HW2 7674   1.425   5.449   4.873
 2259SOL     OW 7675   5.237   3.703   6.292
 2259SOL    HW1 7676   5.279   3.721   6.381
 2259SOL    HW2 7677   5.138   3.708   6.300
 2260SOL     OW 7678   6.723   4.274   2.018
 2260SOL    HW1 7679   6.803   4.241   1.970
 2260SOL    HW2 7680   6.729   4.249   2.115
 2261SOL     OW 7681   6.355   5.490   6.878
 2261SOL    HW1 7682   6.384   5.583   6.856
 2261SOL    HW2 7683   6.296   5.455   6.805
 2262SOL     OW 7684   5.917   0.940   3.294
 2262SOL    HW1 7685   5.967   0.955   3.380
 2262SOL    HW2 7686   5.877   1.026   3.263
 2263SOL     OW 7687   3.067   6.463   6.277
 2263SOL    HW1 7688   3.008   6.396   6.323
 2263SOL    HW2 7689   3.050   6.460   6.179
 2264SOL     OW 7690   2.534   4.424   0.712
 2264SOL    HW1 7691   2.515   4.414   0.810
 2264SOL    HW2 7692   2.528   4.335   0.667
 2265SOL     OW 7693   1.079   0.371   4.178
 2265SOL    HW1 7694   1.112   0.283   4.211
 2265SOL    HW2 7695   1.097   0.442   4.247
 2266SOL     OW 7696   5.151   1.885   0.227
 2266SOL    HW1 7697   5.242   1.923   0.208
 2266SOL    HW2 7698   5.082   1.956   0.214
 2267SOL     OW 7699   4.796   1.877   4.790
 2267SOL    HW1 7700   4.699   1.856   4.797
 2267SOL    HW2 7701   4.839   1.815   4.725
 2268SOL     OW 7702   6.011   3.781   0.010
 2268SOL    HW1 7703   6.098   3.754   0.050
 2268SOL    HW2 7704   6.021   3.788   6.940
 2269SOL     OW 7705   6.410   4.995   5.503
 2269SOL    HW1 7706   6.420   5.001   5.403
 2269SOL    HW2 7707   6.494   5.026   5.546
 2270SOL     OW 7708   3.302   2.621   6.340
 2270SOL    HW1 7709   3.371   2.572   6.287
 2270SOL    HW2 7710   3.223   2.640   6.282
 2271SOL     OW 7711   4.885   3.578   0.613
 2271SOL    HW1 7712   4.937   3.646   0.562
 2271SOL    HW2 7713   4.947   3.518   0.663
 2272SOL     OW 7714   6.074   2.857   6.673
 2272SOL    HW1 7715   6.078   2.957   6.678
 2272SOL    HW2 7716   6.088   2.828   6.578
 2273SOL     OW 7717   1.768   1.385   2.443
 2273SOL    HW1 7718   1.789   1.442   2.523
 2273SOL    HW2 7719   1.854   1.353   2.402
 2274SOL     OW 7720   6.962   2.440   6.828
 2274SOL    HW1 7721   6.915   2.425   6.741
 2274SOL    HW2 7722   6.941   2.532   6.861
 2275SOL     OW 7723   6.474   6.785   4.054
 2275SOL    HW1 7724   6.409   6.728   4.104
 2275SOL    HW2 7725   6.502   6.862   4.111
 2276SOL     OW 7726   2.227   5.435   0.992
 2276SOL    HW1 7727   2.223   5.523   0.944
 2276SOL    HW2 7728   2.320   5.419   1.024
 2277SOL     OW 7729   3.516   3.827   4.399
 2277SOL    HW1 7730   3.481   3.751   4.453
 2277SOL    HW2 7731   3.449   3.901   4.396
 2278SOL     OW 7732   6.341   4.639   4.544
 2278SOL    HW1 7733   6.248   4.670   4.560
 2278SOL    HW2 7734   6.350   4.607   4.450
 2279SOL     OW 7735   5.504   6.941   5.450
 2279SOL    HW1 7736   5.586   6.890   5.425
 2279SOL    HW2 7737   5.465   6.983   5.368
 2280SOL     OW 7738   6.391   6.848   4.763
 2280SOL    HW1 7739   6.394   6.755   4.798
 2280SOL    HW2 7740   6.484   6.877   4.736
 2281SOL     OW 7741   3.376   1.191   2.319
 2281SOL    HW1 7742   3.394   1.236   2.407
 2281SOL    HW2 7743   3.432   1.232   2.248
 2282SOL     OW 7744   5.642   0.707   4.670
 2282SOL    HW1 7745   5.689   0.623   4.698
 2282SOL    HW2 7746   5.603   0.695   4.578
 2283SOL     OW 7747   0.420   4.918   0.995
 2283SOL    HW1 7748   0.495   4.910   0.930
 2283SOL    HW2 7749   0.409   4.832   1.044
 2284SOL     OW 7750   0.878   2.751   6.550
 2284SOL    HW1 7751   0.958   2.790   6.594
 2284SOL    HW2 7752   0.845   2.673   6.604
 2285SOL     OW 7753   2.209   2.316   1.040
 2285SOL    HW1 7754   2.167   2.243   1.093
 2285SOL    HW2 7755   2.266   2.373   1.099
 2286SOL     OW 7756   0.031   0.042   3.860
 2286SOL    HW1 7757   7.021   6.991   3.904
 2286SOL    HW2 7758   0.047   0.113   3.929
 2287SOL     OW 7759   1.887   0.660   2.977
 2287SOL    HW1 7760   1.982   0.637   2.960
 2287SOL    HW2 7761   1.828   0.601   2.922
 2288SOL     OW 7762   6.031   5.017   4.603
 2288SOL    HW1 7763   5.997   5.063   4.685
 2288SOL    HW2 7764   5.958   5.012   4.535
 2289SOL     OW 7765   0.577   4.752   2.170
 2289SOL    HW1 7766   0.489   4.792   2.145
 2289SOL    HW2 7767   0.624   4.720   2.088
 2290SOL     OW 7768   0.664   3.900   0.771
 2290SOL    HW1 7769   0.749   3.927   0.724
 2290SOL    HW2 7770   0.613   3.983   0.795
 2291SOL     OW 7771   2.700   2.781   5.653
 2291SOL    HW1 7772   2.610   2.761   5.613
 2291SOL    HW2 7773   2.754   2.834   5.587
 2292SOL     OW 7774   6.850   2.058   5.236
 2292SOL    HW1 7775   6.831   2.034   5.331
 2292SOL    HW2 7776   6.787   2.010   5.176
 2293SOL     OW 7777   4.445   6.448   1.228
 2293SOL    HW1 7778   4.357   6.407   1.204
 2293SOL    HW2 7779   4.441   6.546   1.212
 2294SOL     OW 7780   3.054   0.800   0.062
 2294SOL    HW1 7781   3.058   0.867   0.136
 2294SOL    HW2 7782   2.964   0.803   0.018
 2295SOL     OW 7783   0.728   1.913   2.678
 2295SOL    HW1 7784   0.733   1.813   2.674
 2295SOL    HW2 7785   0.820   1.950   2.692
 2296SOL     OW 7786   4.347   5.176   1.108
 2296SOL    HW1 7787   4.278   5.104   1.099
 2296SOL    HW2 7788   4.356   5.224   1.020
 2297SOL     OW 7789   4.358   4.544   5.641
 2297SOL    HW1 7790   4.269   4.586   5.624
 2297SOL    HW2 7791   4.428   4.615   5.646
 2298SOL     OW 7792   3.897   2.865   1.566
 2298SOL    HW1 7793   3.984   2.852   1.613
 2298SOL    HW2 7794   3.912   2.919   1.483
 2299SOL     OW 7795   3.965   5.852   5.077
 2299SOL    HW1 7796   3.897   5.923   5.095
 2299SOL    HW2 7797   3.933   5.764   5.113
 2300SOL     OW 7798   2.358   5.652   1.830
 2300SOL    HW1 7799   2.292   5.599   1.882
 2300SOL    HW2 7800   2.374   5.608   1.741
 2301SOL     OW 7801   3.331   2.913   3.166
 2301SOL    HW1 7802   3.304   2.940   3.259
 2301SOL    HW2 7803   3.279   2.968   3.100
 2302SOL     OW 7804   3.949   0.356   0.921
 2302SOL    HW1 7805   3.854   0.381   0.904
 2302SOL    HW2 7806   4.008   0.394   0.849
 2303SOL     OW 7807   2.620   3.259   6.120
 2303SOL    HW1 7808   2.548   3.298   6.063
 2303SOL    HW2 7809   2.587   3.175   6.164
 2304SOL     OW 7810   4.667   6.895   3.910
 2304SOL    HW1 7811   4.677   6.945   3.996
 2304SOL    HW2 7812   4.751   6.844   3.891
 2305SOL     OW 7813   2.379   6.389   2.648
 2305SOL    HW1 7814   2.325   6.418   2.727
 2305SOL    HW2 7815   2.446   6.460   2.625
 2306SOL     OW 7816   3.008   4.839   2.320
 2306SOL    HW1 7817   3.022   4.864   2.416
 2306SOL    HW2 7818   3.095   4.847   2.271
 2307SOL     OW 7819   6.375   3.642   2.520
 2307SOL    HW1 7820   6.454   3.655   2.459
 2307SOL    HW2 7821   6.298   3.697   2.488
 2308SOL     OW 7822   0.593   5.467   1.026
 2308SOL    HW1 7823   0.670   5.404   1.033
 2308SOL    HW2 7824   0.627   5.561   1.033
 2309SOL     OW 7825   1.539   0.894   6.519
 2309SOL    HW1 7826   1.546   0.796   6.498
 2309SOL    HW2 7827   1.624   0.939   6.494
 2310SOL     OW 7828   5.085   6.345   0.867
 2310SOL    HW1 7829   5.064   6.364   0.771
 2310SOL    HW2 7830   5.061   6.425   0.923
 2311SOL     OW 7831   2.116   6.398   1.745
 2311SOL    HW1 7832   2.206   6.363   1.719
 2311SOL    HW2 7833   2.071   6.332   1.805
 2312SOL     OW 7834   3.731   6.763   3.717
 2312SOL    HW1 7835   3.733   6.724   3.625
 2312SOL    HW2 7836   3.694   6.696   3.781
 2313SOL     OW 7837   5.611   5.659   1.673
 2313SOL    HW1 7838   5.595   5.756   1.656
 2313SOL    HW2 7839   5.590   5.638   1.768
 2314SOL     OW 7840   5.775   6.849   4.394
 2314SOL    HW1 7841   5.713   6.863   4.317
 2314SOL    HW2 7842   5.855   6.909   4.382
 2315SOL     OW 7843   5.079   3.239   5.348
 2315SOL    HW1 7844   5.099   3.310   5.281
 2315SOL    HW2 7845   5.164   3.196   5.378
 2316SOL     OW 7846   3.380   0.769   4.500
 2316SOL    HW1 7847   3.383   0.687   4.443
 2316SOL    HW2 7848   3.365   0.850   4.442
 2317SOL     OW 7849   0.354   5.927   3.755
 2317SOL    HW1 7850   0.305   5.842   3.777
 2317SOL    HW2 7851   0.380   5.926   3.659
 2318SOL     OW 7852   2.144   2.663   4.680
 2318SOL    HW1 7853   2.152   2.755   4.718
 2318SOL    HW2 7854   2.144   2.596   4.754
 2319SOL     OW 7855   1.855   5.122   4.345
 2319SOL    HW1 7856   1.832   5.081   4.434
 2319SOL    HW2 7857   1.953   5.111   4.328
 2320SOL     OW 7858   0.728   2.736   5.134
 2320SOL    HW1 7859   0.697   2.802   5.066
 2320SOL    HW2 7860   0.781   2.783   5.204
 2321SOL     OW 7861   2.372   6.276   6.750
 2321SOL    HW1 7862   2.304   6.349   6.759
 2321SOL    HW2 7863   2.463   6.317   6.739
 2322SOL     OW 7864   2.120   2.620   3.893
 2322SOL    HW1 7865   2.179   2.578   3.825
 2322SOL    HW2 7866   2.132   2.573   3.981
 2323SOL     OW 7867   3.237   4.887   2.150
 2323SOL    HW1 7868   3.330   4.871   2.184
 2323SOL    HW2 7869   3.212   4.815   2.085
 2324SOL     OW 7870   6.401   6.654   0.912
 2324SOL    HW1 7871   6.397   6.716   0.990
 2324SOL    HW2 7872   6.392   6.560   0.944
 2325SOL     OW 7873   0.559   4.866   1.445
 2325SOL    HW1 7874   0.634   4.930   1.428
 2325SOL    HW2 7875   0.474   4.916   1.460
 2326SOL     OW 7876   4.111   5.417   6.070
 2326SOL    HW1 7877   4.205   5.396   6.098
 2326SOL    HW2 7878   4.098   5.389   5.975
 2327SOL     OW 7879   6.745   2.211   3.717
 2327SOL    HW1 7880   6.766   2.127   3.665
 2327SOL    HW2 7881   6.651   2.239   3.696
 2328SOL     OW 7882   2.950   1.667   2.748
 2328SOL    HW1 7883   2.970   1.713   2.662
 2328SOL    HW2 7884   2.957   1.732   2.823
 2329SOL     OW 7885   1.981   4.052   4.843
 2329SOL    HW1 7886   2.040   3.976   4.871
 2329SOL    HW2 7887   1.993   4.071   4.746
 2330SOL     OW 7888   0.653   4.169   1.334
 2330SOL    HW1 7889   0.680   4.073   1.329
 2330SOL    HW2 7890   0.640   4.205   1.242
 2331SOL     OW 7891   4.577   5.366   0.133
 2331SOL    HW1 7892   4.658   5.391   0.080
 2331SOL    HW2 7893   4.516   5.311   0.076
 2332SOL     OW 7894   4.978   1.929   4.983
 2332SOL    HW1 7895   4.921   1.909   4.903
 2332SOL    HW2 7896   5.071   1.898   4.965
 2333SOL     OW 7897   0.429   4.767   3.037
 2333SOL    HW1 7898   0.415   4.866   3.031
 2333SOL    HW2 7899   0.413   4.736   3.131
 2334SOL     OW 7900   1.975   0.705   0.057
 2334SOL    HW1 7901   1.992   0.786   0.002
 2334SOL    HW2 7902   2.057   0.647   0.058
 2335SOL     OW 7903   6.487   0.746   2.844
 2335SOL    HW1 7904   6.491   0.658   2.890
 2335SOL    HW2 7905   6.431   0.739   2.761
 2336SOL     OW 7906   4.376   2.459   4.799
 2336SOL    HW1 7907   4.315   2.427   4.726
 2336SOL    HW2 7908   4.325   2.467   4.885
 2337SOL     OW 7909   4.750   1.281   2.395
 2337SOL    HW1 7910   4.701   1.356   2.440
 2337SOL    HW2 7911   4.840   1.270   2.438
 2338SOL     OW 7912   1.667   1.979   5.318
 2338SOL    HW1 7913   1.592   2.039   5.292
 2338SOL    HW2 7914   1.647   1.885   5.291
 2339SOL     OW 7915   3.872   3.981   4.913
 2339SOL    HW1 7916   3.838   4.001   4.821
 2339SOL    HW2 7917   3.835   4.048   4.977
 2340SOL     OW 7918   5.477   4.724   0.134
 2340SOL    HW1 7919   5.473   4.649   0.068
 2340SOL    HW2 7920   5.424   4.699   0.215
 2341SOL     OW 7921   4.410   4.892   1.473
 2341SOL    HW1 7922   4.472   4.852   1.540
 2341SOL    HW2 7923   4.374   4.979   1.507
 2342SOL     OW 7924   0.189   6.905   5.203
 2342SOL    HW1 7925   0.178   6.999   5.173
 2342SOL    HW2 7926   0.128   6.846   5.149
 2343SOL     OW 7927   2.538   5.905   2.480
 2343SOL    HW1 7928   2.493   5.818   2.458
 2343SOL    HW2 7929   2.637   5.895   2.470
 2344SOL     OW 7930   1.817   6.894   0.873
 2344SOL    HW1 7931   1.839   6.852   0.961
 2344SOL    HW2 7932   1.885   6.868   0.805
 2345SOL     OW 7933   3.229   5.097   4.635
 2345SOL    HW1 7934   3.317   5.123   4.674
 2345SOL    HW2 7935   3.187   5.177   4.590
 2346SOL     OW 7936   4.866   2.160   4.826
 2346SOL    HW1 7937   4.820   2.073   4.804
 2346SOL    HW2 7938   4.806   2.216   4.884
 2347SOL     OW 7939   2.550   3.315   1.584
 2347SOL    HW1 7940   2.553   3.388   1.652
 2347SOL    HW2 7941   2.484   3.246   1.614
 2348SOL     OW 7942   3.636   6.427   3.578
 2348SOL    HW1 7943   3.731   6.433   3.609
 2348SOL    HW2 7944   3.606   6.331   3.580
 2349SOL     OW 7945   1.147   4.773   6.077
 2349SOL    HW1 7946   1.074   4.836   6.103
 2349SOL    HW2 7947   1.212   4.764   6.153
 2350SOL     OW 7948   4.840   6.652   6.183
 2350SOL    HW1 7949   4.871   6.647   6.088
 2350SOL    HW2 7950   4.848   6.562   6.226
 2351SOL     OW 7951   3.346   4.924   3.158
 2351SOL    HW1 7952   3.292   4.878   3.229
 2351SOL    HW2 7953   3.299   4.916   3.070
 2352SOL     OW 7954   0.347   4.764   1.760
 2352SOL    HW1 7955   0.424   4.707   1.786
 2352SOL    HW2 7956   0.274   4.755   1.828
 2353SOL     OW 7957   3.238   4.524   5.423
 2353SOL    HW1 7958   3.179   4.445   5.402
 2353SOL    HW2 7959   3.199   4.606   5.382
 2354SOL     OW 7960   2.079   1.554   5.787
 2354SOL    HW1 7961   2.102   1.617   5.861
 2354SOL    HW2 7962   2.157   1.542   5.727
 2355SOL     OW 7963   1.669   6.165   0.239
 2355SOL    HW1 7964   1.744   6.099   0.231
 2355SOL    HW2 7965   1.692   6.234   0.307
 2356SOL     OW 7966   2.036   4.103   0.385
 2356SOL    HW1 7967   1.989   4.119   0.472
 2356SOL    HW2 7968   1.986   4.149   0.311
 2357SOL     OW 7969   4.400   6.072   4.111
 2357SOL    HW1 7970   4.350   6.117   4.186
 2357SOL    HW2 7971   4.356   6.095   4.024
 2358SOL     OW 7972   3.685   5.234   5.285
 2358SOL    HW1 7973   3.710   5.164   5.218
 2358SOL    HW2 7974   3.617   5.197   5.348
 2359SOL     OW 7975   0.466   0.623   6.239
 2359SOL    HW1 7976   0.367   0.637   6.244
 2359SOL    HW2 7977   0.491   0.591   6.148
 2360SOL     OW 7978   5.773   5.382   6.339
 2360SOL    HW1 7979   5.809   5.457   6.394
 2360SOL    HW2 7980   5.693   5.342   6.386
 2361SOL     OW 7981   2.273   0.847   5.258
 2361SOL    HW1 7982   2.327   0.809   5.183
 2361SOL    HW2 7983   2.333   0.878   5.331
 2362SOL     OW 7984   2.660   0.473   5.431
 2362SOL    HW1 7985   2.725   0.539   5.392
 2362SOL    HW2 7986   2.615   0.514   5.511
 2363SOL     OW 7987   4.337   2.450   5.443
 2363SOL    HW1 7988   4.326   2.350   5.445
 2363SOL    HW2 7989   4.277   2.491   5.512
 2364SOL     OW 7990   1.133   2.109   2.485
 2364SOL    HW1 7991   1.118   2.095   2.388
 2364SOL    HW2 7992   1.230   2.102   2.506
 2365SOL     OW 7993   5.906   2.556   6.962
 2365SOL    HW1 7994   5.817   2.515   6.946
 2365SOL    HW2 7995   5.954   2.569   6.875
 2366SOL     OW 7996   1.405   4.260   6.220
 2366SOL    HW1 7997   1.493   4.225   6.250
 2366SOL    HW2 7998   1.384   4.225   6.128
 2367SOL     OW 7999   3.444   3.920   0.436
 2367SOL    HW1 8000   3.480   3.907   0.344
 2367SOL    HW2 8001   3.358   3.970   0.431
 2368SOL     OW 8002   4.910   0.014   3.121
 2368SOL    HW1 8003   5.004   0.020   3.088
 2368SOL    HW2 8004   4.901   0.068   3.205
 2369SOL     OW 8005   1.545   2.619   5.310
 2369SOL    HW1 8006   1.573   2.533   5.353
 2369SOL    HW2 8007   1.589   2.627   5.221
 2370SOL     OW 8008   4.823   4.130   6.178
 2370SOL    HW1 8009   4.741   4.075   6.160
 2370SOL    HW2 8010   4.872   4.092   6.256
 2371SOL     OW 8011   0.263   6.521   2.039
 2371SOL    HW1 8012   0.242   6.445   2.101
 2371SOL    HW2 8013   0.178   6.569   2.017
 2372SOL     OW 8014   6.795   1.789   1.516
 2372SOL    HW1 8015   6.718   1.746   1.470
 2372SOL    HW2 8016   6.793   1.888   1.498
 2373SOL     OW 8017   0.306   0.280   0.002
 2373SOL    HW1 8018   0.379   0.212   0.010
 2373SOL    HW2 8019   0.343   0.371   0.019
 2374SOL     OW 8020   6.381   0.847   4.050
 2374SOL    HW1 8021   6.465   0.852   4.104
 2374SOL    HW2 8022   6.384   0.768   3.989
 2375SOL     OW 8023   1.947   6.906   3.676
 2375SOL    HW1 8024   2.016   6.871   3.739
 2375SOL    HW2 8025   1.956   6.859   3.588
 2376SOL     OW 8026   6.214   2.519   4.708
 2376SOL    HW1 8027   6.276   2.596   4.723
 2376SOL    HW2 8028   6.151   2.542   4.634
 2377SOL     OW 8029   3.347   4.115   3.088
 2377SOL    HW1 8030   3.331   4.017   3.074
 2377SOL    HW2 8031   3.325   4.139   3.182
 2378SOL     OW 8032   4.842   2.551   0.481
 2378SOL    HW1 8033   4.862   2.454   0.495
 2378SOL    HW2 8034   4.877   2.604   0.558
 2379SOL     OW 8035   5.970   2.263   6.496
 2379SOL    HW1 8036   5.975   2.259   6.596
 2379SOL    HW2 8037   6.040   2.204   6.457
 2380SOL     OW 8038   0.210   7.026   6.136
 2380SOL    HW1 8039   0.254   6.991   6.054
 2380SOL    HW2 8040   0.110   7.022   6.125
 2381SOL     OW 8041   2.127   3.870   4.315
 2381SOL    HW1 8042   2.077   3.914   4.390
 2381SOL    HW2 8043   2.123   3.771   4.326
 2382SOL     OW 8044   2.336   4.778   3.769
 2382SOL    HW1 8045   2.301   4.799   3.860
 2382SOL    HW2 8046   2.266   4.799   3.701
 2383SOL     OW 8047   5.896   6.516   0.509
 2383SOL    HW1 8048   5.846   6.442   0.554
 2383SOL    HW2 8049   5.831   6.580   0.468
 2384SOL     OW 8050   6.524   6.389   2.271
 2384SOL    HW1 8051   6.496   6.337   2.190
 2384SOL    HW2 8052   6.624   6.389   2.278
 2385SOL     OW 8053   6.351   6.422   1.082
 2385SOL    HW1 8054   6.443   6.410   1.121
 2385SOL    HW2 8055   6.287   6.443   1.156
 2386SOL     OW 8056   5.327   5.700   4.386
 2386SOL    HW1 8057   5.329   5.770   4.315
 2386SOL    HW2 8058   5.358   5.740   4.472
 2387SOL     OW 8059   1.038   1.735   3.798
 2387SOL    HW1 8060   1.015   1.810   3.861
 2387SOL    HW2 8061   1.136   1.737   3.778
 2388SOL     OW 8062   1.522   2.030   3.409
 2388SOL    HW1 8063   1.513   2.074   3.499
 2388SOL    HW2 8064   1.437   1.980   3.389
 2389SOL     OW 8065   5.326   3.260   3.584
 2389SOL    HW1 8066   5.375   3.275   3.670
 2389SOL    HW2 8067   5.279   3.172   3.588
 2390SOL     OW 8068   3.572   3.722   3.876
 2390SOL    HW1 8069   3.561   3.675   3.963
 2390SOL    HW2 8070   3.662   3.702   3.838
 2391SOL     OW 8071   4.873   4.997   5.644
 2391SOL    HW1 8072   4.949   4.958   5.592
 2391SOL    HW2 8073   4.841   5.080   5.599
 2392SOL     OW 8074   3.616   0.284   5.196
 2392SOL    HW1 8075   3.623   0.197   5.244
 2392SOL    HW2 8076   3.584   0.268   5.102
 2393SOL     OW 8077   4.384   5.336   6.127
 2393SOL    HW1 8078   4.471   5.374   6.095
 2393SOL    HW2 8079   4.396   5.239   6.149
 2394SOL     OW 8080   2.150   3.256   4.429
 2394SOL    HW1 8081   2.158   3.324   4.501
 2394SOL    HW2 8082   2.054   3.242   4.406
 2395SOL     OW 8083   6.150   2.374   6.836
 2395SOL    HW1 8084   6.114   2.467   6.846
 2395SOL    HW2 8085   6.204   2.351   6.917
 2396SOL     OW 8086   3.713   5.370   1.115
 2396SOL    HW1 8087   3.672   5.338   1.029
 2396SOL    HW2 8088   3.741   5.291   1.170
 2397SOL     OW 8089   7.027   4.260   0.188
 2397SOL    HW1 8090   7.025   4.209   0.274
 2397SOL    HW2 8091   7.007   4.198   0.113
 2398SOL     OW 8092   3.009   3.631   6.285
 2398SOL    HW1 8093   2.914   3.650   6.308
 2398SOL    HW2 8094   3.067   3.704   6.321
 2399SOL     OW 8095   5.018   1.285   2.909
 2399SOL    HW1 8096   4.956   1.356   2.943
 2399SOL    HW2 8097   4.970   1.226   2.844
 2400SOL     OW 8098   3.753   5.489   0.421
 2400SOL    HW1 8099   3.780   5.453   0.510
 2400SOL    HW2 8100   3.727   5.413   0.361
 2401SOL     OW 8101   4.371   6.906   6.023
 2401SOL    HW1 8102   4.394   6.914   6.120
 2401SOL    HW2 8103   4.455   6.897   5.970
 2402SOL     OW 8104   0.673   1.098   4.570
 2402SOL    HW1 8105   0.690   1.187   4.611
 2402SOL    HW2 8106   0.700   1.100   4.474
 2403SOL     OW 8107   2.611   2.639   0.073
 2403SOL    HW1 8108   2.539   2.693   0.029
 2403SOL    HW2 8109   2.635   2.681   0.160
 2404SOL     OW 8110   5.360   0.497   1.512
 2404SOL    HW1 8111   5.369   0.578   1.570
 2404SOL    HW2 8112   5.407   0.513   1.425
 2405SOL     OW 8113   3.648   3.567   3.154
 2405SOL    HW1 8114   3.671   3.557   3.251
 2405SOL    HW2 8115   3.723   3.531   3.098
 2406SOL     OW 8116   2.251   0.347   3.104
 2406SOL    HW1 8117   2.203   0.425   3.065
 2406SOL    HW2 8118   2.222   0.334   3.199
 2407SOL     OW 8119   5.495   2.529   2.986
 2407SOL    HW1 8120   5.540   2.507   3.072
 2407SOL    HW2 8121   5.545   2.486   2.910
 2408SOL     OW 8122   4.444   4.620   3.733
 2408SOL    HW1 8123   4.349   4.632   3.763
 2408SOL    HW2 8124   4.446   4.611   3.634
 2409SOL     OW 8125   1.736   2.840   1.326
 2409SOL    HW1 8126   1.639   2.823   1.307
 2409SOL    HW2 8127   1.760   2.932   1.295
 2410SOL     OW 8128   4.844   2.657   6.419
 2410SOL    HW1 8129   4.765   2.713   6.395
 2410SOL    HW2 8130   4.909   2.712   6.472
 2411SOL     OW 8131   4.422   5.724   5.742
 2411SOL    HW1 8132   4.396   5.767   5.829
 2411SOL    HW2 8133   4.347   5.667   5.710
 2412SOL     OW 8134   3.663   4.614   0.453
 2412SOL    HW1 8135   3.715   4.567   0.382
 2412SOL    HW2 8136   3.694   4.585   0.543
 2413SOL     OW 8137   6.450   1.953   0.502
 2413SOL    HW1 8138   6.407   1.900   0.429
 2413SOL    HW2 8139   6.523   1.899   0.544
 2414SOL     OW 8140   4.917   3.909   2.184
 2414SOL    HW1 8141   5.017   3.918   2.185
 2414SOL    HW2 8142   4.876   3.999   2.166
 2415SOL     OW 8143   0.834   6.788   2.162
 2415SOL    HW1 8144   0.865   6.868   2.110
 2415SOL    HW2 8145   0.737   6.774   2.147
 2416SOL     OW 8146   3.373   2.142   4.995
 2416SOL    HW1 8147   3.403   2.145   5.090
 2416SOL    HW2 8148   3.292   2.199   4.984
 2417SOL     OW 8149   4.224   3.282   5.843
 2417SOL    HW1 8150   4.280   3.357   5.807
 2417SOL    HW2 8151   4.281   3.200   5.853
 2418SOL     OW 8152   3.253   3.998   4.149
 2418SOL    HW1 8153   3.186   3.979   4.078
 2418SOL    HW2 8154   3.315   4.070   4.119
 2419SOL     OW 8155   0.796   6.284   3.855
 2419SOL    HW1 8156   0.855   6.284   3.936
 2419SOL    HW2 8157   0.714   6.230   3.873
 2420SOL     OW 8158   3.851   1.839   1.312
 2420SOL    HW1 8159   3.918   1.879   1.374
 2420SOL    HW2 8160   3.765   1.824   1.360
 2421SOL     OW 8161   2.641   1.320   5.445
 2421SOL    HW1 8162   2.703   1.306   5.523
 2421SOL    HW2 8163   2.656   1.412   5.407
 2422SOL     OW 8164   6.354   0.265   1.462
 2422SOL    HW1 8165   6.343   0.175   1.504
 2422SOL    HW2 8166   6.452   0.287   1.455
 2423SOL     OW 8167   1.476   6.429   3.834
 2423SOL    HW1 8168   1.481   6.520   3.794
 2423SOL    HW2 8169   1.381   6.410   3.860
 2424SOL     OW 8170   6.225   6.288   5.924
 2424SOL    HW1 8171   6.153   6.271   5.991
 2424SOL    HW2 8172   6.208   6.234   5.842
 2425SOL     OW 8173   6.527   0.382   4.125
 2425SOL    HW1 8174   6.495   0.453   4.188
 2425SOL    HW2 8175   6.467   0.303   4.131
 2426SOL     OW 8176   1.087   5.377   4.822
 2426SOL    HW1 8177   1.169   5.423   4.789
 2426SOL    HW2 8178   1.109   5.282   4.846
 2427SOL     OW 8179   5.467   5.330   6.611
 2427SOL    HW1 8180   5.441   5.294   6.700
 2427SOL    HW2 8181   5.388   5.331   6.550
 2428SOL     OW 8182   6.926   6.994   3.321
 2428SOL    HW1 8183   6.917   0.062   3.343
 2428SOL    HW2 8184   6.936   6.942   3.406
 2429SOL     OW 8185   6.525   5.665   4.542
 2429SOL    HW1 8186   6.505   5.568   4.553
 2429SOL    HW2 8187   6.468   5.718   4.605
 2430SOL     OW 8188   6.438   1.323   0.910
 2430SOL    HW1 8189   6.520   1.338   0.855
 2430SOL    HW2 8190   6.439   1.231   0.947
 2431SOL     OW 8191   4.103   0.211   2.158
 2431SOL    HW1 8192   4.145   0.268   2.087
 2431SOL    HW2 8193   4.041   0.267   2.213
 2432SOL     OW 8194   3.489   6.535   2.758
 2432SOL    HW1 8195   3.569   6.537   2.818
 2432SOL    HW2 8196   3.434   6.454   2.778
 2433SOL     OW 8197   3.126   6.762   1.121
 2433SOL    HW1 8198   3.168   6.685   1.073
 2433SOL    HW2 8199   3.162   6.847   1.085
 2434SOL     OW 8200   4.582   1.289   3.625
 2434SOL    HW1 8201   4.571   1.279   3.526
 2434SOL    HW2 8202   4.673   1.257   3.652
 2435SOL     OW 8203   4.622   5.386   5.997
 2435SOL    HW1 8204   4.642   5.354   5.904
 2435SOL    HW2 8205   4.668   5.473   6.013
 2436SOL     OW 8206   1.979   6.059   1.613
 2436SOL    HW1 8207   1.970   6.123   1.537
 2436SOL    HW2 8208   2.075   6.037   1.628
 2437SOL     OW 8209   3.765   5.795   0.843
 2437SOL    HW1 8210   3.836   5.779   0.775
 2437SOL    HW2 8211   3.799   5.858   0.913
 2438SOL     OW 8212   3.669   1.829   5.570
 2438SOL    HW1 8213   3.607   1.770   5.517
 2438SOL    HW2 8214   3.621   1.864   5.650
 2439SOL     OW 8215   0.908   4.136   6.568
 2439SOL    HW1 8216   0.959   4.050   6.570
 2439SOL    HW2 8217   0.969   4.212   6.591
 2440SOL     OW 8218   4.978   6.205   4.913
 2440SOL    HW1 8219   4.914   6.279   4.936
 2440SOL    HW2 8220   5.064   6.245   4.881
 2441SOL     OW 8221   6.593   0.586   0.083
 2441SOL    HW1 8222   6.679   0.637   0.087
 2441SOL    HW2 8223   6.600   0.514   0.014
 2442SOL     OW 8224   6.686   5.489   4.163
 2442SOL    HW1 8225   6.722   5.407   4.209
 2442SOL    HW2 8226   6.618   5.461   4.095
 2443SOL     OW 8227   3.340   6.304   5.351
 2443SOL    HW1 8228   3.394   6.263   5.277
 2443SOL    HW2 8229   3.396   6.310   5.434
 2444SOL     OW 8230   3.523   4.574   5.658
 2444SOL    HW1 8231   3.505   4.669   5.635
 2444SOL    HW2 8232   3.564   4.528   5.579
 2445SOL     OW 8233   0.976   0.358   1.586
 2445SOL    HW1 8234   0.918   0.277   1.599
 2445SOL    HW2 8235   1.045   0.362   1.658
 2446SOL     OW 8236   0.064   3.835   3.975
 2446SOL    HW1 8237   0.028   3.771   4.042
 2446SOL    HW2 8238   0.008   3.918   3.974
 2447SOL     OW 8239   3.118   1.844   0.683
 2447SOL    HW1 8240   3.114   1.893   0.596
 2447SOL    HW2 8241   3.188   1.773   0.679
 2448SOL     OW 8242   1.195   0.487   5.502
 2448SOL    HW1 8243   1.099   0.507   5.483
 2448SOL    HW2 8244   1.253   0.550   5.450
 2449SOL     OW 8245   6.928   4.449   1.480
 2449SOL    HW1 8246   6.936   4.543   1.513
 2449SOL    HW2 8247   7.009   4.397   1.506
 2450SOL     OW 8248   2.895   4.924   4.581
 2450SOL    HW1 8249   2.991   4.908   4.604
 2450SOL    HW2 8250   2.837   4.861   4.633
 2451SOL     OW 8251   0.639   0.583   3.467
 2451SOL    HW1 8252   0.577   0.532   3.407
 2451SOL    HW2 8253   0.685   0.520   3.529
 2452SOL     OW 8254   2.242   2.477   2.822
 2452SOL    HW1 8255   2.245   2.575   2.840
 2452SOL    HW2 8256   2.298   2.429   2.889
 2453SOL     OW 8257   6.444   3.856   1.496
 2453SOL    HW1 8258   6.357   3.894   1.466
 2453SOL    HW2 8259   6.431   3.802   1.579
 2454SOL     OW 8260   3.392   1.395   0.556
 2454SOL    HW1 8261   3.455   1.320   0.574
 2454SOL    HW2 8262   3.439   1.465   0.501
 2455SOL     OW 8263   5.585   6.836   0.711
 2455SOL    HW1 8264   5.494   6.877   0.701
 2455SOL    HW2 8265   5.609   6.829   0.808
 2456SOL     OW 8266   6.110   0.206   0.509
 2456SOL    HW1 8267   6.120   0.118   0.555
 2456SOL    HW2 8268   6.029   0.204   0.451
 2457SOL     OW 8269   6.676   6.094   0.360
 2457SOL    HW1 8270   6.645   6.144   0.280
 2457SOL    HW2 8271   6.769   6.122   0.383
 2458SOL     OW 8272   2.636   5.693   4.025
 2458SOL    HW1 8273   2.634   5.793   4.020
 2458SOL    HW2 8274   2.553   5.660   4.069
 2459SOL     OW 8275   2.526   6.739   0.654
 2459SOL    HW1 8276   2.471   6.814   0.617
 2459SOL    HW2 8277   2.516   6.658   0.596
 2460SOL     OW 8278   2.208   0.476   0.913
 2460SOL    HW1 8279   2.252   0.389   0.888
 2460SOL    HW2 8280   2.141   0.500   0.843
 2461SOL     OW 8281   4.852   0.500   2.843
 2461SOL    HW1 8282   4.804   0.427   2.891
 2461SOL    HW2 8283   4.903   0.461   2.766
 2462SOL     OW 8284   2.217   5.430   0.161
 2462SOL    HW1 8285   2.244   5.423   0.257
 2462SOL    HW2 8286   2.160   5.511   0.148
 2463SOL     OW 8287   6.446   2.425   4.586
 2463SOL    HW1 8288   6.502   2.494   4.539
 2463SOL    HW2 8289   6.357   2.465   4.609
 2464SOL     OW 8290   1.571   4.239   1.815
 2464SOL    HW1 8291   1.655   4.201   1.777
 2464SOL    HW2 8292   1.594   4.314   1.877
 2465SOL     OW 8293   6.678   5.831   1.255
 2465SOL    HW1 8294   6.637   5.844   1.165
 2465SOL    HW2 8295   6.610   5.850   1.326
 2466SOL     OW 8296   3.359   0.936   1.610
 2466SOL    HW1 8297   3.414   0.905   1.689
 2466SOL    HW2 8298   3.287   0.869   1.592
 2467SOL     OW 8299   5.728   1.919   5.527
 2467SOL    HW1 8300   5.636   1.889   5.552
 2467SOL    HW2 8301   5.757   1.993   5.588
 2468SOL     OW 8302   6.021   6.348   2.238
 2468SOL    HW1 8303   5.954   6.284   2.200
 2468SOL    HW2 8304   5.974   6.430   2.271
 2469SOL     OW 8305   3.660   5.018   5.107
 2469SOL    HW1 8306   3.595   4.943   5.118
 2469SOL    HW2 8307   3.659   5.049   5.012
 2470SOL     OW 8308   2.999   4.381   6.096
 2470SOL    HW1 8309   3.039   4.328   6.021
 2470SOL    HW2 8310   3.072   4.422   6.150
 2471SOL     OW 8311   1.834   6.278   1.758
 2471SOL    HW1 8312   1.869   6.203   1.702
 2471SOL    HW2 8313   1.735   6.272   1.763
 2472SOL     OW 8314   5.123   1.495   4.292
 2472SOL    HW1 8315   5.168   1.552   4.223
 2472SOL    HW2 8316   5.027   1.521   4.300
 2473SOL     OW 8317   1.703   3.986   5.508
 2473SOL    HW1 8318   1.772   3.930   5.554
 2473SOL    HW2 8319   1.678   4.063   5.567
 2474SOL     OW 8320   0.702   5.445   0.341
 2474SOL    HW1 8321   0.763   5.523   0.332
 2474SOL    HW2 8322   0.635   5.446   0.266
 2475SOL     OW 8323   4.801   1.259   0.777
 2475SOL    HW1 8324   4.729   1.274   0.710
 2475SOL    HW2 8325   4.884   1.306   0.747
 2476SOL     OW 8326   0.450   2.962   3.332
 2476SOL    HW1 8327   0.483   3.042   3.382
 2476SOL    HW2 8328   0.525   2.896   3.322
 2477SOL     OW 8329   6.223   0.183   2.608
 2477SOL    HW1 8330   6.256   0.254   2.671
 2477SOL    HW2 8331   6.240   0.212   2.514
 2478SOL     OW 8332   5.379   6.663   2.283
 2478SOL    HW1 8333   5.329   6.609   2.215
 2478SOL    HW2 8334   5.444   6.604   2.331
 2479SOL     OW 8335   0.797   3.503   1.544
 2479SOL    HW1 8336   0.771   3.415   1.505
 2479SOL    HW2 8337   0.886   3.495   1.588
 2480SOL     OW 8338   5.759   4.082   0.645
 2480SOL    HW1 8339   5.791   4.017   0.576
 2480SOL    HW2 8340   5.661   4.068   0.660
 2481SOL     OW 8341   2.889   6.647   0.373
 2481SOL    HW1 8342   2.985   6.634   0.348
 2481SOL    HW2 8343   2.883   6.715   0.446
 2482SOL     OW 8344   5.588   3.086   5.540
 2482SOL    HW1 8345   5.604   2.988   5.527
 2482SOL    HW2 8346   5.659   3.124   5.599
 2483SOL     OW 8347   2.654   1.252   0.142
 2483SOL    HW1 8348   2.688   1.321   0.206
 2483SOL    HW2 8349   2.717   1.244   0.065
 2484SOL     OW 8350   2.292   0.634   0.555
 2484SOL    HW1 8351   2.366   0.658   0.617
 2484SOL    HW2 8352   2.281   0.707   0.487
 2485SOL     OW 8353   4.428   4.869   2.113
 2485SOL    HW1 8354   4.377   4.813   2.048
 2485SOL    HW2 8355   4.423   4.965   2.086
 2486SOL     OW 8356   3.096   5.940   3.002
 2486SOL    HW1 8357   2.998   5.947   3.019
 2486SOL    HW2 8358   3.145   5.946   3.089
 2487SOL     OW 8359   3.904   5.276   6.836
 2487SOL    HW1 8360   3.926   5.370   6.863
 2487SOL    HW2 8361   3.824   5.277   6.776
 2488SOL     OW 8362   2.386   4.219   1.987
 2488SOL    HW1 8363   2.292   4.212   2.019
 2488SOL    HW2 8364   2.435   4.286   2.043
 2489SOL     OW 8365   2.271   4.789   4.213
 2489SOL    HW1 8366   2.348   4.851   4.228
 2489SOL    HW2 8367   2.302   4.710   4.160
 2490SOL     OW 8368   6.262   5.221   0.726
 2490SOL    HW1 8369   6.317   5.304   0.716
 2490SOL    HW2 8370   6.291   5.154   0.657
 2491SOL     OW 8371   2.055   5.539   2.956
 2491SOL    HW1 8372   2.115   5.505   3.028
 2491SOL    HW2 8373   2.091   5.625   2.919
 2492SOL     OW 8374   3.838   2.871   6.864
 2492SOL    HW1 8375   3.770   2.895   6.932
 2492SOL    HW2 8376   3.808   2.901   6.773
 2493SOL     OW 8377   6.141   0.488   3.244
 2493SOL    HW1 8378   6.079   0.428   3.294
 2493SOL    HW2 8379   6.236   0.458   3.259
 2494SOL     OW 8380   5.550   3.534   2.542
 2494SOL    HW1 8381   5.588   3.524   2.634
 2494SOL    HW2 8382   5.485   3.460   2.525
 2495SOL     OW 8383   4.828   0.602   4.909
 2495SOL    HW1 8384   4.884   0.597   4.826
 2495SOL    HW2 8385   4.849   0.523   4.967
 2496SOL     OW 8386   0.864   5.344   7.005
 2496SOL    HW1 8387   0.877   5.289   0.057
 2496SOL    HW2 8388   0.789   5.307   6.951
 2497SOL     OW 8389   0.161   1.678   0.192
 2497SOL    HW1 8390   0.219   1.643   0.266
 2497SOL    HW2 8391   0.090   1.610   0.170
 2498SOL     OW 8392   2.936   2.276   3.391
 2498SOL    HW1 8393   2.928   2.231   3.480
 2498SOL    HW2 8394   2.921   2.374   3.402
 2499SOL     OW 8395   5.349   1.128   4.590
 2499SOL    HW1 8396   5.318   1.223   4.591
 2499SOL    HW2 8397   5.436   1.121   4.541
 2500SOL     OW 8398   4.648   3.358   5.586
 2500SOL    HW1 8399   4.742   3.367   5.551
 2500SOL    HW2 8400   4.595   3.299   5.525
 2501SOL     OW 8401   6.738   5.434   6.629
 2501SOL    HW1 8402   6.735   5.451   6.728
 2501SOL    HW2 8403   6.708   5.341   6.610
 2502SOL     OW 8404   2.938   6.484   3.538
 2502SOL    HW1 8405   2.864   6.440   3.487
 2502SOL    HW2 8406   2.986   6.414   3.593
 2503SOL     OW 8407   3.932   5.694   5.433
 2503SOL    HW1 8408   3.889   5.780   5.407
 2503SOL    HW2 8409   3.867   5.619   5.420
 2504SOL     OW 8410   2.712   5.473   4.876
 2504SOL    HW1 8411   2.618   5.468   4.909
 2504SOL    HW2 8412   2.763   5.539   4.931
 2505SOL     OW 8413   2.809   6.349   4.221
 2505SOL    HW1 8414   2.827   6.364   4.318
 2505SOL    HW2 8415   2.806   6.251   4.202
 2506SOL     OW 8416   0.183   3.392   6.201
 2506SOL    HW1 8417   0.204   3.451   6.123
 2506SOL    HW2 8418   0.090   3.358   6.194
 2507SOL     OW 8419   5.832   4.992   6.817
 2507SOL    HW1 8420   5.755   4.929   6.807
 2507SOL    HW2 8421   5.887   4.965   6.896
 2508SOL     OW 8422   2.616   1.746   1.928
 2508SOL    HW1 8423   2.602   1.648   1.912
 2508SOL    HW2 8424   2.529   1.794   1.922
 2509SOL     OW 8425   5.947   2.698   2.560
 2509SOL    HW1 8426   6.024   2.692   2.496
 2509SOL    HW2 8427   5.943   2.790   2.599
 2510SOL     OW 8428   2.785   4.401   0.955
 2510SOL    HW1 8429   2.688   4.400   0.934
 2510SOL    HW2 8430   2.811   4.314   0.999
 2511SOL     OW 8431   1.427   1.612   4.890
 2511SOL    HW1 8432   1.361   1.603   4.815
 2511SOL    HW2 8433   1.491   1.536   4.887
 2512SOL     OW 8434   5.684   4.639   4.971
 2512SOL    HW1 8435   5.609   4.642   4.904
 2512SOL    HW2 8436   5.722   4.547   4.973
 2513SOL     OW 8437   1.537   2.257   6.175
 2513SOL    HW1 8438   1.599   2.203   6.118
 2513SOL    HW2 8439   1.588   2.333   6.216
 2514SOL     OW 8440   0.578   3.166   3.461
 2514SOL    HW1 8441   0.644   3.178   3.536
 2514SOL    HW2 8442   0.590   3.239   3.395
 2515SOL     OW 8443   1.101   6.321   1.218
 2515SOL    HW1 8444   1.179   6.315   1.156
 2515SOL    HW2 8445   1.119   6.267   1.300
 2516SOL     OW 8446   6.272   5.304   2.920
 2516SOL    HW1 8447   6.300   5.400   2.935
 2516SOL    HW2 8448   6.321   5.246   2.985
 2517SOL     OW 8449   2.122   5.496   6.135
 2517SOL    HW1 8450   2.174   5.465   6.055
 2517SOL    HW2 8451   2.066   5.575   6.110
 2518SOL     OW 8452   1.958   3.315   7.013
 2518SOL    HW1 8453   1.881   3.335   0.043
 2518SOL    HW2 8454   2.029   3.266   0.035
 2519SOL     OW 8455   4.882   4.648   4.427
 2519SOL    HW1 8456   4.967   4.611   4.464
 2519SOL    HW2 8457   4.902   4.708   4.349
 2520SOL     OW 8458   1.212   2.642   1.313
 2520SOL    HW1 8459   1.238   2.558   1.361
 2520SOL    HW2 8460   1.294   2.695   1.292
 2521SOL     OW 8461   1.107   6.916   6.080
 2521SOL    HW1 8462   1.086   6.919   5.982
 2521SOL    HW2 8463   1.028   6.879   6.130
 2522SOL     OW 8464   0.700   3.152   5.161
 2522SOL    HW1 8465   0.678   3.245   5.189
 2522SOL    HW2 8466   0.653   3.088   5.222
 2523SOL     OW 8467   6.851   2.875   0.891
 2523SOL    HW1 8468   6.895   2.824   0.817
 2523SOL    HW2 8469   6.846   2.971   0.867
 2524SOL     OW 8470   0.384   6.090   4.533
 2524SOL    HW1 8471   0.477   6.070   4.564
 2524SOL    HW2 8472   0.344   6.160   4.592
 2525SOL     OW 8473   1.752   2.956   4.001
 2525SOL    HW1 8474   1.778   2.993   4.090
 2525SOL    HW2 8475   1.819   2.887   3.973
 2526SOL     OW 8476   0.416   3.433   5.373
 2526SOL    HW1 8477   0.383   3.342   5.395
 2526SOL    HW2 8478   0.349   3.481   5.316
 2527SOL     OW 8479   5.833   0.059   5.109
 2527SOL    HW1 8480   5.855   0.111   5.192
 2527SOL    HW2 8481   5.917   0.035   5.061
 2528SOL     OW 8482   5.883   4.554   1.433
 2528SOL    HW1 8483   5.841   4.592   1.350
 2528SOL    HW2 8484   5.977   4.588   1.440
 2529SOL     OW 8485   5.516   4.785   5.831
 2529SOL    HW1 8486   5.425   4.743   5.830
 2529SOL    HW2 8487   5.534   4.823   5.922
 2530SOL     OW 8488   1.258   6.713   4.559
 2530SOL    HW1 8489   1.174   6.745   4.516
 2530SOL    HW2 8490   1.337   6.739   4.503
 2531SOL     OW 8491   5.847   6.298   4.641
 2531SOL    HW1 8492   5.749   6.294   4.620
 2531SOL    HW2 8493   5.891   6.367   4.584
 2532SOL     OW 8494   0.698   5.711   0.666
 2532SOL    HW1 8495   0.652   5.634   0.622
 2532SOL    HW2 8496   0.684   5.794   0.612
 2533SOL     OW 8497   5.244   6.318   4.906
 2533SOL    HW1 8498   5.268   6.407   4.945
 2533SOL    HW2 8499   5.305   6.248   4.943
 2534SOL     OW 8500   2.332   0.685   3.123
 2534SOL    HW1 8501   2.395   0.608   3.117
 2534SOL    HW2 8502   2.276   0.688   3.040
 2535SOL     OW 8503   2.156   2.196   6.311
 2535SOL    HW1 8504   2.170   2.100   6.338
 2535SOL    HW2 8505   2.145   2.252   6.394
 2536SOL     OW 8506   0.960   1.921   3.260
 2536SOL    HW1 8507   0.974   1.822   3.259
 2536SOL    HW2 8508   0.891   1.944   3.329
 2537SOL     OW 8509   4.877   6.263   0.613
 2537SOL    HW1 8510   4.883   6.192   0.683
 2537SOL    HW2 8511   4.805   6.328   0.636
 2538SOL     OW 8512   1.679   4.146   5.262
 2538SOL    HW1 8513   1.685   4.099   5.350
 2538SOL    HW2 8514   1.709   4.085   5.189
 2539SOL     OW 8515   4.216   0.065   5.403
 2539SOL    HW1 8516   4.303   0.114   5.401
 2539SOL    HW2 8517   4.174   0.075   5.493
 2540SOL     OW 8518   5.175   0.826   1.448
 2540SOL    HW1 8519   5.206   0.738   1.412
 2540SOL    HW2 8520   5.254   0.882   1.472
 2541SOL     OW 8521   1.453   0.629   5.914
 2541SOL    HW1 8522   1.372   0.617   5.857
 2541SOL    HW2 8523   1.453   0.721   5.953
 2542SOL     OW 8524   3.874   2.171   4.650
 2542SOL    HW1 8525   3.918   2.161   4.561
 2542SOL    HW2 8526   3.918   2.244   4.701
 2543SOL     OW 8527   2.339   0.453   2.837
 2543SOL    HW1 8528   2.436   0.473   2.827
 2543SOL    HW2 8529   2.319   0.363   2.797
 2544SOL     OW 8530   0.768   4.959   2.212
 2544SOL    HW1 8531   0.713   4.877   2.198
 2544SOL    HW2 8532   0.737   5.031   2.150
 2545SOL     OW 8533   1.480   0.809   1.606
 2545SOL    HW1 8534   1.565   0.782   1.652
 2545SOL    HW2 8535   1.487   0.903   1.575
 2546SOL     OW 8536   6.730   3.192   0.848
 2546SOL    HW1 8537   6.657   3.184   0.916
 2546SOL    HW2 8538   6.819   3.181   0.893
 2547SOL     OW 8539   5.612   5.809   0.578
 2547SOL    HW1 8540   5.709   5.821   0.558
 2547SOL    HW2 8541   5.594   5.839   0.672
 2548SOL     OW 8542   2.481   0.384   4.634
 2548SOL    HW1 8543   2.385   0.413   4.641
 2548SOL    HW2 8544   2.534   0.457   4.590
 2549SOL     OW 8545   2.421   2.289   1.823
 2549SOL    HW1 8546   2.394   2.255   1.913
 2549SOL    HW2 8547   2.492   2.229   1.785
 2550SOL     OW 8548   5.506   0.812   6.919
 2550SOL    HW1 8549   5.502   0.885   6.987
 2550SOL    HW2 8550   5.478   0.726   6.960
 2551SOL     OW 8551   3.371   5.369   0.124
 2551SOL    HW1 8552   3.371   5.468   0.135
 2551SOL    HW2 8553   3.330   5.326   0.205
 2552SOL     OW 8554   2.180   5.303   6.710
 2552SOL    HW1 8555   2.266   5.253   6.720
 2552SOL    HW2 8556   2.177   5.346   6.619
 2553SOL     OW 8557   3.143   2.714   6.131
 2553SOL    HW1 8558   3.179   2.774   6.059
 2553SOL    HW2 8559   3.046   2.696   6.115
 2554SOL     OW 8560   1.686   5.872   6.831
 2554SOL    HW1 8561   1.728   5.823   6.755
 2554SOL    HW2 8562   1.715   5.832   6.918
 2555SOL     OW 8563   6.190   6.189   6.798
 2555SOL    HW1 8564   6.102   6.231   6.820
 2555SOL    HW2 8565   6.236   6.242   6.727
 2556SOL     OW 8566   3.789   6.686   1.159
 2556SOL    HW1 8567   3.790   6.667   1.257
 2556SOL    HW2 8568   3.867   6.744   1.135
 2557SOL     OW 8569   2.784   0.367   6.766
 2557SOL    HW1 8570   2.861   0.316   6.727
 2557SOL    HW2 8571   2.792   0.371   6.865
 2558SOL     OW 8572   4.416   4.192   5.594
 2558SOL    HW1 8573   4.511   4.224   5.588
 2558SOL    HW2 8574   4.395   4.133   5.516
 2559SOL     OW 8575   6.572   3.307   3.758
 2559SOL    HW1 8576   6.598   3.273   3.848
 2559SOL    HW2 8577   6.489   3.259   3.726
 2560SOL     OW 8578   5.142   3.825   3.761
 2560SOL    HW1 8579   5.101   3.751   3.814
 2560SOL    HW2 8580   5.109   3.820   3.666
 2561SOL     OW 8581   3.778   1.245   3.189
 2561SOL    HW1 8582   3.762   1.340   3.217
 2561SOL    HW2 8583   3.840   1.201   3.254
 2562SOL     OW 8584   3.054   5.588   3.487
 2562SOL    HW1 8585   3.090   5.500   3.457
 2562SOL    HW2 8586   3.008   5.634   3.411
 2563SOL     OW 8587   3.433   1.367   5.979
 2563SOL    HW1 8588   3.499   1.442   5.983
 2563SOL    HW2 8589   3.372   1.372   6.057
 2564SOL     OW 8590   2.031   6.606   0.130
 2564SOL    HW1 8591   1.977   6.664   0.191
 2564SOL    HW2 8592   2.128   6.627   0.142
 2565SOL     OW 8593   0.321   0.424   0.267
 2565SOL    HW1 8594   0.350   0.464   0.180
 2565SOL    HW2 8595   0.293   0.329   0.252
 2566SOL     OW 8596   2.277   6.637   1.433
 2566SOL    HW1 8597   2.355   6.698   1.421
 2566SOL    HW2 8598   2.203   6.686   1.480
 2567SOL     OW 8599   1.706   1.184   1.316
 2567SOL    HW1 8600   1.770   1.195   1.392
 2567SOL    HW2 8601   1.674   1.274   1.286
 2568SOL     OW 8602   2.731   0.105   0.625
 2568SOL    HW1 8603   2.790   0.186   0.632
 2568SOL    HW2 8604   2.739   0.051   0.709
 2569SOL     OW 8605   2.524   1.584   2.183
 2569SOL    HW1 8606   2.486   1.564   2.093
 2569SOL    HW2 8607   2.594   1.655   2.175
 2570SOL     OW 8608   4.583   6.414   6.286
 2570SOL    HW1 8609   4.574   6.498   6.339
 2570SOL    HW2 8610   4.504   6.355   6.304
 2571SOL     OW 8611   3.883   3.050   4.656
 2571SOL    HW1 8612   3.839   3.133   4.691
 2571SOL    HW2 8613   3.819   2.973   4.661
 2572SOL     OW 8614   2.481   5.983   0.942
 2572SOL    HW1 8615   2.488   5.941   0.852
 2572SOL    HW2 8616   2.502   6.081   0.935
 2573SOL     OW 8617   6.544   1.328   2.882
 2573SOL    HW1 8618   6.484   1.305   2.959
 2573SOL    HW2 8619   6.495   1.390   2.820
 2574SOL     OW 8620   5.917   3.751   1.029
 2574SOL    HW1 8621   5.821   3.729   1.012
 2574SOL    HW2 8622   5.923   3.846   1.060
 2575SOL     OW 8623   5.435   3.485   1.812
 2575SOL    HW1 8624   5.335   3.488   1.810
 2575SOL    HW2 8625   5.466   3.391   1.798
 2576SOL     OW 8626   3.721   7.023   4.001
 2576SOL    HW1 8627   3.786   7.016   3.926
 2576SOL    HW2 8628   3.739   0.076   4.054
 2577SOL     OW 8629   4.928   0.302   3.756
 2577SOL    HW1 8630   4.938   0.381   3.817
 2577SOL    HW2 8631   4.987   0.314   3.676
 2578SOL     OW 8632   4.846   2.492   5.087
 2578SOL    HW1 8633   4.920   2.425   5.083
 2578SOL    HW2 8634   4.813   2.511   4.994
 2579SOL     OW 8635   1.319   1.112   5.195
 2579SOL    HW1 8636   1.229   1.093   5.234
 2579SOL    HW2 8637   1.323   1.076   5.102
 2580SOL     OW 8638   2.005   2.447   6.065
 2580SOL    HW1 8639   2.003   2.524   6.129
 2580SOL    HW2 8640   1.933   2.382   6.090
 2581SOL     OW 8641   5.984   4.814   1.869
 2581SOL    HW1 8642   5.884   4.819   1.874
 2581SOL    HW2 8643   6.020   4.779   1.956
 2582SOL     OW 8644   2.089   4.877   3.047
 2582SOL    HW1 8645   2.102   4.797   3.105
 2582SOL    HW2 8646   2.025   4.940   3.090
 2583SOL     OW 8647   1.868   0.890   0.815
 2583SOL    HW1 8648   1.805   0.876   0.739
 2583SOL    HW2 8649   1.830   0.958   0.878
 2584SOL     OW 8650   4.199   5.959   0.172
 2584SOL    HW1 8651   4.211   6.048   0.127
 2584SOL    HW2 8652   4.143   5.900   0.113
 2585SOL     OW 8653   2.939   0.302   0.626
 2585SOL    HW1 8654   3.034   0.333   0.636
 2585SOL    HW2 8655   2.895   0.354   0.553
 2586SOL     OW 8656   4.790   1.442   4.639
 2586SOL    HW1 8657   4.750   1.491   4.716
 2586SOL    HW2 8658   4.782   1.498   4.556
 2587SOL     OW 8659   6.762   0.442   4.766
 2587SOL    HW1 8660   6.858   0.451   4.737
 2587SOL    HW2 8661   6.752   0.361   4.824
 2588SOL     OW 8662   4.592   0.297   0.393
 2588SOL    HW1 8663   4.689   0.307   0.415
 2588SOL    HW2 8664   4.542   0.271   0.475
 2589SOL     OW 8665   0.614   6.586   5.556
 2589SOL    HW1 8666   0.637   6.546   5.645
 2589SOL    HW2 8667   0.674   6.548   5.485
 2590SOL     OW 8668   4.082   6.762   2.822
 2590SOL    HW1 8669   4.088   6.859   2.845
 2590SOL    HW2 8670   4.157   6.713   2.865
 2591SOL     OW 8671   5.292   6.028   2.683
 2591SOL    HW1 8672   5.357   5.963   2.722
 2591SOL    HW2 8673   5.216   6.042   2.746
 2592SOL     OW 8674   2.430   6.275   1.746
 2592SOL    HW1 8675   2.450   6.307   1.654
 2592SOL    HW2 8676   2.465   6.341   1.813
 2593SOL     OW 8677   3.426   6.586   1.920
 2593SOL    HW1 8678   3.364   6.553   1.991
 2593SOL    HW2 8679   3.499   6.640   1.962
 2594SOL     OW 8680   6.867   6.105   5.699
 2594SOL    HW1 8681   6.927   6.025   5.705
 2594SOL    HW2 8682   6.919   6.188   5.724
 2595SOL     OW 8683   6.642   1.941   5.877
 2595SOL    HW1 8684   6.689   2.010   5.933
 2595SOL    HW2 8685   6.675   1.946   5.783
 2596SOL     OW 8686   3.601   1.853   2.041
 2596SOL    HW1 8687   3.686   1.804   2.061
 2596SOL    HW2 8688   3.609   1.899   1.953
 2597SOL     OW 8689   1.770   3.751   0.593
 2597SOL    HW1 8690   1.843   3.795   0.646
 2597SOL    HW2 8691   1.805   3.727   0.502
 2598SOL     OW 8692   5.666   1.895   4.234
 2598SOL    HW1 8693   5.757   1.932   4.254
 2598SOL    HW2 8694   5.600   1.970   4.234
 2599SOL     OW 8695   3.649   5.691   0.255
 2599SOL    HW1 8696   3.672   5.785   0.279
 2599SOL    HW2 8697   3.705   5.628   0.309
 2600SOL     OW 8698   4.946   3.764   4.622
 2600SOL    HW1 8699   4.900   3.829   4.682
 2600SOL    HW2 8700   5.018   3.716   4.673
 2601SOL     OW 8701   3.933   1.848   6.435
 2601SOL    HW1 8702   3.978   1.827   6.522
 2601SOL    HW2 8703   3.973   1.792   6.362
 2602SOL     OW 8704   7.004   4.712   4.068
 2602SOL    HW1 8705   6.937   4.779   4.036
 2602SOL    HW2 8706   0.056   4.716   4.011
 2603SOL     OW 8707   2.861   2.092   1.649
 2603SOL    HW1 8708   2.839   1.998   1.624
 2603SOL    HW2 8709   2.929   2.128   1.584
 2604SOL     OW 8710   4.933   1.581   2.340
 2604SOL    HW1 8711   4.840   1.595   2.307
 2604SOL    HW2 8712   4.967   1.493   2.306
 2605SOL     OW 8713   3.939   5.233   3.700
 2605SOL    HW1 8714   3.903   5.310   3.647
 2605SOL    HW2 8715   3.901   5.236   3.792
 2606SOL     OW 8716   6.256   4.518   0.387
 2606SOL    HW1 8717   6.233   4.534   0.291
 2606SOL    HW2 8718   6.179   4.544   0.445
 2607SOL     OW 8719   0.300   1.932   6.117
 2607SOL    HW1 8720   0.393   1.969   6.119
 2607SOL    HW2 8721   0.302   1.839   6.078
 2608SOL     OW 8722   4.008   6.153   2.469
 2608SOL    HW1 8723   4.047   6.101   2.394
 2608SOL    HW2 8724   4.081   6.182   2.531
 2609SOL     OW 8725   0.770   2.474   1.251
 2609SOL    HW1 8726   0.737   2.524   1.171
 2609SOL    HW2 8727   0.695   2.420   1.289
 2610SOL     OW 8728   6.530   5.398   3.958
 2610SOL    HW1 8729   6.593   5.323   3.940
 2610SOL    HW2 8730   6.517   5.452   3.875
 2611SOL     OW 8731   5.612   6.588   1.030
 2611SOL    HW1 8732   5.640   6.680   1.001
 2611SOL    HW2 8733   5.691   6.538   1.064
 2612SOL     OW 8734   6.724   6.747   5.330
 2612SOL    HW1 8735   6.661   6.717   5.402
 2612SOL    HW2 8736   6.814   6.764   5.368
 2613SOL     OW 8737   2.913   6.051   1.733
 2613SOL    HW1 8738   2.919   5.969   1.790
 2613SOL    HW2 8739   2.822   6.057   1.692
 2614SOL     OW 8740   6.375   6.619   5.832
 2614SOL    HW1 8741   6.409   6.712   5.816
 2614SOL    HW2 8742   6.426   6.555   5.774
 2615SOL     OW 8743   5.831   4.394   2.936
 2615SOL    HW1 8744   5.804   4.355   2.848
 2615SOL    HW2 8745   5.858   4.320   2.998
 2616SOL     OW 8746   3.643   3.727   4.148
 2616SOL    HW1 8747   3.620   3.780   4.229
 2616SOL    HW2 8748   3.737   3.693   4.155
 2617SOL     OW 8749   2.981   6.446   1.373
 2617SOL    HW1 8750   2.930   6.361   1.386
 2617SOL    HW2 8751   3.064   6.444   1.429
 2618SOL     OW 8752   0.277   6.717   3.809
 2618SOL    HW1 8753   0.295   6.656   3.732
 2618SOL    HW2 8754   0.235   6.801   3.777
 2619SOL     OW 8755   3.348   1.450   3.495
 2619SOL    HW1 8756   3.428   1.492   3.538
 2619SOL    HW2 8757   3.308   1.383   3.558
 2620SOL     OW 8758   0.649   5.824   3.290
 2620SOL    HW1 8759   0.679   5.913   3.255
 2620SOL    HW2 8760   0.684   5.811   3.382
 2621SOL     OW 8761   1.819   6.146   3.051
 2621SOL    HW1 8762   1.790   6.234   3.012
 2621SOL    HW2 8763   1.848   6.085   2.977
 2622SOL     OW 8764   2.462   2.090   6.038
 2622SOL    HW1 8765   2.374   2.136   6.022
 2622SOL    HW2 8766   2.462   2.048   6.129
 2623SOL     OW 8767   3.384   1.875   4.977
 2623SOL    HW1 8768   3.391   1.974   4.991
 2623SOL    HW2 8769   3.291   1.852   4.948
 2624SOL     OW 8770   6.639   3.259   4.272
 2624SOL    HW1 8771   6.560   3.226   4.324
 2624SOL    HW2 8772   6.666   3.349   4.307
 2625SOL     OW 8773   2.470   2.955   5.460
 2625SOL    HW1 8774   2.492   2.989   5.369
 2625SOL    HW2 8775   2.419   3.024   5.511
 2626SOL     OW 8776   0.438   6.986   4.399
 2626SOL    HW1 8777   0.363   0.014   4.368
 2626SOL    HW2 8778   0.471   7.018   4.488
 2627SOL     OW 8779   0.185   0.701   4.913
 2627SOL    HW1 8780   0.090   0.720   4.888
 2627SOL    HW2 8781   0.240   0.783   4.902
 2628SOL     OW 8782   3.098   5.860   6.499
 2628SOL    HW1 8783   3.023   5.926   6.491
 2628SOL    HW2 8784   3.146   5.876   6.585
 2629SOL     OW 8785   3.367   4.126   2.409
 2629SOL    HW1 8786   3.383   4.179   2.493
 2629SOL    HW2 8787   3.432   4.154   2.339
 2630SOL     OW 8788   3.451   1.434   3.209
 2630SOL    HW1 8789   3.383   1.478   3.150
 2630SOL    HW2 8790   3.406   1.396   3.289
 2631SOL     OW 8791   4.666   0.266   4.471
 2631SOL    HW1 8792   4.664   0.283   4.373
 2631SOL    HW2 8793   4.708   0.343   4.518
 2632SOL     OW 8794   2.201   1.953   5.779
 2632SOL    HW1 8795   2.171   2.046   5.802
 2632SOL    HW2 8796   2.217   1.946   5.681
 2633SOL     OW 8797   6.203   2.167   6.351
 2633SOL    HW1 8798   6.217   2.069   6.361
 2633SOL    HW2 8799   6.209   2.211   6.441
 2634SOL     OW 8800   2.137   4.020   3.187
 2634SOL    HW1 8801   2.119   3.967   3.104
 2634SOL    HW2 8802   2.122   3.962   3.268
 2635SOL     OW 8803   6.030   6.103   4.572
 2635SOL    HW1 8804   6.007   6.084   4.477
 2635SOL    HW2 8805   5.953   6.148   4.617
 2636SOL     OW 8806   4.772   0.613   5.950
 2636SOL    HW1 8807   4.732   0.639   6.038
 2636SOL    HW2 8808   4.810   0.520   5.957
 2637SOL     OW 8809   6.336   1.044   3.860
 2637SOL    HW1 8810   6.389   1.123   3.828
 2637SOL    HW2 8811   6.388   0.996   3.931
 2638SOL     OW 8812   0.120   6.857   2.600
 2638SOL    HW1 8813   0.185   6.889   2.530
 2638SOL    HW2 8814   0.162   6.864   2.690
 2639SOL     OW 8815   0.412   0.366   2.028
 2639SOL    HW1 8816   0.507   0.347   2.004
 2639SOL    HW2 8817   0.377   0.439   1.969
 2640SOL     OW 8818   6.820   5.917   5.338
 2640SOL    HW1 8819   6.854   5.908   5.244
 2640SOL    HW2 8820   6.839   6.010   5.371
 2641SOL     OW 8821   5.435   2.845   2.062
 2641SOL    HW1 8822   5.410   2.756   2.023
 2641SOL    HW2 8823   5.352   2.894   2.089
 2642SOL     OW 8824   5.333   6.779   4.652
 2642SOL    HW1 8825   5.285   6.834   4.720
 2642SOL    HW2 8826   5.354   6.689   4.690
 2643SOL     OW 8827   1.375   4.894   3.439
 2643SOL    HW1 8828   1.330   4.971   3.483
 2643SOL    HW2 8829   1.387   4.820   3.506
 2644SOL     OW 8830   6.901   4.245   5.507
 2644SOL    HW1 8831   6.853   4.333   5.509
 2644SOL    HW2 8832   6.844   4.177   5.462
 2645SOL     OW 8833   4.206   6.620   4.428
 2645SOL    HW1 8834   4.167   6.701   4.472
 2645SOL    HW2 8835   4.288   6.645   4.377
 2646SOL     OW 8836   5.658   6.775   6.475
 2646SOL    HW1 8837   5.744   6.825   6.479
 2646SOL    HW2 8838   5.641   6.729   6.562
 2647SOL     OW 8839   5.356   0.669   1.275
 2647SOL    HW1 8840   5.453   0.649   1.263
 2647SOL    HW2 8841   5.305   0.635   1.196
 2648SOL     OW 8842   6.865   0.688   4.209
 2648SOL    HW1 8843   6.877   0.744   4.127
 2648SOL    HW2 8844   6.769   0.690   4.236
 2649SOL     OW 8845   4.906   2.289   6.252
 2649SOL    HW1 8846   4.895   2.218   6.182
 2649SOL    HW2 8847   4.948   2.250   6.334
 2650SOL     OW 8848   0.480   3.900   3.844
 2650SOL    HW1 8849   0.515   3.827   3.903
 2650SOL    HW2 8850   0.525   3.894   3.755
 2651SOL     OW 8851   1.139   1.691   0.259
 2651SOL    HW1 8852   1.054   1.647   0.229
 2651SOL    HW2 8853   1.151   1.675   0.357
 2652SOL     OW 8854   3.008   3.725   3.852
 2652SOL    HW1 8855   3.103   3.718   3.882
 2652SOL    HW2 8856   2.951   3.666   3.910
 2653SOL     OW 8857   4.994   6.923   5.103
 2653SOL    HW1 8858   4.992   6.997   5.171
 2653SOL    HW2 8859   4.922   6.937   5.035
 2654SOL     OW 8860   4.392   3.512   0.838
 2654SOL    HW1 8861   4.442   3.545   0.918
 2654SOL    HW2 8862   4.457   3.482   0.768
 2655SOL     OW 8863   5.071   4.509   4.640
 2655SOL    HW1 8864   5.025   4.469   4.719
 2655SOL    HW2 8865   5.156   4.459   4.622
 2656SOL     OW 8866   4.468   5.075   4.567
 2656SOL    HW1 8867   4.372   5.053   4.587
 2656SOL    HW2 8868   4.485   5.171   4.591
 2657SOL     OW 8869   2.497   4.670   6.459
 2657SOL    HW1 8870   2.448   4.626   6.535
 2657SOL    HW2 8871   2.439   4.670   6.378
 2658SOL     OW 8872   4.992   3.723   0.427
 2658SOL    HW1 8873   4.939   3.716   0.342
 2658SOL    HW2 8874   5.088   3.743   0.404
 2659SOL     OW 8875   6.519   2.648   4.428
 2659SOL    HW1 8876   6.486   2.583   4.360
 2659SOL    HW2 8877   6.515   2.741   4.390
 2660SOL     OW 8878   0.264   1.456   1.437
 2660SOL    HW1 8879   0.317   1.413   1.510
 2660SOL    HW2 8880   0.225   1.542   1.470
 2661SOL     OW 8881   2.179   6.325   2.114
 2661SOL    HW1 8882   2.163   6.273   2.030
 2661SOL    HW2 8883   2.233   6.407   2.092
 2662SOL     OW 8884   4.474   0.138   5.415
 2662SOL    HW1 8885   4.459   0.235   5.436
 2662SOL    HW2 8886   4.529   0.096   5.487
 2663SOL     OW 8887   3.016   3.829   1.549
 2663SOL    HW1 8888   2.955   3.898   1.590
 2663SOL    HW2 8889   2.968   3.742   1.544
 2664SOL     OW 8890   3.881   3.896   4.592
 2664SOL    HW1 8891   3.849   3.989   4.608
 2664SOL    HW2 8892   3.810   3.831   4.618
 2665SOL     OW 8893   2.681   1.936   4.957
 2665SOL    HW1 8894   2.773   1.932   4.999
 2665SOL    HW2 8895   2.645   2.029   4.966
 2666SOL     OW 8896   4.464   3.959   1.654
 2666SOL    HW1 8897   4.458   4.025   1.729
 2666SOL    HW2 8898   4.430   3.870   1.685
 2667SOL     OW 8899   1.938   6.080   4.720
 2667SOL    HW1 8900   1.918   6.039   4.631
 2667SOL    HW2 8901   2.010   6.028   4.766
 2668SOL     OW 8902   6.969   3.001   3.146
 2668SOL    HW1 8903   7.002   3.061   3.219
 2668SOL    HW2 8904   6.971   2.906   3.178
 2669SOL     OW 8905   2.953   4.900   5.016
 2669SOL    HW1 8906   2.926   4.903   5.112
 2669SOL    HW2 8907   2.935   4.809   4.980
 2670SOL     OW 8908   5.684   1.493   6.484
 2670SOL    HW1 8909   5.681   1.398   6.512
 2670SOL    HW2 8910   5.763   1.538   6.525
 2671SOL     OW 8911   3.041   5.123   0.279
 2671SOL    HW1 8912   3.012   5.148   0.186
 2671SOL    HW2 8913   2.976   5.160   0.345
 2672SOL     OW 8914   0.303   5.443   7.026
 2672SOL    HW1 8915   0.290   5.489   0.084
 2672SOL    HW2 8916   0.233   5.475   6.962
 2673SOL     OW 8917   6.142   1.715   3.593
 2673SOL    HW1 8918   6.223   1.668   3.626
 2673SOL    HW2 8919   6.152   1.813   3.607
 2674SOL     OW 8920   1.946   4.000   4.535
 2674SOL    HW1 8921   1.876   3.977   4.468
 2674SOL    HW2 8922   1.975   3.918   4.583
 2675SOL     OW 8923   0.603   4.965   4.667
 2675SOL    HW1 8924   0.655   5.007   4.593
 2675SOL    HW2 8925   0.594   5.031   4.742
 2676SOL     OW 8926   4.435   1.067   2.391
 2676SOL    HW1 8927   4.388   1.137   2.337
 2676SOL    HW2 8928   4.483   1.110   2.467
 2677SOL     OW 8929   3.210   4.610   0.481
 2677SOL    HW1 8930   3.169   4.615   0.572
 2677SOL    HW2 8931   3.141   4.578   0.415
 2678SOL     OW 8932   0.041   4.213   1.164
 2678SOL    HW1 8933   0.065   4.204   1.067
 2678SOL    HW2 8934   0.030   4.310   1.186
 2679SOL     OW 8935   3.847   5.237   0.818
 2679SOL    HW1 8936   3.863   5.320   0.765
 2679SOL    HW2 8937   3.917   5.169   0.794
 2680SOL     OW 8938   1.490   1.557   0.975
 2680SOL    HW1 8939   1.529   1.487   0.915
 2680SOL    HW2 8940   1.550   1.636   0.979
 2681SOL     OW 8941   1.545   2.190   4.478
 2681SOL    HW1 8942   1.455   2.198   4.521
 2681SOL    HW2 8943   1.604   2.265   4.509
 2682SOL     OW 8944   5.338   3.666   2.392
 2682SOL    HW1 8945   5.271   3.601   2.356
 2682SOL    HW2 8946   5.407   3.618   2.445
 2683SOL     OW 8947   1.203   3.488   6.805
 2683SOL    HW1 8948   1.104   3.498   6.801
 2683SOL    HW2 8949   1.245   3.578   6.815
 2684SOL     OW 8950   4.336   5.349   2.710
 2684SOL    HW1 8951   4.352   5.258   2.750
 2684SOL    HW2 8952   4.328   5.341   2.611
 2685SOL     OW 8953   6.715   6.466   6.164
 2685SOL    HW1 8954   6.684   6.421   6.081
 2685SOL    HW2 8955   6.643   6.526   6.198
 2686SOL     OW 8956   1.487   1.867   5.556
 2686SOL    HW1 8957   1.523   1.910   5.474
 2686SOL    HW2 8958   1.477   1.769   5.541
 2687SOL     OW 8959   4.130   4.745   2.839
 2687SOL    HW1 8960   4.125   4.838   2.802
 2687SOL    HW2 8961   4.098   4.747   2.934
 2688SOL     OW 8962   4.829   5.529   6.782
 2688SOL    HW1 8963   4.838   5.621   6.744
 2688SOL    HW2 8964   4.735   5.498   6.771
 2689SOL     OW 8965   2.263   1.884   3.106
 2689SOL    HW1 8966   2.213   1.911   3.024
 2689SOL    HW2 8967   2.307   1.795   3.091
 2690SOL     OW 8968   3.226   3.758   4.260
 2690SOL    HW1 8969   3.136   3.774   4.299
 2690SOL    HW2 8970   3.261   3.843   4.221
 2691SOL     OW 8971   1.071   5.568   2.002
 2691SOL    HW1 8972   1.127   5.624   2.062
 2691SOL    HW2 8973   1.093   5.471   2.015
 2692SOL     OW 8974   4.624   4.974   3.892
 2692SOL    HW1 8975   4.614   4.959   3.990
 2692SOL    HW2 8976   4.660   4.892   3.849
 2693SOL     OW 8977   1.954   4.155   2.814
 2693SOL    HW1 8978   1.874   4.097   2.831
 2693SOL    HW2 8979   2.035   4.113   2.854
 2694SOL     OW 8980   3.937   0.491   2.534
 2694SOL    HW1 8981   3.922   0.573   2.589
 2694SOL    HW2 8982   3.963   0.414   2.593
 2695SOL     OW 8983   5.588   1.441   2.750
 2695SOL    HW1 8984   5.522   1.457   2.676
 2695SOL    HW2 8985   5.652   1.370   2.722
 2696SOL     OW 8986   3.530   3.533   5.164
 2696SOL    HW1 8987   3.505   3.583   5.081
 2696SOL    HW2 8988   3.534   3.436   5.144
 2697SOL     OW 8989   3.934   1.516   3.191
 2697SOL    HW1 8990   3.960   1.464   3.109
 2697SOL    HW2 8991   3.853   1.474   3.232
 2698SOL     OW 8992   1.931   5.325   0.600
 2698SOL    HW1 8993   1.874   5.304   0.521
 2698SOL    HW2 8994   2.016   5.369   0.569
 2699SOL     OW 8995   3.293   5.856   0.393
 2699SOL    HW1 8996   3.269   5.886   0.301
 2699SOL    HW2 8997   3.224   5.889   0.458
 2700SOL     OW 8998   2.247   4.046   1.197
 2700SOL    HW1 8999   2.195   3.965   1.223
 2700SOL    HW2 9000   2.344   4.031   1.214
 2701SOL     OW 9001   2.909   0.495   6.474
 2701SOL    HW1 9002   3.002   0.469   6.499
 2701SOL    HW2 9003   2.858   0.414   6.446
 2702SOL     OW 9004   0.252   2.690   3.112
 2702SOL    HW1 9005   0.239   2.774   3.058
 2702SOL    HW2 9006   0.164   2.658   3.146
 2703SOL     OW 9007   2.277   0.898   2.426
 2703SOL    HW1 9008   2.295   0.944   2.512
 2703SOL    HW2 9009   2.179   0.900   2.407
 2704SOL     OW 9010   0.437   5.416   0.779
 2704SOL    HW1 9011   0.463   5.470   0.700
 2704SOL    HW2 9012   0.473   5.459   0.862
 2705SOL     OW 9013   1.602   5.664   4.696
 2705SOL    HW1 9014   1.689   5.663   4.746
 2705SOL    HW2 9015   1.581   5.757   4.667
 2706SOL     OW 9016   0.638   0.834   1.144
 2706SOL    HW1 9017   0.730   0.872   1.156
 2706SOL    HW2 9018   0.645   0.740   1.109
 2707SOL     OW 9019   1.992   0.370   5.418
 2707SOL    HW1 9020   2.061   0.437   5.391
 2707SOL    HW2 9021   2.009   0.284   5.369
 2708SOL     OW 9022   1.870   2.066   1.341
 2708SOL    HW1 9023   1.793   2.003   1.333
 2708SOL    HW2 9024   1.887   2.085   1.437
 2709SOL     OW 9025   5.328   6.922   0.719
 2709SOL    HW1 9026   5.316   7.005   0.774
 2709SOL    HW2 9027   5.351   6.846   0.780
 2710SOL     OW 9028   0.181   2.893   2.468
 2710SOL    HW1 9029   0.154   2.981   2.507
 2710SOL    HW2 9030   0.279   2.893   2.450
 2711SOL     OW 9031   2.795   1.202   3.273
 2711SOL    HW1 9032   2.820   1.220   3.368
 2711SOL    HW2 9033   2.762   1.286   3.231
 2712SOL     OW 9034   3.127   5.686   1.552
 2712SOL    HW1 9035   3.180   5.631   1.617
 2712SOL    HW2 9036   3.107   5.631   1.471
 2713SOL     OW 9037   1.649   1.792   4.963
 2713SOL    HW1 9038   1.736   1.835   4.989
 2713SOL    HW2 9039   1.598   1.769   5.046
 2714SOL     OW 9040   4.863   2.119   6.572
 2714SOL    HW1 9041   4.923   2.199   6.573
 2714SOL    HW2 9042   4.770   2.146   6.599
 2715SOL     OW 9043   5.526   0.815   0.364
 2715SOL    HW1 9044   5.591   0.783   0.295
 2715SOL    HW2 9045   5.549   0.776   0.453
 2716SOL     OW 9046   5.502   5.130   2.278
 2716SOL    HW1 9047   5.471   5.086   2.362
 2716SOL    HW2 9048   5.566   5.203   2.301
 2717SOL     OW 9049   0.789   4.995   1.507
 2717SOL    HW1 9050   0.883   4.987   1.472
 2717SOL    HW2 9051   0.764   4.910   1.553
 2718SOL     OW 9052   2.028   3.782   4.680
 2718SOL    HW1 9053   1.960   3.723   4.724
 2718SOL    HW2 9054   2.106   3.796   4.743
 2719SOL     OW 9055   5.925   5.169   1.760
 2719SOL    HW1 9056   5.880   5.258   1.769
 2719SOL    HW2 9057   5.925   5.122   1.848
 2720SOL     OW 9058   2.258   6.000   3.131
 2720SOL    HW1 9059   2.276   6.058   3.051
 2720SOL    HW2 9060   2.185   6.041   3.186
 2721SOL     OW 9061   3.329   0.216   4.162
 2721SOL    HW1 9062   3.255   0.169   4.210
 2721SOL    HW2 9063   3.291   0.272   4.088
 2722SOL     OW 9064   6.269   5.405   2.654
 2722SOL    HW1 9065   6.353   5.444   2.616
 2722SOL    HW2 9066   6.292   5.347   2.732
 2723SOL     OW 9067   1.094   6.904   5.794
 2723SOL    HW1 9068   1.175   6.913   5.735
 2723SOL    HW2 9069   1.035   6.831   5.758
 2724SOL     OW 9070   2.755   6.390   6.048
 2724SOL    HW1 9071   2.833   6.450   6.031
 2724SOL    HW2 9072   2.710   6.417   6.133
 2725SOL     OW 9073   6.185   4.965   3.538
 2725SOL    HW1 9074   6.196   5.046   3.480
 2725SOL    HW2 9075   6.265   4.953   3.596
 2726SOL     OW 9076   6.900   4.047   0.997
 2726SOL    HW1 9077   6.951   4.113   1.053
 2726SOL    HW2 9078   6.804   4.049   1.022
 2727SOL     OW 9079   0.406   4.547   2.706
 2727SOL    HW1 9080   0.449   4.638   2.699
 2727SOL    HW2 9081   0.364   4.537   2.796
 2728SOL     OW 9082   3.525   0.212   4.948
 2728SOL    HW1 9083   3.606   0.236   4.894
 2728SOL    HW2 9084   3.466   0.151   4.895
 2729SOL     OW 9085   5.991   5.984   1.486
 2729SOL    HW1 9086   6.067   6.012   1.427
 2729SOL    HW2 9087   5.914   6.047   1.474
 2730SOL     OW 9088   1.547   5.649   1.593
 2730SOL    HW1 9089   1.463   5.619   1.546
 2730SOL    HW2 9090   1.523   5.691   1.680
 2731SOL     OW 9091   4.150   3.589   1.639
 2731SOL    HW1 9092   4.105   3.539   1.713
 2731SOL    HW2 9093   4.089   3.594   1.560
 2732SOL     OW 9094   5.822   3.028   1.884
 2732SOL    HW1 9095   5.810   3.123   1.914
 2732SOL    HW2 9096   5.737   2.994   1.844
 2733SOL     OW 9097   0.260   0.111   5.549
 2733SOL    HW1 9098   0.268   0.103   5.450
 2733SOL    HW2 9099   0.343   0.075   5.593
 2734SOL     OW 9100   2.283   5.116   2.492
 2734SOL    HW1 9101   2.277   5.017   2.478
 2734SOL    HW2 9102   2.231   5.163   2.421
 2735SOL     OW 9103   0.717   3.821   2.666
 2735SOL    HW1 9104   0.691   3.820   2.763
 2735SOL    HW2 9105   0.743   3.914   2.640
 2736SOL     OW 9106   5.180   0.329   4.515
 2736SOL    HW1 9107   5.167   0.367   4.607
 2736SOL    HW2 9108   5.123   0.248   4.504
 2737SOL     OW 9109   3.241   3.301   5.831
 2737SOL    HW1 9110   3.162   3.320   5.773
 2737SOL    HW2 9111   3.321   3.349   5.794
 2738SOL     OW 9112   5.127   5.139   4.289
 2738SOL    HW1 9113   5.074   5.137   4.374
 2738SOL    HW2 9114   5.066   5.135   4.211
 2739SOL     OW 9115   5.817   5.364   0.223
 2739SOL    HW1 9116   5.775   5.294   0.280
 2739SOL    HW2 9117   5.758   5.382   0.144
 2740SOL     OW 9118   6.151   3.486   2.409
 2740SOL    HW1 9119   6.215   3.467   2.336
 2740SOL    HW2 9120   6.166   3.578   2.444
 2741SOL     OW 9121   6.888   0.725   6.347
 2741SOL    HW1 9122   6.836   0.808   6.325
 2741SOL    HW2 9123   6.831   0.645   6.326
 2742SOL     OW 9124   1.744   5.156   6.996
 2742SOL    HW1 9125   1.823   5.186   6.943
 2742SOL    HW2 9126   1.759   5.063   7.029
 2743SOL     OW 9127   6.574   5.547   1.872
 2743SOL    HW1 9128   6.581   5.454   1.837
 2743SOL    HW2 9129   6.482   5.563   1.907
 2744SOL     OW 9130   4.464   1.914   6.749
 2744SOL    HW1 9131   4.477   2.011   6.725
 2744SOL    HW2 9132   4.440   1.907   6.846
 2745SOL     OW 9133   1.405   6.781   6.779
 2745SOL    HW1 9134   1.495   6.781   6.822
 2745SOL    HW2 9135   1.339   6.738   6.840
 2746SOL     OW 9136   2.423   1.915   4.636
 2746SOL    HW1 9137   2.512   1.940   4.597
 2746SOL    HW2 9138   2.350   1.946   4.575
 2747SOL     OW 9139   5.718   3.408   5.350
 2747SOL    HW1 9140   5.624   3.431   5.326
 2747SOL    HW2 9141   5.732   3.422   5.449
 2748SOL     OW 9142   3.968   1.630   1.205
 2748SOL    HW1 9143   4.044   1.662   1.149
 2748SOL    HW2 9144   3.910   1.708   1.231
 2749SOL     OW 9145   5.960   4.761   3.940
 2749SOL    HW1 9146   5.870   4.761   3.897
 2749SOL    HW2 9147   5.954   4.805   4.030
 2750SOL     OW 9148   0.434   5.295   1.969
 2750SOL    HW1 9149   0.503   5.250   2.025
 2750SOL    HW2 9150   0.346   5.250   1.982
 2751SOL     OW 9151   1.361   6.722   0.540
 2751SOL    HW1 9152   1.264   6.702   0.527
 2751SOL    HW2 9153   1.414   6.639   0.525
 2752SOL     OW 9154   5.336   5.246   5.297
 2752SOL    HW1 9155   5.272   5.245   5.374
 2752SOL    HW2 9156   5.385   5.159   5.293
 2753SOL     OW 9157   1.837   0.338   6.660
 2753SOL    HW1 9158   1.779   0.342   6.579
 2753SOL    HW2 9159   1.827   0.423   6.712
 2754SOL     OW 9160   6.468   0.573   4.390
 2754SOL    HW1 9161   6.519   0.574   4.476
 2754SOL    HW2 9162   6.527   0.608   4.317
 2755SOL     OW 9163   3.339   6.724   2.865
 2755SOL    HW1 9164   3.253   6.681   2.891
 2755SOL    HW2 9165   3.395   6.659   2.813
 2756SOL     OW 9166   6.264   3.871   4.944
 2756SOL    HW1 9167   6.238   3.778   4.968
 2756SOL    HW2 9168   6.355   3.871   4.902
 2757SOL     OW 9169   2.626   1.438   6.536
 2757SOL    HW1 9170   2.560   1.430   6.611
 2757SOL    HW2 9171   2.657   1.347   6.510
 2758SOL     OW 9172   5.185   6.140   3.608
 2758SOL    HW1 9173   5.122   6.115   3.682
 2758SOL    HW2 9174   5.209   6.237   3.617
 2759SOL     OW 9175   3.879   5.602   5.115
 2759SOL    HW1 9176   3.887   5.545   5.033
 2759SOL    HW2 9177   3.891   5.546   5.197
 2760SOL     OW 9178   7.006   5.152   2.819
 2760SOL    HW1 9179   0.067   5.142   2.859
 2760SOL    HW2 9180   6.946   5.200   2.883
 2761SOL     OW 9181   1.413   4.564   3.814
 2761SOL    HW1 9182   1.458   4.616   3.741
 2761SOL    HW2 9183   1.468   4.571   3.897
 2762SOL     OW 9184   1.795   1.714   6.858
 2762SOL    HW1 9185   1.736   1.783   6.901
 2762SOL    HW2 9186   1.755   1.684   6.772
 2763SOL     OW 9187   4.978   2.222   5.344
 2763SOL    HW1 9188   4.961   2.313   5.381
 2763SOL    HW2 9189   4.909   2.201   5.275
 2764SOL     OW 9190   0.406   6.108   2.483
 2764SOL    HW1 9191   0.502   6.097   2.509
 2764SOL    HW2 9192   0.354   6.142   2.561
 2765SOL     OW 9193   6.816   7.029   0.446
 2765SOL    HW1 9194   6.787   0.078   0.391
 2765SOL    HW2 9195   6.735   6.983   0.482
 2766SOL     OW 9196   3.752   1.463   6.583
 2766SOL    HW1 9197   3.822   1.446   6.514
 2766SOL    HW2 9198   3.668   1.416   6.557
 2767SOL     OW 9199   6.110   5.769   6.452
 2767SOL    HW1 9200   6.082   5.840   6.386
 2767SOL    HW2 9201   6.036   5.703   6.462
 2768SOL     OW 9202   4.794   1.318   7.002
 2768SOL    HW1 9203   4.849   1.304   0.055
 2768SOL    HW2 9204   4.820   1.405   6.959
 2769SOL     OW 9205   2.346   4.901   6.972
 2769SOL    HW1 9206   2.372   4.981   6.918
 2769SOL    HW2 9207   2.373   4.818   6.925
 2770SOL     OW 9208   3.988   5.754   6.040
 2770SOL    HW1 9209   3.989   5.775   6.137
 2770SOL    HW2 9210   3.895   5.764   6.004
 2771SOL     OW 9211   5.974   0.614   4.697
 2771SOL    HW1 9212   6.004   0.707   4.720
 2771SOL    HW2 9213   5.975   0.604   4.597
 2772SOL     OW 9214   3.075   1.653   1.653
 2772SOL    HW1 9215   3.120   1.649   1.564
 2772SOL    HW2 9216   3.113   1.728   1.707
 2773SOL     OW 9217   6.906   2.793   4.009
 2773SOL    HW1 9218   6.933   2.761   3.919
 2773SOL    HW2 9219   6.809   2.772   4.024
 2774SOL     OW 9220   5.347   3.058   2.516
 2774SOL    HW1 9221   5.437   3.017   2.503
 2774SOL    HW2 9222   5.278   3.000   2.473
 2775SOL     OW 9223   6.160   3.353   4.136
 2775SOL    HW1 9224   6.226   3.417   4.097
 2775SOL    HW2 9225   6.070   3.368   4.094
 2776SOL     OW 9226   5.589   4.264   5.270
 2776SOL    HW1 9227   5.533   4.329   5.218
 2776SOL    HW2 9228   5.533   4.218   5.338
 2777SOL     OW 9229   2.320   1.576   0.214
 2777SOL    HW1 9230   2.236   1.609   0.171
 2777SOL    HW2 9231   2.379   1.533   0.146
 2778SOL     OW 9232   1.761   5.962   6.309
 2778SOL    HW1 9233   1.803   5.872   6.326
 2778SOL    HW2 9234   1.745   5.973   6.211
 2779SOL     OW 9235   5.181   6.620   2.068
 2779SOL    HW1 9236   5.101   6.640   2.124
 2779SOL    HW2 9237   5.180   6.678   1.986
 2780SOL     OW 9238   6.695   6.914   5.631
 2780SOL    HW1 9239   6.753   6.833   5.625
 2780SOL    HW2 9240   6.748   6.992   5.664
 2781SOL     OW 9241   5.632   0.116   3.394
 2781SOL    HW1 9242   5.554   0.140   3.337
 2781SOL    HW2 9243   5.671   0.029   3.364
 2782SOL     OW 9244   4.656   1.361   5.465
 2782SOL    HW1 9245   4.650   1.431   5.536
 2782SOL    HW2 9246   4.668   1.406   5.376
 2783SOL     OW 9247   6.609   3.779   1.287
 2783SOL    HW1 9248   6.662   3.863   1.277
 2783SOL    HW2 9249   6.539   3.792   1.357
 2784SOL     OW 9250   3.286   1.455   2.047
 2784SOL    HW1 9251   3.271   1.356   2.036
 2784SOL    HW2 9252   3.255   1.483   2.137
 2785SOL     OW 9253   5.645   2.448   0.893
 2785SOL    HW1 9254   5.669   2.410   0.803
 2785SOL    HW2 9255   5.699   2.402   0.963
 2786SOL     OW 9256   6.708   6.311   1.547
 2786SOL    HW1 9257   6.727   6.223   1.503
 2786SOL    HW2 9258   6.781   6.332   1.613
 2787SOL     OW 9259   6.611   5.760   5.418
 2787SOL    HW1 9260   6.688   5.821   5.399
 2787SOL    HW2 9261   6.553   5.753   5.337
 2788SOL     OW 9262   2.847   6.308   6.331
 2788SOL    HW1 9263   2.878   6.252   6.254
 2788SOL    HW2 9264   2.755   6.343   6.311
 2789SOL     OW 9265   2.190   1.697   3.593
 2789SOL    HW1 9266   2.159   1.612   3.636
 2789SOL    HW2 9267   2.246   1.749   3.657
 2790SOL     OW 9268   3.019   5.469   0.871
 2790SOL    HW1 9269   3.035   5.383   0.823
 2790SOL    HW2 9270   3.033   5.456   0.969
 2791SOL     OW 9271   0.417   4.293   2.323
 2791SOL    HW1 9272   0.347   4.361   2.301
 2791SOL    HW2 9273   0.456   4.257   2.239
 2792SOL     OW 9274   2.934   1.173   4.735
 2792SOL    HW1 9275   2.887   1.128   4.660
 2792SOL    HW2 9276   3.004   1.235   4.699
 2793SOL     OW 9277   5.395   3.695   2.064
 2793SOL    HW1 9278   5.445   3.617   2.029
 2793SOL    HW2 9279   5.458   3.760   2.105
 2794SOL     OW 9280   6.672   2.051   6.261
 2794SOL    HW1 9281   6.585   2.088   6.228
 2794SOL    HW2 9282   6.656   1.994   6.342
 2795SOL     OW 9283   0.126   4.731   1.182
 2795SOL    HW1 9284   0.103   4.750   1.086
 2795SOL    HW2 9285   0.096   4.808   1.238
 2796SOL     OW 9286   0.610   5.703   4.192
 2796SOL    HW1 9287   0.550   5.748   4.126
 2796SOL    HW2 9288   0.584   5.607   4.201
 2797SOL     OW 9289   5.502   5.524   5.558
 2797SOL    HW1 9290   5.505   5.484   5.649
 2797SOL    HW2 9291   5.566   5.476   5.498
 2798SOL     OW 9292   5.876   5.965   2.593
 2798SOL    HW1 9293   5.959   6.021   2.599
 2798SOL    HW2 9294   5.796   6.025   2.599
 2799SOL     OW 9295   5.152   6.334   5.911
 2799SOL    HW1 9296   5.071   6.360   5.859
 2799SOL    HW2 9297   5.141   6.361   6.006
 2800SOL     OW 9298   6.021   0.553   6.385
 2800SOL    HW1 9299   5.990   0.584   6.295
 2800SOL    HW2 9300   5.946   0.559   6.450
 2801SOL     OW 9301   1.465   5.360   6.181
 2801SOL    HW1 9302   1.373   5.372   6.144
 2801SOL    HW2 9303   1.463   5.374   6.280
 2802SOL     OW 9304   6.679   6.455   5.680
 2802SOL    HW1 9305   6.756   6.429   5.738
 2802SOL    HW2 9306   6.622   6.374   5.662
 2803SOL     OW 9307   3.377   4.416   5.850
 2803SOL    HW1 9308   3.281   4.405   5.823
 2803SOL    HW2 9309   3.420   4.486   5.793
 2804SOL     OW 9310   0.266   4.007   4.788
 2804SOL    HW1 9311   0.359   4.003   4.753
 2804SOL    HW2 9312   0.207   4.053   4.721
 2805SOL     OW 9313   5.945   4.010   2.705
 2805SOL    HW1 9314   5.956   4.019   2.606
 2805SOL    HW2 9315   5.849   3.993   2.727
 2806SOL     OW 9316   1.454   4.714   6.560
 2806SOL    HW1 9317   1.517   4.735   6.634
 2806SOL    HW2 9318   1.501   4.662   6.489
 2807SOL     OW 9319   4.080   0.637   3.059
 2807SOL    HW1 9320   4.004   0.698   3.041
 2807SOL    HW2 9321   4.153   0.687   3.106
 2808SOL     OW 9322   6.327   5.776   0.934
 2808SOL    HW1 9323   6.340   5.860   0.987
 2808SOL    HW2 9324   6.413   5.753   0.888
 2809SOL     OW 9325   5.810   2.491   1.519
 2809SOL    HW1 9326   5.785   2.587   1.528
 2809SOL    HW2 9327   5.795   2.461   1.425
 2810SOL     OW 9328   2.116   5.388   2.631
 2810SOL    HW1 9329   2.020   5.414   2.620
 2810SOL    HW2 9330   2.146   5.413   2.723
 2811SOL     OW 9331   1.053   1.664   2.577
 2811SOL    HW1 9332   1.101   1.601   2.638
 2811SOL    HW2 9333   0.961   1.679   2.612
 2812SOL     OW 9334   6.174   3.536   0.742
 2812SOL    HW1 9335   6.252   3.473   0.741
 2812SOL    HW2 9336   6.104   3.500   0.805
 2813SOL     OW 9337   0.774   1.511   0.526
 2813SOL    HW1 9338   0.806   1.602   0.552
 2813SOL    HW2 9339   0.849   1.445   0.536
 2814SOL     OW 9340   3.002   4.313   5.609
 2814SOL    HW1 9341   2.918   4.346   5.566
 2814SOL    HW2 9342   3.059   4.391   5.635
 2815SOL     OW 9343   0.146   5.256   5.811
 2815SOL    HW1 9344   0.204   5.197   5.868
 2815SOL    HW2 9345   0.176   5.351   5.821
 2816SOL     OW 9346   6.470   5.395   4.564
 2816SOL    HW1 9347   6.393   5.366   4.621
 2816SOL    HW2 9348   6.502   5.317   4.510
 2817SOL     OW 9349   3.692   1.474   2.690
 2817SOL    HW1 9350   3.662   1.535   2.764
 2817SOL    HW2 9351   3.689   1.523   2.603
 2818SOL     OW 9352   6.808   1.345   2.172
 2818SOL    HW1 9353   6.769   1.307   2.255
 2818SOL    HW2 9354   6.738   1.349   2.100
 2819SOL     OW 9355   1.595   6.974   1.244
 2819SOL    HW1 9356   1.585   6.983   1.343
 2819SOL    HW2 9357   1.685   6.936   1.223
 2820SOL     OW 9358   0.945   2.115   2.223
 2820SOL    HW1 9359   0.903   2.048   2.284
 2820SOL    HW2 9360   0.874   2.173   2.183
 2821SOL     OW 9361   2.783   5.254   5.952
 2821SOL    HW1 9362   2.774   5.219   6.046
 2821SOL    HW2 9363   2.870   5.302   5.943
 2822SOL     OW 9364   4.669   2.629   7.024
 2822SOL    HW1 9365   4.624   2.714   0.021
 2822SOL    HW2 9366   4.600   2.559   7.005
 2823SOL     OW 9367   6.008   0.784   6.940
 2823SOL    HW1 9368   5.951   0.865   6.929
 2823SOL    HW2 9369   6.103   0.811   6.954
 2824SOL     OW 9370   1.381   3.134   5.640
 2824SOL    HW1 9371   1.346   3.138   5.546
 2824SOL    HW2 9372   1.450   3.062   5.647
 2825SOL     OW 9373   5.418   0.617   6.314
 2825SOL    HW1 9374   5.419   0.705   6.268
 2825SOL    HW2 9375   5.510   0.577   6.312
 2826SOL     OW 9376   2.550   3.382   6.476
 2826SOL    HW1 9377   2.537   3.426   6.565
 2826SOL    HW2 9378   2.492   3.427   6.408
 2827SOL     OW 9379   0.483   0.763   7.002
 2827SOL    HW1 9380   0.463   0.853   0.011
 2827SOL    HW2 9381   0.575   0.764   6.961
 2828SOL     OW 9382   1.755   3.473   1.337
 2828SOL    HW1 9383   1.816   3.400   1.369
 2828SOL    HW2 9384   1.664   3.434   1.320
 2829SOL     OW 9385   3.047   3.207   3.375
 2829SOL    HW1 9386   2.971   3.252   3.329
 2829SOL    HW2 9387   3.033   3.209   3.474
 2830SOL     OW 9388   3.514   4.117   5.423
 2830SOL    HW1 9389   3.540   4.214   5.419
 2830SOL    HW2 9390   3.420   4.107   5.391
 2831SOL     OW 9391   0.267   2.516   2.684
 2831SOL    HW1 9392   0.342   2.552   2.739
 2831SOL    HW2 9393   0.294   2.427   2.647
 2832SOL     OW 9394   0.448   3.542   1.554
 2832SOL    HW1 9395   0.445   3.445   1.579
 2832SOL    HW2 9396   0.519   3.555   1.484
 2833SOL     OW 9397   2.224   1.475   1.550
 2833SOL    HW1 9398   2.289   1.545   1.578
 2833SOL    HW2 9399   2.175   1.440   1.630
 2834SOL     OW 9400   4.978   6.432   4.595
 2834SOL    HW1 9401   4.935   6.474   4.515
 2834SOL    HW2 9402   4.929   6.348   4.620
 2835SOL     OW 9403   0.723   6.437   0.710
 2835SOL    HW1 9404   0.700   6.528   0.677
 2835SOL    HW2 9405   0.725   6.373   0.633
 2836SOL     OW 9406   2.360   6.184   2.242
 2836SOL    HW1 9407   2.386   6.098   2.198
 2836SOL    HW2 9408   2.289   6.229   2.189
 2837SOL     OW 9409   5.579   4.497   2.629
 2837SOL    HW1 9410   5.626   4.414   2.658
 2837SOL    HW2 9411   5.615   4.575   2.679
 2838SOL     OW 9412   4.856   3.967   0.523
 2838SOL    HW1 9413   4.929   3.899   0.525
 2838SOL    HW2 9414   4.841   3.997   0.429
 2839SOL     OW 9415   0.351   2.631   2.283
 2839SOL    HW1 9416   0.395   2.710   2.325
 2839SOL    HW2 9417   0.260   2.657   2.250
 2840SOL     OW 9418   1.345   5.838   2.783
 2840SOL    HW1 9419   1.315   5.873   2.872
 2840SOL    HW2 9420   1.412   5.765   2.798
 2841SOL     OW 9421   6.450   2.251   6.898
 2841SOL    HW1 9422   6.546   2.239   6.924
 2841SOL    HW2 9423   6.403   2.163   6.903
 2842SOL     OW 9424   1.267   6.119   4.699
 2842SOL    HW1 9425   1.252   6.082   4.791
 2842SOL    HW2 9426   1.180   6.125   4.651
 2843SOL     OW 9427   2.765   2.057   2.704
 2843SOL    HW1 9428   2.845   2.005   2.736
 2843SOL    HW2 9429   2.695   2.057   2.775
 2844SOL     OW 9430   5.560   4.783   1.413
 2844SOL    HW1 9431   5.632   4.840   1.372
 2844SOL    HW2 9432   5.598   4.732   1.490
 2845SOL     OW 9433   5.298   3.129   2.800
 2845SOL    HW1 9434   5.289   3.036   2.835
 2845SOL    HW2 9435   5.309   3.126   2.700
 2846SOL     OW 9436   3.177   1.293   0.430
 2846SOL    HW1 9437   3.198   1.201   0.397
 2846SOL    HW2 9438   3.257   1.330   0.478
 2847SOL     OW 9439   4.925   3.874   2.458
 2847SOL    HW1 9440   4.930   3.881   2.358
 2847SOL    HW2 9441   5.016   3.889   2.497
 2848SOL     OW 9442   2.085   2.435   5.304
 2848SOL    HW1 9443   2.035   2.390   5.230
 2848SOL    HW2 9444   2.126   2.520   5.269
 2849SOL     OW 9445   3.998   1.301   1.431
 2849SOL    HW1 9446   4.000   1.400   1.446
 2849SOL    HW2 9447   4.007   1.254   1.520
 2850SOL     OW 9448   2.346   6.725   3.449
 2850SOL    HW1 9449   2.416   6.729   3.378
 2850SOL    HW2 9450   2.318   6.817   3.475
 2851SOL     OW 9451   4.093   3.537   6.927
 2851SOL    HW1 9452   4.178   3.586   6.945
 2851SOL    HW2 9453   4.082   3.523   6.829
 2852SOL     OW 9454   6.053   4.601   0.001
 2852SOL    HW1 9455   5.975   4.545   7.002
 2852SOL    HW2 9456   6.077   4.665   6.958
 2853SOL     OW 9457   0.767   3.313   0.726
 2853SOL    HW1 9458   0.796   3.281   0.817
 2853SOL    HW2 9459   0.677   3.273   0.705
 2854SOL     OW 9460   3.059   0.638   6.114
 2854SOL    HW1 9461   3.157   0.655   6.120
 2854SOL    HW2 9462   3.017   0.711   6.059
 2855SOL     OW 9463   1.106   2.891   4.769
 2855SOL    HW1 9464   1.086   2.959   4.839
 2855SOL    HW2 9465   1.041   2.901   4.693
 2856SOL     OW 9466   1.506   2.797   3.689
 2856SOL    HW1 9467   1.587   2.802   3.630
 2856SOL    HW2 9468   1.459   2.885   3.690
 2857SOL     OW 9469   0.295   2.912   0.878
 2857SOL    HW1 9470   0.217   2.858   0.910
 2857SOL    HW2 9471   0.375   2.853   0.869
 2858SOL     OW 9472   5.133   6.381   2.376
 2858SOL    HW1 9473   5.166   6.319   2.448
 2858SOL    HW2 9474   5.128   6.331   2.289
 2859SOL     OW 9475   5.228   6.423   0.610
 2859SOL    HW1 9476   5.233   6.324   0.625
 2859SOL    HW2 9477   5.142   6.445   0.565
 2860SOL     OW 9478   1.641   6.600   2.029
 2860SOL    HW1 9479   1.544   6.596   2.007
 2860SOL    HW2 9480   1.680   6.508   2.026
 2861SOL     OW 9481   3.151   5.885   5.403
 2861SOL    HW1 9482   3.195   5.953   5.462
 2861SOL    HW2 9483   3.164   5.794   5.442
 2862SOL     OW 9484   4.789   2.606   2.124
 2862SOL    HW1 9485   4.823   2.694   2.155
 2862SOL    HW2 9486   4.750   2.556   2.201
 2863SOL     OW 9487   5.153   1.404   6.913
 2863SOL    HW1 9488   5.110   1.431   6.827
 2863SOL    HW2 9489   5.084   1.403   6.985
 2864SOL     OW 9490   4.675   2.910   0.806
 2864SOL    HW1 9491   4.650   2.930   0.900
 2864SOL    HW2 9492   4.617   2.963   0.744
 2865SOL     OW 9493   4.365   0.014   3.969
 2865SOL    HW1 9494   4.369   6.978   4.045
 2865SOL    HW2 9495   4.296   7.013   3.903
 2866SOL     OW 9496   5.561   4.020   0.280
 2866SOL    HW1 9497   5.602   4.110   0.295
 2866SOL    HW2 9498   5.497   4.024   0.203
 2867SOL     OW 9499   6.306   6.320   2.933
 2867SOL    HW1 9500   6.364   6.243   2.909
 2867SOL    HW2 9501   6.291   6.377   2.852
 2868SOL     OW 9502   0.850   1.438   5.258
 2868SOL    HW1 9503   0.880   1.524   5.217
 2868SOL    HW2 9504   0.816   1.377   5.186
 2869SOL     OW 9505   6.344   0.611   3.908
 2869SOL    HW1 9506   6.413   0.546   3.876
 2869SOL    HW2 9507   6.271   0.619   3.840
 2870SOL     OW 9508   0.588   1.782   6.815
 2870SOL    HW1 9509   0.661   1.765   6.749
 2870SOL    HW2 9510   0.611   1.863   6.869
 2871SOL     OW 9511   6.384   0.502   6.889
 2871SOL    HW1 9512   6.391   0.593   6.850
 2871SOL    HW2 9513   6.347   0.508   6.982
 2872SOL     OW 9514   3.187   1.658   0.955
 2872SOL    HW1 9515   3.248   1.638   0.878
 2872SOL    HW2 9516   3.113   1.592   0.957
 2873SOL     OW 9517   6.704   6.122   1.750
 2873SOL    HW1 9518   6.671   6.039   1.795
 2873SOL    HW2 9519   6.708   6.107   1.651
 2874SOL     OW 9520   4.378   6.875   2.994
 2874SOL    HW1 9521   4.468   6.839   2.968
 2874SOL    HW2 9522   4.370   6.970   2.965
 2875SOL     OW 9523   3.769   0.043   2.654
 2875SOL    HW1 9524   3.740   0.133   2.687
 2875SOL    HW2 9525   3.766   7.007   2.729
 2876SOL     OW 9526   1.403   6.431   2.513
 2876SOL    HW1 9527   1.472   6.427   2.441
 2876SOL    HW2 9528   1.318   6.470   2.477
 2877SOL     OW 9529   2.097   0.685   6.742
 2877SOL    HW1 9530   2.150   0.664   6.824
 2877SOL    HW2 9531   2.152   0.668   6.661
 2878SOL     OW 9532   2.824   3.878   5.145
 2878SOL    HW1 9533   2.740   3.928   5.169
 2878SOL    HW2 9534   2.818   3.785   5.181
 2879SOL     OW 9535   4.327   5.395   5.674
 2879SOL    HW1 9536   4.347   5.350   5.588
 2879SOL    HW2 9537   4.246   5.453   5.664
 2880SOL     OW 9538   0.180   1.660   3.773
 2880SOL    HW1 9539   0.141   1.610   3.850
 2880SOL    HW2 9540   0.232   1.597   3.715
 2881SOL     OW 9541   3.576   5.975   7.028
 2881SOL    HW1 9542   3.552   5.968   6.932
 2881SOL    HW2 9543   3.665   5.932   0.014
 2882SOL     OW 9544   6.204   5.854   1.314
 2882SOL    HW1 9545   6.180   5.757   1.313
 2882SOL    HW2 9546   6.300   5.865   1.338
 2883SOL     OW 9547   5.941   6.501   3.446
 2883SOL    HW1 9548   5.952   6.582   3.504
 2883SOL    HW2 9549   5.930   6.420   3.504
 2884SOL     OW 9550   6.958   5.827   2.033
 2884SOL    HW1 9551   6.908   5.788   1.956
 2884SOL    HW2 9552   6.902   5.897   2.078
 2885SOL     OW 9553   1.081   2.343   4.333
 2885SOL    HW1 9554   1.129   2.401   4.267
 2885SOL    HW2 9555   1.047   2.400   4.409
 2886SOL     OW 9556   2.014   4.579   6.697
 2886SOL    HW1 9557   2.030   4.568   6.795
 2886SOL    HW2 9558   2.012   4.489   6.653
 2887SOL     OW 9559   6.806   6.117   4.498
 2887SOL    HW1 9560   6.852   6.162   4.575
 2887SOL    HW2 9561   6.853   6.032   4.476
 2888SOL     OW 9562   0.133   5.199   0.310
 2888SOL    HW1 9563   0.093   5.206   0.219
 2888SOL    HW2 9564   0.111   5.282   0.362
 2889SOL     OW 9565   2.770   6.563   2.854
 2889SOL    HW1 9566   2.833   6.498   2.895
 2889SOL    HW2 9567   2.821   6.629   2.799
 2890SOL     OW 9568   1.889   5.131   0.824
 2890SOL    HW1 9569   1.923   5.205   0.767
 2890SOL    HW2 9570   1.944   5.126   0.908
 2891SOL     OW 9571   1.495   3.500   3.370
 2891SOL    HW1 9572   1.433   3.524   3.295
 2891SOL    HW2 9573   1.443   3.454   3.442
 2892SOL     OW 9574   6.071   2.869   1.007
 2892SOL    HW1 9575   6.054   2.933   1.083
 2892SOL    HW2 9576   6.164   2.881   0.974
 2893SOL     OW 9577   1.885   5.474   4.785
 2893SOL    HW1 9578   1.826   5.492   4.864
 2893SOL    HW2 9579   1.928   5.559   4.756
 2894SOL     OW 9580   1.861   3.946   1.466
 2894SOL    HW1 9581   1.794   3.872   1.462
 2894SOL    HW2 9582   1.828   4.024   1.411
 2895SOL     OW 9583   4.087   0.456   6.463
 2895SOL    HW1 9584   4.089   0.551   6.432
 2895SOL    HW2 9585   4.113   0.396   6.387
 2896SOL     OW 9586   5.262   0.173   5.884
 2896SOL    HW1 9587   5.187   0.129   5.935
 2896SOL    HW2 9588   5.311   0.103   5.831
 2897SOL     OW 9589   4.193   5.097   2.865
 2897SOL    HW1 9590   4.236   5.108   2.955
 2897SOL    HW2 9591   4.097   5.124   2.871
 2898SOL     OW 9592   5.309   4.138   4.096
 2898SOL    HW1 9593   5.337   4.042   4.105
 2898SOL    HW2 9594   5.389   4.194   4.073
 2899SOL     OW 9595   6.540   1.815   0.787
 2899SOL    HW1 9596   6.600   1.759   0.844
 2899SOL    HW2 9597   6.583   1.904   0.772
 2900SOL     OW 9598   4.341   4.695   6.494
 2900SOL    HW1 9599   4.261   4.750   6.520
 2900SOL    HW2 9600   4.376   4.728   6.407
 2901SOL     OW 9601   1.912   4.923   3.417
 2901SOL    HW1 9602   1.865   4.918   3.329
 2901SOL    HW2 9603   1.846   4.916   3.491
 2902SOL     OW 9604   6.853   5.239   3.463
 2902SOL    HW1 9605   6.826   5.317   3.406
 2902SOL    HW2 9606   6.781   5.221   3.531
 2903SOL     OW 9607   4.164   6.335   0.934
 2903SOL    HW1 9608   4.263   6.341   0.916
 2903SOL    HW2 9609   4.142   6.394   1.012
 2904SOL     OW 9610   3.174   5.172   4.968
 2904SOL    HW1 9611   3.079   5.141   4.960
 2904SOL    HW2 9612   3.196   5.233   4.891
 2905SOL     OW 9613   1.473   4.265   3.825
 2905SOL    HW1 9614   1.517   4.354   3.817
 2905SOL    HW2 9615   1.386   4.267   3.776
 2906SOL     OW 9616   5.471   5.828   2.673
 2906SOL    HW1 9617   5.520   5.842   2.759
 2906SOL    HW2 9618   5.406   5.753   2.684
 2907SOL     OW 9619   0.855   1.601   4.083
 2907SOL    HW1 9620   0.821   1.521   4.034
 2907SOL    HW2 9621   0.926   1.646   4.027
 2908SOL     OW 9622   5.377   6.475   3.723
 2908SOL    HW1 9623   5.297   6.488   3.665
 2908SOL    HW2 9624   5.352   6.420   3.803
 2909SOL     OW 9625   1.915   6.939   3.270
 2909SOL    HW1 9626   1.815   6.940   3.270
 2909SOL    HW2 9627   1.947   6.867   3.331
 2910SOL     OW 9628   6.701   0.813   3.631
 2910SOL    HW1 9629   6.645   0.894   3.615
 2910SOL    HW2 9630   6.783   0.817   3.574
 2911SOL     OW 9631   1.458   5.056   3.696
 2911SOL    HW1 9632   1.460   5.119   3.773
 2911SOL    HW2 9633   1.406   5.096   3.620
 2912SOL     OW 9634   6.883   6.138   6.564
 2912SOL    HW1 9635   6.874   6.227   6.520
 2912SOL    HW2 9636   6.905   6.069   6.496
 2913SOL     OW 9637   3.384   4.995   2.392
 2913SOL    HW1 9638   3.377   4.926   2.465
 2913SOL    HW2 9639   3.450   4.964   2.323
 2914SOL     OW 9640   5.650   5.766   1.153
 2914SOL    HW1 9641   5.680   5.671   1.165
 2914SOL    HW2 9642   5.629   5.782   1.056
 2915SOL     OW 9643   3.435   1.875   3.937
 2915SOL    HW1 9644   3.342   1.850   3.965
 2915SOL    HW2 9645   3.464   1.817   3.862
 2916SOL     OW 9646   1.541   5.305   0.342
 2916SOL    HW1 9647   1.540   5.298   0.242
 2916SOL    HW2 9648   1.556   5.400   0.368
 2917SOL     OW 9649   3.167   0.558   4.174
 2917SOL    HW1 9650   3.249   0.536   4.226
 2917SOL    HW2 9651   3.161   0.497   4.095
 2918SOL     OW 9652   5.877   3.624   6.698
 2918SOL    HW1 9653   5.851   3.573   6.616
 2918SOL    HW2 9654   5.823   3.708   6.704
 2919SOL     OW 9655   6.008   0.321   3.416
 2919SOL    HW1 9656   5.926   0.308   3.471
 2919SOL    HW2 9657   6.054   0.233   3.402
 2920SOL     OW 9658   3.488   6.973   1.691
 2920SOL    HW1 9659   3.522   7.027   1.615
 2920SOL    HW2 9660   3.444   0.003   1.758
 2921SOL     OW 9661   0.702   6.843   5.810
 2921SOL    HW1 9662   0.689   6.768   5.875
 2921SOL    HW2 9663   0.770   6.817   5.742
 2922SOL     OW 9664   3.927   6.453   1.607
 2922SOL    HW1 9665   3.993   6.528   1.599
 2922SOL    HW2 9666   3.886   6.454   1.698
 2923SOL     OW 9667   6.493   5.197   4.823
 2923SOL    HW1 9668   6.531   5.129   4.886
 2923SOL    HW2 9669   6.553   5.277   4.822
 2924SOL     OW 9670   0.400   1.903   4.699
 2924SOL    HW1 9671   0.499   1.910   4.692
 2924SOL    HW2 9672   0.359   1.926   4.611
 2925SOL     OW 9673   5.765   1.688   0.233
 2925SOL    HW1 9674   5.742   1.706   0.137
 2925SOL    HW2 9675   5.815   1.602   0.240
 2926SOL     OW 9676   6.406   2.135   6.191
 2926SOL    HW1 9677   6.347   2.170   6.265
 2926SOL    HW2 9678   6.391   2.190   6.109
 2927SOL     OW 9679   1.367   3.089   0.734
 2927SOL    HW1 9680   1.363   3.188   0.718
 2927SOL    HW2 9681   1.277   3.049   0.722
 2928SOL     OW 9682   6.346   1.176   6.948
 2928SOL    HW1 9683   6.298   1.261   6.928
 2928SOL    HW2 9684   6.401   1.149   6.869
 2929SOL     OW 9685   1.627   2.506   4.972
 2929SOL    HW1 9686   1.620   2.406   4.968
 2929SOL    HW2 9687   1.722   2.534   4.958
 2930SOL     OW 9688   5.346   6.364   5.271
 2930SOL    HW1 9689   5.395   6.438   5.318
 2930SOL    HW2 9690   5.333   6.388   5.175
 2931SOL     OW 9691   4.775   4.929   6.704
 2931SOL    HW1 9692   4.818   5.000   6.759
 2931SOL    HW2 9693   4.682   4.913   6.735
 2932SOL     OW 9694   6.943   5.797   1.170
 2932SOL    HW1 9695   6.843   5.803   1.181
 2932SOL    HW2 9696   6.987   5.858   1.236
 2933SOL     OW 9697   0.541   6.810   2.054
 2933SOL    HW1 9698   0.548   6.805   1.955
 2933SOL    HW2 9699   0.459   6.862   2.079
 2934SOL     OW 9700   5.158   2.821   1.241
 2934SOL    HW1 9701   5.184   2.880   1.318
 2934SOL    HW2 9702   5.059   2.817   1.234
 2935SOL     OW 9703   0.247   2.708   6.329
 2935SOL    HW1 9704   0.248   2.778   6.401
 2935SOL    HW2 9705   0.187   2.633   6.357
 2936SOL     OW 9706   4.024   6.375   0.708
 2936SOL    HW1 9707   4.075   6.363   0.794
 2936SOL    HW2 9708   3.948   6.310   0.704
 2937SOL     OW 9709   4.805   5.291   0.816
 2937SOL    HW1 9710   4.797   5.246   0.726
 2937SOL    HW2 9711   4.885   5.255   0.864
 2938SOL     OW 9712   6.709   5.505   0.087
 2938SOL    HW1 9713   6.807   5.493   0.102
 2938SOL    HW2 9714   6.688   5.603   0.082
 2939SOL     OW 9715   1.636   0.422   1.553
 2939SOL    HW1 9716   1.558   0.471   1.593
 2939SOL    HW2 9717   1.627   0.421   1.453
 2940SOL     OW 9718   6.487   5.566   4.862
 2940SOL    HW1 9719   6.429   5.533   4.936
 2940SOL    HW2 9720   6.437   5.632   4.806
 2941SOL     OW 9721   2.511   2.039   3.039
 2941SOL    HW1 9722   2.438   2.057   3.106
 2941SOL    HW2 9723   2.474   2.050   2.947
 2942SOL     OW 9724   3.408   2.501   0.830
 2942SOL    HW1 9725   3.488   2.454   0.868
 2942SOL    HW2 9726   3.397   2.590   0.874
 2943SOL     OW 9727   5.663   4.771   3.906
 2943SOL    HW1 9728   5.639   4.704   3.835
 2943SOL    HW2 9729   5.668   4.726   3.995
 2944SOL     OW 9730   2.683   6.313   3.800
 2944SOL    HW1 9731   2.765   6.371   3.810
 2944SOL    HW2 9732   2.702   6.241   3.734
 2945SOL     OW 9733   4.984   2.842   1.587
 2945SOL    HW1 9734   4.949   2.856   1.494
 2945SOL    HW2 9735   4.909   2.809   1.645
 2946SOL     OW 9736   2.249   4.260   5.692
 2946SOL    HW1 9737   2.247   4.269   5.592
 2946SOL    HW2 9738   2.241   4.163   5.717
 2947SOL     OW 9739   7.022   4.951   0.320
 2947SOL    HW1 9740   0.041   5.038   0.330
 2947SOL    HW2 9741   7.002   4.914   0.411
 2948SOL     OW 9742   6.824   4.247   3.466
 2948SOL    HW1 9743   6.725   4.258   3.472
 2948SOL    HW2 9744   6.845   4.152   3.443
 2949SOL     OW 9745   0.711   5.745   6.934
 2949SOL    HW1 9746   0.643   5.793   6.878
 2949SOL    HW2 9747   0.779   5.702   6.874
 2950SOL     OW 9748   6.023   5.812   3.719
 2950SOL    HW1 9749   6.014   5.725   3.768
 2950SOL    HW2 9750   5.932   5.849   3.701
 2951SOL     OW 9751   5.352   1.253   1.929
 2951SOL    HW1 9752   5.315   1.166   1.897
 2951SOL    HW2 9753   5.394   1.241   2.019
 2952SOL     OW 9754   6.981   6.954   5.089
 2952SOL    HW1 9755   6.992   6.980   5.185
 2952SOL    HW2 9756   6.996   0.004   5.030
 2953SOL     OW 9757   0.090   4.311   3.141
 2953SOL    HW1 9758   0.043   4.385   3.189
 2953SOL    HW2 9759   0.132   4.249   3.208
 2954SOL     OW 9760   0.028   4.443   6.798
 2954SOL    HW1 9761   0.088   4.507   6.750
 2954SOL    HW2 9762   0.068   4.419   6.887
 2955SOL     OW 9763   0.826   4.548   0.958
 2955SOL    HW1 9764   0.868   4.612   1.023
 2955SOL    HW2 9765   0.883   4.466   0.953
 2956SOL     OW 9766   6.737   5.536   3.719
 2956SOL    HW1 9767   6.721   5.439   3.705
 2956SOL    HW2 9768   6.707   5.587   3.638
 2957SOL     OW 9769   4.858   4.737   1.538
 2957SOL    HW1 9770   4.958   4.732   1.542
 2957SOL    HW2 9771   4.830   4.761   1.445
 2958SOL     OW 9772   2.139   4.851   3.585
 2958SOL    HW1 9773   2.123   4.923   3.652
 2958SOL    HW2 9774   2.095   4.875   3.498
 2959SOL     OW 9775   5.542   2.729   2.551
 2959SOL    HW1 9776   5.492   2.739   2.637
 2959SOL    HW2 9777   5.587   2.815   2.528
 2960SOL     OW 9778   3.755   0.415   6.858
 2960SOL    HW1 9779   3.743   0.412   6.759
 2960SOL    HW2 9780   3.815   0.340   6.887
 2961SOL     OW 9781   6.166   4.543   3.372
 2961SOL    HW1 9782   6.106   4.493   3.310
 2961SOL    HW2 9783   6.153   4.641   3.359
 2962SOL     OW 9784   4.743   6.300   3.451
 2962SOL    HW1 9785   4.668   6.364   3.466
 2962SOL    HW2 9786   4.721   6.241   3.373
 2963SOL     OW 9787   0.959   0.696   6.577
 2963SOL    HW1 9788   0.872   0.740   6.554
 2963SOL    HW2 9789   1.023   0.765   6.611
 2964SOL     OW 9790   0.167   2.231   6.353
 2964SOL    HW1 9791   0.190   2.282   6.270
 2964SOL    HW2 9792   0.114   2.149   6.328
 2965SOL     OW 9793   0.615   0.587   4.414
 2965SOL    HW1 9794   0.572   0.654   4.475
 2965SOL    HW2 9795   0.659   0.634   4.338
 2966SOL     OW 9796   4.675   5.564   3.762
 2966SOL    HW1 9797   4.617   5.543   3.841
 2966SOL    HW2 9798   4.769   5.535   3.782
 2967SOL     OW 9799   6.463   0.875   5.734
 2967SOL    HW1 9800   6.371   0.877   5.772
 2967SOL    HW2 9801   6.489   0.966   5.704
 2968SOL     OW 9802   1.236   2.481   0.958
 2968SOL    HW1 9803   1.207   2.554   0.895
 2968SOL    HW2 9804   1.155   2.445   1.006
 2969SOL     OW 9805   4.848   3.144   4.745
 2969SOL    HW1 9806   4.779   3.164   4.676
 2969SOL    HW2 9807   4.939   3.161   4.707
 2970SOL     OW 9808   2.741   3.119   5.301
 2970SOL    HW1 9809   2.732   3.147   5.397
 2970SOL    HW2 9810   2.651   3.097   5.265
 2971SOL     OW 9811   5.252   4.181   0.460
 2971SOL    HW1 9812   5.187   4.120   0.415
 2971SOL    HW2 9813   5.206   4.231   0.533
 2972SOL     OW 9814   5.711   4.987   6.519
 2972SOL    HW1 9815   5.694   4.902   6.471
 2972SOL    HW2 9816   5.636   5.052   6.502
 2973SOL     OW 9817   4.679   6.602   2.320
 2973SOL    HW1 9818   4.593   6.602   2.371
 2973SOL    HW2 9819   4.752   6.568   2.379
 2974SOL     OW 9820   6.400   4.430   3.481
 2974SOL    HW1 9821   6.463   4.484   3.425
 2974SOL    HW2 9822   6.307   4.462   3.465
 2975SOL     OW 9823   5.316   4.378   4.537
 2975SOL    HW1 9824   5.282   4.289   4.568
 2975SOL    HW2 9825   5.415   4.375   4.529
 2976SOL     OW 9826   5.138   1.899   2.902
 2976SOL    HW1 9827   5.179   1.845   2.829
 2976SOL    HW2 9828   5.183   1.878   2.989
 2977SOL     OW 9829   0.019   0.946   2.541
 2977SOL    HW1 9830   0.072   0.971   2.622
 2977SOL    HW2 9831   0.079   0.948   2.461
 2978SOL     OW 9832   3.759   4.415   0.215
 2978SOL    HW1 9833   3.845   4.395   0.167
 2978SOL    HW2 9834   3.693   4.454   0.151
 2979SOL     OW 9835   3.380   1.833   4.342
 2979SOL    HW1 9836   3.374   1.930   4.320
 2979SOL    HW2 9837   3.374   1.821   4.441
 2980SOL     OW 9838   2.170   5.521   6.409
 2980SOL    HW1 9839   2.143   5.487   6.319
 2980SOL    HW2 9840   2.258   5.481   6.434
 2981SOL     OW 9841   2.452   0.952   0.144
 2981SOL    HW1 9842   2.371   0.897   0.163
 2981SOL    HW2 9843   2.431   1.049   0.158
 2982SOL     OW 9844   2.234   5.910   1.972
 2982SOL    HW1 9845   2.225   5.811   1.982
 2982SOL    HW2 9846   2.313   5.942   2.024
 2983SOL     OW 9847   6.817   2.189   1.315
 2983SOL    HW1 9848   6.841   2.256   1.386
 2983SOL    HW2 9849   6.870   2.208   1.232
 2984SOL     OW 9850   5.705   5.503   6.019
 2984SOL    HW1 9851   5.735   5.598   6.013
 2984SOL    HW2 9852   5.699   5.476   6.115
 2985SOL     OW 9853   0.915   1.674   4.850
 2985SOL    HW1 9854   0.930   1.713   4.759
 2985SOL    HW2 9855   0.819   1.648   4.860
 2986SOL     OW 9856   3.830   3.818   2.351
 2986SOL    HW1 9857   3.762   3.761   2.306
 2986SOL    HW2 9858   3.789   3.907   2.374
 2987SOL     OW 9859   1.416   1.064   4.292
 2987SOL    HW1 9860   1.455   1.001   4.225
 2987SOL    HW2 9861   1.316   1.066   4.281
 2988SOL     OW 9862   1.729   7.029   1.710
 2988SOL    HW1 9863   1.748   6.935   1.738
 2988SOL    HW2 9864   1.656   0.037   1.766
 2989SOL     OW 9865   5.456   3.873   5.399
 2989SOL    HW1 9866   5.392   3.949   5.402
 2989SOL    HW2 9867   5.432   3.806   5.468
 2990SOL     OW 9868   5.150   2.402   4.465
 2990SOL    HW1 9869   5.083   2.458   4.415
 2990SOL    HW2 9870   5.152   2.310   4.427
 2991SOL     OW 9871   6.038   3.345   6.219
 2991SOL    HW1 9872   6.048   3.307   6.311
 2991SOL    HW2 9873   6.121   3.393   6.193
 2992SOL     OW 9874   1.804   4.775   4.684
 2992SOL    HW1 9875   1.741   4.705   4.649
 2992SOL    HW2 9876   1.898   4.751   4.657
 2993SOL     OW 9877   0.409   5.034   0.412
 2993SOL    HW1 9878   0.479   5.059   0.345
 2993SOL    HW2 9879   0.319   5.032   0.369
 2994SOL     OW 9880   3.696   5.953   0.358
 2994SOL    HW1 9881   3.639   5.936   0.438
 2994SOL    HW2 9882   3.693   6.050   0.334
 2995SOL     OW 9883   4.027   0.212   0.217
 2995SOL    HW1 9884   4.021   0.112   0.210
 2995SOL    HW2 9885   3.999   0.241   0.308
 2996SOL     OW 9886   0.883   2.311   4.663
 2996SOL    HW1 9887   0.879   2.334   4.760
 2996SOL    HW2 9888   0.857   2.391   4.609
 2997SOL     OW 9889   4.820   6.782   3.362
 2997SOL    HW1 9890   4.863   6.715   3.423
 2997SOL    HW2 9891   4.744   6.739   3.313
 2998SOL     OW 9892   4.177   6.538   3.311
 2998SOL    HW1 9893   4.079   6.520   3.297
 2998SOL    HW2 9894   4.195   6.635   3.295
 2999SOL     OW 9895   2.736   5.018   5.820
 2999SOL    HW1 9896   2.740   5.114   5.846
 2999SOL    HW2 9897   2.784   4.963   5.889
 3000SOL     OW 9898   2.517   3.988   6.684
 3000SOL    HW1 9899   2.545   3.905   6.635
 3000SOL    HW2 9900   2.581   4.006   6.759
 3001SOL     OW 9901   6.331   1.830   0.295
 3001SOL    HW1 9902   6.245   1.878   0.277
 3001SOL    HW2 9903   6.312   1.745   0.343
 3002SOL     OW 9904   3.369   1.965   0.346
 3002SOL    HW1 9905   3.395   1.987   0.252
 3002SOL    HW2 9906   3.270   1.960   0.353
 3003SOL     OW 9907   1.083   6.665   1.273
 3003SOL    HW1 9908   1.068   6.608   1.193
 3003SOL    HW2 9909   1.145   6.618   1.337
 3004SOL     OW 9910   1.242   4.745   2.700
 3004SOL    HW1 9911   1.189   4.810   2.753
 3004SOL    HW2 9912   1.201   4.734   2.609
 3005SOL     OW 9913   1.397   3.041   6.564
 3005SOL    HW1 9914   1.364   3.054   6.658
 3005SOL    HW2 9915   1.431   3.128   6.528
 3006SOL     OW 9916   5.834   1.645   4.935
 3006SOL    HW1 9917   5.826   1.550   4.964
 3006SOL    HW2 9918   5.928   1.677   4.949
 3007SOL     OW 9919   4.795   4.865   0.042
 3007SOL    HW1 9920   4.703   4.856   0.004
 3007SOL    HW2 9921   4.790   4.852   0.141
 3008SOL     OW 9922   3.404   2.219   6.376
 3008SOL    HW1 9923   3.330   2.241   6.313
 3008SOL    HW2 9924   3.491   2.250   6.337
 3009SOL     OW 9925   0.337   3.059   2.148
 3009SOL    HW1 9926   0.257   3.097   2.194
 3009SOL    HW2 9927   0.406   3.034   2.216
 3010SOL     OW 9928   2.871   5.775   4.374
 3010SOL    HW1 9929   2.939   5.765   4.446
 3010SOL    HW2 9930   2.785   5.734   4.403
 3011SOL     OW 9931   6.105   0.145   1.806
 3011SOL    HW1 9932   6.083   0.161   1.902
 3011SOL    HW2 9933   6.188   0.195   1.782
 3012SOL     OW 9934   2.183   3.318   0.313
 3012SOL    HW1 9935   2.165   3.250   0.242
 3012SOL    HW2 9936   2.105   3.380   0.320
 3013SOL     OW 9937   6.451   4.948   3.341
 3013SOL    HW1 9938   6.425   4.880   3.273
 3013SOL    HW2 9939   6.541   4.925   3.378
 3014SOL     OW 9940   4.916   1.878   6.422
 3014SOL    HW1 9941   5.004   1.880   6.375
 3014SOL    HW2 9942   4.904   1.961   6.477
 3015SOL     OW 9943   2.255   1.862   0.324
 3015SOL    HW1 9944   2.269   1.930   0.253
 3015SOL    HW2 9945   2.281   1.772   0.290
 3016SOL     OW 9946   3.616   6.700   4.593
 3016SOL    HW1 9947   3.529   6.749   4.583
 3016SOL    HW2 9948   3.627   6.636   4.516
 3017SOL     OW 9949   5.249   5.543   2.564
 3017SOL    HW1 9950   5.167   5.594   2.538
 3017SOL    HW2 9951   5.265   5.553   2.662
 3018SOL     OW 9952   3.237   0.084   6.888
 3018SOL    HW1 9953   3.292   0.041   6.959
 3018SOL    HW2 9954   3.275   0.174   6.867
 3019SOL     OW 9955   0.866   0.185   0.274
 3019SOL    HW1 9956   0.949   0.189   0.331
 3019SOL    HW2 9957   0.793   0.238   0.318
 3020SOL     OW 9958   4.328   3.159   1.011
 3020SOL    HW1 9959   4.248   3.128   0.959
 3020SOL    HW2 9960   4.394   3.084   1.018
 3021SOL     OW 9961   2.342   6.922   4.312
 3021SOL    HW1 9962   2.282   6.861   4.260
 3021SOL    HW2 9963   2.345   7.012   4.268
 3022SOL     OW 9964   4.112   5.404   4.459
 3022SOL    HW1 9965   4.104   5.487   4.404
 3022SOL    HW2 9966   4.180   5.419   4.532
 3023SOL     OW 9967   3.717   6.676   3.460
 3023SOL    HW1 9968   3.737   6.683   3.362
 3023SOL    HW2 9969   3.666   6.592   3.478
 3024SOL     OW 9970   5.681   6.553   5.543
 3024SOL    HW1 9971   5.687   6.649   5.569
 3024SOL    HW2 9972   5.760   6.503   5.578
 3025SOL     OW 9973   4.021   6.244   1.823
 3025SOL    HW1 9974   3.996   6.164   1.877
 3025SOL    HW2 9975   3.957   6.319   1.843
 3026SOL     OW 9976   0.328   1.120   6.144
 3026SOL    HW1 9977   0.262   1.146   6.214
 3026SOL    HW2 9978   0.419   1.148   6.173
 3027SOL     OW 9979   4.113   1.590   2.025
 3027SOL    HW1 9980   4.102   1.651   2.104
 3027SOL    HW2 9981   4.027   1.586   1.973
 3028SOL     OW 9982   1.245   4.339   6.445
 3028SOL    HW1 9983   1.263   4.436   6.461
 3028SOL    HW2 9984   1.311   4.303   6.379
 3029SOL     OW 9985   1.296   2.620   3.551
 3029SOL    HW1 9986   1.268   2.530   3.586
 3029SOL    HW2 9987   1.395   2.628   3.554
 3030SOL     OW 9988   1.095   4.136   0.844
 3030SOL    HW1 9989   1.177   4.175   0.802
 3030SOL    HW2 9990   1.089   4.039   0.823
 3031SOL     OW 9991   1.099   4.449   0.814
 3031SOL    HW1 9992   1.189   4.490   0.830
 3031SOL    HW2 9993   1.096   4.359   0.857
 3032SOL     OW 9994   2.286   6.049   1.647
 3032SOL    HW1 9995   2.334   6.108   1.583
 3032SOL    HW2 9996   2.331   6.052   1.736
 3033SOL     OW 9997   6.443   1.521   2.753
 3033SOL    HW1 9998   6.422   1.509   2.656
 3033SOL    HW2 9999   6.498   1.604   2.766
 3034SOL     OW10000   0.427   5.934   3.489
 3034SOL    HW110001   0.414   5.943   3.390
 3034SOL    HW210002   0.488   6.006   3.521
 3035SOL     OW10003   1.094   3.188   5.946
 3035SOL    HW110004   0.994   3.181   5.945
 3035SOL    HW210005   1.133   3.098   5.930
 3036SOL     OW10006   1.334   2.548   5.149
 3036SOL    HW110007   1.329   2.455   5.184
 3036SOL    HW210008   1.410   2.596   5.192
 3037SOL     OW10009   6.515   4.859   4.990
 3037SOL    HW110010   6.557   4.950   4.999
 3037SOL    HW210011   6.457   4.858   4.908
 3038SOL     OW10012   4.920   4.160   5.792
 3038SOL    HW110013   4.953   4.078   5.839
 3038SOL    HW210014   4.888   4.227   5.859
 3039SOL     OW10015   0.103   3.402   0.550
 3039SOL    HW110016   0.116   3.308   0.519
 3039SOL    HW210017   0.046   3.403   0.632
 3040SOL     OW10018   3.307   4.713   5.842
 3040SOL    HW110019   3.382   4.706   5.777
 3040SOL    HW210020   3.242   4.639   5.826
 3041SOL     OW10021   1.186   5.265   6.242
 3041SOL    HW110022   1.205   5.273   6.144
 3041SOL    HW210023   1.171   5.169   6.265
 3042SOL     OW10024   5.635   6.121   2.609
 3042SOL    HW110025   5.651   6.162   2.698
 3042SOL    HW210026   5.539   6.092   2.602
 3043SOL     OW10027   3.360   3.934   1.304
 3043SOL    HW110028   3.425   3.863   1.277
 3043SOL    HW210029   3.304   3.900   1.380
 3044SOL     OW10030   3.198   5.396   5.390
 3044SOL    HW110031   3.151   5.402   5.477
 3044SOL    HW210032   3.240   5.306   5.380
 3045SOL     OW10033   4.789   6.531   3.162
 3045SOL    HW110034   4.790   6.489   3.072
 3045SOL    HW210035   4.724   6.482   3.221
 3046SOL     OW10036   3.395   6.962   0.011
 3046SOL    HW110037   3.355   6.953   0.102
 3046SOL    HW210038   3.376   6.880   6.987
 3047SOL     OW10039   6.104   6.969   0.628
 3047SOL    HW110040   6.138   7.013   0.712
 3047SOL    HW210041   6.014   6.928   0.646
 3048SOL     OW10042   5.126   2.288   0.808
 3048SOL    HW110043   5.055   2.226   0.841
 3048SOL    HW210044   5.085   2.373   0.776
 3049SOL     OW10045   1.319   0.393   3.959
 3049SOL    HW110046   1.382   0.398   4.036
 3049SOL    HW210047   1.246   0.460   3.972
 3050SOL     OW10048   2.559   2.310   1.369
 3050SOL    HW110049   2.654   2.289   1.393
 3050SOL    HW210050   2.529   2.391   1.419
 3051SOL     OW10051   2.533   6.662   6.364
 3051SOL    HW110052   2.504   6.702   6.278
 3051SOL    HW210053   2.621   6.701   6.391
 3052SOL     OW10054   5.068   5.448   2.040
 3052SOL    HW110055   5.024   5.432   2.128
 3052SOL    HW210056   5.157   5.490   2.055
 3053SOL     OW10057   0.042   3.540   1.356
 3053SOL    HW110058   0.045   3.630   1.399
 3053SOL    HW210059   0.108   3.536   1.281
 3054SOL     OW10060   6.102   0.669   2.238
 3054SOL    HW110061   6.144   0.641   2.152
 3054SOL    HW210062   6.128   0.763   2.258
 3055SOL     OW10063   5.441   0.221   5.111
 3055SOL    HW110064   5.459   0.232   5.013
 3055SOL    HW210065   5.398   0.304   5.146
 3056SOL     OW10066   6.212   1.626   5.936
 3056SOL    HW110067   6.262   1.709   5.957
 3056SOL    HW210068   6.175   1.586   6.020
 3057SOL     OW10069   5.056   6.246   4.262
 3057SOL    HW110070   5.115   6.304   4.317
 3057SOL    HW210071   5.053   6.280   4.168
 3058SOL     OW10072   6.027   4.412   0.780
 3058SOL    HW110073   5.962   4.343   0.812
 3058SOL    HW210074   6.086   4.373   0.710
 3059SOL     OW10075   2.337   1.763   4.044
 3059SOL    HW110076   2.406   1.792   4.111
 3059SOL    HW210077   2.274   1.698   4.087
 3060SOL     OW10078   1.989   5.253   6.936
 3060SOL    HW110079   2.051   5.311   6.883
 3060SOL    HW210080   2.038   5.214   7.014
 3061SOL     OW10081   6.116   5.855   5.773
 3061SOL    HW110082   6.040   5.802   5.734
 3061SOL    HW210083   6.190   5.793   5.798
 3062SOL     OW10084   2.330   6.182   1.402
 3062SOL    HW110085   2.417   6.146   1.369
 3062SOL    HW210086   2.256   6.154   1.341
 3063SOL     OW10087   0.560   4.592   1.391
 3063SOL    HW110088   0.649   4.552   1.368
 3063SOL    HW210089   0.573   4.683   1.430
 3064SOL     OW10090   4.263   3.483   0.279
 3064SOL    HW110091   4.338   3.547   0.263
 3064SOL    HW210092   4.239   3.437   0.193
 3065SOL     OW10093   1.155   1.889   6.403
 3065SOL    HW110094   1.204   1.919   6.321
 3065SOL    HW210095   1.206   1.815   6.448
 3066SOL     OW10096   5.279   5.398   6.456
 3066SOL    HW110097   5.224   5.452   6.519
 3066SOL    HW210098   5.274   5.438   6.364
 3067SOL     OW10099   3.016   1.196   0.809
 3067SOL    HW110100   2.953   1.214   0.885
 3067SOL    HW210101   2.971   1.219   0.723
 3068SOL     OW10102   0.075   0.386   1.611
 3068SOL    HW110103   0.038   0.453   1.675
 3068SOL    HW210104   0.066   0.294   1.649
 3069SOL     OW10105   6.272   6.760   3.361
 3069SOL    HW110106   6.307   6.777   3.269
 3069SOL    HW210107   6.174   6.783   3.364
 3070SOL     OW10108   2.300   0.914   6.544
 3070SOL    HW110109   2.388   0.878   6.572
 3070SOL    HW210110   2.265   0.975   6.615
 3071SOL     OW10111   6.292   5.452   4.078
 3071SOL    HW110112   6.381   5.433   4.036
 3071SOL    HW210113   6.297   5.537   4.129
 3072SOL     OW10114   2.126   5.856   6.754
 3072SOL    HW110115   2.090   5.923   6.689
 3072SOL    HW210116   2.208   5.894   6.798
 3073SOL     OW10117   6.782   3.896   1.883
 3073SOL    HW110118   6.771   3.858   1.792
 3073SOL    HW210119   6.737   3.985   1.888
 3074SOL     OW10120   0.854   4.272   0.932
 3074SOL    HW110121   0.924   4.207   0.905
 3074SOL    HW210122   0.819   4.320   0.851
 3075SOL     OW10123   2.701   5.398   3.374
 3075SOL    HW110124   2.610   5.427   3.405
 3075SOL    HW210125   2.763   5.394   3.452
 3076SOL     OW10126   6.846   1.565   4.558
 3076SOL    HW110127   6.903   1.491   4.593
 3076SOL    HW210128   6.751   1.551   4.588
 3077SOL     OW10129   5.861   3.647   2.051
 3077SOL    HW110130   5.813   3.680   1.970
 3077SOL    HW210131   5.798   3.594   2.108
 3078SOL     OW10132   6.738   3.098   2.139
 3078SOL    HW110133   6.650   3.137   2.112
 3078SOL    HW210134   6.769   3.141   2.223
 3079SOL     OW10135   3.291   2.123   3.633
 3079SOL    HW110136   3.390   2.130   3.646
 3079SOL    HW210137   3.262   2.190   3.564
 3080SOL     OW10138   5.222   3.880   2.251
 3080SOL    HW110139   5.234   3.955   2.316
 3080SOL    HW210140   5.252   3.794   2.293
 3081SOL     OW10141   0.801   4.586   5.837
 3081SOL    HW110142   0.767   4.583   5.931
 3081SOL    HW210143   0.745   4.525   5.780
 3082SOL     OW10144   2.280   5.859   4.145
 3082SOL    HW110145   2.306   5.763   4.159
 3082SOL    HW210146   2.228   5.892   4.224
 3083SOL     OW10147   3.260   6.335   2.865
 3083SOL    HW110148   3.168   6.323   2.826
 3083SOL    HW210149   3.256   6.320   2.964
 3084SOL     OW10150   6.359   4.261   2.714
 3084SOL    HW110151   6.414   4.182   2.740
 3084SOL    HW210152   6.403   4.308   2.637
 3085SOL     OW10153   5.614   4.339   0.784
 3085SOL    HW110154   5.683   4.335   0.712
 3085SOL    HW210155   5.654   4.309   0.870
 3086SOL     OW10156   4.744   1.043   6.959
 3086SOL    HW110157   4.739   1.142   6.960
 3086SOL    HW210158   4.756   1.009   0.022
 3087SOL     OW10159   3.115   6.150   3.386
 3087SOL    HW110160   3.128   6.193   3.476
 3087SOL    HW210161   3.143   6.213   3.314
 3088SOL     OW10162   1.762   3.451   5.286
 3088SOL    HW110163   1.785   3.475   5.380
 3088SOL    HW210164   1.775   3.530   5.227
 3089SOL     OW10165   4.420   2.284   4.415
 3089SOL    HW110166   4.337   2.277   4.470
 3089SOL    HW210167   4.402   2.343   4.336
 3090SOL     OW10168   2.291   1.237   2.436
 3090SOL    HW110169   2.206   1.257   2.388
 3090SOL    HW210170   2.350   1.181   2.379
 3091SOL     OW10171   1.278   1.242   0.417
 3091SOL    HW110172   1.363   1.256   0.367
 3091SOL    HW210173   1.232   1.160   0.383
 3092SOL     OW10174   5.354   6.724   0.884
 3092SOL    HW110175   5.302   6.727   0.969
 3092SOL    HW210176   5.435   6.667   0.896
 3093SOL     OW10177   5.526   6.158   5.982
 3093SOL    HW110178   5.476   6.217   6.045
 3093SOL    HW210179   5.502   6.181   5.888
 3094SOL     OW10180   2.795   0.309   4.028
 3094SOL    HW110181   2.706   0.294   4.070
 3094SOL    HW210182   2.816   0.233   3.967
 3095SOL     OW10183   2.328   3.991   5.879
 3095SOL    HW110184   2.387   3.981   5.799
 3095SOL    HW210185   2.326   3.905   5.930
 3096SOL     OW10186   1.094   4.629   5.353
 3096SOL    HW110187   1.069   4.680   5.270
 3096SOL    HW210188   1.051   4.671   5.432
 3097SOL     OW10189   5.575   3.180   6.918
 3097SOL    HW110190   5.512   3.121   6.969
 3097SOL    HW210191   5.541   3.274   6.922
 3098SOL     OW10192   1.798   3.641   2.084
 3098SOL    HW110193   1.839   3.674   2.169
 3098SOL    HW210194   1.859   3.662   2.008
 3099SOL     OW10195   1.011   6.320   4.040
 3099SOL    HW110196   1.037   6.353   4.131
 3099SOL    HW210197   1.092   6.317   3.981
 3100SOL     OW10198   6.667   6.257   2.665
 3100SOL    HW110199   6.632   6.351   2.658
 3100SOL    HW210200   6.765   6.260   2.680
 3101SOL     OW10201   4.573   5.981   5.730
 3101SOL    HW110202   4.497   6.046   5.727
 3101SOL    HW210203   4.561   5.912   5.659
 3102SOL     OW10204   6.556   6.661   1.160
 3102SOL    HW110205   6.476   6.637   1.215
 3102SOL    HW210206   6.620   6.585   1.160
 3103SOL     OW10207   5.012   0.690   1.632
 3103SOL    HW110208   5.029   0.596   1.601
 3103SOL    HW210209   5.085   0.750   1.599
 3104SOL     OW10210   3.308   0.599   6.362
 3104SOL    HW110211   3.339   0.691   6.388
 3104SOL    HW210212   3.301   0.542   6.444
 3105SOL     OW10213   4.683   4.058   1.519
 3105SOL    HW110214   4.737   4.047   1.603
 3105SOL    HW210215   4.591   4.022   1.535
 3106SOL     OW10216   5.261   6.852   4.928
 3106SOL    HW110217   5.289   6.946   4.906
 3106SOL    HW210218   5.166   6.851   4.959
 3107SOL     OW10219   4.183   1.544   4.654
 3107SOL    HW110220   4.155   1.477   4.586
 3107SOL    HW210221   4.269   1.587   4.624
 3108SOL     OW10222   1.980   5.112   5.064
 3108SOL    HW110223   1.943   5.114   4.971
 3108SOL    HW210224   1.999   5.206   5.095
 3109SOL     OW10225   6.380   0.155   4.175
 3109SOL    HW110226   6.309   0.110   4.121
 3109SOL    HW210227   6.338   0.206   4.250
 3110SOL     OW10228   2.205   4.541   3.357
 3110SOL    HW110229   2.178   4.541   3.453
 3110SOL    HW210230   2.303   4.523   3.350
 3111SOL     OW10231   0.355   4.698   3.313
 3111SOL    HW110232   0.279   4.638   3.335
 3111SOL    HW210233   0.370   4.762   3.389
 3112SOL     OW10234   2.852   2.870   6.855
 3112SOL    HW110235   2.882   2.959   6.820
 3112SOL    HW210236   2.785   2.884   6.927
 3113SOL     OW10237   3.155   6.236   2.540
 3113SOL    HW110238   3.252   6.260   2.545
 3113SOL    HW210239   3.129   6.223   2.444
 3114SOL     OW10240   4.344   1.537   0.231
 3114SOL    HW110241   4.371   1.472   0.302
 3114SOL    HW210242   4.251   1.516   0.201
 3115SOL     OW10243   3.983   4.679   5.408
 3115SOL    HW110244   3.958   4.705   5.501
 3115SOL    HW210245   4.059   4.615   5.409
 3116SOL     OW10246   6.963   1.560   0.148
 3116SOL    HW110247   6.930   1.567   0.242
 3116SOL    HW210248   6.952   1.467   0.114
 3117SOL     OW10249   4.415   2.988   5.322
 3117SOL    HW110250   4.338   3.037   5.363
 3117SOL    HW210251   4.412   2.892   5.349
 3118SOL     OW10252   0.937   6.545   2.122
 3118SOL    HW110253   0.897   6.636   2.131
 3118SOL    HW210254   0.934   6.517   2.026
 3119SOL     OW10255   2.481   2.215   5.794
 3119SOL    HW110256   2.485   2.169   5.882
 3119SOL    HW210257   2.573   2.222   5.755
 3120SOL     OW10258   2.939   1.005   5.742
 3120SOL    HW110259   2.873   1.029   5.671
 3120SOL    HW210260   3.021   0.967   5.700
 3121SOL     OW10261   5.928   1.929   4.573
 3121SOL    HW110262   5.915   1.969   4.483
 3121SOL    HW210263   5.880   1.841   4.578
 3122SOL     OW10264   4.758   4.871   5.044
 3122SOL    HW110265   4.701   4.863   5.127
 3122SOL    HW210266   4.699   4.884   4.965
 3123SOL     OW10267   1.610   1.256   3.297
 3123SOL    HW110268   1.642   1.162   3.300
 3123SOL    HW210269   1.684   1.317   3.326
 3124SOL     OW10270   4.972   0.022   3.711
 3124SOL    HW110271   4.885   7.015   3.678
 3124SOL    HW210272   4.970   0.122   3.704
 3125SOL     OW10273   1.560   2.995   5.330
 3125SOL    HW110274   1.576   2.980   5.233
 3125SOL    HW210275   1.500   2.924   5.366
 3126SOL     OW10276   5.483   4.199   5.689
 3126SOL    HW110277   5.437   4.185   5.602
 3126SOL    HW210278   5.418   4.235   5.756
 3127SOL     OW10279   2.050   2.343   5.557
 3127SOL    HW110280   2.101   2.405   5.617
 3127SOL    HW210281   2.069   2.365   5.461
 3128SOL     OW10282   3.401   0.579   0.462
 3128SOL    HW110283   3.310   0.558   0.498
 3128SOL    HW210284   3.470   0.530   0.516
 3129SOL     OW10285   4.971   3.687   1.067
 3129SOL    HW110286   5.037   3.622   1.032
 3129SOL    HW210287   4.924   3.648   1.146
 3130SOL     OW10288   1.806   4.629   1.456
 3130SOL    HW110289   1.758   4.605   1.372
 3130SOL    HW210290   1.873   4.700   1.437
 3131SOL     OW10291   0.522   3.427   2.182
 3131SOL    HW110292   0.515   3.328   2.172
 3131SOL    HW210293   0.618   3.455   2.171
 3132SOL     OW10294   4.823   5.293   6.569
 3132SOL    HW110295   4.920   5.280   6.546
 3132SOL    HW210296   4.803   5.245   6.654
 3133SOL     OW10297   3.650   1.300   2.920
 3133SOL    HW110298   3.581   1.372   2.915
 3133SOL    HW210299   3.618   1.227   2.980
 3134SOL     OW10300   4.041   4.999   1.345
 3134SOL    HW110301   4.092   5.084   1.358
 3134SOL    HW210302   4.044   4.972   1.249
 3135SOL     OW10303   5.011   0.075   5.982
 3135SOL    HW110304   5.072   0.056   6.059
 3135SOL    HW210305   4.944   0.002   5.973
 3136SOL     OW10306   5.645   6.875   2.077
 3136SOL    HW110307   5.675   6.796   2.025
 3136SOL    HW210308   5.581   6.846   2.148
 3137SOL     OW10309   6.601   6.523   3.343
 3137SOL    HW110310   6.556   6.464   3.276
 3137SOL    HW210311   6.669   6.580   3.297
 3138SOL     OW10312   5.944   5.797   3.454
 3138SOL    HW110313   5.885   5.845   3.389
 3138SOL    HW210314   5.994   5.864   3.509
 3139SOL     OW10315   3.519   4.869   1.551
 3139SOL    HW110316   3.455   4.835   1.620
 3139SOL    HW210317   3.473   4.875   1.463
 3140SOL     OW10318   6.238   6.326   5.136
 3140SOL    HW110319   6.307   6.346   5.067
 3140SOL    HW210320   6.283   6.318   5.226
 3141SOL     OW10321   0.750   7.016   0.144
 3141SOL    HW110322   0.711   6.941   0.197
 3141SOL    HW210323   0.777   0.060   0.205
 3142SOL     OW10324   3.062   0.363   2.973
 3142SOL    HW110325   3.083   0.457   2.945
 3142SOL    HW210326   2.975   0.336   2.933
 3143SOL     OW10327   6.234   1.427   6.966
 3143SOL    HW110328   6.137   1.455   6.969
 3143SOL    HW210329   6.292   1.509   6.974
 3144SOL     OW10330   4.519   3.399   0.631
 3144SOL    HW110331   4.603   3.371   0.585
 3144SOL    HW210332   4.442   3.390   0.568
 3145SOL     OW10333   1.629   6.644   2.542
 3145SOL    HW110334   1.614   6.638   2.641
 3145SOL    HW210335   1.610   6.556   2.500
 3146SOL     OW10336   0.752   0.929   4.765
 3146SOL    HW110337   0.731   1.004   4.702
 3146SOL    HW210338   0.684   0.856   4.754
 3147SOL     OW10339   2.845   5.007   7.002
 3147SOL    HW110340   2.893   5.093   7.013
 3147SOL    HW210341   2.849   4.955   0.058
 3148SOL     OW10342   6.815   0.153   3.937
 3148SOL    HW110343   6.897   0.202   3.967
 3148SOL    HW210344   6.738   0.178   3.996
 3149SOL     OW10345   3.257   1.124   6.567
 3149SOL    HW110346   3.207   1.160   6.646
 3149SOL    HW210347   3.219   1.163   6.483
 3150SOL     OW10348   0.091   6.029   4.923
 3150SOL    HW110349   0.030   5.994   4.993
 3150SOL    HW210350   0.167   5.964   4.909
 3151SOL     OW10351   7.028   1.334   5.772
 3151SOL    HW110352   0.076   1.339   5.835
 3151SOL    HW210353   6.949   1.294   5.819
 3152SOL     OW10354   0.699   3.747   0.474
 3152SOL    HW110355   0.742   3.824   0.426
 3152SOL    HW210356   0.746   3.730   0.560
 3153SOL     OW10357   6.254   5.769   0.119
 3153SOL    HW110358   6.256   5.754   0.218
 3153SOL    HW210359   6.344   5.797   0.087
 3154SOL     OW10360   6.316   1.091   0.774
 3154SOL    HW110361   6.280   1.007   0.733
 3154SOL    HW210362   6.327   1.077   0.873
 3155SOL     OW10363   5.842   4.984   0.299
 3155SOL    HW110364   5.826   5.076   0.336
 3155SOL    HW210365   5.763   4.957   0.243
 3156SOL     OW10366   3.296   3.778   2.118
 3156SOL    HW110367   3.323   3.747   2.209
 3156SOL    HW210368   3.197   3.775   2.110
 3157SOL     OW10369   2.026   1.260   5.214
 3157SOL    HW110370   1.963   1.326   5.254
 3157SOL    HW210371   2.120   1.292   5.226
 3158SOL     OW10372   2.181   0.772   4.620
 3158SOL    HW110373   2.177   0.848   4.684
 3158SOL    HW210374   2.098   0.771   4.563
 3159SOL     OW10375   5.646   0.249   6.509
 3159SOL    HW110376   5.567   0.192   6.533
 3159SOL    HW210377   5.615   0.329   6.458
 3160SOL     OW10378   1.413   6.022   6.071
 3160SOL    HW110379   1.412   6.111   6.115
 3160SOL    HW210380   1.505   5.984   6.073
 3161SOL     OW10381   2.482   2.250   2.835
 3161SOL    HW110382   2.466   2.270   2.738
 3161SOL    HW210383   2.558   2.307   2.868
 3162SOL     OW10384   0.667   5.733   1.018
 3162SOL    HW110385   0.759   5.717   0.982
 3162SOL    HW210386   0.673   5.785   1.103
 3163SOL     OW10387   4.128   4.271   6.733
 3163SOL    HW110388   4.075   4.200   6.686
 3163SOL    HW210389   4.219   4.278   6.692
 3164SOL     OW10390   3.896   5.565   1.744
 3164SOL    HW110391   3.922   5.485   1.690
 3164SOL    HW210392   3.875   5.641   1.684
 3165SOL     OW10393   0.898   5.734   1.883
 3165SOL    HW110394   0.935   5.753   1.792
 3165SOL    HW210395   0.965   5.682   1.936
 3166SOL     OW10396   4.606   2.321   4.017
 3166SOL    HW110397   4.513   2.330   3.983
 3166SOL    HW210398   4.646   2.236   3.982
 3167SOL     OW10399   5.376   4.227   0.827
 3167SOL    HW110400   5.387   4.158   0.899
 3167SOL    HW210401   5.460   4.281   0.819
 3168SOL     OW10402   5.878   3.223   0.034
 3168SOL    HW110403   5.808   3.169   7.017
 3168SOL    HW210404   5.836   3.304   0.074
 3169SOL     OW10405   2.327   4.248   3.673
 3169SOL    HW110406   2.344   4.195   3.590
 3169SOL    HW210407   2.263   4.198   3.732
 3170SOL     OW10408   4.329   5.648   2.033
 3170SOL    HW110409   4.288   5.695   1.954
 3170SOL    HW210410   4.414   5.695   2.058
 3171SOL     OW10411   6.339   1.903   1.866
 3171SOL    HW110412   6.418   1.944   1.912
 3171SOL    HW210413   6.299   1.832   1.924
 3172SOL     OW10414   6.805   5.117   6.980
 3172SOL    HW110415   6.754   5.200   6.959
 3172SOL    HW210416   6.805   5.103   0.050
 3173SOL     OW10417   3.170   2.112   6.756
 3173SOL    HW110418   3.174   2.026   6.807
 3173SOL    HW210419   3.130   2.095   6.666
 3174SOL     OW10420   3.076   2.688   6.595
 3174SOL    HW110421   3.128   2.704   6.679
 3174SOL    HW210422   3.092   2.763   6.531
 3175SOL     OW10423   5.788   1.470   1.773
 3175SOL    HW110424   5.760   1.420   1.856
 3175SOL    HW210425   5.860   1.418   1.727
 3176SOL     OW10426   1.067   3.408   5.414
 3176SOL    HW110427   1.132   3.424   5.489
 3176SOL    HW210428   1.113   3.423   5.327
 3177SOL     OW10429   5.607   4.350   3.925
 3177SOL    HW110430   5.695   4.397   3.935
 3177SOL    HW210431   5.579   4.313   4.013
 3178SOL     OW10432   6.383   2.501   7.000
 3178SOL    HW110433   6.427   2.411   6.994
 3178SOL    HW210434   6.432   2.565   6.941
 3179SOL     OW10435   1.525   2.058   1.989
 3179SOL    HW110436   1.536   2.041   1.891
 3179SOL    HW210437   1.460   2.132   2.002
 3180SOL     OW10438   6.294   6.814   0.446
 3180SOL    HW110439   6.358   6.769   0.508
 3180SOL    HW210440   6.248   6.889   0.493
 3181SOL     OW10441   6.502   2.301   3.609
 3181SOL    HW110442   6.482   2.390   3.568
 3181SOL    HW210443   6.441   2.286   3.687
 3182SOL     OW10444   2.335   0.272   0.040
 3182SOL    HW110445   2.389   0.277   6.985
 3182SOL    HW210446   2.378   0.207   0.102
 3183SOL     OW10447   4.718   4.270   2.372
 3183SOL    HW110448   4.721   4.213   2.454
 3183SOL    HW210449   4.658   4.348   2.388
 3184SOL     OW10450   0.481   2.247   3.255
 3184SOL    HW110451   0.565   2.271   3.205
 3184SOL    HW210452   0.407   2.233   3.190
 3185SOL     OW10453   4.427   6.316   6.695
 3185SOL    HW110454   4.426   6.370   6.611
 3185SOL    HW210455   4.349   6.253   6.696
 3186SOL     OW10456   3.080   2.220   0.385
 3186SOL    HW110457   3.077   2.251   0.290
 3186SOL    HW210458   3.033   2.287   0.443
 3187SOL     OW10459   4.160   5.271   1.290
 3187SOL    HW110460   4.240   5.249   1.235
 3187SOL    HW210461   4.088   5.308   1.231
 3188SOL     OW10462   1.358   6.894   3.932
 3188SOL    HW110463   1.307   6.979   3.917
 3188SOL    HW210464   1.298   6.826   3.973
 3189SOL     OW10465   1.026   2.020   1.117
 3189SOL    HW110466   1.048   1.971   1.032
 3189SOL    HW210467   0.927   2.023   1.128
 3190SOL     OW10468   0.193   5.568   0.217
 3190SOL    HW110469   0.171   5.533   0.308
 3190SOL    HW210470   0.211   5.666   0.222
 3191SOL     OW10471   5.007   5.011   1.491
 3191SOL    HW110472   5.030   4.933   1.433
 3191SOL    HW210473   4.975   5.087   1.434
 3192SOL     OW10474   0.769   3.614   1.085
 3192SOL    HW110475   0.832   3.681   1.123
 3192SOL    HW210476   0.683   3.658   1.061
 3193SOL     OW10477   3.956   1.867   5.525
 3193SOL    HW110478   3.857   1.865   5.516
 3193SOL    HW210479   3.983   1.824   5.612
 3194SOL     OW10480   1.618   2.236   5.803
 3194SOL    HW110481   1.677   2.248   5.724
 3194SOL    HW210482   1.673   2.235   5.887
 3195SOL     OW10483   1.317   1.326   2.095
 3195SOL    HW110484   1.227   1.317   2.052
 3195SOL    HW210485   1.310   1.302   2.192
 3196SOL     OW10486   0.062   0.690   6.831
 3196SOL    HW110487   7.020   0.671   6.763
 3196SOL    HW210488   0.033   0.655   6.920
 3197SOL     OW10489   2.759   6.708   4.795
 3197SOL    HW110490   2.682   6.701   4.858
 3197SOL    HW210491   2.728   6.743   4.706
 3198SOL     OW10492   6.682   3.355   2.935
 3198SOL    HW110493   6.692   3.292   3.012
 3198SOL    HW210494   6.762   3.414   2.928
 3199SOL     OW10495   5.078   4.030   2.789
 3199SOL    HW110496   5.079   3.942   2.742
 3199SOL    HW210497   5.128   4.098   2.735
 3200SOL     OW10498   5.807   3.143   2.630
 3200SOL    HW110499   5.742   3.198   2.682
 3200SOL    HW210500   5.887   3.198   2.608
 3201SOL     OW10501   6.513   4.412   3.190
 3201SOL    HW110502   6.583   4.471   3.150
 3201SOL    HW210503   6.550   4.320   3.203
 3202SOL     OW10504   1.089   4.993   0.895
 3202SOL    HW110505   0.999   4.950   0.891
 3202SOL    HW210506   1.158   4.928   0.864
 3203SOL     OW10507   6.059   1.309   0.729
 3203SOL    HW110508   6.103   1.223   0.755
 3203SOL    HW210509   6.110   1.385   0.770
 3204SOL     OW10510   4.087   0.116   3.419
 3204SOL    HW110511   4.054   0.021   3.417
 3204SOL    HW210512   4.016   0.177   3.384
 3205SOL     OW10513   5.285   3.322   6.166
 3205SOL    HW110514   5.367   3.278   6.128
 3205SOL    HW210515   5.263   3.403   6.111
 3206SOL     OW10516   1.659   4.346   1.156
 3206SOL    HW110517   1.613   4.324   1.070
 3206SOL    HW210518   1.684   4.443   1.157
 3207SOL     OW10519   1.379   1.105   6.730
 3207SOL    HW110520   1.394   1.047   6.650
 3207SOL    HW210521   1.315   1.060   6.792
 3208SOL     OW10522   5.252   6.437   6.572
 3208SOL    HW110523   5.168   6.401   6.532
 3208SOL    HW210524   5.321   6.365   6.575
 3209SOL     OW10525   3.056   5.570   4.059
 3209SOL    HW110526   3.070   5.484   4.107
 3209SOL    HW210527   2.980   5.619   4.101
 3210SOL     OW10528   1.169   4.401   1.210
 3210SOL    HW110529   1.170   4.496   1.178
 3210SOL    HW210530   1.091   4.387   1.270
 3211SOL     OW10531   1.372   3.824   0.876
 3211SOL    HW110532   1.327   3.765   0.944
 3211SOL    HW210533   1.471   3.808   0.879
 3212SOL     OW10534   3.063   6.774   2.193
 3212SOL    HW110535   3.084   6.780   2.290
 3212SOL    HW210536   2.990   6.839   2.170
 3213SOL     OW10537   1.118   6.978   0.088
 3213SOL    HW110538   1.161   6.932   0.010
 3213SOL    HW210539   1.162   0.036   0.104
 3214SOL     OW10540   4.358   5.427   1.774
 3214SOL    HW110541   4.442   5.403   1.823
 3214SOL    HW210542   4.370   5.516   1.730
 3215SOL     OW10543   0.487   4.114   0.391
 3215SOL    HW110544   0.586   4.120   0.409
 3215SOL    HW210545   0.460   4.019   0.383
 3216SOL     OW10546   5.895   5.393   0.544
 3216SOL    HW110547   5.923   5.463   0.478
 3216SOL    HW210548   5.877   5.435   0.633
 3217SOL     OW10549   0.257   5.560   2.370
 3217SOL    HW110550   0.344   5.595   2.403
 3217SOL    HW210551   0.245   5.465   2.399
 3218SOL     OW10552   5.637   2.511   3.209
 3218SOL    HW110553   5.704   2.579   3.240
 3218SOL    HW210554   5.638   2.433   3.272
 3219SOL     OW10555   0.339   1.444   3.684
 3219SOL    HW110556   0.270   1.382   3.722
 3219SOL    HW210557   0.424   1.436   3.736
 3220SOL     OW10558   6.984   5.205   5.630
 3220SOL    HW110559   6.991   5.123   5.573
 3220SOL    HW210560   0.029   5.205   5.697
 3221SOL     OW10561   3.629   0.247   2.167
 3221SOL    HW110562   3.648   0.331   2.219
 3221SOL    HW210563   3.662   0.258   2.074
 3222SOL     OW10564   2.762   1.456   2.648
 3222SOL    HW110565   2.852   1.488   2.678
 3222SOL    HW210566   2.773   1.376   2.589
 3223SOL     OW10567   2.702   6.638   6.976
 3223SOL    HW110568   2.743   6.561   6.928
 3223SOL    HW210569   2.703   6.621   0.045
 3224SOL     OW10570   4.631   2.675   4.615
 3224SOL    HW110571   4.534   2.693   4.597
 3224SOL    HW210572   4.659   2.724   4.698
 3225SOL     OW10573   5.112   2.297   5.883
 3225SOL    HW110574   5.026   2.321   5.837
 3225SOL    HW210575   5.162   2.231   5.828
 3226SOL     OW10576   2.266   1.179   2.120
 3226SOL    HW110577   2.196   1.251   2.122
 3226SOL    HW210578   2.320   1.188   2.036
 3227SOL     OW10579   3.663   3.576   6.625
 3227SOL    HW110580   3.733   3.573   6.696
 3227SOL    HW210581   3.664   3.666   6.581
 3228SOL     OW10582   6.577   4.025   1.008
 3228SOL    HW110583   6.554   4.063   1.098
 3228SOL    HW210584   6.506   3.960   0.981
 3229SOL     OW10585   3.751   0.915   5.905
 3229SOL    HW110586   3.705   0.986   5.852
 3229SOL    HW210587   3.819   0.870   5.848
 3230SOL     OW10588   2.128   5.159   5.914
 3230SOL    HW110589   2.177   5.085   5.959
 3230SOL    HW210590   2.190   5.236   5.899
 3231SOL     OW10591   2.598   0.434   2.094
 3231SOL    HW110592   2.686   0.472   2.066
 3231SOL    HW210593   2.536   0.433   2.017
 3232SOL     OW10594   4.242   6.610   4.730
 3232SOL    HW110595   4.298   6.692   4.717
 3232SOL    HW210596   4.239   6.558   4.644
 3233SOL     OW10597   6.585   2.260   0.664
 3233SOL    HW110598   6.571   2.341   0.720
 3233SOL    HW210599   6.498   2.234   0.621
 3234SOL     OW10600   0.574   2.304   0.229
 3234SOL    HW110601   0.563   2.365   0.149
 3234SOL    HW210602   0.662   2.258   0.223
 3235SOL     OW10603   6.920   6.931   1.392
 3235SOL    HW110604   6.897   7.017   1.438
 3235SOL    HW210605   6.877   6.931   1.301
 3236SOL     OW10606   0.885   3.898   0.316
 3236SOL    HW110607   0.876   3.966   0.243
 3236SOL    HW210608   0.981   3.889   0.342
 3237SOL     OW10609   6.000   1.284   2.145
 3237SOL    HW110610   6.080   1.296   2.205
 3237SOL    HW210611   6.022   1.317   2.053
 3238SOL     OW10612   6.629   5.336   6.886
 3238SOL    HW110613   6.542   5.294   6.858
 3238SOL    HW210614   6.612   5.403   6.958
 3239SOL     OW10615   0.334   1.297   2.582
 3239SOL    HW110616   0.413   1.357   2.597
 3239SOL    HW210617   0.250   1.347   2.599
 3240SOL     OW10618   0.128   6.274   6.306
 3240SOL    HW110619   0.118   6.342   6.378
 3240SOL    HW210620   0.066   6.295   6.231
 3241SOL     OW10621   4.805   1.176   5.729
 3241SOL    HW110622   4.843   1.239   5.661
 3241SOL    HW210623   4.721   1.136   5.693
 3242SOL     OW10624   4.468   4.543   6.709
 3242SOL    HW110625   4.463   4.601   6.790
 3242SOL    HW210626   4.415   4.585   6.635
 3243SOL     OW10627   4.432   4.692   0.736
 3243SOL    HW110628   4.476   4.713   0.824
 3243SOL    HW210629   4.502   4.658   0.672
 3244SOL     OW10630   5.269   6.438   6.913
 3244SOL    HW110631   5.272   6.464   6.816
 3244SOL    HW210632   5.328   6.360   6.928
 3245SOL     OW10633   5.300   2.954   4.058
 3245SOL    HW110634   5.386   2.998   4.032
 3245SOL    HW210635   5.313   2.855   4.065
 3246SOL     OW10636   6.827   6.955   2.866
 3246SOL    HW110637   6.757   7.024   2.847
 3246SOL    HW210638   6.888   6.988   2.938
 3247SOL     OW10639   5.954   4.453   2.142
 3247SOL    HW110640   6.030   4.389   2.146
 3247SOL    HW210641   5.909   4.446   2.053
 3248SOL     OW10642   5.772   2.696   2.043
 3248SOL    HW110643   5.838   2.771   2.051
 3248SOL    HW210644   5.680   2.730   2.057
 3249SOL     OW10645   3.772   4.041   3.649
 3249SOL    HW110646   3.712   4.015   3.725
 3249SOL    HW210647   3.864   4.007   3.665
 3250SOL     OW10648   5.877   0.197   2.636
 3250SOL    HW110649   5.931   0.231   2.559
 3250SOL    HW210650   5.794   0.252   2.645
 3251SOL     OW10651   3.523   0.702   3.449
 3251SOL    HW110652   3.426   0.700   3.425
 3251SOL    HW210653   3.556   0.796   3.447
 3252SOL     OW10654   2.783   1.132   2.646
 3252SOL    HW110655   2.779   1.166   2.740
 3252SOL    HW210656   2.750   1.038   2.644
 3253SOL     OW10657   4.548   3.338   1.120
 3253SOL    HW110658   4.563   3.427   1.076
 3253SOL    HW210659   4.480   3.286   1.068
 3254SOL     OW10660   4.593   5.910   6.888
 3254SOL    HW110661   4.691   5.903   6.903
 3254SOL    HW210662   4.554   5.977   6.952
 3255SOL     OW10663   4.198   6.882   1.289
 3255SOL    HW110664   4.113   6.831   1.301
 3255SOL    HW210665   4.202   6.956   1.356
 3256SOL     OW10666   3.924   1.391   1.082
 3256SOL    HW110667   3.836   1.352   1.110
 3256SOL    HW210668   3.940   1.477   1.132
 3257SOL     OW10669   1.479   1.920   1.595
 3257SOL    HW110670   1.561   1.888   1.547
 3257SOL    HW210671   1.494   2.014   1.627
 3258SOL     OW10672   4.414   5.828   2.408
 3258SOL    HW110673   4.339   5.772   2.373
 3258SOL    HW210674   4.445   5.790   2.496
 3259SOL     OW10675   4.977   4.945   5.304
 3259SOL    HW110676   5.048   4.916   5.369
 3259SOL    HW210677   4.976   4.882   5.227
 3260SOL     OW10678   1.760   2.577   1.006
 3260SOL    HW110679   1.666   2.557   1.034
 3260SOL    HW210680   1.824   2.538   1.072
 3261SOL     OW10681   5.742   0.770   1.419
 3261SOL    HW110682   5.701   0.857   1.446
 3261SOL    HW210683   5.741   0.707   1.497
 3262SOL     OW10684   3.707   2.167   2.529
 3262SOL    HW110685   3.657   2.081   2.540
 3262SOL    HW210686   3.659   2.240   2.577
 3263SOL     OW10687   3.005   1.438   2.927
 3263SOL    HW110688   2.966   1.368   2.867
 3263SOL    HW210689   3.006   1.526   2.879
 3264SOL     OW10690   1.781   5.792   0.931
 3264SOL    HW110691   1.720   5.852   0.879
 3264SOL    HW210692   1.760   5.798   1.028
 3265SOL     OW10693   4.588   0.126   6.177
 3265SOL    HW110694   4.681   0.118   6.214
 3265SOL    HW210695   4.522   0.101   6.247
 3266SOL     OW10696   2.365   4.231   0.116
 3266SOL    HW110697   2.355   4.186   0.205
 3266SOL    HW210698   2.275   4.260   0.083
 3267SOL     OW10699   3.155   6.137   1.655
 3267SOL    HW110700   3.143   6.227   1.613
 3267SOL    HW210701   3.070   6.108   1.699
 3268SOL     OW10702   2.679   4.018   1.577
 3268SOL    HW110703   2.726   4.062   1.501
 3268SOL    HW210704   2.637   4.088   1.636
 3269SOL     OW10705   5.274   5.860   2.448
 3269SOL    HW110706   5.360   5.810   2.447
 3269SOL    HW210707   5.275   5.927   2.523
 3270SOL     OW10708   1.223   4.591   6.572
 3270SOL    HW110709   1.314   4.633   6.577
 3270SOL    HW210710   1.187   4.578   6.664
 3271SOL     OW10711   6.104   3.307   1.563
 3271SOL    HW110712   6.196   3.300   1.524
 3271SOL    HW210713   6.082   3.223   1.613
 3272SOL     OW10714   2.710   4.401   6.076
 3272SOL    HW110715   2.803   4.383   6.043
 3272SOL    HW210716   2.652   4.427   5.999
 3273SOL     OW10717   6.361   5.239   0.050
 3273SOL    HW110718   6.382   5.251   6.983
 3273SOL    HW210719   6.296   5.309   0.079
 3274SOL     OW10720   5.484   0.464   0.992
 3274SOL    HW110721   5.545   0.538   0.961
 3274SOL    HW210722   5.532   0.377   0.985
 3275SOL     OW10723   5.156   0.877   6.981
 3275SOL    HW110724   5.185   0.820   0.029
 3275SOL    HW210725   5.113   0.960   7.015
 3276SOL     OW10726   3.788   5.896   6.630
 3276SOL    HW110727   3.796   5.887   6.729
 3276SOL    HW210728   3.878   5.883   6.588
 3277SOL     OW10729   3.362   0.520   0.864
 3277SOL    HW110730   3.331   0.612   0.838
 3277SOL    HW210731   3.386   0.519   0.961
 3278SOL     OW10732   1.246   0.835   5.683
 3278SOL    HW110733   1.255   0.749   5.733
 3278SOL    HW210734   1.151   0.848   5.656
 3279SOL     OW10735   4.897   6.818   0.209
 3279SOL    HW110736   4.961   6.816   0.287
 3279SOL    HW210737   4.948   6.809   0.124
 3280SOL     OW10738   5.032   4.350   4.985
 3280SOL    HW110739   5.030   4.289   4.905
 3280SOL    HW210740   4.939   4.360   5.020
 3281SOL     OW10741   0.853   4.651   1.427
 3281SOL    HW110742   0.912   4.725   1.458
 3281SOL    HW210743   0.879   4.565   1.473
 3282SOL     OW10744   0.081   4.427   4.732
 3282SOL    HW110745   0.179   4.428   4.714
 3282SOL    HW210746   0.031   4.431   4.645
 3283SOL     OW10747   3.262   1.095   0.819
 3283SOL    HW110748   3.275   1.021   0.753
 3283SOL    HW210749   3.168   1.128   0.814
 3284SOL     OW10750   0.986   5.897   6.776
 3284SOL    HW110751   1.072   5.936   6.743
 3284SOL    HW210752   0.911   5.929   6.719
 3285SOL     OW10753   4.135   2.231   4.194
 3285SOL    HW110754   4.188   2.147   4.184
 3285SOL    HW210755   4.197   2.307   4.214
 3286SOL     OW10756   4.023   3.093   2.540
 3286SOL    HW110757   3.983   3.180   2.568
 3286SOL    HW210758   4.120   3.090   2.566
 3287SOL     OW10759   0.605   0.298   0.342
 3287SOL    HW110760   0.603   0.388   0.385
 3287SOL    HW210761   0.582   0.228   0.409
 3288SOL     OW10762   2.206   6.179   0.094
 3288SOL    HW110763   2.257   6.263   0.074
 3288SOL    HW210764   2.138   6.198   0.165
 3289SOL     OW10765   3.345   1.142   5.518
 3289SOL    HW110766   3.297   1.168   5.434
 3289SOL    HW210767   3.293   1.071   5.566
 3290SOL     OW10768   7.018   5.025   0.999
 3290SOL    HW110769   0.046   5.106   1.010
 3290SOL    HW210770   0.041   4.953   0.955
 3291SOL     OW10771   1.883   0.634   6.535
 3291SOL    HW110772   1.929   0.719   6.511
 3291SOL    HW210773   1.886   0.621   6.634
 3292SOL     OW10774   0.088   1.111   0.711
 3292SOL    HW110775   0.184   1.090   0.732
 3292SOL    HW210776   0.055   1.048   0.640
 3293SOL     OW10777   6.361   4.722   1.491
 3293SOL    HW110778   6.348   4.663   1.571
 3293SOL    HW210779   6.435   4.787   1.509
 3294SOL     OW10780   5.635   3.105   6.201
 3294SOL    HW110781   5.626   3.076   6.296
 3294SOL    HW210782   5.701   3.046   6.154
 3295SOL     OW10783   1.252   2.740   1.917
 3295SOL    HW110784   1.336   2.785   1.888
 3295SOL    HW210785   1.273   2.648   1.951
 3296SOL     OW10786   1.275   0.744   2.222
 3296SOL    HW110787   1.202   0.758   2.154
 3296SOL    HW210788   1.246   0.675   2.288
 3297SOL     OW10789   2.873   1.657   5.543
 3297SOL    HW110790   2.882   1.612   5.453
 3297SOL    HW210791   2.957   1.642   5.596
 3298SOL     OW10792   5.741   1.951   5.851
 3298SOL    HW110793   5.748   1.852   5.837
 3298SOL    HW210794   5.751   1.972   5.948
 3299SOL     OW10795   3.728   5.838   2.828
 3299SOL    HW110796   3.798   5.905   2.804
 3299SOL    HW210797   3.638   5.877   2.810
 3300SOL     OW10798   0.995   0.378   6.125
 3300SOL    HW110799   1.050   0.300   6.155
 3300SOL    HW210800   1.026   0.408   6.034
 3301SOL     OW10801   1.961   3.160   3.445
 3301SOL    HW110802   1.963   3.071   3.490
 3301SOL    HW210803   1.868   3.197   3.448
 3302SOL     OW10804   0.924   5.181   5.247
 3302SOL    HW110805   0.848   5.143   5.195
 3302SOL    HW210806   0.953   5.268   5.205
 3303SOL     OW10807   3.053   3.435   0.357
 3303SOL    HW110808   2.983   3.365   0.367
 3303SOL    HW210809   3.138   3.394   0.323
 3304SOL     OW10810   2.084   5.729   5.591
 3304SOL    HW110811   2.046   5.814   5.554
 3304SOL    HW210812   2.179   5.743   5.618
 3305SOL     OW10813   2.249   1.663   2.480
 3305SOL    HW110814   2.278   1.719   2.402
 3305SOL    HW210815   2.292   1.573   2.474
 3306SOL     OW10816   2.185   5.580   5.112
 3306SOL    HW110817   2.276   5.542   5.095
 3306SOL    HW210818   2.117   5.507   5.109
 3307SOL     OW10819   0.822   5.979   6.595
 3307SOL    HW110820   0.880   6.007   6.519
 3307SOL    HW210821   0.726   5.985   6.569
 3308SOL     OW10822   2.666   5.731   1.780
 3308SOL    HW110823   2.695   5.657   1.720
 3308SOL    HW210824   2.571   5.717   1.807
 3309SOL     OW10825   5.990   5.303   3.551
 3309SOL    HW110826   5.907   5.295   3.496
 3309SOL    HW210827   6.026   5.396   3.545
 3310SOL     OW10828   0.119   4.487   5.531
 3310SOL    HW110829   0.068   4.516   5.450
 3310SOL    HW210830   0.125   4.387   5.532
 3311SOL     OW10831   3.600   4.314   0.443
 3311SOL    HW110832   3.666   4.350   0.378
 3311SOL    HW210833   3.641   4.238   0.494
 3312SOL     OW10834   4.176   4.336   5.711
 3312SOL    HW110835   4.275   4.331   5.716
 3312SOL    HW210836   4.141   4.391   5.787
 3313SOL     OW10837   0.934   6.478   3.656
 3313SOL    HW110838   0.909   6.445   3.747
 3313SOL    HW210839   1.034   6.484   3.649
 3314SOL     OW10840   2.437   1.474   2.413
 3314SOL    HW110841   2.454   1.525   2.328
 3314SOL    HW210842   2.388   1.390   2.392
 3315SOL     OW10843   0.025   4.276   4.949
 3315SOL    HW110844   0.043   4.334   4.870
 3315SOL    HW210845   0.081   4.306   5.026
 3316SOL     OW10846   5.523   1.170   5.264
 3316SOL    HW110847   5.539   1.111   5.185
 3316SOL    HW210848   5.445   1.135   5.316
 3317SOL     OW10849   4.966   2.880   2.040
 3317SOL    HW110850   4.913   2.960   2.012
 3317SOL    HW210851   4.925   2.839   2.121
 3318SOL     OW10852   1.919   1.372   1.148
 3318SOL    HW110853   1.899   1.470   1.153
 3318SOL    HW210854   1.989   1.348   1.215
 3319SOL     OW10855   5.783   1.370   3.737
 3319SOL    HW110856   5.789   1.459   3.693
 3319SOL    HW210857   5.761   1.382   3.834
 3320SOL     OW10858   6.123   1.142   5.833
 3320SOL    HW110859   6.190   1.136   5.907
 3320SOL    HW210860   6.126   1.234   5.793
 3321SOL     OW10861   5.456   1.787   0.604
 3321SOL    HW110862   5.505   1.744   0.679
 3321SOL    HW210863   5.519   1.841   0.548
 3322SOL     OW10864   6.533   2.460   0.837
 3322SOL    HW110865   6.536   2.559   0.827
 3322SOL    HW210866   6.605   2.430   0.899
 3323SOL     OW10867   3.194   3.046   0.162
 3323SOL    HW110868   3.147   2.962   0.135
 3323SOL    HW210869   3.174   3.066   0.258
 3324SOL     OW10870   3.609   4.741   6.554
 3324SOL    HW110871   3.559   4.736   6.640
 3324SOL    HW210872   3.702   4.705   6.567
 3325SOL     OW10873   0.133   3.867   6.837
 3325SOL    HW110874   0.141   3.867   6.738
 3325SOL    HW210875   0.193   3.797   6.876
 3326SOL     OW10876   4.849   1.981   1.921
 3326SOL    HW110877   4.929   2.006   1.975
 3326SOL    HW210878   4.784   1.932   1.979
 3327SOL     OW10879   3.105   5.363   1.849
 3327SOL    HW110880   3.040   5.425   1.893
 3327SOL    HW210881   3.136   5.296   1.917
 3328SOL     OW10882   4.569   2.078   0.725
 3328SOL    HW110883   4.540   2.061   0.819
 3328SOL    HW210884   4.489   2.095   0.668
 3329SOL     OW10885   5.898   0.229   4.584
 3329SOL    HW110886   5.804   0.197   4.596
 3329SOL    HW210887   5.921   0.291   4.659
 3330SOL     OW10888   6.529   4.155   1.872
 3330SOL    HW110889   6.474   4.215   1.814
 3330SOL    HW210890   6.601   4.208   1.916
 3331SOL     OW10891   2.441   2.868   1.707
 3331SOL    HW110892   2.410   2.963   1.700
 3331SOL    HW210893   2.405   2.827   1.791
 3332SOL     OW10894   5.481   5.810   0.271
 3332SOL    HW110895   5.490   5.819   0.370
 3332SOL    HW210896   5.536   5.733   0.239
 3333SOL     OW10897   4.453   5.276   6.493
 3333SOL    HW110898   4.430   5.273   6.590
 3333SOL    HW210899   4.514   5.199   6.471
 3334SOL     OW10900   3.279   3.858   1.558
 3334SOL    HW110901   3.303   3.923   1.630
 3334SOL    HW210902   3.179   3.853   1.550
 3335SOL     OW10903   4.618   5.886   5.980
 3335SOL    HW110904   4.620   5.901   5.882
 3335SOL    HW210905   4.570   5.962   6.025
 3336SOL     OW10906   2.839   5.652   5.046
 3336SOL    HW110907   2.830   5.644   5.145
 3336SOL    HW210908   2.812   5.743   5.017
 3337SOL     OW10909   2.948   3.871   2.437
 3337SOL    HW110910   2.978   3.777   2.424
 3337SOL    HW210911   2.995   3.931   2.372
 3338SOL     OW10912   5.729   2.744   1.519
 3338SOL    HW110913   5.787   2.779   1.592
 3338SOL    HW210914   5.664   2.815   1.491
 3339SOL     OW10915   6.466   6.839   6.658
 3339SOL    HW110916   6.437   6.744   6.659
 3339SOL    HW210917   6.389   6.898   6.634
 3340SOL     OW10918   3.690   0.446   2.399
 3340SOL    HW110919   3.623   0.419   2.469
 3340SOL    HW210920   3.779   0.461   2.442
 3341SOL     OW10921   0.870   6.027   3.412
 3341SOL    HW110922   0.895   6.106   3.468
 3341SOL    HW210923   0.831   5.955   3.470
 3342SOL     OW10924   2.703   6.740   3.960
 3342SOL    HW110925   2.739   6.692   3.880
 3342SOL    HW210926   2.659   6.675   4.021
 3343SOL     OW10927   4.552   2.637   0.488
 3343SOL    HW110928   4.641   2.595   0.503
 3343SOL    HW210929   4.562   2.736   0.486
 3344SOL     OW10930   5.810   3.414   4.268
 3344SOL    HW110931   5.839   3.403   4.173
 3344SOL    HW210932   5.886   3.449   4.322
 3345SOL     OW10933   1.543   3.818   6.041
 3345SOL    HW110934   1.573   3.881   6.113
 3345SOL    HW210935   1.449   3.789   6.060
 3346SOL     OW10936   2.125   0.831   0.725
 3346SOL    HW110937   2.181   0.748   0.731
 3346SOL    HW210938   2.030   0.809   0.746
 3347SOL     OW10939   0.511   4.356   4.052
 3347SOL    HW110940   0.510   4.260   4.079
 3347SOL    HW210941   0.553   4.411   4.125
 3348SOL     OW10942   3.052   3.117   3.657
 3348SOL    HW110943   3.005   3.192   3.704
 3348SOL    HW210944   3.120   3.077   3.720
 3349SOL     OW10945   0.894   5.549   3.794
 3349SOL    HW110946   0.839   5.465   3.800
 3349SOL    HW210947   0.867   5.611   3.867
 3350SOL     OW10948   1.613   2.334   5.404
 3350SOL    HW110949   1.566   2.257   5.361
 3350SOL    HW210950   1.689   2.301   5.459
 3351SOL     OW10951   5.488   0.794   2.634
 3351SOL    HW110952   5.532   0.788   2.544
 3351SOL    HW210953   5.481   0.890   2.662
 3352SOL     OW10954   0.266   2.349   0.583
 3352SOL    HW110955   0.360   2.384   0.585
 3352SOL    HW210956   0.222   2.376   0.497
 3353SOL     OW10957   1.549   6.002   2.023
 3353SOL    HW110958   1.458   5.962   2.011
 3353SOL    HW210959   1.617   5.929   2.028
 3354SOL     OW10960   5.262   2.489   4.836
 3354SOL    HW110961   5.221   2.567   4.788
 3354SOL    HW210962   5.218   2.405   4.805
 3355SOL     OW10963   1.802   1.628   0.258
 3355SOL    HW110964   1.713   1.592   0.228
 3355SOL    HW210965   1.850   1.559   0.311
 3356SOL     OW10966   2.108   3.769   6.138
 3356SOL    HW110967   2.037   3.699   6.150
 3356SOL    HW210968   2.072   3.842   6.079
 3357SOL     OW10969   2.647   4.698   1.825
 3357SOL    HW110970   2.725   4.691   1.887
 3357SOL    HW210971   2.678   4.732   1.736
 3358SOL     OW10972   5.091   0.505   0.710
 3358SOL    HW110973   5.020   0.529   0.775
 3358SOL    HW210974   5.069   0.417   0.668
 3359SOL     OW10975   6.887   0.416   3.602
 3359SOL    HW110976   6.879   0.320   3.631
 3359SOL    HW210977   6.829   0.473   3.660
 3360SOL     OW10978   0.692   0.941   6.838
 3360SOL    HW110979   0.602   0.978   6.861
 3360SOL    HW210980   0.695   0.920   6.740
 3361SOL     OW10981   0.508   4.063   2.723
 3361SOL    HW110982   0.518   4.156   2.686
 3361SOL    HW210983   0.518   4.067   2.823
 3362SOL     OW10984   3.817   1.118   3.803
 3362SOL    HW110985   3.794   1.208   3.840
 3362SOL    HW210986   3.735   1.061   3.799
 3363SOL     OW10987   0.012   0.144   0.075
 3363SOL    HW110988   7.012   0.052   0.099
 3363SOL    HW210989   0.111   0.151   0.085
 3364SOL     OW10990   1.253   4.862   4.132
 3364SOL    HW110991   1.160   4.833   4.157
 3364SOL    HW210992   1.255   4.887   4.035
 3365SOL     OW10993   0.642   2.339   5.408
 3365SOL    HW110994   0.733   2.358   5.371
 3365SOL    HW210995   0.576   2.334   5.333
 3366SOL     OW10996   5.798   0.651   6.163
 3366SOL    HW110997   5.775   0.650   6.066
 3366SOL    HW210998   5.757   0.731   6.207
 3367SOL     OW10999   3.116   2.900   1.427
 3367SOL    HW111000   3.160   2.967   1.487
 3367SOL    HW211001   3.148   2.913   1.334
 3368SOL     OW11002   0.764   5.435   6.190
 3368SOL    HW111003   0.855   5.442   6.230
 3368SOL    HW211004   0.769   5.386   6.103
 3369SOL     OW11005   3.712   2.522   5.587
 3369SOL    HW111006   3.783   2.586   5.556
 3369SOL    HW211007   3.697   2.452   5.518
 3370SOL     OW11008   6.715   6.246   5.931
 3370SOL    HW111009   6.626   6.251   5.976
 3370SOL    HW211010   6.717   6.169   5.868
 3371SOL     OW11011   1.662   3.762   2.414
 3371SOL    HW111012   1.726   3.686   2.425
 3371SOL    HW211013   1.569   3.727   2.413
 3372SOL     OW11014   0.592   1.210   1.306
 3372SOL    HW111015   0.675   1.266   1.303
 3372SOL    HW211016   0.518   1.257   1.256
 3373SOL     OW11017   0.200   1.998   2.961
 3373SOL    HW111018   0.240   1.914   3.000
 3373SOL    HW211019   0.165   1.978   2.870
 3374SOL     OW11020   2.303   6.027   4.391
 3374SOL    HW111021   2.237   6.088   4.348
 3374SOL    HW211022   2.393   6.070   4.390
 3375SOL     OW11023   5.651   5.097   6.113
 3375SOL    HW111024   5.746   5.126   6.105
 3375SOL    HW211025   5.646   4.997   6.110
 3376SOL     OW11026   3.318   3.035   3.750
 3376SOL    HW111027   3.400   2.979   3.757
 3376SOL    HW211028   3.343   3.131   3.742
 3377SOL     OW11029   0.357   6.728   4.495
 3377SOL    HW111030   0.324   6.705   4.403
 3377SOL    HW211031   0.394   6.821   4.494
 3378SOL     OW11032   6.588   0.840   0.651
 3378SOL    HW111033   6.614   0.936   0.659
 3378SOL    HW211034   6.510   0.832   0.588
 3379SOL     OW11035   0.054   5.676   6.489
 3379SOL    HW111036   0.119   5.617   6.536
 3379SOL    HW211037   7.003   5.689   6.547
 3380SOL     OW11038   5.650   6.817   5.921
 3380SOL    HW111039   5.705   6.768   5.854
 3380SOL    HW211040   5.688   6.908   5.936
 3381SOL     OW11041   1.237   3.007   1.343
 3381SOL    HW111042   1.148   2.972   1.371
 3381SOL    HW211043   1.225   3.076   1.272
 3382SOL     OW11044   1.126   0.622   0.529
 3382SOL    HW111045   1.153   0.581   0.441
 3382SOL    HW211046   1.127   0.551   0.600
 3383SOL     OW11047   4.193   5.714   2.253
 3383SOL    HW111048   4.105   5.667   2.247
 3383SOL    HW211049   4.251   5.684   2.178
 3384SOL     OW11050   2.693   3.757   5.439
 3384SOL    HW111051   2.736   3.704   5.365
 3384SOL    HW211052   2.711   3.713   5.527
 3385SOL     OW11053   0.377   3.046   3.727
 3385SOL    HW111054   0.310   3.008   3.792
 3385SOL    HW211055   0.332   3.063   3.640
 3386SOL     OW11056   6.696   3.311   6.605
 3386SOL    HW111057   6.688   3.300   6.705
 3386SOL    HW211058   6.770   3.375   6.585
 3387SOL     OW11059   3.035   1.359   3.971
 3387SOL    HW111060   3.083   1.322   4.051
 3387SOL    HW211061   2.969   1.428   4.001
 3388SOL     OW11062   5.186   3.296   1.841
 3388SOL    HW111063   5.086   3.295   1.846
 3388SOL    HW211064   5.215   3.273   1.749
 3389SOL     OW11065   5.202   5.226   5.043
 3389SOL    HW111066   5.216   5.315   5.000
 3389SOL    HW211067   5.238   5.228   5.136
 3390SOL     OW11068   5.248   4.286   5.964
 3390SOL    HW111069   5.220   4.303   5.870
 3390SOL    HW211070   5.196   4.208   6.000
 3391SOL     OW11071   5.420   2.794   4.898
 3391SOL    HW111072   5.387   2.723   4.836
 3391SOL    HW211073   5.446   2.753   4.985
 3392SOL     OW11074   2.799   6.981   3.633
 3392SOL    HW111075   2.720   6.965   3.692
 3392SOL    HW211076   2.788   6.930   3.548
 3393SOL     OW11077   0.273   6.332   0.100
 3393SOL    HW111078   0.311   6.314   0.191
 3393SOL    HW211079   0.300   6.258   0.038
 3394SOL     OW11080   6.315   2.914   0.941
 3394SOL    HW111081   6.354   2.988   0.887
 3394SOL    HW211082   6.387   2.849   0.966
 3395SOL     OW11083   5.906   3.213   3.466
 3395SOL    HW111084   5.821   3.160   3.461
 3395SOL    HW211085   5.972   3.176   3.401
 3396SOL     OW11086   5.797   2.108   3.691
 3396SOL    HW111087   5.782   2.024   3.639
 3396SOL    HW211088   5.831   2.180   3.631
 3397SOL     OW11089   2.733   1.035   5.555
 3397SOL    HW111090   2.662   1.020   5.486
 3397SOL    HW211091   2.765   1.130   5.550
 3398SOL     OW11092   1.165   6.704   3.977
 3398SOL    HW111093   1.092   6.769   3.953
 3398SOL    HW211094   1.164   6.688   4.076
 3399SOL     OW11095   5.582   4.425   4.509
 3399SOL    HW111096   5.597   4.523   4.496
 3399SOL    HW211097   5.653   4.373   4.462
 3400SOL     OW11098   4.881   2.294   5.710
 3400SOL    HW111099   4.933   2.347   5.643
 3400SOL    HW211100   4.811   2.352   5.751
 3401SOL     OW11101   6.972   3.402   0.759
 3401SOL    HW111102   6.961   3.495   0.724
 3401SOL    HW211103   6.971   3.403   0.859
 3402SOL     OW11104   3.705   6.502   6.885
 3402SOL    HW111105   3.801   6.523   6.868
 3402SOL    HW211106   3.695   6.467   6.979
 3403SOL     OW11107   4.499   6.933   4.905
 3403SOL    HW111108   4.444   6.867   4.855
 3403SOL    HW211109   4.441   6.984   4.969
 3404SOL     OW11110   5.397   1.693   0.162
 3404SOL    HW111111   5.304   1.678   0.128
 3404SOL    HW211112   5.421   1.790   0.152
 3405SOL     OW11113   6.684   3.902   4.611
 3405SOL    HW111114   6.701   3.814   4.568
 3405SOL    HW211115   6.725   3.975   4.557
 3406SOL     OW11116   0.665   3.624   2.466
 3406SOL    HW111117   0.649   3.674   2.381
 3406SOL    HW211118   0.702   3.687   2.535
 3407SOL     OW11119   1.533   5.599   0.321
 3407SOL    HW111120   1.531   5.694   0.353
 3407SOL    HW211121   1.483   5.592   0.235
 3408SOL     OW11122   4.762   3.970   5.275
 3408SOL    HW111123   4.850   3.923   5.262
 3408SOL    HW211124   4.780   4.066   5.300
 3409SOL     OW11125   3.349   6.133   6.505
 3409SOL    HW111126   3.258   6.169   6.528
 3409SOL    HW211127   3.351   6.107   6.408
 3410SOL     OW11128   0.059   5.851   0.245
 3410SOL    HW111129   6.995   5.821   0.263
 3410SOL    HW211130   0.071   5.863   0.147
 3411SOL     OW11131   0.699   2.432   1.713
 3411SOL    HW111132   0.770   2.498   1.737
 3411SOL    HW211133   0.611   2.462   1.747
 3412SOL     OW11134   4.373   2.853   6.664
 3412SOL    HW111135   4.411   2.806   6.584
 3412SOL    HW211136   4.278   2.879   6.646
 3413SOL     OW11137   5.417   0.912   1.562
 3413SOL    HW111138   5.486   0.958   1.506
 3413SOL    HW211139   5.388   0.972   1.636
 3414SOL     OW11140   1.868   1.114   5.998
 3414SOL    HW111141   1.797   1.075   6.057
 3414SOL    HW211142   1.952   1.060   6.008
 3415SOL     OW11143   1.548   3.986   4.606
 3415SOL    HW111144   1.539   4.011   4.702
 3415SOL    HW211145   1.554   3.886   4.598
 3416SOL     OW11146   6.960   5.961   0.739
 3416SOL    HW111147   6.956   5.879   0.796
 3416SOL    HW211148   7.000   5.937   0.650
 3417SOL     OW11149   0.455   6.108   3.095
 3417SOL    HW111150   0.370   6.160   3.101
 3417SOL    HW211151   0.531   6.164   3.128
 3418SOL     OW11152   3.406   0.521   4.882
 3418SOL    HW111153   3.370   0.470   4.960
 3418SOL    HW211154   3.448   0.459   4.816
 3419SOL     OW11155   4.598   5.878   4.867
 3419SOL    HW111156   4.623   5.809   4.936
 3419SOL    HW211157   4.677   5.937   4.850
 3420SOL     OW11158   5.838   3.097   3.942
 3420SOL    HW111159   5.800   3.028   4.004
 3420SOL    HW211160   5.779   3.106   3.862
 3421SOL     OW11161   5.701   0.861   6.329
 3421SOL    HW111162   5.655   0.916   6.258
 3421SOL    HW211163   5.788   0.905   6.352
 3422SOL     OW11164   1.889   6.962   1.170
 3422SOL    HW111165   1.936   6.876   1.189
 3422SOL    HW211166   1.892   7.020   1.252
 3423SOL     OW11167   2.164   6.220   0.720
 3423SOL    HW111168   2.190   6.160   0.796
 3423SOL    HW211169   2.197   6.180   0.635
 3424SOL     OW11170   2.921   7.024   2.231
 3424SOL    HW111171   2.900   0.051   2.152
 3424SOL    HW211172   2.905   0.047   2.315
 3425SOL     OW11173   5.517   4.234   2.236
 3425SOL    HW111174   5.505   4.273   2.328
 3425SOL    HW211175   5.469   4.291   2.169
 3426SOL     OW11176   3.235   2.919   0.650
 3426SOL    HW111177   3.316   2.967   0.683
 3426SOL    HW211178   3.173   2.901   0.726
 3427SOL     OW11179   6.515   6.706   0.165
 3427SOL    HW111180   6.465   6.787   0.136
 3427SOL    HW211181   6.468   6.624   0.131
 3428SOL     OW11182   3.159   4.882   1.283
 3428SOL    HW111183   3.088   4.899   1.214
 3428SOL    HW211184   3.151   4.949   1.357
 3429SOL     OW11185   0.666   1.989   6.939
 3429SOL    HW111186   0.652   2.057   6.866
 3429SOL    HW211187   0.633   2.026   7.026
 3430SOL     OW11188   0.185   6.284   4.954
 3430SOL    HW111189   0.128   6.201   4.958
 3430SOL    HW211190   0.208   6.304   4.859
 3431SOL     OW11191   1.906   6.642   0.949
 3431SOL    HW111192   1.926   6.590   1.032
 3431SOL    HW211193   1.992   6.670   0.906
 3432SOL     OW11194   2.366   2.718   6.981
 3432SOL    HW111195   2.314   2.719   0.036
 3432SOL    HW211196   2.341   2.637   6.927
 3433SOL     OW11197   1.076   0.119   6.228
 3433SOL    HW111198   0.999   0.104   6.289
 3433SOL    HW211199   1.102   0.032   6.185
 3434SOL     OW11200   4.754   2.288   0.752
 3434SOL    HW111201   4.685   2.221   0.778
 3434SOL    HW211202   4.830   2.286   0.817
 3435SOL     OW11203   1.081   1.248   1.130
 3435SOL    HW111204   1.076   1.229   1.228
 3435SOL    HW211205   1.100   1.163   1.081
 3436SOL     OW11206   3.228   6.628   6.016
 3436SOL    HW111207   3.262   6.671   6.099
 3436SOL    HW211208   3.282   6.658   5.938
 3437SOL     OW11209   2.777   1.192   5.932
 3437SOL    HW111210   2.829   1.147   5.860
 3437SOL    HW211211   2.722   1.125   5.981
 3438SOL     OW11212   1.227   2.537   0.515
 3438SOL    HW111213   1.264   2.452   0.477
 3438SOL    HW211214   1.129   2.526   0.533
 3439SOL     OW11215   2.006   6.297   5.329
 3439SOL    HW111216   2.086   6.241   5.309
 3439SOL    HW211217   2.021   6.349   5.413
 3440SOL     OW11218   4.025   3.393   1.831
 3440SOL    HW111219   3.977   3.400   1.919
 3440SOL    HW211220   4.050   3.297   1.815
 3441SOL     OW11221   5.264   6.855   4.208
 3441SOL    HW111222   5.333   6.901   4.263
 3441SOL    HW211223   5.295   6.850   4.113
 3442SOL     OW11224   3.691   4.905   2.711
 3442SOL    HW111225   3.681   4.903   2.811
 3442SOL    HW211226   3.705   4.999   2.681
 3443SOL     OW11227   5.166   6.483   1.554
 3443SOL    HW111228   5.178   6.395   1.507
 3443SOL    HW211229   5.156   6.556   1.487
 3444SOL     OW11230   5.253   5.772   0.600
 3444SOL    HW111231   5.178   5.732   0.548
 3444SOL    HW211232   5.304   5.835   0.542
 3445SOL     OW11233   6.232   5.852   4.509
 3445SOL    HW111234   6.306   5.918   4.496
 3445SOL    HW211235   6.154   5.878   4.452
 3446SOL     OW11236   5.957   0.250   2.174
 3446SOL    HW111237   5.884   0.316   2.190
 3446SOL    HW211238   5.924   0.158   2.195
 3447SOL     OW11239   5.237   5.553   1.239
 3447SOL    HW111240   5.207   5.593   1.152
 3447SOL    HW211241   5.171   5.484   1.268
 3448SOL     OW11242   3.221   0.295   0.814
 3448SOL    HW111243   3.281   0.371   0.837
 3448SOL    HW211244   3.204   0.239   0.895
 3449SOL     OW11245   6.584   6.927   3.722
 3449SOL    HW111246   6.575   6.870   3.804
 3449SOL    HW211247   6.681   6.948   3.706
 3450SOL     OW11248   0.212   2.031   6.575
 3450SOL    HW111249   0.192   2.070   6.485
 3450SOL    HW211250   0.202   2.102   6.645
 3451SOL     OW11251   1.641   6.413   2.377
 3451SOL    HW111252   1.654   6.354   2.298
 3451SOL    HW211253   1.725   6.415   2.431
 3452SOL     OW11254   6.343   1.576   6.444
 3452SOL    HW111255   6.425   1.599   6.392
 3452SOL    HW211256   6.262   1.612   6.397
 3453SOL     OW11257   7.003   5.653   5.946
 3453SOL    HW111258   0.055   5.663   6.003
 3453SOL    HW211259   6.934   5.600   5.994
 3454SOL     OW11260   1.155   1.692   6.892
 3454SOL    HW111261   1.229   1.724   6.950
 3454SOL    HW211262   1.074   1.749   6.906
 3455SOL     OW11263   2.325   2.397   4.362
 3455SOL    HW111264   2.364   2.307   4.339
 3455SOL    HW211265   2.259   2.387   4.436
 3456SOL     OW11266   5.672   5.421   2.343
 3456SOL    HW111267   5.771   5.423   2.356
 3456SOL    HW211268   5.630   5.361   2.411
 3457SOL     OW11269   2.641   5.646   3.544
 3457SOL    HW111270   2.669   5.603   3.630
 3457SOL    HW211271   2.708   5.716   3.518
 3458SOL     OW11272   4.571   0.390   0.949
 3458SOL    HW111273   4.480   0.364   0.982
 3458SOL    HW211274   4.566   0.412   0.851
 3459SOL     OW11275   5.777   4.285   2.695
 3459SOL    HW111276   5.695   4.228   2.700
 3459SOL    HW211277   5.800   4.302   2.599
 3460SOL     OW11278   2.310   3.233   0.067
 3460SOL    HW111279   2.375   3.292   0.019
 3460SOL    HW211280   2.356   3.148   0.095
 3461SOL     OW11281   4.788   6.238   4.610
 3461SOL    HW111282   4.781   6.166   4.678
 3461SOL    HW211283   4.724   6.311   4.632
 3462SOL     OW11284   0.368   3.672   2.078
 3462SOL    HW111285   0.380   3.573   2.075
 3462SOL    HW211286   0.457   3.717   2.087
 3463SOL     OW11287   1.135   3.765   3.544
 3463SOL    HW111288   1.148   3.734   3.450
 3463SOL    HW211289   1.214   3.820   3.572
 3464SOL     OW11290   6.918   3.140   0.115
 3464SOL    HW111291   6.849   3.110   0.181
 3464SOL    HW211292   6.937   3.238   0.129
 3465SOL     OW11293   1.748   2.445   1.959
 3465SOL    HW111294   1.695   2.510   2.014
 3465SOL    HW211295   1.747   2.355   2.004
 3466SOL     OW11296   6.561   4.980   6.891
 3466SOL    HW111297   6.530   4.962   6.984
 3466SOL    HW211298   6.661   4.992   6.891
 3467SOL     OW11299   2.379   2.596   0.921
 3467SOL    HW111300   2.368   2.525   0.990
 3467SOL    HW211301   2.383   2.554   0.830
 3468SOL     OW11302   5.793   0.557   2.553
 3468SOL    HW111303   5.731   0.480   2.565
 3468SOL    HW211304   5.851   0.567   2.634
 3469SOL     OW11305   4.727   7.006   4.154
 3469SOL    HW111306   4.747   0.055   4.095
 3469SOL    HW211307   4.810   6.978   4.201
 3470SOL     OW11308   6.667   2.043   1.657
 3470SOL    HW111309   6.628   2.032   1.566
 3470SOL    HW211310   6.753   2.092   1.651
 3471SOL     OW11311   4.760   4.720   4.655
 3471SOL    HW111312   4.684   4.655   4.661
 3471SOL    HW211313   4.826   4.688   4.586
 3472SOL     OW11314   2.712   1.455   3.149
 3472SOL    HW111315   2.675   1.421   3.062
 3472SOL    HW211316   2.733   1.552   3.141
 3473SOL     OW11317   0.244   2.732   1.694
 3473SOL    HW111318   0.248   2.727   1.794
 3473SOL    HW211319   0.222   2.642   1.657
 3474SOL     OW11320   1.015   4.262   3.103
 3474SOL    HW111321   1.089   4.218   3.052
 3474SOL    HW211322   1.015   4.360   3.083
 3475SOL     OW11323   1.549   4.084   4.020
 3475SOL    HW111324   1.548   4.167   3.964
 3475SOL    HW211325   1.577   4.006   3.964
 3476SOL     OW11326   2.415   1.931   2.780
 3476SOL    HW111327   2.348   1.992   2.822
 3476SOL    HW211328   2.391   1.916   2.684
 3477SOL     OW11329   1.825   4.890   0.554
 3477SOL    HW111330   1.908   4.845   0.588
 3477SOL    HW211331   1.762   4.821   0.518
 3478SOL     OW11332   2.465   5.678   5.805
 3478SOL    HW111333   2.501   5.595   5.762
 3478SOL    HW211334   2.391   5.654   5.868
 3479SOL     OW11335   1.586   0.734   2.984
 3479SOL    HW111336   1.615   0.664   2.919
 3479SOL    HW211337   1.663   0.761   3.041
 3480SOL     OW11338   6.825   5.982   4.839
 3480SOL    HW111339   6.780   5.935   4.916
 3480SOL    HW211340   6.921   5.997   4.862
 3481SOL     OW11341   4.912   0.563   0.456
 3481SOL    HW111342   4.837   0.626   0.477
 3481SOL    HW211343   4.930   0.505   0.535
 3482SOL     OW11344   6.046   1.001   2.105
 3482SOL    HW111345   6.085   0.999   2.013
 3482SOL    HW211346   6.028   1.096   2.132
 3483SOL     OW11347   4.876   2.330   1.604
 3483SOL    HW111348   4.877   2.233   1.629
 3483SOL    HW211349   4.924   2.383   1.675
 3484SOL     OW11350   0.950   2.978   0.297
 3484SOL    HW111351   0.909   2.970   0.206
 3484SOL    HW211352   1.014   2.903   0.311
 3485SOL     OW11353   1.779   1.882   4.056
 3485SOL    HW111354   1.820   1.960   4.103
 3485SOL    HW211355   1.846   1.808   4.051
 3486SOL     OW11356   2.547   0.175   3.731
 3486SOL    HW111357   2.600   0.112   3.788
 3486SOL    HW211358   2.598   0.260   3.720
 3487SOL     OW11359   6.141   1.819   7.026
 3487SOL    HW111360   6.179   1.728   7.011
 3487SOL    HW211361   6.066   1.834   6.962
 3488SOL     OW11362   6.465   0.291   4.736
 3488SOL    HW111363   6.402   0.251   4.802
 3488SOL    HW211364   6.481   0.387   4.759
 3489SOL     OW11365   4.039   0.511   1.951
 3489SOL    HW111366   3.977   0.590   1.942
 3489SOL    HW211367   4.103   0.528   2.026
 3490SOL     OW11368   3.857   4.204   0.935
 3490SOL    HW111369   3.758   4.216   0.936
 3490SOL    HW211370   3.895   4.240   0.849
 3491SOL     OW11371   4.546   2.717   6.100
 3491SOL    HW111372   4.540   2.816   6.086
 3491SOL    HW211373   4.617   2.679   6.040
 3492SOL     OW11374   6.573   4.500   0.919
 3492SOL    HW111375   6.506   4.426   0.933
 3492SOL    HW211376   6.649   4.488   0.983
 3493SOL     OW11377   4.765   4.063   5.015
 3493SOL    HW111378   4.746   4.161   5.014
 3493SOL    HW211379   4.735   4.024   5.102
 3494SOL     OW11380   3.445   0.742   2.153
 3494SOL    HW111381   3.406   0.656   2.187
 3494SOL    HW211382   3.532   0.759   2.200
 3495SOL     OW11383   5.673   5.000   1.751
 3495SOL    HW111384   5.746   5.035   1.692
 3495SOL    HW211385   5.584   5.027   1.713
 3496SOL     OW11386   6.184   4.926   1.053
 3496SOL    HW111387   6.100   4.920   1.107
 3496SOL    HW211388   6.261   4.893   1.108
 3497SOL     OW11389   2.240   0.915   3.874
 3497SOL    HW111390   2.223   0.826   3.917
 3497SOL    HW211391   2.329   0.914   3.829
 3498SOL     OW11392   3.253   2.372   1.057
 3498SOL    HW111393   3.188   2.301   1.028
 3498SOL    HW211394   3.344   2.350   1.023
 3499SOL     OW11395   5.622   3.934   3.798
 3499SOL    HW111396   5.623   3.835   3.791
 3499SOL    HW211397   5.529   3.968   3.786
 3500SOL     OW11398   1.880   3.535   4.844
 3500SOL    HW111399   1.968   3.513   4.886
 3500SOL    HW211400   1.855   3.464   4.779
 3501SOL     OW11401   1.639   6.113   4.787
 3501SOL    HW111402   1.727   6.134   4.745
 3501SOL    HW211403   1.647   6.123   4.887
 3502SOL     OW11404   6.884   2.669   1.957
 3502SOL    HW111405   6.969   2.698   2.002
 3502SOL    HW211406   6.819   2.744   1.957
 3503SOL     OW11407   6.105   6.573   4.934
 3503SOL    HW111408   6.084   6.479   4.908
 3503SOL    HW211409   6.195   6.599   4.901
 3504SOL     OW11410   2.398   1.062   1.576
 3504SOL    HW111411   2.443   1.134   1.524
 3504SOL    HW211412   2.390   1.090   1.672
 3505SOL     OW11413   5.807   4.463   5.309
 3505SOL    HW111414   5.723   4.410   5.304
 3505SOL    HW211415   5.794   4.541   5.371
 3506SOL     OW11416   4.879   5.788   5.600
 3506SOL    HW111417   4.894   5.831   5.689
 3506SOL    HW211418   4.963   5.792   5.546
 3507SOL     OW11419   2.386   0.678   0.913
 3507SOL    HW111420   2.326   0.598   0.913
 3507SOL    HW211421   2.453   0.669   0.986
 3508SOL     OW11422   1.944   1.736   5.624
 3508SOL    HW111423   1.987   1.667   5.682
 3508SOL    HW211424   1.883   1.793   5.679
 3509SOL     OW11425   5.039   0.782   6.466
 3509SOL    HW111426   5.028   0.686   6.491
 3509SOL    HW211427   5.072   0.789   6.372
 3510SOL     OW11428   1.250   1.470   1.519
 3510SOL    HW111429   1.279   1.401   1.452
 3510SOL    HW211430   1.243   1.559   1.473
 3511SOL     OW11431   2.770   5.154   1.059
 3511SOL    HW111432   2.730   5.079   1.112
 3511SOL    HW211433   2.852   5.188   1.105
 3512SOL     OW11434   6.709   4.363   0.731
 3512SOL    HW111435   6.808   4.374   0.744
 3512SOL    HW211436   6.660   4.414   0.802
 3513SOL     OW11437   5.598   2.619   6.957
 3513SOL    HW111438   5.607   2.522   6.981
 3513SOL    HW211439   5.547   2.667   7.028
 3514SOL     OW11440   0.259   1.723   1.945
 3514SOL    HW111441   0.263   1.804   1.886
 3514SOL    HW211442   0.197   1.656   1.905
 3515SOL     OW11443   4.712   6.128   3.237
 3515SOL    HW111444   4.760   6.054   3.284
 3515SOL    HW211445   4.699   6.104   3.141
 3516SOL     OW11446   4.523   0.106   1.054
 3516SOL    HW111447   4.472   0.172   1.110
 3516SOL    HW211448   4.621   0.115   1.074
 3517SOL     OW11449   1.485   2.308   0.822
 3517SOL    HW111450   1.432   2.376   0.873
 3517SOL    HW211451   1.440   2.219   0.829
 3518SOL     OW11452   5.944   2.233   4.159
 3518SOL    HW111453   5.942   2.284   4.073
 3518SOL    HW211454   5.898   2.145   4.147
 3519SOL     OW11455   1.546   0.644   6.417
 3519SOL    HW111456   1.634   0.659   6.371
 3519SOL    HW211457   1.477   0.619   6.349
 3520SOL     OW11458   2.924   5.119   6.591
 3520SOL    HW111459   2.929   5.205   6.642
 3520SOL    HW211460   2.991   5.121   6.516
 3521SOL     OW11461   5.228   2.387   6.736
 3521SOL    HW111462   5.198   2.375   6.830
 3521SOL    HW211463   5.151   2.370   6.674
 3522SOL     OW11464   0.007   4.908   1.364
 3522SOL    HW111465   6.952   4.915   1.312
 3522SOL    HW211466   7.026   4.958   1.451
 3523SOL     OW11467   1.826   4.875   6.149
 3523SOL    HW111468   1.779   4.867   6.237
 3523SOL    HW211469   1.759   4.883   6.075
 3524SOL     OW11470   4.545   1.571   2.008
 3524SOL    HW111471   4.597   1.489   2.032
 3524SOL    HW211472   4.526   1.572   1.910
 3525SOL     OW11473   0.977   4.587   3.411
 3525SOL    HW111474   0.945   4.575   3.505
 3525SOL    HW211475   0.973   4.684   3.387
 3526SOL     OW11476   2.354   6.570   4.155
 3526SOL    HW111477   2.303   6.647   4.118
 3526SOL    HW211478   2.396   6.518   4.080
 3527SOL     OW11479   5.887   3.424   6.475
 3527SOL    HW111480   5.866   3.345   6.418
 3527SOL    HW211481   5.873   3.400   6.571
 3528SOL     OW11482   1.218   6.103   4.967
 3528SOL    HW111483   1.238   6.201   4.967
 3528SOL    HW211484   1.271   6.058   5.039
 3529SOL     OW11485   3.922   0.224   6.494
 3529SOL    HW111486   3.825   0.230   6.469
 3529SOL    HW211487   3.961   0.316   6.497
 3530SOL     OW11488   0.227   4.657   2.512
 3530SOL    HW111489   0.305   4.620   2.563
 3530SOL    HW211490   0.252   4.746   2.473
 3531SOL     OW11491   5.023   2.845   0.262
 3531SOL    HW111492   5.054   2.815   0.352
 3531SOL    HW211493   5.017   2.766   0.201
 3532SOL     OW11494   3.089   0.312   1.739
 3532SOL    HW111495   3.173   0.358   1.768
 3532SOL    HW211496   3.097   0.214   1.756
 3533SOL     OW11497   1.920   2.132   2.618
 3533SOL    HW111498   1.984   2.140   2.694
 3533SOL    HW211499   1.897   2.224   2.585
 3534SOL     OW11500   6.699   1.490   7.010
 3534SOL    HW111501   6.666   1.469   6.918
 3534SOL    HW211502   6.775   1.555   7.005
 3535SOL     OW11503   1.798   6.106   1.048
 3535SOL    HW111504   1.746   6.177   1.095
 3535SOL    HW211505   1.777   6.017   1.089
 3536SOL     OW11506   3.086   1.859   3.217
 3536SOL    HW111507   3.163   1.805   3.250
 3536SOL    HW211508   3.020   1.871   3.291
 3537SOL     OW11509   3.298   5.864   1.755
 3537SOL    HW111510   3.302   5.773   1.713
 3537SOL    HW211511   3.232   5.921   1.706
 3538SOL     OW11512   1.605   0.363   6.510
 3538SOL    HW111513   1.583   0.461   6.507
 3538SOL    HW211514   1.522   0.311   6.528
 3539SOL     OW11515   5.508   3.718   5.917
 3539SOL    HW111516   5.467   3.728   5.826
 3539SOL    HW211517   5.579   3.648   5.914
 3540SOL     OW11518   2.179   1.873   5.508
 3540SOL    HW111519   2.260   1.816   5.498
 3540SOL    HW211520   2.103   1.817   5.541
 3541SOL     OW11521   1.933   2.466   6.383
 3541SOL    HW111522   1.954   2.549   6.330
 3541SOL    HW211523   2.012   2.440   6.438
 3542SOL     OW11524   1.657   5.396   2.797
 3542SOL    HW111525   1.605   5.312   2.813
 3542SOL    HW211526   1.699   5.425   2.883
 3543SOL     OW11527   0.983   2.065   4.553
 3543SOL    HW111528   0.985   2.070   4.453
 3543SOL    HW211529   0.930   2.142   4.589
 3544SOL     OW11530   2.735   4.121   6.513
 3544SOL    HW111531   2.661   4.064   6.548
 3544SOL    HW211532   2.740   4.112   6.413
 3545SOL     OW11533   4.077   5.098   0.685
 3545SOL    HW111534   4.149   5.159   0.652
 3545SOL    HW211535   4.116   5.008   0.704
 3546SOL     OW11536   1.118   4.439   4.236
 3546SOL    HW111537   1.091   4.406   4.327
 3546SOL    HW211538   1.096   4.369   4.168
 3547SOL     OW11539   6.480   4.939   4.440
 3547SOL    HW111540   6.550   4.897   4.498
 3547SOL    HW211541   6.416   4.991   4.497
 3548SOL     OW11542   5.842   1.158   5.902
 3548SOL    HW111543   5.824   1.255   5.885
 3548SOL    HW211544   5.941   1.141   5.898
 3549SOL     OW11545   6.934   4.932   5.740
 3549SOL    HW111546   6.999   4.949   5.666
 3549SOL    HW211547   6.983   4.904   5.822
 3550SOL     OW11548   6.185   3.366   3.012
 3550SOL    HW111549   6.145   3.447   2.970
 3550SOL    HW211550   6.206   3.298   2.941
 3551SOL     OW11551   3.848   1.243   2.634
 3551SOL    HW111552   3.795   1.325   2.658
 3551SOL    HW211553   3.936   1.271   2.594
 3552SOL     OW11554   5.677   6.824   2.470
 3552SOL    HW111555   5.656   6.730   2.500
 3552SOL    HW211556   5.741   6.821   2.394
 3553SOL     OW11557   4.807   4.944   1.125
 3553SOL    HW111558   4.726   4.954   1.068
 3553SOL    HW211559   4.795   4.865   1.185
 3554SOL     OW11560   4.767   2.060   1.458
 3554SOL    HW111561   4.674   2.046   1.492
 3554SOL    HW211562   4.833   2.039   1.531
 3555SOL     OW11563   1.032   4.692   4.104
 3555SOL    HW111564   1.091   4.619   4.138
 3555SOL    HW211565   1.013   4.678   4.007
 3556SOL     OW11566   4.141   1.511   4.198
 3556SOL    HW111567   4.055   1.484   4.156
 3556SOL    HW211568   4.218   1.474   4.145
 3557SOL     OW11569   0.983   1.326   4.715
 3557SOL    HW111570   0.884   1.327   4.697
 3557SOL    HW211571   1.030   1.281   4.640
 3558SOL     OW11572   1.471   6.758   2.278
 3558SOL    HW111573   1.520   6.684   2.232
 3558SOL    HW211574   1.384   6.775   2.231
 3559SOL     OW11575   0.397   6.115   5.596
 3559SOL    HW111576   0.457   6.185   5.557
 3559SOL    HW211577   0.406   6.030   5.543
 3560SOL     OW11578   0.691   5.890   1.542
 3560SOL    HW111579   0.786   5.879   1.571
 3560SOL    HW211580   0.646   5.800   1.544
 3561SOL     OW11581   4.367   4.651   4.828
 3561SOL    HW111582   4.275   4.661   4.789
 3561SOL    HW211583   4.358   4.628   4.925
 3562SOL     OW11584   4.843   1.339   3.271
 3562SOL    HW111585   4.900   1.276   3.324
 3562SOL    HW211586   4.836   1.305   3.177
 3563SOL     OW11587   5.737   1.034   0.514
 3563SOL    HW111588   5.641   1.042   0.541
 3563SOL    HW211589   5.758   0.938   0.496
 3564SOL     OW11590   2.134   4.527   3.642
 3564SOL    HW111591   2.174   4.439   3.667
 3564SOL    HW211592   2.097   4.572   3.724
 3565SOL     OW11593   2.602   5.938   5.206
 3565SOL    HW111594   2.542   5.862   5.231
 3565SOL    HW211595   2.622   5.993   5.288
 3566SOL     OW11596   6.504   3.573   6.075
 3566SOL    HW111597   6.602   3.561   6.089
 3566SOL    HW211598   6.482   3.563   5.978
 3567SOL     OW11599   0.554   3.069   0.119
 3567SOL    HW111600   0.455   3.063   0.108
 3567SOL    HW211601   0.577   3.149   0.174
 3568SOL     OW11602   4.620   5.010   4.199
 3568SOL    HW111603   4.624   4.982   4.295
 3568SOL    HW211604   4.696   5.072   4.179
 3569SOL     OW11605   1.866   1.923   5.846
 3569SOL    HW111606   1.903   2.013   5.822
 3569SOL    HW211607   1.906   1.892   5.932
 3570SOL     OW11608   5.493   0.746   5.178
 3570SOL    HW111609   5.483   0.687   5.258
 3570SOL    HW211610   5.581   0.794   5.182
 3571SOL     OW11611   0.992   5.866   5.178
 3571SOL    HW111612   0.911   5.830   5.130
 3571SOL    HW211613   0.963   5.940   5.240
 3572SOL     OW11614   5.943   3.000   3.028
 3572SOL    HW111615   5.906   2.925   3.082
 3572SOL    HW211616   5.890   3.083   3.045
 3573SOL     OW11617   6.390   4.671   3.132
 3573SOL    HW111618   6.298   4.697   3.163
 3573SOL    HW211619   6.402   4.573   3.144
 3574SOL     OW11620   0.507   2.659   0.687
 3574SOL    HW111621   0.578   2.588   0.690
 3574SOL    HW211622   0.539   2.734   0.630
 3575SOL     OW11623   5.427   5.569   2.337
 3575SOL    HW111624   5.362   5.532   2.403
 3575SOL    HW211625   5.512   5.517   2.341
 3576SOL     OW11626   0.808   2.207   6.533
 3576SOL    HW111627   0.777   2.262   6.611
 3576SOL    HW211628   0.856   2.125   6.567
 3577SOL     OW11629   1.599   2.613   7.011
 3577SOL    HW111630   1.560   2.669   6.938
 3577SOL    HW211631   1.539   2.615   0.060
 3578SOL     OW11632   4.183   1.101   0.422
 3578SOL    HW111633   4.114   1.120   0.492
 3578SOL    HW211634   4.268   1.148   0.444
 3579SOL     OW11635   6.617   2.335   3.001
 3579SOL    HW111636   6.633   2.433   3.005
 3579SOL    HW211637   6.705   2.287   3.000
 3580SOL     OW11638   6.358   3.365   1.267
 3580SOL    HW111639   6.350   3.432   1.193
 3580SOL    HW211640   6.394   3.279   1.230
 3581SOL     OW11641   1.009   5.191   3.494
 3581SOL    HW111642   0.967   5.195   3.403
 3581SOL    HW211643   1.002   5.282   3.537
 3582SOL     OW11644   1.246   3.499   6.534
 3582SOL    HW111645   1.205   3.472   6.621
 3582SOL    HW211646   1.225   3.594   6.515
 3583SOL     OW11647   1.287   4.835   6.982
 3583SOL    HW111648   1.260   4.840   6.886
 3583SOL    HW211649   1.355   4.763   6.994
 3584SOL     OW11650   5.970   4.695   5.867
 3584SOL    HW111651   5.880   4.724   5.835
 3584SOL    HW211652   5.986   4.600   5.841
 3585SOL     OW11653   2.643   2.022   4.481
 3585SOL    HW111654   2.640   2.121   4.472
 3585SOL    HW211655   2.700   1.997   4.559
 3586SOL     OW11656   6.071   1.597   4.606
 3586SOL    HW111657   6.119   1.672   4.651
 3586SOL    HW211658   5.974   1.619   4.598
 3587SOL     OW11659   1.847   4.603   5.993
 3587SOL    HW111660   1.900   4.659   6.057
 3587SOL    HW211661   1.873   4.626   5.899
 3588SOL     OW11662   0.650   3.418   5.186
 3588SOL    HW111663   0.717   3.477   5.230
 3588SOL    HW211664   0.560   3.433   5.226
 3589SOL     OW11665   5.613   0.817   5.691
 3589SOL    HW111666   5.630   0.912   5.719
 3589SOL    HW211667   5.654   0.801   5.602
 3590SOL     OW11668   0.508   3.526   0.502
 3590SOL    HW111669   0.598   3.569   0.509
 3590SOL    HW211670   0.508   3.439   0.552
 3591SOL     OW11671   5.452   3.688   0.098
 3591SOL    HW111672   5.505   3.669   0.180
 3591SOL    HW211673   5.395   3.608   0.076
 3592SOL     OW11674   0.680   6.112   2.511
 3592SOL    HW111675   0.707   6.034   2.455
 3592SOL    HW211676   0.700   6.197   2.463
 3593SOL     OW11677   1.169   5.263   5.453
 3593SOL    HW111678   1.129   5.232   5.539
 3593SOL    HW211679   1.152   5.361   5.442
 3594SOL     OW11680   4.732   6.969   3.600
 3594SOL    HW111681   4.711   6.926   3.512
 3594SOL    HW211682   4.648   7.005   3.641
 3595SOL     OW11683   4.827   6.384   6.202
 3595SOL    HW111684   4.812   6.339   6.114
 3595SOL    HW211685   4.740   6.394   6.250
 3596SOL     OW11686   5.348   3.336   2.488
 3596SOL    HW111687   5.280   3.348   2.416
 3596SOL    HW211688   5.358   3.238   2.508
 3597SOL     OW11689   1.862   1.975   5.504
 3597SOL    HW111690   1.791   1.980   5.435
 3597SOL    HW211691   1.894   1.881   5.513
 3598SOL     OW11692   1.281   6.557   5.871
 3598SOL    HW111693   1.233   6.555   5.958
 3598SOL    HW211694   1.226   6.512   5.801
 3599SOL     OW11695   4.985   2.130   0.142
 3599SOL    HW111696   4.899   2.179   0.148
 3599SOL    HW211697   4.975   2.052   0.080
 3600SOL     OW11698   1.103   2.878   2.133
 3600SOL    HW111699   1.148   2.838   2.053
 3600SOL    HW211700   1.170   2.926   2.189
 3601SOL     OW11701   4.955   3.282   5.963
 3601SOL    HW111702   4.885   3.254   5.897
 3601SOL    HW211703   5.030   3.326   5.914
 3602SOL     OW11704   1.090   4.098   0.348
 3602SOL    HW111705   1.016   4.141   0.296
 3602SOL    HW211706   1.129   4.163   0.412
 3603SOL     OW11707   3.578   1.098   4.391
 3603SOL    HW111708   3.656   1.146   4.432
 3603SOL    HW211709   3.510   1.165   4.361
 3604SOL     OW11710   6.741   6.067   3.189
 3604SOL    HW111711   6.705   6.135   3.254
 3604SOL    HW211712   6.738   6.105   3.097
 3605SOL     OW11713   0.296   4.482   3.951
 3605SOL    HW111714   0.359   4.416   3.992
 3605SOL    HW211715   0.252   4.442   3.871
 3606SOL     OW11716   0.444   0.197   4.192
 3606SOL    HW111717   0.389   0.138   4.133
 3606SOL    HW211718   0.524   0.146   4.225
 3607SOL     OW11719   5.168   5.189   1.946
 3607SOL    HW111720   5.114   5.271   1.963
 3607SOL    HW211721   5.261   5.216   1.920
 3608SOL     OW11722   4.661   2.232   4.538
 3608SOL    HW111723   4.573   2.246   4.494
 3608SOL    HW211724   4.715   2.166   4.486
 3609SOL     OW11725   1.627   0.341   3.988
 3609SOL    HW111726   1.631   0.273   3.914
 3609SOL    HW211727   1.650   0.297   4.075
 3610SOL     OW11728   1.636   0.286   6.179
 3610SOL    HW111729   1.683   0.359   6.230
 3610SOL    HW211730   1.667   0.197   6.212
 3611SOL     OW11731   4.668   4.936   4.453
 3611SOL    HW111732   4.586   4.981   4.488
 3611SOL    HW211733   4.671   4.842   4.486
 3612SOL     OW11734   0.436   0.507   0.033
 3612SOL    HW111735   0.506   0.464   7.006
 3612SOL    HW211736   0.428   0.604   0.009
 3613SOL     OW11737   4.939   4.600   2.230
 3613SOL    HW111738   4.952   4.501   2.237
 3613SOL    HW211739   4.906   4.635   2.317
 3614SOL     OW11740   3.321   3.671   0.642
 3614SOL    HW111741   3.239   3.706   0.596
 3614SOL    HW211742   3.388   3.744   0.652
 3615SOL     OW11743   5.119   3.456   5.846
 3615SOL    HW111744   5.068   3.514   5.782
 3615SOL    HW211745   5.183   3.513   5.898
 3616SOL     OW11746   0.612   1.304   6.668
 3616SOL    HW111747   0.550   1.230   6.644
 3616SOL    HW211748   0.702   1.287   6.629
 3617SOL     OW11749   4.619   0.581   6.962
 3617SOL    HW111750   4.675   0.590   0.015
 3617SOL    HW211751   4.596   0.672   6.927
 3618SOL     OW11752   2.231   3.215   5.323
 3618SOL    HW111753   2.305   3.192   5.260
 3618SOL    HW211754   2.260   3.197   5.417
 3619SOL     OW11755   6.166   2.630   5.210
 3619SOL    HW111756   6.166   2.634   5.110
 3619SOL    HW211757   6.083   2.584   5.242
 3620SOL     OW11758   6.272   5.647   5.363
 3620SOL    HW111759   6.345   5.585   5.336
 3620SOL    HW211760   6.282   5.671   5.459
 3621SOL     OW11761   3.327   2.946   5.029
 3621SOL    HW111762   3.308   2.851   5.007
 3621SOL    HW211763   3.383   2.987   4.958
 3622SOL     OW11764   1.363   1.661   0.094
 3622SOL    HW111765   1.425   1.739   0.099
 3622SOL    HW211766   1.280   1.681   0.146
 3623SOL     OW11767   6.521   6.254   4.363
 3623SOL    HW111768   6.612   6.234   4.326
 3623SOL    HW211769   6.529   6.320   4.438
 3624SOL     OW11770   1.899   0.180   2.296
 3624SOL    HW111771   1.907   0.274   2.265
 3624SOL    HW211772   1.916   0.118   2.220
 3625SOL     OW11773   0.421   3.288   6.287
 3625SOL    HW111774   0.331   3.333   6.290
 3625SOL    HW211775   0.414   3.204   6.233
 3626SOL     OW11776   1.023   3.013   5.668
 3626SOL    HW111777   1.103   2.954   5.659
 3626SOL    HW211778   1.003   3.057   5.581
 3627SOL     OW11779   4.044   3.243   1.459
 3627SOL    HW111780   4.037   3.341   1.444
 3627SOL    HW211781   4.136   3.212   1.435
 3628SOL     OW11782   0.938   1.475   2.020
 3628SOL    HW111783   0.975   1.538   1.951
 3628SOL    HW211784   0.965   1.382   1.997
 3629SOL     OW11785   0.785   1.101   5.573
 3629SOL    HW111786   0.785   1.092   5.672
 3629SOL    HW211787   0.708   1.158   5.544
 3630SOL     OW11788   5.695   2.429   3.827
 3630SOL    HW111789   5.785   2.390   3.845
 3630SOL    HW211790   5.666   2.406   3.734
 3631SOL     OW11791   2.154   0.665   2.898
 3631SOL    HW111792   2.124   0.728   2.826
 3631SOL    HW211793   2.189   0.582   2.856
 3632SOL     OW11794   5.539   5.067   1.320
 3632SOL    HW111795   5.458   5.126   1.314
 3632SOL    HW211796   5.567   5.039   1.229
 3633SOL     OW11797   3.858   2.284   5.740
 3633SOL    HW111798   3.822   2.377   5.728
 3633SOL    HW211799   3.902   2.276   5.829
 3634SOL     OW11800   1.980   5.705   6.063
 3634SOL    HW111801   2.012   5.783   6.010
 3634SOL    HW211802   1.897   5.668   6.020
 3635SOL     OW11803   3.103   0.158   1.044
 3635SOL    HW111804   3.124   0.155   1.141
 3635SOL    HW211805   3.004   0.160   1.031
 3636SOL     OW11806   6.396   5.665   0.454
 3636SOL    HW111807   6.369   5.761   0.456
 3636SOL    HW211808   6.493   5.657   0.474
 3637SOL     OW11809   0.347   2.340   1.963
 3637SOL    HW111810   0.305   2.427   1.990
 3637SOL    HW211811   0.376   2.291   2.045
 3638SOL     OW11812   6.928   4.190   2.976
 3638SOL    HW111813   6.849   4.158   3.029
 3638SOL    HW211814   6.997   4.227   3.039
 3639SOL     OW11815   4.227   4.943   0.389
 3639SOL    HW111816   4.176   5.017   0.346
 3639SOL    HW211817   4.323   4.969   0.398
 3640SOL     OW11818   4.771   1.135   0.426
 3640SOL    HW111819   4.741   1.226   0.397
 3640SOL    HW211820   4.825   1.142   0.510
 3641SOL     OW11821   6.101   3.507   2.005
 3641SOL    HW111822   6.049   3.587   2.036
 3641SOL    HW211823   6.132   3.454   2.083
 3642SOL     OW11824   4.610   2.107   6.938
 3642SOL    HW111825   4.667   2.130   7.017
 3642SOL    HW211826   4.517   2.141   6.955
 3643SOL     OW11827   3.295   5.873   4.554
 3643SOL    HW111828   3.369   5.825   4.602
 3643SOL    HW211829   3.322   5.967   4.536
 3644SOL     OW11830   2.422   1.534   1.910
 3644SOL    HW111831   2.331   1.559   1.942
 3644SOL    HW211832   2.434   1.564   1.815
 3645SOL     OW11833   1.919   2.314   3.966
 3645SOL    HW111834   1.989   2.360   4.020
 3645SOL    HW211835   1.850   2.274   4.027
 3646SOL     OW11836   1.266   3.997   5.645
 3646SOL    HW111837   1.251   4.065   5.574
 3646SOL    HW211838   1.330   3.928   5.612
 3647SOL     OW11839   2.548   5.669   0.057
 3647SOL    HW111840   2.542   5.752   0.113
 3647SOL    HW211841   2.457   5.644   0.025
 3648SOL     OW11842   4.464   5.851   3.405
 3648SOL    HW111843   4.423   5.901   3.482
 3648SOL    HW211844   4.562   5.841   3.420
 3649SOL     OW11845   6.376   3.116   0.796
 3649SOL    HW111846   6.398   3.048   0.727
 3649SOL    HW211847   6.413   3.205   0.768
 3650SOL     OW11848   6.279   5.337   1.891
 3650SOL    HW111849   6.276   5.320   1.793
 3650SOL    HW211850   6.221   5.416   1.913
 3651SOL     OW11851   1.525   0.344   4.456
 3651SOL    HW111852   1.579   0.306   4.532
 3651SOL    HW211853   1.514   0.443   4.469
 3652SOL     OW11854   6.341   6.854   3.630
 3652SOL    HW111855   6.435   6.872   3.659
 3652SOL    HW211856   6.342   6.812   3.540
 3653SOL     OW11857   1.549   1.424   3.012
 3653SOL    HW111858   1.496   1.507   2.995
 3653SOL    HW211859   1.643   1.450   3.039
 3654SOL     OW11860   3.885   4.724   0.736
 3654SOL    HW111861   3.896   4.759   0.830
 3654SOL    HW211862   3.829   4.788   0.684
 3655SOL     OW11863   3.451   0.940   4.049
 3655SOL    HW111864   3.510   0.859   4.047
 3655SOL    HW211865   3.368   0.922   3.997
 3656SOL     OW11866   0.250   5.449   1.428
 3656SOL    HW111867   0.325   5.513   1.445
 3656SOL    HW211868   0.269   5.396   1.346
 3657SOL     OW11869   5.064   5.735   4.862
 3657SOL    HW111870   5.139   5.680   4.825
 3657SOL    HW211871   4.981   5.720   4.808
 3658SOL     OW11872   2.650   4.788   6.745
 3658SOL    HW111873   2.625   4.740   6.661
 3658SOL    HW211874   2.749   4.795   6.751
 3659SOL     OW11875   1.677   2.647   5.765
 3659SOL    HW111876   1.692   2.746   5.759
 3659SOL    HW211877   1.651   2.612   5.675
 3660SOL     OW11878   5.948   6.454   4.449
 3660SOL    HW111879   5.978   6.537   4.496
 3660SOL    HW211880   6.021   6.422   4.389
 3661SOL     OW11881   6.982   0.963   5.159
 3661SOL    HW111882   7.007   0.900   5.233
 3661SOL    HW211883   6.883   0.957   5.142
 3662SOL     OW11884   4.235   0.773   4.774
 3662SOL    HW111885   4.151   0.719   4.759
 3662SOL    HW211886   4.285   0.736   4.852
 3663SOL     OW11887   1.716   2.883   0.198
 3663SOL    HW111888   1.631   2.896   0.250
 3663SOL    HW211889   1.723   2.955   0.129
 3664SOL     OW11890   4.582   2.405   1.925
 3664SOL    HW111891   4.673   2.425   1.961
 3664SOL    HW211892   4.517   2.401   2.001
 3665SOL     OW11893   0.900   6.486   5.122
 3665SOL    HW111894   0.890   6.432   5.039
 3665SOL    HW211895   0.871   6.581   5.105
 3666SOL     OW11896   0.854   4.090   2.954
 3666SOL    HW111897   0.906   4.145   3.021
 3666SOL    HW211898   0.795   4.150   2.901
 3667SOL     OW11899   6.919   1.443   3.658
 3667SOL    HW111900   6.875   1.412   3.743
 3667SOL    HW211901   6.987   1.512   3.679
 3668SOL     OW11902   1.073   0.549   1.193
 3668SOL    HW111903   1.075   0.631   1.250
 3668SOL    HW211904   1.089   0.468   1.249
 3669SOL     OW11905   5.888   1.551   3.588
 3669SOL    HW111906   5.847   1.614   3.522
 3669SOL    HW211907   5.965   1.596   3.633
 3670SOL     OW11908   2.543   5.197   7.020
 3670SOL    HW111909   2.545   5.203   0.090
 3670SOL    HW211910   2.635   5.181   6.985
 3671SOL     OW11911   0.134   1.921   4.082
 3671SOL    HW111912   0.070   1.998   4.085
 3671SOL    HW211913   0.180   1.919   3.993
 3672SOL     OW11914   4.643   2.231   2.687
 3672SOL    HW111915   4.600   2.186   2.608
 3672SOL    HW211916   4.613   2.326   2.691
 3673SOL     OW11917   3.689   5.717   7.027
 3673SOL    HW111918   3.658   5.703   0.092
 3673SOL    HW211919   3.665   5.637   6.972
 3674SOL     OW11920   1.748   5.994   6.013
 3674SOL    HW111921   1.761   6.075   6.071
 3674SOL    HW211922   1.773   6.016   5.919
 3675SOL     OW11923   1.671   2.557   3.970
 3675SOL    HW111924   1.655   2.534   4.066
 3675SOL    HW211925   1.761   2.601   3.962
 3676SOL     OW11926   5.839   3.902   2.224
 3676SOL    HW111927   5.872   3.860   2.140
 3676SOL    HW211928   5.838   3.835   2.298
 3677SOL     OW11929   3.102   0.114   4.268
 3677SOL    HW111930   3.073   0.051   4.340
 3677SOL    HW211931   3.066   0.205   4.286
 3678SOL     OW11932   1.531   1.007   4.521
 3678SOL    HW111933   1.475   1.015   4.439
 3678SOL    HW211934   1.489   1.058   4.596
 3679SOL     OW11935   0.104   0.422   3.504
 3679SOL    HW111936   0.015   0.431   3.549
 3679SOL    HW211937   0.133   0.511   3.469
 3680SOL     OW11938   4.892   2.701   4.485
 3680SOL    HW111939   4.803   2.694   4.528
 3680SOL    HW211940   4.908   2.795   4.455
 3681SOL     OW11941   0.881   1.334   6.579
 3681SOL    HW111942   0.954   1.266   6.574
 3681SOL    HW211943   0.907   1.406   6.643
 3682SOL     OW11944   5.611   2.339   0.075
 3682SOL    HW111945   5.694   2.316   0.126
 3682SOL    HW211946   5.565   2.254   0.047
 3683SOL     OW11947   6.856   0.836   3.955
 3683SOL    HW111948   6.913   0.917   3.938
 3683SOL    HW211949   6.771   0.844   3.902
 3684SOL     OW11950   1.165   5.563   0.256
 3684SOL    HW111951   1.211   5.492   0.308
 3684SOL    HW211952   1.165   5.539   0.159
 3685SOL     OW11953   1.997   5.850   5.855
 3685SOL    HW111954   2.053   5.933   5.861
 3685SOL    HW211955   2.024   5.797   5.775
 3686SOL     OW11956   5.901   5.399   4.301
 3686SOL    HW111957   5.940   5.477   4.350
 3686SOL    HW211958   5.948   5.386   4.214
 3687SOL     OW11959   4.512   6.497   4.109
 3687SOL    HW111960   4.550   6.545   4.030
 3687SOL    HW211961   4.576   6.428   4.141
 3688SOL     OW11962   6.609   3.531   0.239
 3688SOL    HW111963   6.538   3.577   0.292
 3688SOL    HW211964   6.566   3.468   0.174
 3689SOL     OW11965   2.027   0.702   5.662
 3689SOL    HW111966   2.022   0.800   5.646
 3689SOL    HW211967   1.942   0.659   5.630
 3690SOL     OW11968   4.060   5.670   0.600
 3690SOL    HW111969   4.038   5.745   0.662
 3690SOL    HW211970   4.033   5.694   0.507
 3691SOL     OW11971   2.769   1.723   0.032
 3691SOL    HW111972   2.721   1.728   0.119
 3691SOL    HW211973   2.856   1.771   0.039
 3692SOL     OW11974   6.723   5.050   5.885
 3692SOL    HW111975   6.744   5.147   5.900
 3692SOL    HW211976   6.801   5.006   5.840
 3693SOL     OW11977   2.033   2.029   3.205
 3693SOL    HW111978   2.033   1.988   3.297
 3693SOL    HW211979   2.119   2.007   3.159
 3694SOL     OW11980   1.783   6.845   2.462
 3694SOL    HW111981   1.777   6.852   2.362
 3694SOL    HW211982   1.724   6.771   2.494
 3695SOL     OW11983   5.463   2.205   1.333
 3695SOL    HW111984   5.400   2.267   1.381
 3695SOL    HW211985   5.557   2.231   1.354
 3696SOL     OW11986   4.424   0.282   4.648
 3696SOL    HW111987   4.330   0.262   4.675
 3696SOL    HW211988   4.443   0.238   4.560
 3697SOL     OW11989   6.992   6.039   2.912
 3697SOL    HW111990   6.993   6.138   2.903
 3697SOL    HW211991   6.950   5.998   2.831
 3698SOL     OW11992   2.104   0.599   3.626
 3698SOL    HW111993   2.048   0.579   3.546
 3698SOL    HW211994   2.176   0.664   3.601
 3699SOL     OW11995   2.023   1.104   3.494
 3699SOL    HW111996   1.991   1.032   3.433
 3699SOL    HW211997   2.023   1.071   3.588
 3700SOL     OW11998   1.795   4.668   4.933
 3700SOL    HW111999   1.808   4.727   4.853
 3700SOL    HW212000   1.803   4.723   5.016
 3701SOL     OW12001   1.220   6.960   3.460
 3701SOL    HW112002   1.139   6.952   3.518
 3701SOL    HW212003   1.290   7.012   3.508
 3702SOL     OW12004   5.330   6.600   3.279
 3702SOL    HW112005   5.375   6.512   3.295
 3702SOL    HW212006   5.238   6.598   3.320
 3703SOL     OW12007   0.313   0.546   6.692
 3703SOL    HW112008   0.404   0.537   6.731
 3703SOL    HW212009   0.265   0.623   6.734
 3704SOL     OW12010   4.299   2.176   1.641
 3704SOL    HW112011   4.249   2.097   1.678
 3704SOL    HW212012   4.286   2.254   1.702
 3705SOL     OW12013   5.796   4.304   4.403
 3705SOL    HW112014   5.777   4.305   4.304
 3705SOL    HW212015   5.893   4.288   4.418
 3706SOL     OW12016   0.451   3.815   6.699
 3706SOL    HW112017   0.397   3.875   6.639
 3706SOL    HW212018   0.390   3.771   6.765
 3707SOL     OW12019   4.457   5.642   4.363
 3707SOL    HW112020   4.465   5.718   4.299
 3707SOL    HW212021   4.519   5.657   4.440
 3708SOL     OW12022   4.387   6.744   1.174
 3708SOL    HW112023   4.325   6.690   1.117
 3708SOL    HW212024   4.334   6.812   1.225
 3709SOL     OW12025   2.948   0.399   1.519
 3709SOL    HW112026   2.902   0.316   1.486
 3709SOL    HW212027   3.014   0.375   1.590
 3710SOL     OW12028   0.131   5.301   4.889
 3710SOL    HW112029   0.230   5.290   4.904
 3710SOL    HW212030   0.090   5.212   4.871
 3711SOL     OW12031   1.639   5.681   5.184
 3711SOL    HW112032   1.587   5.767   5.188
 3711SOL    HW212033   1.625   5.629   5.268
 3712SOL     OW12034   1.360   5.842   7.020
 3712SOL    HW112035   1.409   5.929   7.016
 3712SOL    HW212036   1.261   5.860   7.019
 3713SOL     OW12037   0.588   6.945   5.272
 3713SOL    HW112038   0.581   6.897   5.185
 3713SOL    HW212039   0.525   6.904   5.338
 3714SOL     OW12040   5.490   5.576   6.939
 3714SOL    HW112041   5.511   5.479   6.936
 3714SOL    HW212042   5.488   5.612   6.846
 3715SOL     OW12043   1.179   4.380   2.468
 3715SOL    HW112044   1.262   4.419   2.428
 3715SOL    HW212045   1.165   4.418   2.559
 3716SOL     OW12046   5.966   6.284   4.915
 3716SOL    HW112047   5.916   6.282   4.828
 3716SOL    HW212048   5.904   6.262   4.990
 3717SOL     OW12049   5.246   0.694   0.130
 3717SOL    HW112050   5.238   0.671   0.227
 3717SOL    HW212051   5.319   0.640   0.089
 3718SOL     OW12052   6.897   0.204   6.859
 3718SOL    HW112053   6.846   0.118   6.849
 3718SOL    HW212054   6.949   0.201   6.944
 3719SOL     OW12055   4.263   2.701   6.904
 3719SOL    HW112056   4.306   2.611   6.917
 3719SOL    HW212057   4.306   2.747   6.826
 3720SOL     OW12058   5.435   3.417   0.770
 3720SOL    HW112059   5.492   3.407   0.689
 3720SOL    HW212060   5.381   3.501   0.762
 3721SOL     OW12061   0.101   4.619   0.881
 3721SOL    HW112062   0.182   4.563   0.900
 3721SOL    HW212063   0.130   4.708   0.845
 3722SOL     OW12064   5.540   6.476   1.469
 3722SOL    HW112065   5.627   6.498   1.424
 3722SOL    HW212066   5.496   6.401   1.420
 3723SOL     OW12067   4.480   5.103   0.496
 3723SOL    HW112068   4.499   5.035   0.567
 3723SOL    HW212069   4.425   5.177   0.536
 3724SOL     OW12070   1.771   4.160   5.763
 3724SOL    HW112071   1.843   4.147   5.831
 3724SOL    HW212072   1.687   4.115   5.795
 3725SOL     OW12073   0.603   6.054   6.823
 3725SOL    HW112074   0.583   6.080   6.728
 3725SOL    HW212075   0.696   6.083   6.846
 3726SOL     OW12076   5.693   3.536   5.935
 3726SOL    HW112077   5.750   3.486   5.871
 3726SOL    HW212078   5.742   3.548   6.022
 3727SOL     OW12079   6.715   2.857   5.357
 3727SOL    HW112080   6.737   2.776   5.302
 3727SOL    HW212081   6.702   2.830   5.452
 3728SOL     OW12082   1.587   3.398   6.682
 3728SOL    HW112083   1.603   3.360   6.773
 3728SOL    HW212084   1.559   3.325   6.620
 3729SOL     OW12085   1.536   1.807   4.080
 3729SOL    HW112086   1.628   1.845   4.070
 3729SOL    HW212087   1.477   1.842   4.007
 3730SOL     OW12088   3.715   6.144   5.703
 3730SOL    HW112089   3.677   6.056   5.677
 3730SOL    HW212090   3.678   6.171   5.792
 3731SOL     OW12091   0.501   1.220   0.537
 3731SOL    HW112092   0.559   1.250   0.461
 3731SOL    HW212093   0.441   1.146   0.506
 3732SOL     OW12094   2.615   1.763   0.266
 3732SOL    HW112095   2.532   1.715   0.293
 3732SOL    HW212096   2.682   1.757   0.340
 3733SOL     OW12097   2.231   2.208   3.504
 3733SOL    HW112098   2.242   2.111   3.484
 3733SOL    HW212099   2.170   2.249   3.436
 3734SOL     OW12100   4.364   0.321   1.139
 3734SOL    HW112101   4.265   0.337   1.143
 3734SOL    HW212102   4.412   0.393   1.189
 3735SOL     OW12103   3.134   0.648   2.926
 3735SOL    HW112104   3.144   0.682   2.832
 3735SOL    HW212105   3.067   0.703   2.974
 3736SOL     OW12106   7.026   1.566   1.031
 3736SOL    HW112107   0.033   1.658   1.045
 3736SOL    HW212108   6.945   1.570   0.973
 3737SOL     OW12109   6.064   1.340   3.717
 3737SOL    HW112110   5.966   1.347   3.697
 3737SOL    HW212111   6.076   1.286   3.801
 3738SOL     OW12112   6.115   0.408   1.557
 3738SOL    HW112113   6.114   0.423   1.656
 3738SOL    HW212114   6.196   0.354   1.532
 3739SOL     OW12115   2.274   4.608   1.555
 3739SOL    HW112116   2.336   4.531   1.565
 3739SOL    HW212117   2.295   4.657   1.470
 3740SOL     OW12118   6.296   5.929   0.440
 3740SOL    HW112119   6.307   6.020   0.481
 3740SOL    HW212120   6.198   5.910   0.429
 3741SOL     OW12121   5.078   2.754   6.544
 3741SOL    HW112122   5.113   2.837   6.502
 3741SOL    HW212123   5.119   2.674   6.499
 3742SOL     OW12124   4.012   0.206   0.494
 3742SOL    HW112125   3.912   0.193   0.497
 3742SOL    HW212126   4.057   0.118   0.507
 3743SOL     OW12127   5.402   3.095   1.346
 3743SOL    HW112128   5.457   3.134   1.272
 3743SOL    HW212129   5.315   3.143   1.352
 3744SOL     OW12130   1.190   5.804   1.793
 3744SOL    HW112131   1.272   5.748   1.782
 3744SOL    HW212132   1.209   5.879   1.857
 3745SOL     OW12133   5.372   4.131   3.124
 3745SOL    HW112134   5.301   4.194   3.091
 3745SOL    HW212135   5.422   4.175   3.199
 3746SOL     OW12136   6.516   0.411   3.829
 3746SOL    HW112137   6.521   0.327   3.774
 3746SOL    HW212138   6.515   0.387   3.926
 3747SOL     OW12139   4.293   5.965   5.305
 3747SOL    HW112140   4.236   6.035   5.349
 3747SOL    HW212141   4.305   5.989   5.208
 3748SOL     OW12142   4.984   1.234   1.649
 3748SOL    HW112143   5.057   1.301   1.635
 3748SOL    HW212144   4.923   1.233   1.570
 3749SOL     OW12145   2.586   4.899   3.016
 3749SOL    HW112146   2.655   4.955   2.971
 3749SOL    HW212147   2.496   4.942   3.005
 3750SOL     OW12148   6.155   4.643   0.743
 3750SOL    HW112149   6.251   4.616   0.754
 3750SOL    HW212150   6.096   4.566   0.767
 3751SOL     OW12151   6.426   3.392   0.735
 3751SOL    HW112152   6.456   3.479   0.772
 3751SOL    HW212153   6.469   3.377   0.646
 3752SOL     OW12154   0.409   6.860   0.437
 3752SOL    HW112155   0.360   6.921   0.499
 3752SOL    HW212156   0.347   6.788   0.405
 3753SOL     OW12157   6.763   1.062   4.175
 3753SOL    HW112158   6.751   0.963   4.182
 3753SOL    HW212159   6.774   1.101   4.267
 3754SOL     OW12160   4.074   6.313   1.199
 3754SOL    HW112161   3.979   6.287   1.183
 3754SOL    HW212162   4.089   6.324   1.298
 3755SOL     OW12163   5.930   5.992   4.336
 3755SOL    HW112164   5.875   6.044   4.271
 3755SOL    HW212165   5.870   5.937   4.395
 3756SOL     OW12166   2.046   6.588   5.773
 3756SOL    HW112167   2.032   6.520   5.845
 3756SOL    HW212168   2.026   6.679   5.810
 3757SOL     OW12169   3.523   6.616   6.693
 3757SOL    HW112170   3.614   6.593   6.727
 3757SOL    HW212171   3.493   6.545   6.629
 3758SOL     OW12172   1.975   1.217   4.484
 3758SOL    HW112173   2.059   1.171   4.515
 3758SOL    HW212174   1.907   1.149   4.458
 3759SOL     OW12175   4.974   5.520   6.363
 3759SOL    HW112176   4.896   5.468   6.329
 3759SOL    HW212177   4.942   5.591   6.425
 3760SOL     OW12178   1.699   2.675   4.355
 3760SOL    HW112179   1.654   2.594   4.317
 3760SOL    HW212180   1.716   2.741   4.283
 3761SOL     OW12181   0.636   0.322   5.338
 3761SOL    HW112182   0.681   0.232   5.336
 3761SOL    HW212183   0.615   0.346   5.433
 3762SOL     OW12184   0.599   5.235   6.929
 3762SOL    HW112185   0.601   5.213   6.831
 3762SOL    HW212186   0.505   5.231   6.962
 3763SOL     OW12187   6.569   4.782   6.671
 3763SOL    HW112188   6.513   4.701   6.692
 3763SOL    HW212189   6.545   4.856   6.734
 3764SOL     OW12190   1.663   0.190   3.291
 3764SOL    HW112191   1.585   0.252   3.291
 3764SOL    HW212192   1.729   0.219   3.361
 3765SOL     OW12193   5.045   1.670   0.898
 3765SOL    HW112194   5.053   1.757   0.848
 3765SOL    HW212195   4.968   1.675   0.961
 3766SOL     OW12196   0.846   1.138   3.750
 3766SOL    HW112197   0.928   1.094   3.712
 3766SOL    HW212198   0.873   1.208   3.816
 3767SOL     OW12199   2.281   5.188   0.045
 3767SOL    HW112200   2.234   5.265   0.088
 3767SOL    HW212201   2.373   5.217   0.017
 3768SOL     OW12202   2.186   5.955   5.214
 3768SOL    HW112203   2.117   5.918   5.152
 3768SOL    HW212204   2.209   6.049   5.186
 3769SOL     OW12205   5.496   5.784   5.422
 3769SOL    HW112206   5.497   5.700   5.476
 3769SOL    HW212207   5.524   5.861   5.479
 3770SOL     OW12208   1.874   6.713   6.907
 3770SOL    HW112209   1.923   6.674   6.985
 3770SOL    HW212210   1.940   6.739   6.836
 3771SOL     OW12211   6.506   3.064   6.792
 3771SOL    HW112212   6.432   2.997   6.798
 3771SOL    HW212213   6.542   3.065   6.698
 3772SOL     OW12214   0.057   0.778   0.260
 3772SOL    HW112215   7.018   0.788   0.332
 3772SOL    HW212216   0.030   0.705   0.197
 3773SOL     OW12217   6.590   2.961   6.504
 3773SOL    HW112218   6.568   3.055   6.480
 3773SOL    HW212219   6.591   2.904   6.422
 3774SOL     OW12220   0.474   5.997   0.370
 3774SOL    HW112221   0.456   5.933   0.295
 3774SOL    HW212222   0.444   6.089   0.344
 3775SOL     OW12223   5.042   4.906   2.288
 3775SOL    HW112224   4.953   4.935   2.322
 3775SOL    HW212225   5.097   4.986   2.266
 3776SOL     OW12226   4.355   0.916   0.716
 3776SOL    HW112227   4.361   0.936   0.813
 3776SOL    HW212228   4.311   0.828   0.702
 3777SOL     OW12229   3.308   4.894   4.967
 3777SOL    HW112230   3.251   4.962   5.013
 3777SOL    HW212231   3.342   4.828   5.034
 3778SOL     OW12232   3.186   4.916   2.939
 3778SOL    HW112233   3.220   4.886   2.850
 3778SOL    HW212234   3.149   5.008   2.931
 3779SOL     OW12235   2.276   4.957   1.022
 3779SOL    HW112236   2.366   4.997   1.011
 3779SOL    HW212237   2.212   5.027   1.054
 3780SOL     OW12238   4.699   5.636   6.079
 3780SOL    HW112239   4.638   5.697   6.028
 3780SOL    HW212240   4.774   5.690   6.117
 3781SOL     OW12241   1.687   0.248   4.239
 3781SOL    HW112242   1.769   0.292   4.273
 3781SOL    HW212243   1.614   0.254   4.307
 3782SOL     OW12244   2.803   1.065   4.534
 3782SOL    HW112245   2.815   1.136   4.465
 3782SOL    HW212246   2.843   0.979   4.501
 3783SOL     OW12247   5.560   6.157   4.375
 3783SOL    HW112248   5.576   6.097   4.454
 3783SOL    HW212249   5.636   6.221   4.366
 3784SOL     OW12250   5.344   2.689   3.148
 3784SOL    HW112251   5.397   2.634   3.084
 3784SOL    HW212252   5.248   2.690   3.119
 3785SOL     OW12253   1.193   1.328   0.006
 3785SOL    HW112254   1.276   1.376   7.009
 3785SOL    HW212255   1.132   1.391   0.054
 3786SOL     OW12256   2.126   6.868   2.646
 3786SOL    HW112257   2.075   6.914   2.573
 3786SOL    HW212258   2.202   6.927   2.675
 3787SOL     OW12259   5.922   6.946   3.048
 3787SOL    HW112260   5.877   6.962   2.960
 3787SOL    HW212261   5.988   6.872   3.039
 3788SOL     OW12262   0.809   3.885   4.280
 3788SOL    HW112263   0.901   3.919   4.301
 3788SOL    HW212264   0.797   3.795   4.322
 3789SOL     OW12265   0.358   3.391   4.607
 3789SOL    HW112266   0.291   3.325   4.575
 3789SOL    HW212267   0.311   3.468   4.651
 3790SOL     OW12268   1.899   4.345   5.494
 3790SOL    HW112269   1.802   4.366   5.511
 3790SOL    HW212270   1.926   4.380   5.405
 3791SOL     OW12271   6.261   0.094   0.228
 3791SOL    HW112272   6.289   0.034   0.153
 3791SOL    HW212273   6.314   0.072   0.310
 3792SOL     OW12274   0.174   1.144   4.177
 3792SOL    HW112275   0.167   1.046   4.162
 3792SOL    HW212276   0.228   1.186   4.104
 3793SOL     OW12277   3.978   0.293   2.694
 3793SOL    HW112278   4.066   0.249   2.680
 3793SOL    HW212279   3.944   0.272   2.786
 3794SOL     OW12280   2.144   4.253   1.319
 3794SOL    HW112281   2.074   4.236   1.387
 3794SOL    HW212282   2.168   4.167   1.274
 3795SOL     OW12283   3.411   6.409   6.108
 3795SOL    HW112284   3.333   6.472   6.114
 3795SOL    HW212285   3.404   6.341   6.181
 3796SOL     OW12286   3.211   2.054   1.094
 3796SOL    HW112287   3.246   1.968   1.131
 3796SOL    HW212288   3.239   2.063   0.998
 3797SOL     OW12289   6.134   4.171   2.860
 3797SOL    HW112290   6.054   4.129   2.817
 3797SOL    HW212291   6.197   4.202   2.789
 3798SOL     OW12292   3.873   6.097   2.792
 3798SOL    HW112293   3.841   6.117   2.885
 3798SOL    HW212294   3.837   6.166   2.729
 3799SOL     OW12295   0.486   2.376   3.890
 3799SOL    HW112296   0.449   2.430   3.814
 3799SOL    HW212297   0.419   2.306   3.917
 3800SOL     OW12298   5.467   3.325   4.372
 3800SOL    HW112299   5.434   3.398   4.312
 3800SOL    HW212300   5.426   3.334   4.462
 3801SOL     OW12301   6.203   6.117   3.167
 3801SOL    HW112302   6.269   6.091   3.096
 3801SOL    HW212303   6.227   6.071   3.253
 3802SOL     OW12304   1.139   2.669   3.306
 3802SOL    HW112305   1.195   2.686   3.386
 3802SOL    HW212306   1.198   2.648   3.228
 3803SOL     OW12307   3.854   2.118   1.101
 3803SOL    HW112308   3.829   2.140   1.195
 3803SOL    HW212309   3.843   2.020   1.085
 3804SOL     OW12310   5.194   2.274   3.526
 3804SOL    HW112311   5.156   2.191   3.486
 3804SOL    HW212312   5.122   2.324   3.574
 3805SOL     OW12313   2.856   3.581   1.854
 3805SOL    HW112314   2.865   3.543   1.763
 3805SOL    HW212315   2.850   3.507   1.922
 3806SOL     OW12316   3.392   3.883   0.155
 3806SOL    HW112317   3.319   3.902   0.090
 3806SOL    HW212318   3.475   3.932   0.128
 3807SOL     OW12319   2.698   6.662   3.668
 3807SOL    HW112320   2.605   6.625   3.675
 3807SOL    HW212321   2.706   6.719   3.586
 3808SOL     OW12322   4.109   0.428   1.122
 3808SOL    HW112323   4.037   0.404   1.056
 3808SOL    HW212324   4.077   0.502   1.181
 3809SOL     OW12325   6.088   2.772   0.730
 3809SOL    HW112326   6.114   2.829   0.808
 3809SOL    HW212327   5.998   2.733   0.745
 3810SOL     OW12328   4.575   2.392   5.229
 3810SOL    HW112329   4.662   2.389   5.179
 3810SOL    HW212330   4.540   2.299   5.240
 3811SOL     OW12331   1.066   4.208   3.913
 3811SOL    HW112332   1.115   4.202   3.826
 3811SOL    HW212333   0.979   4.257   3.898
 3812SOL     OW12334   5.090   0.631   5.107
 3812SOL    HW112335   5.156   0.706   5.099
 3812SOL    HW212336   5.015   0.645   5.043
 3813SOL     OW12337   4.364   3.883   0.041
 3813SOL    HW112338   4.280   3.912   7.024
 3813SOL    HW212339   4.426   3.961   0.049
 3814SOL     OW12340   0.401   0.085   1.003
 3814SOL    HW112341   0.350   0.168   1.023
 3814SOL    HW212342   0.443   0.049   1.087
 3815SOL     OW12343   4.335   2.812   0.160
 3815SOL    HW112344   4.315   2.714   0.160
 3815SOL    HW212345   4.431   2.826   0.134
 3816SOL     OW12346   0.414   6.261   0.361
 3816SOL    HW112347   0.386   6.265   0.457
 3816SOL    HW212348   0.437   6.353   0.328
 3817SOL     OW12349   5.235   3.546   3.626
 3817SOL    HW112350   5.248   3.447   3.623
 3817SOL    HW212351   5.256   3.580   3.718
 3818SOL     OW12352   4.932   0.138   0.330
 3818SOL    HW112353   4.904   0.042   0.329
 3818SOL    HW212354   5.032   0.143   0.330
 3819SOL     OW12355   5.304   5.187   1.362
 3819SOL    HW112356   5.265   5.272   1.399
 3819SOL    HW212357   5.280   5.180   1.265
 3820SOL     OW12358   6.780   6.726   3.207
 3820SOL    HW112359   6.778   6.823   3.228
 3820SOL    HW212360   6.778   6.712   3.108
 3821SOL     OW12361   2.524   2.716   0.326
 3821SOL    HW112362   2.451   2.779   0.351
 3821SOL    HW212363   2.497   2.622   0.348
 3822SOL     OW12364   1.400   6.130   3.063
 3822SOL    HW112365   1.427   6.206   3.121
 3822SOL    HW212366   1.344   6.163   2.987
 3823SOL     OW12367   3.634   2.498   5.850
 3823SOL    HW112368   3.572   2.423   5.872
 3823SOL    HW212369   3.632   2.514   5.751
 3824SOL     OW12370   5.745   1.783   7.004
 3824SOL    HW112371   5.785   1.875   6.998
 3824SOL    HW212372   5.748   1.740   6.914
 3825SOL     OW12373   0.366   6.814   0.774
 3825SOL    HW112374   0.357   6.744   0.845
 3825SOL    HW212375   0.438   6.879   0.800
 3826SOL     OW12376   0.181   3.394   0.276
 3826SOL    HW112377   0.272   3.430   0.257
 3826SOL    HW212378   0.146   3.435   0.360
 3827SOL     OW12379   3.271   2.637   1.146
 3827SOL    HW112380   3.238   2.546   1.123
 3827SOL    HW212381   3.371   2.634   1.159
 3828SOL     OW12382   4.110   2.594   1.609
 3828SOL    HW112383   4.132   2.518   1.670
 3828SOL    HW212384   4.032   2.645   1.646
 3829SOL     OW12385   2.033   4.359   4.404
 3829SOL    HW112386   2.100   4.295   4.442
 3829SOL    HW212387   1.998   4.324   4.317
 3830SOL     OW12388   0.650   0.011   4.881
 3830SOL    HW112389   0.732   0.011   4.937
 3830SOL    HW212390   0.586   6.971   4.914
 3831SOL     OW12391   4.709   1.791   2.351
 3831SOL    HW112392   4.629   1.737   2.377
 3831SOL    HW212393   4.771   1.798   2.429
 3832SOL     OW12394   5.760   0.420   2.156
 3832SOL    HW112395   5.696   0.407   2.232
 3832SOL    HW212396   5.781   0.517   2.146
 3833SOL     OW12397   1.048   5.651   6.089
 3833SOL    HW112398   0.977   5.718   6.069
 3833SOL    HW212399   1.138   5.695   6.083
 3834SOL     OW12400   3.558   2.809   1.177
 3834SOL    HW112401   3.554   2.711   1.161
 3834SOL    HW212402   3.622   2.829   1.251
 3835SOL     OW12403   2.877   5.072   5.231
 3835SOL    HW112404   2.823   5.035   5.306
 3835SOL    HW212405   2.862   5.171   5.225
 3836SOL     OW12406   1.907   3.855   5.693
 3836SOL    HW112407   2.005   3.835   5.699
 3836SOL    HW212408   1.866   3.846   5.784
 3837SOL     OW12409   4.870   3.753   6.821
 3837SOL    HW112410   4.796   3.820   6.834
 3837SOL    HW212411   4.852   3.672   6.877
 3838SOL     OW12412   6.752   3.998   4.325
 3838SOL    HW112413   6.712   4.087   4.349
 3838SOL    HW212414   6.684   3.944   4.276
 3839SOL     OW12415   4.126   0.952   4.500
 3839SOL    HW112416   4.141   1.006   4.582
 3839SOL    HW212417   4.028   0.946   4.482
 3840SOL     OW12418   1.838   0.827   5.145
 3840SOL    HW112419   1.781   0.868   5.073
 3840SOL    HW212420   1.908   0.892   5.173
 3841SOL     OW12421   0.404   3.264   4.865
 3841SOL    HW112422   0.487   3.315   4.886
 3841SOL    HW212423   0.384   3.272   4.768
 3842SOL     OW12424   0.847   4.476   6.475
 3842SOL    HW112425   0.909   4.449   6.549
 3842SOL    HW212426   0.832   4.399   6.414
 3843SOL     OW12427   0.031   4.969   1.851
 3843SOL    HW112428   0.077   5.037   1.795
 3843SOL    HW212429   6.963   4.988   1.853
 3844SOL     OW12430   0.089   3.912   6.076
 3844SOL    HW112431   0.183   3.945   6.084
 3844SOL    HW212432   0.035   3.977   6.022
 3845SOL     OW12433   3.818   2.939   2.964
 3845SOL    HW112434   3.758   2.878   3.016
 3845SOL    HW212435   3.852   3.010   3.025
 3846SOL     OW12436   0.657   4.818   4.027
 3846SOL    HW112437   0.683   4.761   4.106
 3846SOL    HW212438   0.575   4.780   3.984
 3847SOL     OW12439   6.255   1.221   5.187
 3847SOL    HW112440   6.214   1.212   5.097
 3847SOL    HW212441   6.236   1.312   5.223
 3848SOL     OW12442   3.122   5.589   2.892
 3848SOL    HW112443   3.139   5.686   2.911
 3848SOL    HW212444   3.051   5.555   2.953
 3849SOL     OW12445   0.958   1.682   5.128
 3849SOL    HW112446   0.924   1.755   5.187
 3849SOL    HW212447   0.957   1.713   5.033
 3850SOL     OW12448   2.616   3.498   1.388
 3850SOL    HW112449   2.578   3.495   1.296
 3850SOL    HW212450   2.601   3.410   1.434
 3851SOL     OW12451   1.271   4.291   3.267
 3851SOL    HW112452   1.364   4.275   3.233
 3851SOL    HW212453   1.217   4.207   3.256
 3852SOL     OW12454   4.414   6.696   4.284
 3852SOL    HW112455   4.483   6.691   4.356
 3852SOL    HW212456   4.456   6.677   4.195
 3853SOL     OW12457   1.697   3.480   2.648
 3853SOL    HW112458   1.696   3.385   2.680
 3853SOL    HW212459   1.749   3.485   2.562
 3854SOL     OW12460   1.103   3.758   2.652
 3854SOL    HW112461   1.118   3.840   2.597
 3854SOL    HW212462   1.164   3.685   2.621
 3855SOL     OW12463   4.970   6.035   6.690
 3855SOL    HW112464   4.901   6.096   6.651
 3855SOL    HW212465   4.940   6.002   6.779
 3856SOL     OW12466   6.819   6.195   5.163
 3856SOL    HW112467   6.870   6.208   5.248
 3856SOL    HW212468   6.727   6.162   5.184
 3857SOL     OW12469   1.063   6.020   5.823
 3857SOL    HW112470   1.141   6.079   5.840
 3857SOL    HW212471   0.995   6.070   5.769
 3858SOL     OW12472   1.696   6.386   5.766
 3858SOL    HW112473   1.763   6.407   5.837
 3858SOL    HW212474   1.657   6.471   5.730
 3859SOL     OW12475   6.582   2.271   2.678
 3859SOL    HW112476   6.609   2.366   2.697
 3859SOL    HW212477   6.662   2.212   2.686
 3860SOL     OW12478   1.276   6.839   5.332
 3860SOL    HW112479   1.277   6.862   5.235
 3860SOL    HW212480   1.370   6.829   5.365
 3861SOL     OW12481   4.955   4.313   2.002
 3861SOL    HW112482   5.044   4.286   2.039
 3861SOL    HW212483   4.884   4.254   2.040
 3862SOL     OW12484   0.002   6.642   5.430
 3862SOL    HW112485   0.033   6.559   5.383
 3862SOL    HW212486   0.078   6.706   5.438
 3863SOL     OW12487   3.762   4.269   6.628
 3863SOL    HW112488   3.689   4.277   6.560
 3863SOL    HW212489   3.729   4.304   6.716
 3864SOL     OW12490   4.234   2.065   5.715
 3864SOL    HW112491   4.197   1.974   5.736
 3864SOL    HW212492   4.162   2.122   5.676
 3865SOL     OW12493   3.767   0.523   1.730
 3865SOL    HW112494   3.839   0.514   1.661
 3865SOL    HW212495   3.770   0.444   1.791
 3866SOL     OW12496   3.880   0.827   0.633
 3866SOL    HW112497   3.930   0.853   0.551
 3866SOL    HW212498   3.933   0.853   0.714
 3867SOL     OW12499   1.484   3.348   4.353
 3867SOL    HW112500   1.402   3.401   4.374
 3867SOL    HW212501   1.526   3.383   4.269
 3868SOL     OW12502   1.983   6.586   2.130
 3868SOL    HW112503   2.066   6.573   2.184
 3868SOL    HW212504   1.962   6.502   2.080
 3869SOL     OW12505   6.783   2.953   4.432
 3869SOL    HW112506   6.824   2.863   4.448
 3869SOL    HW212507   6.789   3.007   4.516
 3870SOL     OW12508   4.636   4.558   0.621
 3870SOL    HW112509   4.661   4.492   0.551
 3870SOL    HW212510   4.714   4.617   0.641
 3871SOL     OW12511   3.095   0.898   2.459
 3871SOL    HW112512   3.045   0.984   2.455
 3871SOL    HW212513   3.171   0.900   2.393
 3872SOL     OW12514   2.901   3.157   1.817
 3872SOL    HW112515   2.946   3.070   1.837
 3872SOL    HW212516   2.886   3.165   1.718
 3873SOL     OW12517   5.734   5.516   1.148
 3873SOL    HW112518   5.833   5.533   1.150
 3873SOL    HW212519   5.711   5.446   1.217
 3874SOL     OW12520   4.009   6.357   0.391
 3874SOL    HW112521   3.920   6.401   0.376
 3874SOL    HW212522   3.999   6.282   0.456
 3875SOL     OW12523   1.283   2.935   2.380
 3875SOL    HW112524   1.330   2.904   2.463
 3875SOL    HW212525   1.350   2.957   2.310
 3876SOL     OW12526   5.473   5.258   6.249
 3876SOL    HW112527   5.417   5.198   6.306
 3876SOL    HW212528   5.561   5.215   6.232
 3877SOL     OW12529   6.609   1.343   0.446
 3877SOL    HW112530   6.597   1.392   0.360
 3877SOL    HW212531   6.519   1.330   0.489
 3878SOL     OW12532   2.508   6.043   5.909
 3878SOL    HW112533   2.474   6.011   5.997
 3878SOL    HW212534   2.507   6.142   5.907
 3879SOL     OW12535   4.537   6.202   1.347
 3879SOL    HW112536   4.515   6.296   1.324
 3879SOL    HW212537   4.458   6.143   1.329
 3880SOL     OW12538   5.937   3.943   2.981
 3880SOL    HW112539   5.977   3.852   2.995
 3880SOL    HW212540   5.945   3.968   2.884
 3881SOL     OW12541   1.609   5.390   0.930
 3881SOL    HW112542   1.515   5.408   0.956
 3881SOL    HW212543   1.619   5.295   0.900
 3882SOL     OW12544   6.346   1.120   4.932
 3882SOL    HW112545   6.320   1.069   4.849
 3882SOL    HW212546   6.331   1.063   5.012
 3883SOL     OW12547   4.413   1.598   3.809
 3883SOL    HW112548   4.320   1.603   3.844
 3883SOL    HW212549   4.411   1.584   3.710
 3884SOL     OW12550   1.172   6.466   4.769
 3884SOL    HW112551   1.149   6.557   4.736
 3884SOL    HW212552   1.239   6.424   4.708
 3885SOL     OW12553   6.296   1.019   4.685
 3885SOL    HW112554   6.211   1.053   4.645
 3885SOL    HW212555   6.374   1.053   4.633
 3886SOL     OW12556   5.859   0.386   5.570
 3886SOL    HW112557   5.921   0.361   5.496
 3886SOL    HW212558   5.899   0.459   5.625
 3887SOL     OW12559   5.668   2.162   5.280
 3887SOL    HW112560   5.732   2.096   5.240
 3887SOL    HW212561   5.575   2.126   5.275
 3888SOL     OW12562   0.150   0.395   6.522
 3888SOL    HW112563   0.060   0.408   6.562
 3888SOL    HW212564   0.218   0.445   6.576
 3889SOL     OW12565   0.019   4.647   6.181
 3889SOL    HW112566   0.089   4.595   6.230
 3889SOL    HW212567   6.963   4.645   6.233
 3890SOL     OW12568   6.501   6.612   2.925
 3890SOL    HW112569   6.547   6.533   2.964
 3890SOL    HW212570   6.424   6.582   2.868
 3891SOL     OW12571   5.261   4.788   5.079
 3891SOL    HW112572   5.269   4.861   5.011
 3891SOL    HW212573   5.272   4.700   5.034
 3892SOL     OW12574   1.164   0.449   2.268
 3892SOL    HW112575   1.172   0.462   2.367
 3892SOL    HW212576   1.240   0.392   2.235
 3893SOL     OW12577   3.473   5.953   2.785
 3893SOL    HW112578   3.465   5.917   2.878
 3893SOL    HW212579   3.383   5.955   2.741
 3894SOL     OW12580   3.905   2.344   0.582
 3894SOL    HW112581   3.909   2.444   0.589
 3894SOL    HW212582   3.816   2.317   0.547
 3895SOL     OW12583   0.981   0.873   5.636
 3895SOL    HW112584   0.989   0.959   5.586
 3895SOL    HW212585   0.932   0.806   5.580
 3896SOL     OW12586   0.726   2.431   6.291
 3896SOL    HW112587   0.761   2.483   6.213
 3896SOL    HW212588   0.658   2.485   6.339
 3897SOL     OW12589   2.880   6.425   2.376
 3897SOL    HW112590   2.927   6.364   2.314
 3897SOL    HW212591   2.829   6.372   2.444
 3898SOL     OW12592   3.300   3.027   3.487
 3898SOL    HW112593   3.203   3.043   3.472
 3898SOL    HW212594   3.317   3.006   3.584
 3899SOL     OW12595   4.957   1.171   4.918
 3899SOL    HW112596   4.973   1.213   4.829
 3899SOL    HW212597   5.037   1.184   4.977
 3900SOL     OW12598   5.936   2.672   3.246
 3900SOL    HW112599   6.028   2.671   3.286
 3900SOL    HW212600   5.942   2.653   3.148
 3901SOL     OW12601   1.644   6.628   5.623
 3901SOL    HW112602   1.705   6.614   5.545
 3901SOL    HW212603   1.688   6.690   5.689
 3902SOL     OW12604   5.073   4.228   3.074
 3902SOL    HW112605   4.999   4.161   3.078
 3902SOL    HW212606   5.050   4.306   3.132
 3903SOL     OW12607   4.637   3.883   6.933
 3903SOL    HW112608   4.702   3.876   7.009
 3903SOL    HW212609   4.544   3.871   6.968
 3904SOL     OW12610   0.972   6.819   0.277
 3904SOL    HW112611   0.958   6.869   0.362
 3904SOL    HW212612   1.000   6.883   0.205
 3905SOL     OW12613   6.505   6.145   6.479
 3905SOL    HW112614   6.529   6.133   6.383
 3905SOL    HW212615   6.421   6.095   6.500
 3906SOL     OW12616   1.565   4.588   4.062
 3906SOL    HW112617   1.656   4.573   4.099
 3906SOL    HW212618   1.497   4.548   4.124
 3907SOL     OW12619   0.239   1.124   4.816
 3907SOL    HW112620   0.299   1.045   4.830
 3907SOL    HW212621   0.228   1.140   4.718
 3908SOL     OW12622   0.804   0.472   5.769
 3908SOL    HW112623   0.900   0.447   5.763
 3908SOL    HW212624   0.766   0.437   5.855
 3909SOL     OW12625   5.269   3.594   6.031
 3909SOL    HW112626   5.365   3.612   6.010
 3909SOL    HW212627   5.244   3.643   6.114
 3910SOL     OW12628   3.896   3.926   2.086
 3910SOL    HW112629   3.877   3.860   2.159
 3910SOL    HW212630   3.986   3.907   2.046
 3911SOL     OW12631   5.467   0.144   1.308
 3911SOL    HW112632   5.462   0.127   1.406
 3911SOL    HW212633   5.417   0.072   1.259
 3912SOL     OW12634   3.246   1.303   5.737
 3912SOL    HW112635   3.311   1.335   5.806
 3912SOL    HW212636   3.295   1.256   5.664
 3913SOL     OW12637   3.678   6.232   0.321
 3913SOL    HW112638   3.581   6.256   0.323
 3913SOL    HW212639   3.730   6.300   0.372
 3914SOL     OW12640   5.430   1.610   1.585
 3914SOL    HW112641   5.509   1.657   1.545
 3914SOL    HW212642   5.387   1.668   1.654
 3915SOL     OW12643   2.986   6.306   0.403
 3915SOL    HW112644   3.080   6.327   0.429
 3915SOL    HW212645   2.949   6.237   0.465
 3916SOL     OW12646   3.656   0.115   3.012
 3916SOL    HW112647   3.611   0.174   3.079
 3916SOL    HW212648   3.596   0.039   2.988
 3917SOL     OW12649   2.453   5.054   0.739
 3917SOL    HW112650   2.537   5.073   0.790
 3917SOL    HW212651   2.409   5.141   0.714
 3918SOL     OW12652   5.012   1.400   0.490
 3918SOL    HW112653   5.002   1.301   0.487
 3918SOL    HW212654   5.026   1.435   0.397
 3919SOL     OW12655   4.407   0.995   0.977
 3919SOL    HW112656   4.503   1.022   0.978
 3919SOL    HW212657   4.350   1.071   1.008
 3920SOL     OW12658   2.961   1.502   6.948
 3920SOL    HW112659   3.060   1.504   6.958
 3920SOL    HW212660   2.925   1.595   6.947
 3921SOL     OW12661   6.896   3.084   6.840
 3921SOL    HW112662   6.923   3.106   6.934
 3921SOL    HW212663   6.810   3.129   6.819
 3922SOL     OW12664   4.743   4.785   1.989
 3922SOL    HW112665   4.785   4.709   1.940
 3922SOL    HW212666   4.659   4.754   2.032
 3923SOL     OW12667   6.035   0.765   1.762
 3923SOL    HW112668   5.961   0.749   1.697
 3923SOL    HW212669   6.084   0.679   1.778
 3924SOL     OW12670   6.759   4.555   3.603
 3924SOL    HW112671   6.805   4.477   3.561
 3924SOL    HW212672   6.825   4.608   3.657
 3925SOL     OW12673   4.294   4.069   0.652
 3925SOL    HW112674   4.207   4.023   0.635
 3925SOL    HW212675   4.278   4.168   0.661
 3926SOL     OW12676   1.056   0.343   5.858
 3926SOL    HW112677   1.151   0.319   5.881
 3926SOL    HW212678   1.012   0.264   5.816
 3927SOL     OW12679   0.627   3.109   4.443
 3927SOL    HW112680   0.653   3.012   4.450
 3927SOL    HW212681   0.659   3.158   4.524
 3928SOL     OW12682   2.576   6.616   3.042
 3928SOL    HW112683   2.607   6.540   3.100
 3928SOL    HW212684   2.618   6.609   2.952
 3929SOL     OW12685   6.857   1.786   6.575
 3929SOL    HW112686   6.954   1.787   6.600
 3929SOL    HW212687   6.813   1.867   6.614
 3930SOL     OW12688   1.466   2.147   3.656
 3930SOL    HW112689   1.549   2.150   3.711
 3930SOL    HW212690   1.426   2.238   3.650
 3931SOL     OW12691   1.521   1.737   1.803
 3931SOL    HW112692   1.515   1.787   1.889
 3931SOL    HW212693   1.491   1.796   1.728
 3932SOL     OW12694   1.796   5.628   3.458
 3932SOL    HW112695   1.718   5.595   3.511
 3932SOL    HW212696   1.857   5.680   3.517
 3933SOL     OW12697   1.246   5.343   0.450
 3933SOL    HW112698   1.228   5.394   0.535
 3933SOL    HW212699   1.344   5.322   0.444
 3934SOL     OW12700   0.485   1.604   2.858
 3934SOL    HW112701   0.415   1.611   2.787
 3934SOL    HW212702   0.459   1.659   2.936
 3935SOL     OW12703   6.305   3.033   6.436
 3935SOL    HW112704   6.338   2.943   6.408
 3935SOL    HW212705   6.382   3.088   6.468
 3936SOL     OW12706   6.707   5.782   4.973
 3936SOL    HW112707   6.646   5.730   4.913
 3936SOL    HW212708   6.669   5.781   5.066
 3937SOL     OW12709   0.485   5.008   2.696
 3937SOL    HW112710   0.401   5.063   2.696
 3937SOL    HW212711   0.561   5.064   2.727
 3938SOL     OW12712   6.959   3.613   4.688
 3938SOL    HW112713   6.980   3.596   4.784
 3938SOL    HW212714   6.998   3.701   4.660
 3939SOL     OW12715   0.934   1.451   2.295
 3939SOL    HW112716   1.025   1.440   2.334
 3939SOL    HW212717   0.940   1.499   2.207
 3940SOL     OW12718   3.069   4.667   1.754
 3940SOL    HW112719   3.058   4.750   1.808
 3940SOL    HW212720   2.998   4.601   1.778
 3941SOL     OW12721   6.193   0.042   4.019
 3941SOL    HW112722   6.125   7.007   4.054
 3941SOL    HW212723   6.196   0.037   3.919
 3942SOL     OW12724   1.260   6.444   6.136
 3942SOL    HW112725   1.180   6.486   6.179
 3942SOL    HW212726   1.328   6.421   6.206
 3943SOL     OW12727   0.868   4.064   1.991
 3943SOL    HW112728   0.912   4.031   2.074
 3943SOL    HW212729   0.844   4.161   2.001
 3944SOL     OW12730   5.796   2.806   6.864
 3944SOL    HW112731   5.894   2.804   6.881
 3944SOL    HW212732   5.752   2.727   6.906
 3945SOL     OW12733   1.150   2.131   3.225
 3945SOL    HW112734   1.098   2.057   3.269
 3945SOL    HW212735   1.090   2.181   3.162
 3946SOL     OW12736   6.689   3.688   0.521
 3946SOL    HW112737   6.766   3.753   0.521
 3946SOL    HW212738   6.722   3.599   0.491
 3947SOL     OW12739   5.883   5.903   0.586
 3947SOL    HW112740   5.891   5.953   0.500
 3947SOL    HW212741   5.966   5.915   0.640
 3948SOL     OW12742   2.195   2.657   6.460
 3948SOL    HW112743   2.241   2.737   6.423
 3948SOL    HW212744   2.137   2.684   6.537
 3949SOL     OW12745   6.280   6.516   2.747
 3949SOL    HW112746   6.336   6.580   2.695
 3949SOL    HW212747   6.183   6.540   2.737
 3950SOL     OW12748   4.216   4.138   1.688
 3950SOL    HW112749   4.251   4.143   1.595
 3950SOL    HW212750   4.291   4.121   1.752
 3951SOL     OW12751   0.433   2.310   5.567
 3951SOL    HW112752   0.379   2.281   5.488
 3951SOL    HW212753   0.530   2.290   5.549
 3952SOL     OW12754   5.758   2.337   4.741
 3952SOL    HW112755   5.722   2.244   4.736
 3952SOL    HW212756   5.854   2.333   4.768
 3953SOL     OW12757   3.228   3.882   6.183
 3953SOL    HW112758   3.153   3.944   6.159
 3953SOL    HW212759   3.216   3.850   6.277
 3954SOL     OW12760   6.732   4.083   5.382
 3954SOL    HW112761   6.758   4.012   5.317
 3954SOL    HW212762   6.702   4.042   5.468
 3955SOL     OW12763   5.211   6.348   0.249
 3955SOL    HW112764   5.178   6.283   0.317
 3955SOL    HW212765   5.151   6.346   0.169
 3956SOL     OW12766   0.856   3.000   5.876
 3956SOL    HW112767   0.901   2.960   5.955
 3956SOL    HW212768   0.922   3.013   5.802
 3957SOL     OW12769   2.910   0.117   3.843
 3957SOL    HW112770   2.883   0.054   3.771
 3957SOL    HW212771   2.953   0.066   3.918
 3958SOL     OW12772   6.589   6.164   0.077
 3958SOL    HW112773   6.610   6.238   0.013
 3958SOL    HW212774   6.502   6.122   0.051
 3959SOL     OW12775   2.468   5.648   0.978
 3959SOL    HW112776   2.381   5.670   0.934
 3959SOL    HW212777   2.452   5.584   1.053
 3960SOL     OW12778   4.432   2.487   7.020
 3960SOL    HW112779   4.448   2.504   0.088
 3960SOL    HW212780   4.394   2.395   7.008
 3961SOL     OW12781   5.092   1.950   2.006
 3961SOL    HW112782   5.052   1.893   2.078
 3961SOL    HW212783   5.192   1.947   2.013
 3962SOL     OW12784   1.373   6.222   0.219
 3962SOL    HW112785   1.468   6.208   0.246
 3962SOL    HW212786   1.313   6.171   0.280
 3963SOL     OW12787   5.132   5.770   3.567
 3963SOL    HW112788   5.213   5.779   3.509
 3963SOL    HW212789   5.114   5.673   3.585
 3964SOL     OW12790   5.330   6.210   5.509
 3964SOL    HW112791   5.263   6.138   5.490
 3964SOL    HW212792   5.343   6.265   5.426
 3965SOL     OW12793   3.645   4.804   0.206
 3965SOL    HW112794   3.618   4.819   0.111
 3965SOL    HW212795   3.576   4.748   0.252
 3966SOL     OW12796   6.217   4.640   6.221
 3966SOL    HW112797   6.165   4.706   6.167
 3966SOL    HW212798   6.158   4.564   6.247
 3967SOL     OW12799   0.580   5.356   4.417
 3967SOL    HW112800   0.544   5.448   4.435
 3967SOL    HW212801   0.533   5.317   4.339
 3968SOL     OW12802   5.288   0.443   3.143
 3968SOL    HW112803   5.340   0.506   3.086
 3968SOL    HW212804   5.192   0.443   3.114
 3969SOL     OW12805   1.632   5.227   3.214
 3969SOL    HW112806   1.537   5.208   3.241
 3969SOL    HW212807   1.649   5.188   3.124
 3970SOL     OW12808   4.765   4.643   4.121
 3970SOL    HW112809   4.738   4.682   4.033
 3970SOL    HW212810   4.716   4.558   4.137
 3971SOL     OW12811   2.857   5.572   3.182
 3971SOL    HW112812   2.919   5.640   3.223
 3971SOL    HW212813   2.799   5.533   3.253
 3972SOL     OW12814   0.157   6.595   0.666
 3972SOL    HW112815   0.252   6.568   0.655
 3972SOL    HW212816   0.137   6.612   0.762
 3973SOL     OW12817   3.132   3.130   4.697
 3973SOL    HW112818   3.077   3.188   4.636
 3973SOL    HW212819   3.083   3.116   4.783
 3974SOL     OW12820   0.236   1.257   5.917
 3974SOL    HW112821   0.252   1.205   6.001
 3974SOL    HW212822   0.324   1.290   5.882
 3975SOL     OW12823   6.737   0.518   5.763
 3975SOL    HW112824   6.702   0.445   5.823
 3975SOL    HW212825   6.776   0.478   5.681
 3976SOL     OW12826   0.411   4.671   1.145
 3976SOL    HW112827   0.468   4.630   1.216
 3976SOL    HW212828   0.332   4.715   1.188
 3977SOL     OW12829   2.329   6.047   6.130
 3977SOL    HW112830   2.371   6.138   6.123
 3977SOL    HW212831   2.309   6.027   6.226
 3978SOL     OW12832   5.809   1.723   5.692
 3978SOL    HW112833   5.909   1.733   5.698
 3978SOL    HW212834   5.770   1.803   5.647
 3979SOL     OW12835   2.081   0.041   1.602
 3979SOL    HW112836   2.163   0.086   1.637
 3979SOL    HW212837   2.028   0.106   1.547
 3980SOL     OW12838   5.372   3.424   4.612
 3980SOL    HW112839   5.293   3.475   4.646
 3980SOL    HW212840   5.394   3.350   4.675
 3981SOL     OW12841   0.297   2.385   6.523
 3981SOL    HW112842   0.225   2.342   6.468
 3981SOL    HW212843   0.259   2.463   6.573
 3982SOL     OW12844   1.838   0.867   4.709
 3982SOL    HW112845   1.934   0.895   4.714
 3982SOL    HW212846   1.791   0.920   4.638
 3983SOL     OW12847   3.495   0.082   4.663
 3983SOL    HW112848   3.566   0.039   4.607
 3983SOL    HW212849   3.453   0.014   4.722
 3984SOL     OW12850   1.789   6.766   2.188
 3984SOL    HW112851   1.875   6.720   2.168
 3984SOL    HW212852   1.717   6.728   2.130
 3985SOL     OW12853   1.756   4.204   6.617
 3985SOL    HW112854   1.727   4.300   6.615
 3985SOL    HW212855   1.681   4.148   6.652
 3986SOL     OW12856   0.314   1.931   1.768
 3986SOL    HW112857   0.293   1.914   1.672
 3986SOL    HW212858   0.412   1.947   1.778
 3987SOL     OW12859   1.594   5.565   5.430
 3987SOL    HW112860   1.646   5.604   5.507
 3987SOL    HW212861   1.501   5.544   5.460
 3988SOL     OW12862   4.269   1.716   6.345
 3988SOL    HW112863   4.181   1.677   6.319
 3988SOL    HW212864   4.271   1.813   6.320
 3989SOL     OW12865   5.925   6.887   6.497
 3989SOL    HW112866   5.905   6.985   6.504
 3989SOL    HW212867   5.990   6.872   6.422
 3990SOL     OW12868   6.973   2.430   5.087
 3990SOL    HW112869   6.929   2.484   5.158
 3990SOL    HW212870   6.937   2.457   4.997
 3991SOL     OW12871   0.586   2.095   3.647
 3991SOL    HW112872   0.493   2.116   3.677
 3991SOL    HW212873   0.612   2.158   3.574
 3992SOL     OW12874   3.837   3.247   6.868
 3992SOL    HW112875   3.739   3.266   6.860
 3992SOL    HW212876   3.875   3.225   6.778
 3993SOL     OW12877   3.064   2.156   2.509
 3993SOL    HW112878   3.129   2.144   2.434
 3993SOL    HW212879   2.997   2.226   2.485
 3994SOL     OW12880   2.229   2.569   4.941
 3994SOL    HW112881   2.214   2.470   4.939
 3994SOL    HW212882   2.166   2.611   5.007
 3995SOL     OW12883   2.297   4.173   3.381
 3995SOL    HW112884   2.292   4.083   3.338
 3995SOL    HW212885   2.329   4.241   3.315
 3996SOL     OW12886   1.150   1.468   4.277
 3996SOL    HW112887   1.079   1.400   4.258
 3996SOL    HW212888   1.182   1.508   4.191
 3997SOL     OW12889   4.907   3.587   3.137
 3997SOL    HW112890   4.899   3.624   3.229
 3997SOL    HW212891   4.990   3.531   3.130
 3998SOL     OW12892   6.010   1.635   1.901
 3998SOL    HW112893   6.013   1.718   1.845
 3998SOL    HW212894   6.088   1.633   1.963
 3999SOL     OW12895   6.025   3.966   3.753
 3999SOL    HW112896   5.935   3.950   3.713
 3999SOL    HW212897   6.016   4.019   3.837
 4000SOL     OW12898   2.946   6.102   2.624
 4000SOL    HW112899   3.020   6.161   2.591
 4000SOL    HW212900   2.858   6.146   2.605
 4001SOL     OW12901   2.265   3.967   6.243
 4001SOL    HW112902   2.227   4.058   6.226
 4001SOL    HW212903   2.198   3.897   6.217
 4002SOL     OW12904   3.973   3.062   4.408
 4002SOL    HW112905   4.034   3.141   4.398
 4002SOL    HW212906   3.961   3.042   4.505
 4003SOL     OW12907   2.401   1.146   6.411
 4003SOL    HW112908   2.374   1.234   6.450
 4003SOL    HW212909   2.351   1.072   6.457
 4004SOL     OW12910   6.278   3.615   3.826
 4004SOL    HW112911   6.317   3.555   3.896
 4004SOL    HW212912   6.252   3.560   3.746
 4005SOL     OW12913   4.282   4.649   1.223
 4005SOL    HW112914   4.233   4.605   1.148
 4005SOL    HW212915   4.219   4.664   1.299
 4006SOL     OW12916   5.336   4.830   2.176
 4006SOL    HW112917   5.391   4.825   2.093
 4006SOL    HW212918   5.297   4.921   2.185
 4007SOL     OW12919   0.357   2.056   3.424
 4007SOL    HW112920   0.261   2.071   3.402
 4007SOL    HW212921   0.414   2.098   3.353
 4008SOL     OW12922   3.188   0.354   6.588
 4008SOL    HW112923   3.267   0.298   6.567
 4008SOL    HW212924   3.177   0.360   6.688
 4009SOL     OW12925   5.142   2.186   1.280
 4009SOL    HW112926   5.223   2.204   1.225
 4009SOL    HW212927   5.095   2.105   1.244
 4010SOL     OW12928   3.168   3.249   1.388
 4010SOL    HW112929   3.100   3.300   1.441
 4010SOL    HW212930   3.256   3.251   1.435
 4011SOL     OW12931   6.319   6.126   1.654
 4011SOL    HW112932   6.277   6.206   1.696
 4011SOL    HW212933   6.288   6.043   1.700
 4012SOL     OW12934   3.997   6.621   2.629
 4012SOL    HW112935   3.898   6.634   2.617
 4012SOL    HW212936   4.025   6.663   2.715
 4013SOL     OW12937   1.865   0.121   1.356
 4013SOL    HW112938   1.945   0.182   1.360
 4013SOL    HW212939   1.797   0.150   1.423
 4014SOL     OW12940   3.477   6.271   3.858
 4014SOL    HW112941   3.445   6.286   3.951
 4014SOL    HW212942   3.571   6.238   3.860
 4015SOL     OW12943   4.762   5.139   6.163
 4015SOL    HW112944   4.672   5.177   6.183
 4015SOL    HW212945   4.779   5.143   6.064
 4016SOL     OW12946   2.554   5.227   0.305
 4016SOL    HW112947   2.483   5.158   0.317
 4016SOL    HW212948   2.632   5.206   0.364
 4017SOL     OW12949   6.857   4.758   4.791
 4017SOL    HW112950   6.815   4.803   4.870
 4017SOL    HW212951   6.953   4.739   4.810
 4018SOL     OW12952   4.192   0.068   1.474
 4018SOL    HW112953   4.226   0.160   1.493
 4018SOL    HW212954   4.196   0.013   1.557
 4019SOL     OW12955   5.166   3.436   2.296
 4019SOL    HW112956   5.092   3.429   2.362
 4019SOL    HW212957   5.140   3.498   2.222
 4020SOL     OW12958   0.022   2.983   5.614
 4020SOL    HW112959   0.067   2.921   5.550
 4020SOL    HW212960   0.032   2.948   5.707
 4021SOL     OW12961   3.937   4.313   5.572
 4021SOL    HW112962   4.032   4.314   5.602
 4021SOL    HW212963   3.916   4.398   5.525
 4022SOL     OW12964   3.782   6.323   0.070
 4022SOL    HW112965   3.850   6.266   0.024
 4022SOL    HW212966   3.739   6.271   0.144
 4023SOL     OW12967   0.097   0.902   6.182
 4023SOL    HW112968   0.021   0.959   6.148
 4023SOL    HW212969   0.177   0.960   6.198
 4024SOL     OW12970   2.734   4.693   4.196
 4024SOL    HW112971   2.772   4.646   4.276
 4024SOL    HW212972   2.635   4.703   4.207
 4025SOL     OW12973   0.366   6.273   4.300
 4025SOL    HW112974   0.288   6.228   4.257
 4025SOL    HW212975   0.401   6.216   4.374
 4026SOL     OW12976   6.316   6.620   4.212
 4026SOL    HW112977   6.295   6.648   4.306
 4026SOL    HW212978   6.253   6.549   4.183
 4027SOL     OW12979   2.941   2.507   0.087
 4027SOL    HW112980   2.865   2.505   0.022
 4027SOL    HW212981   2.976   2.414   0.101
 4028SOL     OW12982   4.448   1.509   3.527
 4028SOL    HW112983   4.475   1.423   3.569
 4028SOL    HW212984   4.528   1.553   3.485
 4029SOL     OW12985   3.372   3.847   5.947
 4029SOL    HW112986   3.332   3.825   5.858
 4029SOL    HW212987   3.303   3.836   6.018
 4030SOL     OW12988   6.476   0.830   2.205
 4030SOL    HW112989   6.396   0.877   2.242
 4030SOL    HW212990   6.473   0.833   2.105
 4031SOL     OW12991   5.105   6.044   3.306
 4031SOL    HW112992   5.132   6.024   3.401
 4031SOL    HW212993   5.109   5.960   3.252
 4032SOL     OW12994   0.312   6.898   2.377
 4032SOL    HW112995   0.288   6.942   2.290
 4032SOL    HW212996   0.338   6.968   2.444
 4033SOL     OW12997   2.111   2.830   1.781
 4033SOL    HW112998   2.111   2.737   1.742
 4033SOL    HW212999   2.199   2.847   1.825
 4034SOL     OW13000   5.892   2.033   5.013
 4034SOL    HW113001   5.892   1.976   5.095
 4034SOL    HW213002   5.986   2.058   4.990
 4035SOL     OW13003   6.025   1.090   0.976
 4035SOL    HW113004   5.948   1.110   0.915
 4035SOL    HW213005   5.992   1.088   1.071
 4036SOL     OW13006   4.233   4.683   2.237
 4036SOL    HW113007   4.204   4.602   2.289
 4036SOL    HW213008   4.329   4.702   2.255
 4037SOL     OW13009   2.213   1.724   6.534
 4037SOL    HW113010   2.253   1.691   6.620
 4037SOL    HW213011   2.278   1.708   6.460
 4038SOL     OW13012   4.449   2.916   0.991
 4038SOL    HW113013   4.447   2.861   0.907
 4038SOL    HW213014   4.382   2.880   1.056
 4039SOL     OW13015   5.066   5.404   1.621
 4039SOL    HW113016   5.161   5.385   1.645
 4039SOL    HW213017   5.006   5.338   1.667
 4040SOL     OW13018   3.850   6.714   4.923
 4040SOL    HW113019   3.866   6.799   4.873
 4040SOL    HW213020   3.807   6.734   5.011
 4041SOL     OW13021   1.362   5.110   1.004
 4041SOL    HW113022   1.458   5.139   1.001
 4041SOL    HW213023   1.312   5.155   0.931
 4042SOL     OW13024   6.289   6.196   4.208
 4042SOL    HW113025   6.269   6.100   4.223
 4042SOL    HW213026   6.356   6.227   4.276
 4043SOL     OW13027   6.761   2.326   6.354
 4043SOL    HW113028   6.740   2.231   6.329
 4043SOL    HW213029   6.746   2.385   6.274
 4044SOL     OW13030   4.848   6.284   3.722
 4044SOL    HW113031   4.843   6.255   3.626
 4044SOL    HW213032   4.756   6.280   3.762
 4045SOL     OW13033   3.724   5.981   5.943
 4045SOL    HW113034   3.688   5.907   5.886
 4045SOL    HW213035   3.668   5.991   6.025
 4046SOL     OW13036   1.174   1.701   3.488
 4046SOL    HW113037   1.253   1.713   3.429
 4046SOL    HW213038   1.202   1.705   3.583
 4047SOL     OW13039   3.022   1.893   0.026
 4047SOL    HW113040   3.080   1.872   6.977
 4047SOL    HW213041   2.974   1.979   0.010
 4048SOL     OW13042   5.201   1.440   1.592
 4048SOL    HW113043   5.272   1.511   1.585
 4048SOL    HW213044   5.181   1.404   1.501
 4049SOL     OW13045   5.138   4.927   6.460
 4049SOL    HW113046   5.136   4.828   6.478
 4049SOL    HW213047   5.092   4.945   6.373
 4050SOL     OW13048   0.854   6.669   2.436
 4050SOL    HW113049   0.876   6.716   2.350
 4050SOL    HW213050   0.756   6.673   2.452
 4051SOL     OW13051   4.158   1.446   6.606
 4051SOL    HW113052   4.145   1.443   6.705
 4051SOL    HW213053   4.224   1.517   6.582
 4052SOL     OW13054   5.710   1.259   2.599
 4052SOL    HW113055   5.756   1.334   2.551
 4052SOL    HW213056   5.763   1.175   2.590
 4053SOL     OW13057   3.002   6.909   4.392
 4053SOL    HW113058   3.030   6.818   4.363
 4053SOL    HW213059   3.002   6.913   4.492
 4054SOL     OW13060   5.452   3.838   0.802
 4054SOL    HW113061   5.440   3.861   0.705
 4054SOL    HW213062   5.451   3.922   0.856
 4055SOL     OW13063   2.731   3.570   0.492
 4055SOL    HW113064   2.736   3.473   0.515
 4055SOL    HW213065   2.711   3.623   0.574
 4056SOL     OW13066   5.116   3.825   0.697
 4056SOL    HW113067   5.089   3.885   0.622
 4056SOL    HW213068   5.098   3.869   0.784
 4057SOL     OW13069   6.726   2.631   0.570
 4057SOL    HW113070   6.819   2.639   0.607
 4057SOL    HW213071   6.660   2.663   0.637
 4058SOL     OW13072   2.491   6.700   4.961
 4058SOL    HW113073   2.521   6.636   5.030
 4058SOL    HW213074   2.433   6.653   4.894
 4059SOL     OW13075   1.191   1.796   2.868
 4059SOL    HW113076   1.192   1.699   2.842
 4059SOL    HW213077   1.253   1.810   2.945
 4060SOL     OW13078   5.659   5.416   5.364
 4060SOL    HW113079   5.667   5.489   5.297
 4060SOL    HW213080   5.747   5.370   5.374
 4061SOL     OW13081   2.127   4.471   2.258
 4061SOL    HW113082   2.082   4.542   2.312
 4061SOL    HW213083   2.212   4.508   2.220
 4062SOL     OW13084   2.512   0.479   1.818
 4062SOL    HW113085   2.442   0.549   1.810
 4062SOL    HW213086   2.595   0.509   1.772
 4063SOL     OW13087   6.129   6.431   0.352
 4063SOL    HW113088   6.217   6.403   0.391
 4063SOL    HW213089   6.060   6.434   0.424
 4064SOL     OW13090   2.385   0.425   3.947
 4064SOL    HW113091   2.307   0.386   3.898
 4064SOL    HW213092   2.466   0.420   3.888
 4065SOL     OW13093   1.123   6.580   1.704
 4065SOL    HW113094   1.102   6.666   1.750
 4065SOL    HW213095   1.182   6.598   1.625
 4066SOL     OW13096   6.164   4.393   3.063
 4066SOL    HW113097   6.116   4.356   3.143
 4066SOL    HW213098   6.181   4.319   2.998
 4067SOL     OW13099   6.225   3.864   2.969
 4067SOL    HW113100   6.257   3.852   2.874
 4067SOL    HW213101   6.293   3.915   3.021
 4068SOL     OW13102   1.718   1.200   5.006
 4068SOL    HW113103   1.722   1.109   4.964
 4068SOL    HW213104   1.683   1.192   5.099
 4069SOL     OW13105   2.930   5.345   6.726
 4069SOL    HW113106   2.998   5.415   6.703
 4069SOL    HW213107   2.844   5.388   6.751
 4070SOL     OW13108   0.474   2.918   2.349
 4070SOL    HW113109   0.501   2.867   2.431
 4070SOL    HW213110   0.554   2.967   2.313
 4071SOL     OW13111   1.321   1.587   5.829
 4071SOL    HW113112   1.293   1.551   5.740
 4071SOL    HW213113   1.321   1.513   5.896
 4072SOL     OW13114   0.777   5.697   4.626
 4072SOL    HW113115   0.699   5.745   4.584
 4072SOL    HW213116   0.804   5.620   4.568
 4073SOL     OW13117   2.834   6.762   6.206
 4073SOL    HW113118   2.894   6.715   6.141
 4073SOL    HW213119   2.863   6.858   6.215
 4074SOL     OW13120   6.740   4.292   1.334
 4074SOL    HW113121   6.642   4.288   1.349
 4074SOL    HW213122   6.783   4.344   1.408
 4075SOL     OW13123   4.525   2.047   1.574
 4075SOL    HW113124   4.573   2.043   1.661
 4075SOL    HW213125   4.451   2.114   1.579
 4076SOL     OW13126   3.160   2.894   5.918
 4076SOL    HW113127   3.186   2.986   5.947
 4076SOL    HW213128   3.120   2.898   5.826
 4077SOL     OW13129   3.759   1.219   0.200
 4077SOL    HW113130   3.706   1.135   0.205
 4077SOL    HW213131   3.845   1.201   0.152
 4078SOL     OW13132   0.329   5.418   1.093
 4078SOL    HW113133   0.302   5.510   1.064
 4078SOL    HW213134   0.419   5.396   1.055
 4079SOL     OW13135   1.835   0.829   3.555
 4079SOL    HW113136   1.850   0.737   3.520
 4079SOL    HW213137   1.913   0.856   3.612
 4080SOL     OW13138   4.366   4.327   6.298
 4080SOL    HW113139   4.309   4.406   6.321
 4080SOL    HW213140   4.308   4.245   6.292
 4081SOL     OW13141   1.825   3.065   4.247
 4081SOL    HW113142   1.908   3.021   4.281
 4081SOL    HW213143   1.758   3.072   4.320
 4082SOL     OW13144   0.782   3.734   0.091
 4082SOL    HW113145   0.710   3.803   0.103
 4082SOL    HW213146   0.859   3.757   0.151
 4083SOL     OW13147   6.873   3.206   2.365
 4083SOL    HW113148   6.882   3.303   2.384
 4083SOL    HW213149   6.873   3.154   2.450
 4084SOL     OW13150   5.773   1.822   3.673
 4084SOL    HW113151   5.688   1.790   3.631
 4084SOL    HW213152   5.784   1.781   3.764
 4085SOL     OW13153   2.964   5.804   1.813
 4085SOL    HW113154   2.917   5.767   1.733
 4085SOL    HW213155   3.026   5.734   1.850
 4086SOL     OW13156   1.295   5.558   1.503
 4086SOL    HW113157   1.299   5.483   1.569
 4086SOL    HW213158   1.200   5.588   1.493
 4087SOL     OW13159   1.973   1.670   3.417
 4087SOL    HW113160   1.932   1.579   3.425
 4087SOL    HW213161   2.044   1.680   3.487
 4088SOL     OW13162   0.202   1.264   0.110
 4088SOL    HW113163   0.271   1.336   0.104
 4088SOL    HW213164   0.115   1.297   0.073
 4089SOL     OW13165   6.073   6.388   4.179
 4089SOL    HW113166   6.132   6.307   4.174
 4089SOL    HW213167   6.089   6.447   4.100
 4090SOL     OW13168   1.628   4.905   5.982
 4090SOL    HW113169   1.652   4.990   5.936
 4090SOL    HW213170   1.550   4.863   5.935
 4091SOL     OW13171   6.981   6.263   6.983
 4091SOL    HW113172   6.940   6.288   0.041
 4091SOL    HW213173   6.946   6.174   6.954
 4092SOL     OW13174   6.686   2.474   6.154
 4092SOL    HW113175   6.595   2.504   6.128
 4092SOL    HW213176   6.754   2.540   6.121
 4093SOL     OW13177   4.497   0.104   2.765
 4093SOL    HW113178   4.418   0.147   2.808
 4093SOL    HW213179   4.579   0.157   2.785
 4094SOL     OW13180   2.445   5.629   4.476
 4094SOL    HW113181   2.359   5.673   4.502
 4094SOL    HW213182   2.520   5.672   4.526
 4095SOL     OW13183   0.432   3.845   0.401
 4095SOL    HW113184   0.371   3.780   0.446
 4095SOL    HW213185   0.526   3.812   0.407
 4096SOL     OW13186   4.393   6.049   6.065
 4096SOL    HW113187   4.359   5.961   6.033
 4096SOL    HW213188   4.369   6.061   6.162
 4097SOL     OW13189   3.709   4.810   5.414
 4097SOL    HW113190   3.641   4.738   5.413
 4097SOL    HW213191   3.800   4.770   5.402
 4098SOL     OW13192   0.266   2.485   1.562
 4098SOL    HW113193   0.318   2.527   1.488
 4098SOL    HW213194   0.322   2.415   1.607
 4099SOL     OW13195   2.714   4.683   1.549
 4099SOL    HW113196   2.708   4.588   1.581
 4099SOL    HW213197   2.810   4.706   1.531
 4100SOL     OW13198   6.609   5.917   4.670
 4100SOL    HW113199   6.691   5.958   4.711
 4100SOL    HW213200   6.634   5.832   4.623
 4101SOL     OW13201   6.229   0.804   0.194
 4101SOL    HW113202   6.237   0.838   0.100
 4101SOL    HW213203   6.225   0.882   0.256
 4102SOL     OW13204   6.452   0.479   0.617
 4102SOL    HW113205   6.495   0.519   0.535
 4102SOL    HW213206   6.522   0.440   0.675
 4103SOL     OW13207   0.375   0.574   0.501
 4103SOL    HW113208   0.367   0.532   0.410
 4103SOL    HW213209   0.471   0.588   0.523
 4104SOL     OW13210   0.899   4.535   3.140
 4104SOL    HW113211   0.799   4.527   3.146
 4104SOL    HW213212   0.939   4.524   3.231
 4105SOL     OW13213   4.524   6.900   1.543
 4105SOL    HW113214   4.538   6.947   1.456
 4105SOL    HW213215   4.563   6.956   1.617
 4106SOL     OW13216   6.823   2.513   3.482
 4106SOL    HW113217   6.807   2.532   3.579
 4106SOL    HW213218   6.768   2.575   3.426
 4107SOL     OW13219   0.996   5.521   1.151
 4107SOL    HW113220   0.948   5.523   1.239
 4107SOL    HW213221   1.094   5.514   1.166
 4108SOL     OW13222   6.260   4.276   5.359
 4108SOL    HW113223   6.223   4.261   5.267
 4108SOL    HW213224   6.360   4.282   5.355
 4109SOL     OW13225   6.267   0.184   4.941
 4109SOL    HW113226   6.185   0.136   4.972
 4109SOL    HW213227   6.348   0.130   4.964
 4110SOL     OW13228   3.895   3.719   6.500
 4110SOL    HW113229   3.867   3.658   6.426
 4110SOL    HW213230   3.939   3.665   6.572
 4111SOL     OW13231   4.195   3.321   0.085
 4111SOL    HW113232   4.178   3.381   0.007
 4111SOL    HW213233   4.111   3.273   0.110
 4112SOL     OW13234   5.026   6.660   5.079
 4112SOL    HW113235   5.036   6.610   5.164
 4112SOL    HW213236   5.019   6.758   5.099
 4113SOL     OW13237   4.854   6.127   4.385
 4113SOL    HW113238   4.842   6.177   4.471
 4113SOL    HW213239   4.920   6.174   4.327
 4114SOL     OW13240   3.298   2.116   4.253
 4114SOL    HW113241   3.203   2.134   4.227
 4114SOL    HW213242   3.310   2.134   4.351
 4115SOL     OW13243   3.810   4.886   2.250
 4115SOL    HW113244   3.896   4.883   2.198
 4115SOL    HW213245   3.826   4.853   2.343
 4116SOL     OW13246   3.471   1.627   2.188
 4116SOL    HW113247   3.374   1.603   2.189
 4116SOL    HW213248   3.488   1.691   2.113
 4117SOL     OW13249   0.963   4.514   2.338
 4117SOL    HW113250   0.902   4.440   2.310
 4117SOL    HW213251   1.044   4.475   2.383
 4118SOL     OW13252   2.752   6.417   0.536
 4118SOL    HW113253   2.685   6.490   0.520
 4118SOL    HW213254   2.828   6.427   0.472
 4119SOL     OW13255   3.749   2.058   4.254
 4119SOL    HW113256   3.707   2.036   4.342
 4119SOL    HW213257   3.680   2.058   4.183
 4120SOL     OW13258   3.744   0.156   0.562
 4120SOL    HW113259   3.735   0.115   0.472
 4120SOL    HW213260   3.653   0.177   0.599
 4121SOL     OW13261   6.301   0.683   5.152
 4121SOL    HW113262   6.247   0.610   5.109
 4121SOL    HW213263   6.327   0.656   5.244
 4122SOL     OW13264   1.440   5.864   5.145
 4122SOL    HW113265   1.378   5.804   5.093
 4122SOL    HW213266   1.390   5.945   5.176
 4123SOL     OW13267   4.366   5.178   5.830
 4123SOL    HW113268   4.343   5.253   5.767
 4123SOL    HW213269   4.416   5.214   5.909
 4124SOL     OW13270   6.350   5.679   6.570
 4124SOL    HW113271   6.386   5.587   6.552
 4124SOL    HW213272   6.256   5.685   6.536
 4125SOL     OW13273   4.615   1.438   2.577
 4125SOL    HW113274   4.704   1.479   2.600
 4125SOL    HW213275   4.548   1.511   2.563
 4126SOL     OW13276   1.207   3.703   4.435
 4126SOL    HW113277   1.119   3.751   4.439
 4126SOL    HW213278   1.279   3.768   4.411
 4127SOL     OW13279   4.600   4.919   4.798
 4127SOL    HW113280   4.642   4.836   4.762
 4127SOL    HW213281   4.553   4.967   4.724
 4128SOL     OW13282   1.668   2.996   1.778
 4128SOL    HW113283   1.742   2.944   1.734
 4128SOL    HW213284   1.705   3.080   1.816
 4129SOL     OW13285   4.455   1.540   6.233
 4129SOL    HW113286   4.387   1.592   6.284
 4129SOL    HW213287   4.526   1.506   6.296
 4130SOL     OW13288   6.567   2.814   5.938
 4130SOL    HW113289   6.501   2.862   5.880
 4130SOL    HW213290   6.642   2.876   5.962
 4131SOL     OW13291   1.976   0.363   3.138
 4131SOL    HW113292   2.011   0.329   3.050
 4131SOL    HW213293   1.984   0.292   3.207
 4132SOL     OW13294   5.111   4.387   3.892
 4132SOL    HW113295   5.156   4.340   3.816
 4132SOL    HW213296   5.051   4.324   3.941
 4133SOL     OW13297   3.119   6.388   1.115
 4133SOL    HW113298   3.073   6.389   1.204
 4133SOL    HW213299   3.218   6.386   1.128
 4134SOL     OW13300   2.720   2.989   0.053
 4134SOL    HW113301   2.681   3.081   0.061
 4134SOL    HW213302   2.756   2.961   0.142
 4135SOL     OW13303   1.198   1.669   3.131
 4135SOL    HW113304   1.290   1.668   3.093
 4135SOL    HW213305   1.152   1.583   3.110
 4136SOL     OW13306   1.365   2.276   2.810
 4136SOL    HW113307   1.357   2.178   2.823
 4136SOL    HW213308   1.451   2.298   2.765
 4137SOL     OW13309   0.323   4.458   0.902
 4137SOL    HW113310   0.363   4.463   0.993
 4137SOL    HW213311   0.387   4.497   0.835
 4138SOL     OW13312   4.268   5.143   3.398
 4138SOL    HW113313   4.304   5.059   3.437
 4138SOL    HW213314   4.254   5.211   3.470
 4139SOL     OW13315   1.905   1.888   5.050
 4139SOL    HW113316   1.953   1.933   5.126
 4139SOL    HW213317   1.956   1.805   5.024
 4140SOL     OW13318   3.039   1.266   5.418
 4140SOL    HW113319   3.085   1.199   5.360
 4140SOL    HW213320   3.099   1.344   5.433
 4141SOL     OW13321   6.262   6.305   1.442
 4141SOL    HW113322   6.290   6.265   1.529
 4141SOL    HW213323   6.214   6.237   1.387
 4142SOL     OW13324   6.108   5.627   0.942
 4142SOL    HW113325   6.205   5.648   0.925
 4142SOL    HW213326   6.056   5.712   0.949
 4143SOL     OW13327   6.942   2.752   1.135
 4143SOL    HW113328   6.996   2.801   1.204
 4143SOL    HW213329   6.895   2.818   1.076
 4144SOL     OW13330   4.901   3.924   5.953
 4144SOL    HW113331   4.861   3.984   6.023
 4144SOL    HW213332   4.833   3.856   5.926
 4145SOL     OW13333   6.740   6.150   1.149
 4145SOL    HW113334   6.821   6.118   1.199
 4145SOL    HW213335   6.720   6.087   1.074
 4146SOL     OW13336   6.950   0.526   5.328
 4146SOL    HW113337   6.915   0.453   5.270
 4146SOL    HW213338   0.011   0.501   5.362
 4147SOL     OW13339   4.868   3.572   5.726
 4147SOL    HW113340   4.770   3.593   5.726
 4147SOL    HW213341   4.888   3.512   5.648
 4148SOL     OW13342   1.266   0.286   5.149
 4148SOL    HW113343   1.194   0.352   5.169
 4148SOL    HW213344   1.298   0.244   5.235
 4149SOL     OW13345   0.144   2.451   0.366
 4149SOL    HW113346   0.185   2.403   0.288
 4149SOL    HW213347   0.051   2.479   0.342
 4150SOL     OW13348   0.811   0.891   6.043
 4150SOL    HW113349   0.909   0.901   6.025
 4150SOL    HW213350   0.770   0.827   5.978
 4151SOL     OW13351   3.766   5.447   5.421
 4151SOL    HW113352   3.797   5.427   5.514
 4151SOL    HW213353   3.747   5.362   5.372
 4152SOL     OW13354   3.498   6.277   1.467
 4152SOL    HW113355   3.588   6.235   1.474
 4152SOL    HW213356   3.494   6.359   1.524
 4153SOL     OW13357   4.378   4.942   0.106
 4153SOL    HW113358   4.278   4.942   0.117
 4153SOL    HW213359   4.419   4.883   0.176
 4154SOL     OW13360   0.691   4.452   4.553
 4154SOL    HW113361   0.661   4.540   4.515
 4154SOL    HW213362   0.643   4.378   4.506
 4155SOL     OW13363   6.893   1.190   1.938
 4155SOL    HW113364   6.913   1.223   2.030
 4155SOL    HW213365   6.803   1.221   1.910
 4156SOL     OW13366   5.698   5.848   5.036
 4156SOL    HW113367   5.791   5.811   5.032
 4156SOL    HW213368   5.694   5.920   5.104
 4157SOL     OW13369   4.677   5.832   4.483
 4157SOL    HW113370   4.590   5.877   4.502
 4157SOL    HW213371   4.731   5.886   4.419
 4158SOL     OW13372   1.704   4.821   2.826
 4158SOL    HW113373   1.753   4.734   2.832
 4158SOL    HW213374   1.606   4.805   2.836
 4159SOL     OW13375   1.900   3.327   4.373
 4159SOL    HW113376   1.833   3.379   4.426
 4159SOL    HW213377   1.871   3.325   4.277
 4160SOL     OW13378   6.188   0.433   0.676
 4160SOL    HW113379   6.149   0.370   0.608
 4160SOL    HW213380   6.282   0.456   0.650
 4161SOL     OW13381   0.784   0.641   0.046
 4161SOL    HW113382   0.775   0.737   0.073
 4161SOL    HW213383   0.837   0.635   6.992
 4162SOL     OW13384   6.032   6.911   5.825
 4162SOL    HW113385   6.047   6.882   5.731
 4162SOL    HW213386   6.120   6.911   5.874
 4163SOL     OW13387   6.098   6.672   3.623
 4163SOL    HW113388   6.116   6.577   3.646
 4163SOL    HW213389   6.159   6.732   3.675
 4164SOL     OW13390   1.481   6.462   6.976
 4164SOL    HW113391   1.476   6.380   0.003
 4164SOL    HW213392   1.403   6.522   6.996
 4165SOL     OW13393   3.666   0.374   0.278
 4165SOL    HW113394   3.654   0.401   0.183
 4165SOL    HW213395   3.717   0.445   0.327
 4166SOL     OW13396   6.302   4.100   0.742
 4166SOL    HW113397   6.332   4.015   0.784
 4166SOL    HW213398   6.351   4.115   0.657
 4167SOL     OW13399   0.943   3.807   1.151
 4167SOL    HW113400   1.015   3.761   1.100
 4167SOL    HW213401   0.973   3.899   1.177
 4168SOL     OW13402   6.594   5.172   0.776
 4168SOL    HW113403   6.517   5.109   0.782
 4168SOL    HW213404   6.653   5.161   0.856
 4169SOL     OW13405   5.836   4.471   3.894
 4169SOL    HW113406   5.931   4.493   3.869
 4169SOL    HW213407   5.775   4.510   3.825
 4170SOL     OW13408   3.764   3.981   5.429
 4170SOL    HW113409   3.687   4.043   5.413
 4170SOL    HW213410   3.785   3.979   5.527
 4171SOL     OW13411   5.570   5.426   1.580
 4171SOL    HW113412   5.608   5.515   1.607
 4171SOL    HW213413   5.608   5.399   1.492
 4172SOL     OW13414   0.477   2.214   6.170
 4172SOL    HW113415   0.539   2.217   6.092
 4172SOL    HW213416   0.404   2.281   6.158
 4173SOL     OW13417   5.279   3.663   5.255
 4173SOL    HW113418   5.256   3.693   5.348
 4173SOL    HW213419   5.260   3.737   5.191
 4174SOL     OW13420   5.284   0.881   3.591
 4174SOL    HW113421   5.284   0.944   3.513
 4174SOL    HW213422   5.361   0.903   3.651
 4175SOL     OW13423   2.208   6.338   4.491
 4175SOL    HW113424   2.263   6.408   4.445
 4175SOL    HW213425   2.151   6.291   4.424
 4176SOL     OW13426   3.269   6.575   2.200
 4176SOL    HW113427   3.177   6.610   2.179
 4176SOL    HW213428   3.296   6.605   2.291
 4177SOL     OW13429   6.687   4.236   4.714
 4177SOL    HW113430   6.717   4.326   4.745
 4177SOL    HW213431   6.606   4.208   4.766
 4178SOL     OW13432   4.540   0.971   4.110
 4178SOL    HW113433   4.551   0.872   4.116
 4178SOL    HW213434   4.476   1.002   4.180
 4179SOL     OW13435   5.415   2.155   3.254
 4179SOL    HW113436   5.506   2.176   3.290
 4179SOL    HW213437   5.366   2.241   3.235
 4180SOL     OW13438   5.239   3.868   1.653
 4180SOL    HW113439   5.287   3.917   1.580
 4180SOL    HW213440   5.238   3.923   1.736
 4181SOL     OW13441   2.475   2.125   7.002
 4181SOL    HW113442   2.489   2.078   6.915
 4181SOL    HW213443   2.476   2.224   6.986
 4182SOL     OW13444   0.213   6.393   3.018
 4182SOL    HW113445   0.160   6.477   3.029
 4182SOL    HW213446   0.309   6.416   3.005
 4183SOL     OW13447   4.443   0.754   0.409
 4183SOL    HW113448   4.457   0.692   0.331
 4183SOL    HW213449   4.412   0.843   0.376
 4184SOL     OW13450   4.583   5.304   1.194
 4184SOL    HW113451   4.494   5.263   1.172
 4184SOL    HW213452   4.573   5.402   1.206
 4185SOL     OW13453   0.831   5.913   2.340
 4185SOL    HW113454   0.907   5.978   2.344
 4185SOL    HW213455   0.797   5.907   2.246
 4186SOL     OW13456   2.019   5.113   1.240
 4186SOL    HW113457   1.922   5.136   1.239
 4186SOL    HW213458   2.034   5.030   1.293
 4187SOL     OW13459   3.797   3.792   6.090
 4187SOL    HW113460   3.734   3.742   6.030
 4187SOL    HW213461   3.797   3.751   6.181
 4188SOL     OW13462   5.491   0.040   4.316
 4188SOL    HW113463   5.514   0.137   4.305
 4188SOL    HW213464   5.476   0.019   4.412
 4189SOL     OW13465   3.505   0.794   5.044
 4189SOL    HW113466   3.539   0.702   5.063
 4189SOL    HW213467   3.460   0.795   4.955
 4190SOL     OW13468   0.644   0.409   6.927
 4190SOL    HW113469   0.702   0.446   7.000
 4190SOL    HW213470   0.674   0.316   6.905
 4191SOL     OW13471   5.326   3.230   3.201
 4191SOL    HW113472   5.368   3.139   3.200
 4191SOL    HW213473   5.396   3.300   3.190
 4192SOL     OW13474   0.539   0.906   3.981
 4192SOL    HW113475   0.486   0.940   3.903
 4192SOL    HW213476   0.631   0.945   3.978
 4193SOL     OW13477   2.222   6.650   2.343
 4193SOL    HW113478   2.258   6.742   2.360
 4193SOL    HW213479   2.299   6.587   2.326
 4194SOL     OW13480   5.923   0.957   5.408
 4194SOL    HW113481   5.972   0.977   5.493
 4194SOL    HW213482   5.904   1.043   5.360
 4195SOL     OW13483   4.144   0.589   1.691
 4195SOL    HW113484   4.120   0.568   1.786
 4195SOL    HW213485   4.082   0.539   1.630
 4196SOL     OW13486   5.873   2.362   3.565
 4196SOL    HW113487   5.867   2.462   3.565
 4196SOL    HW213488   5.964   2.334   3.535
 4197SOL     OW13489   5.104   5.779   5.452
 4197SOL    HW113490   5.145   5.813   5.368
 4197SOL    HW213491   5.155   5.700   5.484
 4198SOL     OW13492   5.673   2.749   6.621
 4198SOL    HW113493   5.751   2.782   6.673
 4198SOL    HW213494   5.596   2.733   6.683
 4199SOL     OW13495   1.929   4.057   6.424
 4199SOL    HW113496   1.937   3.959   6.445
 4199SOL    HW213497   1.873   4.101   6.495
 4200SOL     OW13498   3.113   6.139   4.772
 4200SOL    HW113499   3.195   6.094   4.808
 4200SOL    HW213500   3.087   6.098   4.685
 4201SOL     OW13501   6.225   6.089   3.458
 4201SOL    HW113502   6.304   6.150   3.465
 4201SOL    HW213503   6.235   6.014   3.524
 4202SOL     OW13504   4.012   6.082   5.629
 4202SOL    HW113505   4.044   5.988   5.642
 4202SOL    HW213506   3.914   6.086   5.647
 4203SOL     OW13507   4.889   5.403   1.187
 4203SOL    HW113508   4.903   5.502   1.197
 4203SOL    HW213509   4.792   5.384   1.175
 4204SOL     OW13510   3.606   2.880   2.306
 4204SOL    HW113511   3.706   2.889   2.310
 4204SOL    HW213512   3.566   2.911   2.392
 4205SOL     OW13513   3.694   4.993   4.178
 4205SOL    HW113514   3.597   4.976   4.195
 4205SOL    HW213515   3.745   4.983   4.263
 4206SOL     OW13516   6.034   0.910   5.697
 4206SOL    HW113517   5.975   0.859   5.759
 4206SOL    HW213518   6.075   0.988   5.745
 4207SOL     OW13519   2.210   1.856   1.407
 4207SOL    HW113520   2.125   1.834   1.455
 4207SOL    HW213521   2.239   1.949   1.431
 4208SOL     OW13522   1.559   2.811   6.591
 4208SOL    HW113523   1.656   2.822   6.571
 4208SOL    HW213524   1.512   2.898   6.577
 4209SOL     OW13525   0.906   1.845   5.379
 4209SOL    HW113526   0.861   1.770   5.428
 4209SOL    HW213527   0.847   1.926   5.382
 4210SOL     OW13528   3.096   3.657   2.323
 4210SOL    HW113529   3.045   3.576   2.295
 4210SOL    HW213530   3.189   3.631   2.348
 4211SOL     OW13531   3.609   5.912   4.866
 4211SOL    HW113532   3.639   5.954   4.952
 4211SOL    HW213533   3.630   5.814   4.868
 4212SOL     OW13534   6.069   2.571   2.329
 4212SOL    HW113535   6.115   2.637   2.271
 4212SOL    HW213536   6.123   2.556   2.412
 4213SOL     OW13537   2.766   1.222   2.907
 4213SOL    HW113538   2.707   1.300   2.888
 4213SOL    HW213539   2.719   1.157   2.966
 4214SOL     OW13540   1.088   4.316   5.851
 4214SOL    HW113541   1.107   4.413   5.865
 4214SOL    HW213542   1.057   4.302   5.757
 4215SOL     OW13543   6.436   6.009   4.481
 4215SOL    HW113544   6.468   6.095   4.440
 4215SOL    HW213545   6.510   5.969   4.535
 4216SOL     OW13546   1.727   1.941   3.228
 4216SOL    HW113547   1.661   1.974   3.295
 4216SOL    HW213548   1.816   1.985   3.243
 4217SOL     OW13549   6.584   0.013   2.334
 4217SOL    HW113550   6.485   7.030   2.347
 4217SOL    HW213551   6.632   6.960   2.362
 4218SOL     OW13552   4.971   0.237   1.363
 4218SOL    HW113553   4.971   0.335   1.383
 4218SOL    HW213554   5.044   0.193   1.414
 4219SOL     OW13555   3.115   5.549   4.358
 4219SOL    HW113556   3.041   5.485   4.337
 4219SOL    HW213557   3.078   5.628   4.406
 4220SOL     OW13558   6.305   2.541   3.055
 4220SOL    HW113559   6.268   2.615   3.112
 4220SOL    HW213560   6.347   2.472   3.114
 4221SOL     OW13561   6.325   5.777   6.244
 4221SOL    HW113562   6.377   5.692   6.259
 4221SOL    HW213563   6.237   5.771   6.291
 4222SOL     OW13564   6.076   2.277   2.642
 4222SOL    HW113565   6.009   2.252   2.572
 4222SOL    HW213566   6.169   2.267   2.605
 4223SOL     OW13567   3.084   3.515   5.193
 4223SOL    HW113568   3.105   3.446   5.262
 4223SOL    HW213569   3.062   3.470   5.106
 4224SOL     OW13570   4.868   2.973   3.521
 4224SOL    HW113571   4.953   2.976   3.574
 4224SOL    HW213572   4.803   2.912   3.567
 4225SOL     OW13573   4.567   0.033   5.645
 4225SOL    HW113574   4.555   7.023   5.736
 4225SOL    HW213575   4.657   0.007   5.608
 4226SOL     OW13576   0.421   0.725   3.257
 4226SOL    HW113577   0.390   0.749   3.166
 4226SOL    HW213578   0.493   0.789   3.286
 4227SOL     OW13579   3.271   4.938   6.977
 4227SOL    HW113580   3.229   4.890   6.900
 4227SOL    HW213581   3.269   5.036   6.961
 4228SOL     OW13582   0.129   3.265   3.056
 4228SOL    HW113583   0.041   3.286   3.098
 4228SOL    HW213584   0.177   3.197   3.111
 4229SOL     OW13585   4.764   5.126   5.876
 4229SOL    HW113586   4.808   5.065   5.810
 4229SOL    HW213587   4.720   5.202   5.828
 4230SOL     OW13588   2.259   0.660   4.870
 4230SOL    HW113589   2.262   0.690   4.774
 4230SOL    HW213590   2.176   0.608   4.886
 4231SOL     OW13591   5.323   6.305   4.390
 4231SOL    HW113592   5.408   6.253   4.384
 4231SOL    HW213593   5.273   6.278   4.473
 4232SOL     OW13594   6.889   4.581   1.886
 4232SOL    HW113595   6.839   4.664   1.858
 4232SOL    HW213596   6.832   4.528   1.949
 4233SOL     OW13597   6.915   0.425   6.619
 4233SOL    HW113598   6.851   0.500   6.602
 4233SOL    HW213599   6.870   0.356   6.676
 4234SOL     OW13600   1.312   0.288   5.925
 4234SOL    HW113601   1.342   0.338   5.844
 4234SOL    HW213602   1.363   0.202   5.931
 4235SOL     OW13603   6.220   3.437   5.572
 4235SOL    HW113604   6.181   3.521   5.533
 4235SOL    HW213605   6.178   3.358   5.528
 4236SOL     OW13606   0.506   3.311   2.727
 4236SOL    HW113607   0.516   3.405   2.759
 4236SOL    HW213608   0.500   3.250   2.806
 4237SOL     OW13609   6.331   4.834   4.223
 4237SOL    HW113610   6.330   4.920   4.173
 4237SOL    HW213611   6.390   4.843   4.304
 4238SOL     OW13612   4.690   4.715   3.840
 4238SOL    HW113613   4.775   4.680   3.803
 4238SOL    HW213614   4.613   4.664   3.802
 4239SOL     OW13615   6.170   0.632   3.695
 4239SOL    HW113616   6.240   0.597   3.632
 4239SOL    HW213617   6.081   0.627   3.651
 4240SOL     OW13618   2.132   6.790   6.804
 4240SOL    HW113619   2.094   6.881   6.787
 4240SOL    HW213620   2.221   6.783   6.759
 4241SOL     OW13621   5.008   0.975   1.289
 4241SOL    HW113622   5.021   0.922   1.205
 4241SOL    HW213623   5.038   0.921   1.367
 4242SOL     OW13624   1.792   0.889   3.125
 4242SOL    HW113625   1.795   0.955   3.050
 4242SOL    HW213626   1.829   0.801   3.093
 4243SOL     OW13627   0.714   3.631   3.109
 4243SOL    HW113628   0.789   3.566   3.103
 4243SOL    HW213629   0.636   3.588   3.154
 4244SOL     OW13630   4.391   5.293   0.877
 4244SOL    HW113631   4.360   5.253   0.790
 4244SOL    HW213632   4.471   5.351   0.860
 4245SOL     OW13633   6.940   1.439   6.758
 4245SOL    HW113634   6.919   1.341   6.765
 4245SOL    HW213635   7.024   1.459   6.809
 4246SOL     OW13636   5.791   2.618   3.467
 4246SOL    HW113637   5.691   2.620   3.465
 4246SOL    HW213638   5.827   2.646   3.378
 4247SOL     OW13639   2.313   5.443   4.004
 4247SOL    HW113640   2.271   5.358   4.037
 4247SOL    HW213641   2.284   5.460   3.910
 4248SOL     OW13642   1.111   1.035   3.658
 4248SOL    HW113643   1.103   1.045   3.559
 4248SOL    HW213644   1.192   1.082   3.690
 4249SOL     OW13645   6.394   1.015   3.470
 4249SOL    HW113646   6.330   0.965   3.528
 4249SOL    HW213647   6.345   1.085   3.418
 4250SOL     OW13648   6.935   6.005   3.997
 4250SOL    HW113649   7.024   6.047   3.983
 4250SOL    HW213650   6.933   5.914   3.955
 4251SOL     OW13651   6.742   3.063   0.319
 4251SOL    HW113652   6.731   3.104   0.409
 4251SOL    HW213653   6.704   2.970   0.319
 4252SOL     OW13654   5.421   6.216   6.567
 4252SOL    HW113655   5.475   6.187   6.487
 4252SOL    HW213656   5.338   6.160   6.573
 4253SOL     OW13657   3.853   5.712   1.976
 4253SOL    HW113658   3.884   5.645   1.909
 4253SOL    HW213659   3.760   5.741   1.954
 4254SOL     OW13660   2.020   4.501   1.686
 4254SOL    HW113661   2.080   4.529   1.611
 4254SOL    HW213662   2.075   4.466   1.762
 4255SOL     OW13663   0.232   3.871   3.748
 4255SOL    HW113664   0.170   3.834   3.816
 4255SOL    HW213665   0.326   3.861   3.780
 4256SOL     OW13666   0.966   5.867   1.643
 4256SOL    HW113667   0.967   5.966   1.661
 4256SOL    HW213668   1.051   5.826   1.678
 4257SOL     OW13669   5.053   1.232   4.251
 4257SOL    HW113670   5.071   1.329   4.263
 4257SOL    HW213671   5.082   1.204   4.159
 4258SOL     OW13672   3.389   6.018   1.058
 4258SOL    HW113673   3.432   5.964   0.986
 4258SOL    HW213674   3.346   5.956   1.124
 4259SOL     OW13675   1.642   6.335   0.952
 4259SOL    HW113676   1.602   6.376   0.870
 4259SOL    HW213677   1.598   6.247   0.969
 4260SOL     OW13678   5.388   0.128   3.660
 4260SOL    HW113679   5.411   0.046   3.608
 4260SOL    HW213680   5.431   0.208   3.616
 4261SOL     OW13681   1.719   1.155   2.702
 4261SOL    HW113682   1.728   1.251   2.730
 4261SOL    HW213683   1.645   1.147   2.636
 4262SOL     OW13684   1.278   4.082   6.005
 4262SOL    HW113685   1.255   4.029   6.087
 4262SOL    HW213686   1.218   4.057   5.930
 4263SOL     OW13687   2.565   1.079   3.292
 4263SOL    HW113688   2.536   1.097   3.386
 4263SOL    HW213689   2.658   1.114   3.278
 4264SOL     OW13690   6.172   1.898   4.238
 4264SOL    HW113691   6.202   1.833   4.308
 4264SOL    HW213692   6.151   1.849   4.153
 4265SOL     OW13693   3.982   1.120   0.599
 4265SOL    HW113694   3.894   1.128   0.553
 4265SOL    HW213695   3.981   1.173   0.684
 4266SOL     OW13696   1.294   6.449   0.327
 4266SOL    HW113697   1.263   6.541   0.303
 4266SOL    HW213698   1.301   6.393   0.244
 4267SOL     OW13699   2.084   3.484   3.886
 4267SOL    HW113700   2.112   3.393   3.858
 4267SOL    HW213701   1.987   3.497   3.864
 4268SOL     OW13702   2.042   5.614   6.901
 4268SOL    HW113703   1.950   5.577   6.897
 4268SOL    HW213704   2.066   5.656   6.814
 4269SOL     OW13705   2.834   1.041   3.841
 4269SOL    HW113706   2.898   1.111   3.810
 4269SOL    HW213707   2.743   1.082   3.852
 4270SOL     OW13708   3.099   3.155   2.173
 4270SOL    HW113709   3.073   3.060   2.158
 4270SOL    HW213710   3.103   3.173   2.271
 4271SOL     OW13711   6.885   1.051   0.373
 4271SOL    HW113712   6.889   1.149   0.390
 4271SOL    HW213713   6.939   1.003   0.443
 4272SOL     OW13714   6.678   3.048   5.144
 4272SOL    HW113715   6.685   2.982   5.219
 4272SOL    HW213716   6.768   3.064   5.104
 4273SOL     OW13717   5.018   6.171   5.326
 4273SOL    HW113718   4.933   6.122   5.307
 4273SOL    HW213719   4.999   6.267   5.346
 4274SOL     OW13720   1.130   0.266   1.802
 4274SOL    HW113721   1.190   0.186   1.791
 4274SOL    HW213722   1.040   0.236   1.832
 4275SOL     OW13723   0.475   1.991   4.012
 4275SOL    HW113724   0.438   1.964   4.101
 4275SOL    HW213725   0.459   1.918   3.946
 4276SOL     OW13726   3.237   5.090   3.768
 4276SOL    HW113727   3.237   5.167   3.703
 4276SOL    HW213728   3.283   5.012   3.727
 4277SOL     OW13729   0.225   4.130   2.462
 4277SOL    HW113730   0.313   4.158   2.424
 4277SOL    HW213731   0.152   4.188   2.425
 4278SOL     OW13732   0.644   0.078   3.776
 4278SOL    HW113733   0.546   0.090   3.758
 4278SOL    HW213734   0.684   0.018   3.706
 4279SOL     OW13735   1.160   1.383   2.495
 4279SOL    HW113736   1.166   1.408   2.592
 4279SOL    HW213737   1.162   1.284   2.487
 4280SOL     OW13738   6.301   0.059   5.871
 4280SOL    HW113739   6.285   0.054   5.773
 4280SOL    HW213740   6.262   0.144   5.907
 4281SOL     OW13741   5.324   4.818   3.367
 4281SOL    HW113742   5.264   4.770   3.431
 4281SOL    HW213743   5.314   4.779   3.275
 4282SOL     OW13744   3.084   5.022   0.564
 4282SOL    HW113745   3.119   4.987   0.651
 4282SOL    HW213746   3.040   4.948   0.513
 4283SOL     OW13747   3.937   1.114   3.378
 4283SOL    HW113748   3.958   1.135   3.474
 4283SOL    HW213749   3.968   1.021   3.357
 4284SOL     OW13750   4.415   5.487   0.444
 4284SOL    HW113751   4.388   5.520   0.535
 4284SOL    HW213752   4.493   5.540   0.411
 4285SOL     OW13753   2.447   0.985   5.780
 4285SOL    HW113754   2.449   1.075   5.737
 4285SOL    HW213755   2.531   0.936   5.758
 4286SOL     OW13756   5.649   0.395   6.256
 4286SOL    HW113757   5.699   0.322   6.210
 4286SOL    HW213758   5.690   0.483   6.232
 4287SOL     OW13759   4.945   0.916   5.436
 4287SOL    HW113760   4.949   0.936   5.338
 4287SOL    HW213761   4.898   0.990   5.484
 4288SOL     OW13762   0.486   5.443   2.987
 4288SOL    HW113763   0.472   5.512   2.917
 4288SOL    HW213764   0.400   5.423   3.033
 4289SOL     OW13765   1.287   2.436   6.422
 4289SOL    HW113766   1.191   2.422   6.446
 4289SOL    HW213767   1.345   2.393   6.491
 4290SOL     OW13768   0.163   6.598   4.895
 4290SOL    HW113769   0.187   6.587   4.799
 4290SOL    HW213770   0.241   6.571   4.952
 4291SOL     OW13771   5.136   4.066   6.146
 4291SOL    HW113772   5.070   4.055   6.220
 4291SOL    HW213773   5.212   4.003   6.159
 4292SOL     OW13774   5.931   2.996   0.195
 4292SOL    HW113775   5.913   3.083   0.149
 4292SOL    HW213776   5.945   2.924   0.127
 4293SOL     OW13777   3.441   4.170   6.725
 4293SOL    HW113778   3.503   4.092   6.733
 4293SOL    HW213779   3.494   4.254   6.716
 4294SOL     OW13780   1.887   1.792   6.081
 4294SOL    HW113781   1.898   1.818   6.176
 4294SOL    HW213782   1.976   1.764   6.044
 4295SOL     OW13783   4.269   6.015   3.583
 4295SOL    HW113784   4.352   6.065   3.607
 4295SOL    HW213785   4.197   6.080   3.556
 4296SOL     OW13786   3.163   6.714   0.516
 4296SOL    HW113787   3.085   6.776   0.509
 4296SOL    HW213788   3.223   6.744   0.591
 4297SOL     OW13789   6.577   6.701   2.170
 4297SOL    HW113790   6.631   6.745   2.242
 4297SOL    HW213791   6.586   6.602   2.177
 4298SOL     OW13792   3.265   6.234   1.880
 4298SOL    HW113793   3.245   6.197   1.789
 4298SOL    HW213794   3.361   6.217   1.902
 4299SOL     OW13795   0.822   3.056   6.834
 4299SOL    HW113796   0.737   3.110   6.835
 4299SOL    HW213797   0.900   3.118   6.829
 4300SOL     OW13798   2.536   7.022   0.463
 4300SOL    HW113799   2.474   6.994   0.537
 4300SOL    HW213800   2.629   0.002   0.498
 4301SOL     OW13801   4.235   0.636   1.437
 4301SOL    HW113802   4.191   0.637   1.527
 4301SOL    HW213803   4.288   0.720   1.425
 4302SOL     OW13804   6.266   7.007   6.593
 4302SOL    HW113805   6.189   6.991   6.654
 4302SOL    HW213806   6.252   0.062   6.543
 4303SOL     OW13807   7.004   4.849   3.733
 4303SOL    HW113808   0.059   4.856   3.680
 4303SOL    HW213809   6.986   4.753   3.754
 4304SOL     OW13810   3.627   3.685   2.257
 4304SOL    HW113811   3.622   3.632   2.172
 4304SOL    HW213812   3.550   3.660   2.316
 4305SOL     OW13813   0.550   6.538   6.127
 4305SOL    HW113814   0.476   6.595   6.093
 4305SOL    HW213815   0.514   6.473   6.195
 4306SOL     OW13816   4.756   5.322   4.388
 4306SOL    HW113817   4.668   5.331   4.435
 4306SOL    HW213818   4.809   5.248   4.430
 4307SOL     OW13819   5.660   3.644   5.103
 4307SOL    HW113820   5.720   3.572   5.070
 4307SOL    HW213821   5.693   3.677   5.192
 4308SOL     OW13822   5.678   5.306   1.344
 4308SOL    HW113823   5.633   5.217   1.331
 4308SOL    HW213824   5.749   5.296   1.414
 4309SOL     OW13825   1.157   2.375   0.218
 4309SOL    HW113826   1.233   2.322   0.257
 4309SOL    HW213827   1.112   2.322   0.147
 4310SOL     OW13828   1.490   2.797   1.818
 4310SOL    HW113829   1.539   2.882   1.836
 4310SOL    HW213830   1.489   2.779   1.719
 4311SOL     OW13831   1.016   6.104   2.399
 4311SOL    HW113832   1.016   6.176   2.330
 4311SOL    HW213833   1.020   6.145   2.490
 4312SOL     OW13834   1.532   5.681   2.889
 4312SOL    HW113835   1.600   5.620   2.930
 4312SOL    HW213836   1.440   5.650   2.914
 4313SOL     OW13837   4.341   1.788   0.326
 4313SOL    HW113838   4.371   1.699   0.291
 4313SOL    HW213839   4.244   1.784   0.347
 4314SOL     OW13840   6.321   1.805   5.020
 4314SOL    HW113841   6.314   1.863   5.101
 4314SOL    HW213842   6.338   1.862   4.940
 4315SOL     OW13843   2.042   1.105   3.027
 4315SOL    HW113844   2.127   1.062   3.058
 4315SOL    HW213845   1.992   1.040   2.969
 4316SOL     OW13846   5.344   0.151   2.608
 4316SOL    HW113847   5.286   0.206   2.549
 4316SOL    HW213848   5.293   0.128   2.691
 4317SOL     OW13849   4.950   1.562   5.698
 4317SOL    HW113850   4.969   1.503   5.620
 4317SOL    HW213851   4.864   1.611   5.683
 4318SOL     OW13852   0.687   1.330   4.687
 4318SOL    HW113853   0.632   1.406   4.653
 4318SOL    HW213854   0.707   1.343   4.784
 4319SOL     OW13855   1.658   1.896   1.049
 4319SOL    HW113856   1.713   1.945   0.982
 4319SOL    HW213857   1.574   1.948   1.068
 4320SOL     OW13858   3.585   5.701   1.069
 4320SOL    HW113859   3.616   5.686   0.975
 4320SOL    HW213860   3.487   5.685   1.075
 4321SOL     OW13861   6.765   4.954   3.776
 4321SOL    HW113862   6.854   4.914   3.757
 4321SOL    HW213863   6.706   4.943   3.696
 4322SOL     OW13864   6.595   3.247   6.081
 4322SOL    HW113865   6.526   3.185   6.121
 4322SOL    HW213866   6.549   3.313   6.021
 4323SOL     OW13867   4.668   5.110   0.300
 4323SOL    HW113868   4.616   5.180   0.252
 4323SOL    HW213869   4.609   5.063   0.366
 4324SOL     OW13870   6.545   4.353   5.622
 4324SOL    HW113871   6.465   4.389   5.670
 4324SOL    HW213872   6.575   4.269   5.668
 4325SOL     OW13873   2.829   1.575   2.135
 4325SOL    HW113874   2.882   1.522   2.068
 4325SOL    HW213875   2.864   1.668   2.139
 4326SOL     OW13876   5.523   4.182   1.932
 4326SOL    HW113877   5.603   4.159   1.988
 4326SOL    HW213878   5.455   4.110   1.941
 4327SOL     OW13879   4.120   6.154   3.007
 4327SOL    HW113880   4.217   6.148   3.030
 4327SOL    HW213881   4.106   6.227   2.941
 4328SOL     OW13882   5.487   4.608   5.259
 4328SOL    HW113883   5.491   4.647   5.168
 4328SOL    HW213884   5.569   4.635   5.311
 4329SOL     OW13885   5.902   2.609   5.621
 4329SOL    HW113886   5.883   2.530   5.562
 4329SOL    HW213887   5.944   2.682   5.566
 4330SOL     OW13888   1.772   6.632   3.979
 4330SOL    HW113889   1.747   6.536   3.991
 4330SOL    HW213890   1.852   6.639   3.920
 4331SOL     OW13891   6.556   0.412   1.613
 4331SOL    HW113892   6.596   0.374   1.530
 4331SOL    HW213893   6.571   0.511   1.615
 4332SOL     OW13894   6.721   3.142   3.124
 4332SOL    HW113895   6.816   3.113   3.128
 4332SOL    HW213896   6.663   3.062   3.105
 4333SOL     OW13897   4.200   2.034   4.854
 4333SOL    HW113898   4.197   2.025   4.754
 4333SOL    HW213899   4.117   1.994   4.893
 4334SOL     OW13900   1.560   3.007   2.481
 4334SOL    HW113901   1.516   2.929   2.524
 4334SOL    HW213902   1.658   2.988   2.470
 4335SOL     OW13903   3.691   2.787   1.796
 4335SOL    HW113904   3.761   2.830   1.739
 4335SOL    HW213905   3.686   2.833   1.884
 4336SOL     OW13906   2.672   5.441   5.764
 4336SOL    HW113907   2.717   5.364   5.809
 4336SOL    HW213908   2.741   5.500   5.723
 4337SOL     OW13909   2.007   4.952   1.606
 4337SOL    HW113910   1.976   5.023   1.668
 4337SOL    HW213911   2.094   4.914   1.640
 4338SOL     OW13912   6.138   0.220   6.487
 4338SOL    HW113913   6.152   0.258   6.396
 4338SOL    HW213914   6.188   0.275   6.555
 4339SOL     OW13915   3.631   2.305   6.223
 4339SOL    HW113916   3.686   2.254   6.156
 4339SOL    HW213917   3.578   2.375   6.177
 4340SOL     OW13918   5.626   3.252   0.933
 4340SOL    HW113919   5.625   3.323   0.863
 4340SOL    HW213920   5.671   3.170   0.897
 4341SOL     OW13921   1.325   5.166   1.433
 4341SOL    HW113922   1.346   5.068   1.426
 4341SOL    HW213923   1.229   5.181   1.408
 4342SOL     OW13924   5.148   3.443   3.093
 4342SOL    HW113925   5.198   3.379   3.151
 4342SOL    HW213926   5.106   3.394   3.017
 4343SOL     OW13927   3.131   6.170   5.278
 4343SOL    HW113928   3.146   6.074   5.301
 4343SOL    HW213929   3.210   6.224   5.308
 4344SOL     OW13930   1.015   3.025   2.990
 4344SOL    HW113931   1.000   2.996   3.084
 4344SOL    HW213932   0.933   3.071   2.955
 4345SOL     OW13933   2.911   3.354   4.661
 4345SOL    HW113934   2.848   3.297   4.714
 4345SOL    HW213935   2.898   3.337   4.563
 4346SOL     OW13936   2.271   2.932   2.416
 4346SOL    HW113937   2.215   2.875   2.357
 4346SOL    HW213938   2.331   2.875   2.472
 4347SOL     OW13939   6.024   6.562   2.618
 4347SOL    HW113940   5.975   6.550   2.705
 4347SOL    HW213941   5.965   6.610   2.553
 4348SOL     OW13942   0.375   5.829   4.433
 4348SOL    HW113943   0.375   5.837   4.333
 4348SOL    HW213944   0.384   5.920   4.473
 4349SOL     OW13945   6.921   3.042   3.820
 4349SOL    HW113946   7.017   3.070   3.817
 4349SOL    HW213947   6.908   2.973   3.892
 4350SOL     OW13948   5.167   2.127   3.908
 4350SOL    HW113949   5.179   2.133   4.007
 4350SOL    HW213950   5.232   2.062   3.870
 4351SOL     OW13951   1.159   5.860   1.297
 4351SOL    HW113952   1.234   5.817   1.248
 4351SOL    HW213953   1.190   5.947   1.336
 4352SOL     OW13954   6.342   3.938   1.898
 4352SOL    HW113955   6.417   4.002   1.884
 4352SOL    HW213956   6.269   3.982   1.950
 4353SOL     OW13957   3.328   3.648   0.341
 4353SOL    HW113958   3.252   3.674   0.401
 4353SOL    HW213959   3.366   3.730   0.298
 4354SOL     OW13960   0.818   1.742   6.140
 4354SOL    HW113961   0.781   1.651   6.121
 4354SOL    HW213962   0.878   1.769   6.065
 4355SOL     OW13963   1.793   0.083   3.049
 4355SOL    HW113964   1.750   7.024   3.063
 4355SOL    HW213965   1.749   0.151   3.108
 4356SOL     OW13966   4.549   3.574   5.358
 4356SOL    HW113967   4.516   3.481   5.344
 4356SOL    HW213968   4.605   3.602   5.280
 4357SOL     OW13969   7.004   1.651   1.367
 4357SOL    HW113970   6.912   1.679   1.392
 4357SOL    HW213971   7.005   1.552   1.352
 4358SOL     OW13972   6.899   6.939   0.161
 4358SOL    HW113973   6.835   7.013   0.138
 4358SOL    HW213974   6.889   6.916   0.258
 4359SOL     OW13975   1.443   1.346   6.841
 4359SOL    HW113976   1.428   1.257   6.798
 4359SOL    HW213977   1.539   1.354   6.868
 4360SOL     OW13978   0.988   2.904   4.095
 4360SOL    HW113979   1.011   2.909   3.998
 4360SOL    HW213980   0.891   2.882   4.105
 4361SOL     OW13981   2.157   3.389   1.284
 4361SOL    HW113982   2.121   3.331   1.211
 4361SOL    HW213983   2.257   3.388   1.280
 4362SOL     OW13984   0.124   5.747   3.897
 4362SOL    HW113985   0.054   5.816   3.881
 4362SOL    HW213986   0.106   5.666   3.841
 4363SOL     OW13987   4.424   1.268   2.156
 4363SOL    HW113988   4.519   1.299   2.145
 4363SOL    HW213989   4.407   1.191   2.094
 4364SOL     OW13990   3.036   3.943   3.178
 4364SOL    HW113991   3.044   4.030   3.226
 4364SOL    HW213992   3.127   3.909   3.153
 4365SOL     OW13993   3.297   0.444   1.953
 4365SOL    HW113994   3.231   0.496   2.007
 4365SOL    HW213995   3.350   0.385   2.014
 4366SOL     OW13996   5.839   6.163   6.308
 4366SOL    HW113997   5.875   6.165   6.402
 4366SOL    HW213998   5.893   6.226   6.251
 4367SOL     OW13999   3.174   4.869   3.400
 4367SOL    HW114000   3.088   4.857   3.451
 4367SOL    HW214001   3.248   4.890   3.463
 4368SOL     OW14002   3.959   5.500   2.112
 4368SOL    HW114003   3.907   5.576   2.073
 4368SOL    HW214004   3.907   5.415   2.099
 4369SOL     OW14005   5.057   5.472   3.580
 4369SOL    HW114006   5.084   5.385   3.540
 4369SOL    HW214007   5.098   5.481   3.671
 4370SOL     OW14008   3.722   3.891   1.356
 4370SOL    HW114009   3.657   3.871   1.430
 4370SOL    HW214010   3.706   3.827   1.281
 4371SOL     OW14011   2.264   1.458   3.124
 4371SOL    HW114012   2.337   1.501   3.070
 4371SOL    HW214013   2.303   1.386   3.181
 4372SOL     OW14014   2.140   3.202   3.832
 4372SOL    HW114015   2.152   3.174   3.927
 4372SOL    HW214016   2.044   3.192   3.806
 4373SOL     OW14017   4.471   0.652   6.446
 4373SOL    HW114018   4.564   0.670   6.412
 4373SOL    HW214019   4.476   0.621   6.541
 4374SOL     OW14020   1.809   1.638   1.185
 4374SOL    HW114021   1.784   1.713   1.124
 4374SOL    HW214022   1.907   1.643   1.205
 4375SOL     OW14023   4.020   6.381   2.892
 4375SOL    HW114024   4.072   6.467   2.894
 4375SOL    HW214025   3.952   6.386   2.819
 4376SOL     OW14026   6.841   0.125   1.514
 4376SOL    HW114027   6.754   0.110   1.560
 4376SOL    HW214028   6.910   0.150   1.583
 4377SOL     OW14029   6.220   5.477   0.358
 4377SOL    HW114030   6.140   5.531   0.332
 4377SOL    HW214031   6.293   5.539   0.389
 4378SOL     OW14032   1.189   4.478   2.710
 4378SOL    HW114033   1.239   4.565   2.714
 4378SOL    HW214034   1.243   4.406   2.755
 4379SOL     OW14035   2.431   0.833   1.878
 4379SOL    HW114036   2.383   0.773   1.814
 4379SOL    HW214037   2.525   0.847   1.847
 4380SOL     OW14038   1.842   5.987   4.475
 4380SOL    HW114039   1.744   6.009   4.467
 4380SOL    HW214040   1.860   5.899   4.430
 4381SOL     OW14041   2.270   4.252   4.858
 4381SOL    HW114042   2.287   4.177   4.921
 4381SOL    HW214043   2.312   4.335   4.893
 4382SOL     OW14044   5.995   4.127   6.294
 4382SOL    HW114045   5.948   4.074   6.223
 4382SOL    HW214046   6.090   4.143   6.267
 4383SOL     OW14047   0.650   2.578   5.605
 4383SOL    HW114048   0.582   2.528   5.550
 4383SOL    HW214049   0.722   2.612   5.545
 4384SOL     OW14050   5.131   1.107   0.077
 4384SOL    HW114051   5.077   1.191   0.085
 4384SOL    HW214052   5.137   1.062   0.167
 4385SOL     OW14053   0.004   2.739   4.274
 4385SOL    HW114054   6.996   2.774   4.188
 4385SOL    HW214055   7.025   2.639   4.276
 4386SOL     OW14056   1.054   3.207   6.745
 4386SOL    HW114057   1.056   3.192   6.646
 4386SOL    HW214058   1.009   3.294   6.765
 4387SOL     OW14059   1.167   2.226   1.833
 4387SOL    HW114060   1.168   2.168   1.915
 4387SOL    HW214061   1.087   2.204   1.777
 4388SOL     OW14062   4.622   0.822   6.839
 4388SOL    HW114063   4.679   0.767   6.779
 4388SOL    HW214064   4.674   0.901   6.871
 4389SOL     OW14065   5.876   1.756   0.590
 4389SOL    HW114066   5.813   1.808   0.533
 4389SOL    HW214067   5.959   1.810   0.606
 4390SOL     OW14068   3.770   2.120   2.243
 4390SOL    HW114069   3.724   2.154   2.325
 4390SOL    HW214070   3.728   2.161   2.162
 4391SOL     OW14071   1.467   5.652   6.500
 4391SOL    HW114072   1.450   5.724   6.432
 4391SOL    HW214073   1.448   5.687   6.591
 4392SOL     OW14074   6.375   3.627   5.311
 4392SOL    HW114075   6.281   3.598   5.295
 4392SOL    HW214076   6.381   3.675   5.398
 4393SOL     OW14077   5.212   6.462   3.057
 4393SOL    HW114078   5.194   6.535   2.991
 4393SOL    HW214079   5.200   6.497   3.150
 4394SOL     OW14080   6.398   5.162   3.120
 4394SOL    HW114081   6.405   5.224   3.198
 4394SOL    HW214082   6.380   5.069   3.152
 4395SOL     OW14083   4.286   1.724   1.833
 4395SOL    HW114084   4.338   1.653   1.786
 4395SOL    HW214085   4.250   1.686   1.919
 4396SOL     OW14086   2.327   1.900   3.712
 4396SOL    HW114087   2.409   1.953   3.690
 4396SOL    HW214088   2.273   1.949   3.780
 4397SOL     OW14089   0.284   1.574   4.743
 4397SOL    HW114090   0.293   1.666   4.781
 4397SOL    HW214091   0.246   1.513   4.812
 4398SOL     OW14092   1.354   4.583   5.434
 4398SOL    HW114093   1.259   4.591   5.404
 4398SOL    HW214094   1.408   4.540   5.361
 4399SOL     OW14095   2.114   0.428   2.001
 4399SOL    HW114096   2.142   0.350   2.058
 4399SOL    HW214097   2.105   0.510   2.058
 4400SOL     OW14098   2.122   6.490   4.690
 4400SOL    HW114099   2.110   6.589   4.680
 4400SOL    HW214100   2.142   6.450   4.601
 4401SOL     OW14101   5.553   6.132   6.345
 4401SOL    HW114102   5.498   6.198   6.294
 4401SOL    HW214103   5.649   6.140   6.317
 4402SOL     OW14104   1.808   5.872   2.481
 4402SOL    HW114105   1.870   5.949   2.497
 4402SOL    HW214106   1.792   5.823   2.567
 4403SOL     OW14107   0.171   6.939   3.682
 4403SOL    HW114108   0.120   6.999   3.743
 4403SOL    HW214109   0.191   6.987   3.596
 4404SOL     OW14110   1.405   3.815   5.487
 4404SOL    HW114111   1.462   3.830   5.406
 4404SOL    HW214112   1.313   3.786   5.458
 4405SOL     OW14113   2.884   3.951   0.338
 4405SOL    HW114114   2.924   4.030   0.291
 4405SOL    HW214115   2.802   3.921   0.289
 4406SOL     OW14116   5.636   4.593   1.591
 4406SOL    HW114117   5.600   4.519   1.648
 4406SOL    HW214118   5.716   4.561   1.540
 4407SOL     OW14119   6.905   4.649   0.607
 4407SOL    HW114120   6.933   4.742   0.582
 4407SOL    HW214121   6.911   4.638   0.706
 4408SOL     OW14122   5.147   0.950   0.871
 4408SOL    HW114123   5.148   1.050   0.864
 4408SOL    HW214124   5.055   0.919   0.894
 4409SOL     OW14125   4.217   0.965   2.546
 4409SOL    HW114126   4.296   0.993   2.492
 4409SOL    HW214127   4.231   0.872   2.580
 4410SOL     OW14128   1.682   4.690   0.136
 4410SOL    HW114129   1.726   4.772   0.099
 4410SOL    HW214130   1.747   4.641   0.194
 4411SOL     OW14131   4.056   3.399   3.552
 4411SOL    HW114132   4.071   3.338   3.630
 4411SOL    HW214133   4.093   3.489   3.573
 4412SOL     OW14134   3.570   1.734   4.634
 4412SOL    HW114135   3.472   1.754   4.630
 4412SOL    HW214136   3.596   1.682   4.552
 4413SOL     OW14137   5.038   5.955   5.029
 4413SOL    HW114138   5.029   6.035   4.969
 4413SOL    HW214139   5.046   5.873   4.973
 4414SOL     OW14140   4.208   4.903   1.764
 4414SOL    HW114141   4.132   4.847   1.731
 4414SOL    HW214142   4.279   4.844   1.803
 4415SOL     OW14143   4.176   4.085   6.409
 4415SOL    HW114144   4.098   4.056   6.464
 4415SOL    HW214145   4.261   4.051   6.450
 4416SOL     OW14146   3.112   0.630   4.654
 4416SOL    HW114147   3.115   0.706   4.720
 4416SOL    HW214148   3.089   0.666   4.563
 4417SOL     OW14149   6.980   4.237   2.701
 4417SOL    HW114150   6.933   4.224   2.788
 4417SOL    HW214151   0.041   4.278   2.718
 4418SOL     OW14152   5.328   0.750   4.250
 4418SOL    HW114153   5.271   0.725   4.172
 4418SOL    HW214154   5.275   0.808   4.312
 4419SOL     OW14155   5.752   6.275   0.644
 4419SOL    HW114156   5.687   6.351   0.651
 4419SOL    HW214157   5.745   6.234   0.553
 4420SOL     OW14158   5.089   1.938   0.772
 4420SOL    HW114159   5.175   1.936   0.822
 4420SOL    HW214160   5.018   1.981   0.828
 4421SOL     OW14161   1.717   1.000   3.362
 4421SOL    HW114162   1.756   0.937   3.429
 4421SOL    HW214163   1.744   0.971   3.270
 4422SOL     OW14164   2.286   3.704   5.936
 4422SOL    HW114165   2.245   3.636   5.876
 4422SOL    HW214166   2.240   3.704   6.024
 4423SOL     OW14167   1.643   2.651   6.020
 4423SOL    HW114168   1.655   2.572   6.081
 4423SOL    HW214169   1.651   2.621   5.925
 4424SOL     OW14170   5.634   6.812   3.861
 4424SOL    HW114171   5.659   6.725   3.902
 4424SOL    HW214172   5.716   6.855   3.822
 4425SOL     OW14173   3.544   5.686   5.892
 4425SOL    HW114174   3.474   5.669   5.823
 4425SOL    HW214175   3.509   5.751   5.960
 4426SOL     OW14176   0.017   2.155   4.670
 4426SOL    HW114177   7.024   2.171   4.767
 4426SOL    HW214178   0.046   2.242   4.629
 4427SOL     OW14179   6.869   6.755   2.624
 4427SOL    HW114180   6.958   6.783   2.589
 4427SOL    HW214181   6.848   6.807   2.707
 4428SOL     OW14182   3.144   5.207   2.616
 4428SOL    HW114183   3.190   5.174   2.534
 4428SOL    HW214184   3.155   5.306   2.623
 4429SOL     OW14185   2.928   0.945   4.077
 4429SOL    HW114186   2.919   0.846   4.087
 4429SOL    HW214187   2.877   0.976   3.996
 4430SOL     OW14188   5.523   3.114   3.987
 4430SOL    HW114189   5.567   3.170   3.918
 4430SOL    HW214190   5.580   3.110   4.069
 4431SOL     OW14191   1.619   1.253   1.975
 4431SOL    HW114192   1.662   1.336   1.938
 4431SOL    HW214193   1.523   1.272   1.995
 4432SOL     OW14194   3.137   3.991   3.879
 4432SOL    HW114195   3.072   3.926   3.839
 4432SOL    HW214196   3.210   4.010   3.814
 4433SOL     OW14197   5.976   0.467   4.397
 4433SOL    HW114198   5.944   0.382   4.438
 4433SOL    HW214199   6.065   0.492   4.437
 4434SOL     OW14200   4.070   2.255   3.781
 4434SOL    HW114201   4.105   2.178   3.727
 4434SOL    HW214202   4.020   2.318   3.721
 4435SOL     OW14203   4.408   3.861   0.893
 4435SOL    HW114204   4.319   3.907   0.888
 4435SOL    HW214205   4.397   3.765   0.867
 4436SOL     OW14206   3.299   2.294   0.645
 4436SOL    HW114207   3.352   2.360   0.698
 4436SOL    HW214208   3.329   2.296   0.550
 4437SOL     OW14209   5.513   1.168   3.527
 4437SOL    HW114210   5.442   1.217   3.576
 4437SOL    HW214211   5.587   1.145   3.590
 4438SOL     OW14212   4.179   1.124   6.668
 4438SOL    HW114213   4.172   1.217   6.632
 4438SOL    HW214214   4.261   1.116   6.725
 4439SOL     OW14215   0.146   6.238   1.661
 4439SOL    HW114216   0.073   6.205   1.721
 4439SOL    HW214217   0.227   6.180   1.672
 4440SOL     OW14218   1.714   4.433   0.335
 4440SOL    HW114219   1.745   4.340   0.354
 4440SOL    HW214220   1.764   4.498   0.393
 4441SOL     OW14221   6.996   1.398   2.406
 4441SOL    HW114222   6.975   1.473   2.343
 4441SOL    HW214223   0.054   1.357   2.381
 4442SOL     OW14224   3.234   6.254   4.049
 4442SOL    HW114225   3.180   6.173   4.075
 4442SOL    HW214226   3.311   6.263   4.111
 4443SOL     OW14227   0.204   2.643   0.607
 4443SOL    HW114228   0.296   2.644   0.647
 4443SOL    HW214229   0.192   2.560   0.552
 4444SOL     OW14230   3.594   5.986   6.185
 4444SOL    HW114231   3.635   6.000   6.275
 4444SOL    HW214232   3.521   5.918   6.192
 4445SOL     OW14233   0.047   0.571   0.814
 4445SOL    HW114234   0.058   0.639   0.886
 4445SOL    HW214235   0.001   0.612   0.735
 4446SOL     OW14236   5.572   1.225   1.755
 4446SOL    HW114237   5.527   1.255   1.838
 4446SOL    HW214238   5.617   1.137   1.772
 4447SOL     OW14239   6.263   3.696   5.930
 4447SOL    HW114240   6.258   3.773   5.867
 4447SOL    HW214241   6.295   3.728   6.019
 4448SOL     OW14242   3.402   4.070   1.061
 4448SOL    HW114243   3.313   4.025   1.061
 4448SOL    HW214244   3.406   4.138   1.134
 4449SOL     OW14245   4.010   0.767   6.228
 4449SOL    HW114246   4.097   0.756   6.277
 4449SOL    HW214247   4.024   0.752   6.131
 4450SOL     OW14248   4.144   3.537   4.260
 4450SOL    HW114249   4.139   3.498   4.352
 4450SOL    HW214250   4.178   3.631   4.266
 4451SOL     OW14251   5.650   3.908   2.878
 4451SOL    HW114252   5.675   3.878   2.970
 4451SOL    HW214253   5.564   3.958   2.880
 4452SOL     OW14254   5.645   6.720   5.175
 4452SOL    HW114255   5.702   6.699   5.095
 4452SOL    HW214256   5.608   6.813   5.165
 4453SOL     OW14257   6.313   2.520   1.131
 4453SOL    HW114258   6.395   2.575   1.145
 4453SOL    HW214259   6.277   2.490   1.219
 4454SOL     OW14260   5.342   2.481   0.136
 4454SOL    HW114261   5.440   2.473   0.119
 4454SOL    HW214262   5.302   2.389   0.142
 4455SOL     OW14263   3.535   0.476   6.227
 4455SOL    HW114264   3.451   0.523   6.254
 4455SOL    HW214265   3.614   0.534   6.249
 4456SOL     OW14266   2.637   4.993   2.480
 4456SOL    HW114267   2.598   5.081   2.505
 4456SOL    HW214268   2.682   4.952   2.559
 4457SOL     OW14269   4.244   2.241   0.359
 4457SOL    HW114270   4.255   2.340   0.365
 4457SOL    HW214271   4.171   2.212   0.421
 4458SOL     OW14272   0.901   3.717   6.467
 4458SOL    HW114273   0.857   3.684   6.383
 4458SOL    HW214274   0.998   3.735   6.449
 4459SOL     OW14275   5.139   0.527   3.359
 4459SOL    HW114276   5.228   0.507   3.318
 4459SOL    HW214277   5.098   0.606   3.313
 4460SOL     OW14278   2.704   3.189   5.578
 4460SOL    HW114279   2.753   3.224   5.658
 4460SOL    HW214280   2.640   3.118   5.607
 4461SOL     OW14281   0.834   0.498   2.677
 4461SOL    HW114282   0.798   0.500   2.584
 4461SOL    HW214283   0.786   0.564   2.734
 4462SOL     OW14284   6.866   3.529   1.618
 4462SOL    HW114285   6.936   3.560   1.553
 4462SOL    HW214286   6.776   3.535   1.575
 4463SOL     OW14287   2.892   2.543   6.806
 4463SOL    HW114288   2.826   2.612   6.835
 4463SOL    HW214289   2.950   2.580   6.733
 4464SOL     OW14290   5.688   4.759   6.877
 4464SOL    HW114291   5.703   4.780   6.974
 4464SOL    HW214292   5.759   4.698   6.844
 4465SOL     OW14293   2.124   5.740   3.438
 4465SOL    HW114294   2.208   5.790   3.414
 4465SOL    HW214295   2.147   5.645   3.459
 4466SOL     OW14296   1.438   0.496   1.697
 4466SOL    HW114297   1.367   0.565   1.711
 4466SOL    HW214298   1.398   0.415   1.654
 4467SOL     OW14299   1.384   6.029   3.505
 4467SOL    HW114300   1.295   6.056   3.468
 4467SOL    HW214301   1.396   6.071   3.595
 4468SOL     OW14302   1.349   2.297   0.427
 4468SOL    HW114303   1.447   2.312   0.445
 4468SOL    HW214304   1.333   2.200   0.410
 4469SOL     OW14305   3.505   0.147   1.408
 4469SOL    HW114306   3.546   0.129   1.497
 4469SOL    HW214307   3.439   0.222   1.415
 4470SOL     OW14308   6.292   3.672   1.850
 4470SOL    HW114309   6.282   3.612   1.929
 4470SOL    HW214310   6.329   3.760   1.879
 4471SOL     OW14311   7.008   1.883   0.309
 4471SOL    HW114312   6.968   1.843   0.391
 4471SOL    HW214313   0.056   1.827   0.279
 4472SOL     OW14314   1.967   2.926   3.608
 4472SOL    HW114315   1.949   2.996   3.677
 4472SOL    HW214316   2.066   2.914   3.600
 4473SOL     OW14317   6.621   2.021   3.281
 4473SOL    HW114318   6.579   1.978   3.361
 4473SOL    HW214319   6.656   2.111   3.307
 4474SOL     OW14320   3.387   0.902   1.921
 4474SOL    HW114321   3.290   0.924   1.911
 4474SOL    HW214322   3.400   0.839   1.998
 4475SOL     OW14323   1.855   3.898   2.633
 4475SOL    HW114324   1.812   3.922   2.546
 4475SOL    HW214325   1.806   3.821   2.674
 4476SOL     OW14326   4.918   6.442   3.939
 4476SOL    HW114327   5.005   6.406   3.971
 4476SOL    HW214328   4.892   6.397   3.854
 4477SOL     OW14329   1.637   0.071   5.382
 4477SOL    HW114330   1.708   0.141   5.387
 4477SOL    HW214331   1.547   0.115   5.389
 4478SOL     OW14332   2.803   5.934   2.366
 4478SOL    HW114333   2.846   5.910   2.279
 4478SOL    HW214334   2.859   5.899   2.441
 4479SOL     OW14335   0.887   0.380   0.722
 4479SOL    HW114336   0.955   0.420   0.784
 4479SOL    HW214337   0.898   0.420   0.631
 4480SOL     OW14338   1.725   3.745   5.371
 4480SOL    HW114339   1.712   3.844   5.370
 4480SOL    HW214340   1.691   3.708   5.457
 4481SOL     OW14341   2.860   6.822   5.185
 4481SOL    HW114342   2.944   6.769   5.176
 4481SOL    HW214343   2.840   6.868   5.099
 4482SOL     OW14344   0.210   4.092   3.902
 4482SOL    HW114345   0.205   4.017   3.835
 4482SOL    HW214346   0.293   4.081   3.957
 4483SOL     OW14347   5.643   3.201   1.554
 4483SOL    HW114348   5.591   3.238   1.631
 4483SOL    HW214349   5.663   3.276   1.490
 4484SOL     OW14350   3.090   2.569   5.348
 4484SOL    HW114351   2.994   2.561   5.371
 4484SOL    HW214352   3.115   2.496   5.283
 4485SOL     OW14353   5.230   2.460   6.054
 4485SOL    HW114354   5.161   2.411   6.000
 4485SOL    HW214355   5.201   2.555   6.068
 4486SOL     OW14356   5.544   3.650   4.658
 4486SOL    HW114357   5.486   3.573   4.632
 4486SOL    HW214358   5.501   3.702   4.731
 4487SOL     OW14359   2.562   3.122   6.393
 4487SOL    HW114360   2.480   3.085   6.435
 4487SOL    HW214361   2.582   3.212   6.430
 4488SOL     OW14362   6.195   3.167   5.244
 4488SOL    HW114363   6.288   3.190   5.271
 4488SOL    HW214364   6.139   3.149   5.325
 4489SOL     OW14365   5.041   5.826   4.521
 4489SOL    HW114366   5.007   5.818   4.427
 4489SOL    HW214367   5.020   5.742   4.571
 4490SOL     OW14368   5.941   2.365   2.208
 4490SOL    HW114369   5.974   2.443   2.260
 4490SOL    HW214370   5.901   2.396   2.122
 4491SOL     OW14371   0.518   3.276   3.806
 4491SOL    HW114372   0.466   3.359   3.784
 4491SOL    HW214373   0.465   3.196   3.779
 4492SOL     OW14374   4.945   2.934   0.704
 4492SOL    HW114375   4.869   2.902   0.761
 4492SOL    HW214376   4.927   3.029   0.677
 4493SOL     OW14377   4.774   6.265   5.976
 4493SOL    HW114378   4.799   6.171   5.997
 4493SOL    HW214379   4.675   6.271   5.960
 4494SOL     OW14380   6.721   1.636   5.783
 4494SOL    HW114381   6.724   1.720   5.838
 4494SOL    HW214382   6.629   1.599   5.783
 4495SOL     OW14383   4.626   6.274   3.889
 4495SOL    HW114384   4.636   6.209   3.964
 4495SOL    HW214385   4.641   6.367   3.923
 4496SOL     OW14386   4.565   5.758   0.825
 4496SOL    HW114387   4.623   5.811   0.763
 4496SOL    HW214388   4.489   5.718   0.774
 4497SOL     OW14389   4.548   0.522   0.216
 4497SOL    HW114390   4.645   0.545   0.209
 4497SOL    HW214391   4.538   0.435   0.265
 4498SOL     OW14392   0.356   2.738   5.802
 4498SOL    HW114393   0.447   2.753   5.765
 4498SOL    HW214394   0.363   2.710   5.898
 4499SOL     OW14395   0.407   3.581   3.853
 4499SOL    HW114396   0.331   3.575   3.917
 4499SOL    HW214397   0.487   3.618   3.901
 4500SOL     OW14398   3.093   3.506   4.328
 4500SOL    HW114399   3.031   3.552   4.390
 4500SOL    HW214400   3.142   3.574   4.273
 4501SOL     OW14401   0.201   3.544   5.937
 4501SOL    HW114402   0.200   3.455   5.891
 4501SOL    HW214403   0.262   3.606   5.888
 4502SOL     OW14404   2.004   1.975   6.709
 4502SOL    HW114405   1.933   1.942   6.646
 4502SOL    HW214406   1.998   1.923   6.794
 4503SOL     OW14407   3.398   0.324   2.555
 4503SOL    HW114408   3.405   0.225   2.565
 4503SOL    HW214409   3.435   0.369   2.636
 4504SOL     OW14410   6.917   1.545   4.907
 4504SOL    HW114411   6.915   1.585   4.999
 4504SOL    HW214412   6.856   1.596   4.847
 4505SOL     OW14413   6.427   5.763   3.269
 4505SOL    HW114414   6.483   5.817   3.206
 4505SOL    HW214415   6.331   5.789   3.260
 4506SOL     OW14416   4.760   2.722   4.180
 4506SOL    HW114417   4.784   2.793   4.247
 4506SOL    HW214418   4.711   2.648   4.226
 4507SOL     OW14419   5.246   4.576   2.195
 4507SOL    HW114420   5.191   4.568   2.278
 4507SOL    HW214421   5.253   4.672   2.169
 4508SOL     OW14422   0.713   5.095   5.728
 4508SOL    HW114423   0.665   5.169   5.775
 4508SOL    HW214424   0.683   5.007   5.765
 4509SOL     OW14425   5.704   2.769   3.853
 4509SOL    HW114426   5.684   2.811   3.942
 4509SOL    HW214427   5.668   2.676   3.852
 4510SOL     OW14428   5.395   0.222   5.492
 4510SOL    HW114429   5.489   0.225   5.526
 4510SOL    HW214430   5.357   0.315   5.494
 4511SOL     OW14431   6.602   3.813   6.786
 4511SOL    HW114432   6.679   3.749   6.789
 4511SOL    HW214433   6.568   3.819   6.692
 4512SOL     OW14434   2.330   6.556   5.879
 4512SOL    HW114435   2.257   6.507   5.831
 4512SOL    HW214436   2.332   6.651   5.849
 4513SOL     OW14437   4.971   6.516   0.505
 4513SOL    HW114438   4.910   6.478   0.575
 4513SOL    HW214439   4.925   6.514   0.416
 4514SOL     OW14440   5.165   1.252   5.369
 4514SOL    HW114441   5.240   1.316   5.386
 4514SOL    HW214442   5.196   1.159   5.386
 4515SOL     OW14443   6.760   3.923   5.865
 4515SOL    HW114444   6.709   3.953   5.946
 4515SOL    HW214445   6.822   3.996   5.836
 4516SOL     OW14446   1.686   0.988   6.187
 4516SOL    HW114447   1.609   1.052   6.189
 4516SOL    HW214448   1.727   0.984   6.278
 4517SOL     OW14449   1.951   0.337   0.018
 4517SOL    HW114450   1.935   0.259   0.079
 4517SOL    HW214451   1.868   0.354   6.994
 4518SOL     OW14452   6.560   1.594   3.562
 4518SOL    HW114453   6.621   1.524   3.524
 4518SOL    HW214454   6.613   1.656   3.620
 4519SOL     OW14455   5.322   7.021   1.836
 4519SOL    HW114456   5.420   0.009   1.848
 4519SOL    HW214457   5.270   0.064   1.882
 4520SOL     OW14458   5.600   5.618   3.629
 4520SOL    HW114459   5.586   5.524   3.660
 4520SOL    HW214460   5.578   5.624   3.531
 4521SOL     OW14461   5.022   1.812   4.351
 4521SOL    HW114462   5.109   1.816   4.400
 4521SOL    HW214463   5.040   1.801   4.253
 4522SOL     OW14464   5.737   0.175   3.751
 4522SOL    HW114465   5.689   0.246   3.802
 4522SOL    HW214466   5.770   0.214   3.665
 4523SOL     OW14467   1.169   4.169   6.985
 4523SOL    HW114468   1.126   4.080   6.968
 4523SOL    HW214469   1.265   4.155   7.009
 4524SOL     OW14470   5.324   2.074   4.833
 4524SOL    HW114471   5.245   2.131   4.811
 4524SOL    HW214472   5.391   2.128   4.884
 4525SOL     OW14473   6.225   1.202   3.350
 4525SOL    HW114474   6.159   1.189   3.276
 4525SOL    HW214475   6.203   1.284   3.401
 4526SOL     OW14476   4.909   0.581   0.877
 4526SOL    HW114477   4.893   0.504   0.939
 4526SOL    HW214478   4.831   0.643   0.880
 4527SOL     OW14479   4.178   1.071   4.052
 4527SOL    HW114480   4.091   1.029   4.026
 4527SOL    HW214481   4.224   1.108   3.971
 4528SOL     OW14482   4.454   6.790   0.068
 4528SOL    HW114483   4.391   6.834   0.004
 4528SOL    HW214484   4.402   6.757   0.148
 4529SOL     OW14485   3.324   1.873   4.629
 4529SOL    HW114486   3.380   1.951   4.658
 4529SOL    HW214487   3.255   1.854   4.699
 4530SOL     OW14488   0.186   3.290   5.792
 4530SOL    HW114489   0.242   3.212   5.765
 4530SOL    HW214490   0.157   3.340   5.710
 4531SOL     OW14491   0.684   3.336   3.286
 4531SOL    HW114492   0.780   3.310   3.290
 4531SOL    HW214493   0.668   3.416   3.344
 4532SOL     OW14494   0.182   1.264   2.350
 4532SOL    HW114495   0.228   1.241   2.264
 4532SOL    HW214496   0.251   1.281   2.420
 4533SOL     OW14497   1.152   0.498   2.542
 4533SOL    HW114498   1.140   0.411   2.590
 4533SOL    HW214499   1.186   0.566   2.607
 4534SOL     OW14500   6.174   3.933   4.588
 4534SOL    HW114501   6.130   3.904   4.503
 4534SOL    HW214502   6.121   4.008   4.628
 4535SOL     OW14503   4.829   1.863   2.597
 4535SOL    HW114504   4.848   1.808   2.678
 4535SOL    HW214505   4.856   1.958   2.615
 4536SOL     OW14506   4.932   2.257   3.898
 4536SOL    HW114507   5.017   2.206   3.884
 4536SOL    HW214508   4.921   2.278   3.995
 4537SOL     OW14509   4.085   2.957   5.908
 4537SOL    HW114510   4.169   3.003   5.936
 4537SOL    HW214511   4.006   3.009   5.941
 4538SOL     OW14512   2.649   0.581   4.544
 4538SOL    HW114513   2.722   0.571   4.611
 4538SOL    HW214514   2.687   0.570   4.452
 4539SOL     OW14515   1.964   0.736   4.395
 4539SOL    HW114516   1.910   0.688   4.326
 4539SOL    HW214517   1.903   0.783   4.458
 4540SOL     OW14518   3.444   2.988   4.550
 4540SOL    HW114519   3.536   2.954   4.568
 4540SOL    HW214520   3.441   3.032   4.460
 4541SOL     OW14521   5.504   1.197   0.584
 4541SOL    HW114522   5.535   1.284   0.546
 4541SOL    HW214523   5.454   1.213   0.669
 4542SOL     OW14524   6.104   6.691   2.111
 4542SOL    HW114525   6.157   6.614   2.076
 4542SOL    HW214526   6.033   6.716   2.045
 4543SOL     OW14527   5.214   2.253   0.230
 4543SOL    HW114528   5.117   2.228   0.224
 4543SOL    HW214529   5.238   2.270   0.325
 4544SOL     OW14530   2.846   6.464   5.336
 4544SOL    HW114531   2.886   6.373   5.326
 4544SOL    HW214532   2.748   6.456   5.351
 4545SOL     OW14533   5.836   2.774   4.690
 4545SOL    HW114534   5.809   2.848   4.752
 4545SOL    HW214535   5.879   2.701   4.743
 4546SOL     OW14536   1.121   1.642   6.221
 4546SOL    HW114537   1.092   1.647   6.126
 4546SOL    HW214538   1.088   1.723   6.271
 4547SOL     OW14539   6.617   2.624   3.049
 4547SOL    HW114540   6.518   2.617   3.058
 4547SOL    HW214541   6.658   2.635   3.139
 4548SOL     OW14542   1.584   4.139   4.845
 4548SOL    HW114543   1.624   4.214   4.792
 4548SOL    HW214544   1.651   4.107   4.913
 4549SOL     OW14545   6.110   4.096   2.012
 4549SOL    HW114546   6.125   4.189   2.045
 4549SOL    HW214547   6.024   4.091   1.962
 4550SOL     OW14548   0.730   5.733   2.534
 4550SOL    HW114549   0.771   5.790   2.463
 4550SOL    HW214550   0.789   5.730   2.614
 4551SOL     OW14551   6.398   1.847   5.901
 4551SOL    HW114552   6.356   1.856   5.811
 4551SOL    HW214553   6.491   1.885   5.899
 4552SOL     OW14554   6.565   2.750   6.921
 4552SOL    HW114555   6.560   2.756   6.822
 4552SOL    HW214556   6.525   2.832   6.962
 4553SOL     OW14557   3.958   4.284   0.110
 4553SOL    HW114558   4.044   4.316   0.151
 4553SOL    HW214559   3.966   4.287   0.011
 4554SOL     OW14560   4.296   0.748   1.896
 4554SOL    HW114561   4.395   0.731   1.899
 4554SOL    HW214562   4.266   0.755   1.801
 4555SOL     OW14563   3.168   1.882   5.560
 4555SOL    HW114564   3.170   1.949   5.486
 4555SOL    HW214565   3.129   1.923   5.642
 4556SOL     OW14566   4.573   2.405   3.165
 4556SOL    HW114567   4.594   2.433   3.258
 4556SOL    HW214568   4.657   2.376   3.119
 4557SOL     OW14569   5.332   6.990   5.229
 4557SOL    HW114570   5.351   0.059   5.233
 4557SOL    HW214571   5.299   6.966   5.138
 4558SOL     OW14572   6.833   3.678   5.786
 4558SOL    HW114573   6.883   3.651   5.867
 4558SOL    HW214574   6.790   3.768   5.801
 4559SOL     OW14575   0.900   4.715   1.145
 4559SOL    HW114576   0.864   4.709   1.238
 4559SOL    HW214577   1.000   4.712   1.148
 4560SOL     OW14578   5.187   4.989   3.885
 4560SOL    HW114579   5.138   4.913   3.843
 4560SOL    HW214580   5.163   5.074   3.839
 4561SOL     OW14581   3.043   0.479   1.263
 4561SOL    HW114582   3.128   0.532   1.261
 4561SOL    HW214583   3.020   0.457   1.358
 4562SOL     OW14584   3.214   5.868   5.061
 4562SOL    HW114585   3.180   5.831   5.148
 4562SOL    HW214586   3.147   5.849   4.989
 4563SOL     OW14587   0.184   4.110   0.405
 4563SOL    HW114588   0.281   4.097   0.425
 4563SOL    HW214589   0.151   4.193   0.450
 4564SOL     OW14590   0.020   6.726   1.156
 4564SOL    HW114591   0.072   6.812   1.154
 4564SOL    HW214592   6.952   6.746   1.158
 4565SOL     OW14593   0.190   1.511   5.616
 4565SOL    HW114594   0.120   1.468   5.674
 4565SOL    HW214595   0.189   1.468   5.526
 4566SOL     OW14596   6.750   1.234   1.116
 4566SOL    HW114597   6.677   1.203   1.054
 4566SOL    HW214598   6.812   1.159   1.136
 4567SOL     OW14599   0.492   1.010   0.069
 4567SOL    HW114600   0.520   1.096   0.027
 4567SOL    HW214601   0.458   1.028   0.162
 4568SOL     OW14602   1.182   4.859   5.175
 4568SOL    HW114603   1.263   4.836   5.120
 4568SOL    HW214604   1.210   4.883   5.268
 4569SOL     OW14605   2.294   1.559   2.784
 4569SOL    HW114606   2.328   1.621   2.855
 4569SOL    HW214607   2.265   1.612   2.704
 4570SOL     OW14608   0.511   5.028   3.030
 4570SOL    HW114609   0.534   5.017   3.127
 4570SOL    HW214610   0.586   5.072   2.982
 4571SOL     OW14611   3.581   3.424   6.043
 4571SOL    HW114612   3.521   3.476   5.982
 4571SOL    HW214613   3.671   3.414   6.000
 4572SOL     OW14614   0.940   6.826   6.600
 4572SOL    HW114615   0.929   6.921   6.569
 4572SOL    HW214616   0.959   6.825   6.698
 4573SOL     OW14617   6.113   6.014   0.705
 4573SOL    HW114618   6.207   5.987   0.683
 4573SOL    HW214619   6.097   6.107   0.672
 4574SOL     OW14620   6.478   4.068   1.249
 4574SOL    HW114621   6.558   4.069   1.309
 4574SOL    HW214622   6.396   4.053   1.304
 4575SOL     OW14623   6.775   2.094   6.735
 4575SOL    HW114624   6.756   2.168   6.670
 4575SOL    HW214625   6.701   2.027   6.732
 4576SOL     OW14626   1.985   6.162   6.720
 4576SOL    HW114627   1.977   6.255   6.685
 4576SOL    HW214628   1.901   6.138   6.768
 4577SOL     OW14629   0.930   2.522   3.741
 4577SOL    HW114630   0.948   2.612   3.702
 4577SOL    HW214631   0.995   2.504   3.815
 4578SOL     OW14632   0.685   3.022   4.132
 4578SOL    HW114633   0.699   2.928   4.101
 4578SOL    HW214634   0.693   3.026   4.232
 4579SOL     OW14635   5.473   1.907   2.543
 4579SOL    HW114636   5.495   1.972   2.616
 4579SOL    HW214637   5.467   1.815   2.582
 4580SOL     OW14638   5.090   5.678   6.881
 4580SOL    HW114639   5.147   5.680   6.963
 4580SOL    HW214640   5.052   5.586   6.869
 4581SOL     OW14641   2.990   5.390   3.032
 4581SOL    HW114642   2.947   5.427   3.114
 4581SOL    HW214643   3.078   5.349   3.057
 4582SOL     OW14644   5.469   6.389   4.746
 4582SOL    HW114645   5.485   6.446   4.826
 4582SOL    HW214646   5.509   6.298   4.761
 4583SOL     OW14647   2.821   1.094   5.172
 4583SOL    HW114648   2.872   1.179   5.184
 4583SOL    HW214649   2.866   1.021   5.225
 4584SOL     OW14650   0.290   4.901   5.412
 4584SOL    HW114651   0.288   4.824   5.476
 4584SOL    HW214652   0.341   4.874   5.330
 4585SOL     OW14653   3.044   6.434   2.684
 4585SOL    HW114654   2.963   6.488   2.659
 4585SOL    HW214655   3.089   6.401   2.601
 4586SOL     OW14656   3.625   5.269   0.313
 4586SOL    HW114657   3.528   5.274   0.338
 4586SOL    HW214658   3.664   5.183   0.346
 4587SOL     OW14659   4.097   3.145   1.748
 4587SOL    HW114660   4.116   3.050   1.722
 4587SOL    HW214661   4.018   3.179   1.697
 4588SOL     OW14662   3.889   4.066   5.705
 4588SOL    HW114663   3.917   4.123   5.628
 4588SOL    HW214664   3.941   4.092   5.786
 4589SOL     OW14665   5.753   1.030   1.759
 4589SOL    HW114666   5.840   1.074   1.738
 4589SOL    HW214667   5.750   1.007   1.856
 4590SOL     OW14668   4.296   6.060   1.972
 4590SOL    HW114669   4.358   5.986   1.998
 4590SOL    HW214670   4.338   6.148   1.995
 4591SOL     OW14671   0.407   6.075   5.228
 4591SOL    HW114672   0.443   6.102   5.139
 4591SOL    HW214673   0.457   6.124   5.300
 4592SOL     OW14674   4.222   2.256   2.142
 4592SOL    HW114675   4.218   2.216   2.234
 4592SOL    HW214676   4.289   2.329   2.140
 4593SOL     OW14677   3.748   5.822   4.220
 4593SOL    HW114678   3.714   5.847   4.130
 4593SOL    HW214679   3.798   5.735   4.215
 4594SOL     OW14680   3.391   2.039   1.618
 4594SOL    HW114681   3.335   2.069   1.541
 4594SOL    HW214682   3.487   2.059   1.600
 4595SOL     OW14683   3.704   2.877   5.907
 4595SOL    HW114684   3.787   2.891   5.853
 4595SOL    HW214685   3.644   2.956   5.897
 4596SOL     OW14686   6.152   6.351   2.480
 4596SOL    HW114687   6.109   6.338   2.391
 4596SOL    HW214688   6.115   6.434   2.523
 4597SOL     OW14689   5.330   4.508   6.930
 4597SOL    HW114690   5.347   4.502   6.832
 4597SOL    HW214691   5.409   4.474   6.981
 4598SOL     OW14692   1.690   5.719   0.046
 4598SOL    HW114693   1.677   5.620   0.056
 4598SOL    HW214694   1.602   5.765   0.057
 4599SOL     OW14695   1.515   4.422   0.690
 4599SOL    HW114696   1.461   4.489   0.639
 4599SOL    HW214697   1.598   4.465   0.725
 4600SOL     OW14698   1.547   5.525   5.976
 4600SOL    HW114699   1.523   5.463   6.051
 4600SOL    HW214700   1.466   5.541   5.919
 4601SOL     OW14701   1.668   0.232   5.027
 4601SOL    HW114702   1.649   0.327   5.053
 4601SOL    HW214703   1.762   0.226   4.994
 4602SOL     OW14704   1.006   5.910   1.069
 4602SOL    HW114705   0.957   5.831   1.031
 4602SOL    HW214706   1.069   5.879   1.140
 4603SOL     OW14707   3.816   6.243   0.927
 4603SOL    HW114708   3.796   6.340   0.941
 4603SOL    HW214709   3.840   6.200   1.014
 4604SOL     OW14710   4.762   0.600   2.111
 4604SOL    HW114711   4.662   0.609   2.110
 4604SOL    HW214712   4.802   0.678   2.159
 4605SOL     OW14713   4.838   1.486   2.997
 4605SOL    HW114714   4.863   1.560   2.934
 4605SOL    HW214715   4.849   1.518   3.091
 4606SOL     OW14716   0.899   6.937   1.632
 4606SOL    HW114717   0.969   6.888   1.684
 4606SOL    HW214718   0.909   6.916   1.535
 4607SOL     OW14719   2.628   2.783   0.825
 4607SOL    HW114720   2.619   2.696   0.872
 4607SOL    HW214721   2.711   2.830   0.857
 4608SOL     OW14722   0.739   5.784   3.542
 4608SOL    HW114723   0.680   5.772   3.621
 4608SOL    HW214724   0.831   5.753   3.564
 4609SOL     OW14725   3.828   5.478   6.155
 4609SOL    HW114726   3.920   5.469   6.117
 4609SOL    HW214727   3.820   5.566   6.201
 4610SOL     OW14728   5.458   2.618   0.558
 4610SOL    HW114729   5.432   2.550   0.627
 4610SOL    HW214730   5.388   2.623   0.487
 4611SOL     OW14731   6.337   5.744   5.916
 4611SOL    HW114732   6.313   5.705   6.005
 4611SOL    HW214733   6.436   5.751   5.909
 4612SOL     OW14734   1.028   6.384   0.790
 4612SOL    HW114735   0.947   6.398   0.733
 4612SOL    HW214736   1.000   6.339   0.876
 4613SOL     OW14737   2.761   5.625   2.471
 4613SOL    HW114738   2.838   5.627   2.408
 4613SOL    HW214739   2.785   5.672   2.555
 4614SOL     OW14740   0.974   4.358   5.271
 4614SOL    HW114741   0.989   4.453   5.241
 4614SOL    HW214742   1.059   4.307   5.261
 4615SOL     OW14743   1.903   1.036   0.148
 4615SOL    HW114744   1.945   1.122   0.177
 4615SOL    HW214745   1.970   0.962   0.158
 4616SOL     OW14746   5.878   0.299   5.884
 4616SOL    HW114747   5.928   0.367   5.830
 4616SOL    HW214748   5.782   0.327   5.892
 4617SOL     OW14749   1.567   2.265   2.445
 4617SOL    HW114750   1.555   2.363   2.463
 4617SOL    HW214751   1.497   2.235   2.381
 4618SOL     OW14752   2.245   2.071   5.310
 4618SOL    HW114753   2.147   2.073   5.287
 4618SOL    HW214754   2.260   2.010   5.388
 4619SOL     OW14755   3.792   6.175   3.052
 4619SOL    HW114756   3.727   6.251   3.046
 4619SOL    HW214757   3.885   6.210   3.056
 4620SOL     OW14758   3.050   4.143   0.242
 4620SOL    HW114759   3.017   4.232   0.272
 4620SOL    HW214760   3.065   4.144   0.143
 4621SOL     OW14761   5.339   1.652   3.266
 4621SOL    HW114762   5.430   1.614   3.247
 4621SOL    HW214763   5.269   1.584   3.244
 4622SOL     OW14764   1.325   3.385   0.674
 4622SOL    HW114765   1.424   3.399   0.670
 4622SOL    HW214766   1.283   3.424   0.592
 4623SOL     OW14767   0.015   6.601   0.906
 4623SOL    HW114768   6.983   6.523   0.893
 4623SOL    HW214769   0.025   6.620   1.004
 4624SOL     OW14770   5.389   6.800   3.054
 4624SOL    HW114771   5.357   6.728   3.117
 4624SOL    HW214772   5.446   6.759   2.983
 4625SOL     OW14773   1.442   4.612   0.274
 4625SOL    HW114774   1.476   4.526   0.311
 4625SOL    HW214775   1.512   4.653   0.217
 4626SOL     OW14776   5.751   5.883   2.056
 4626SOL    HW114777   5.693   5.917   1.982
 4626SOL    HW214778   5.811   5.956   2.087
 4627SOL     OW14779   3.339   5.813   3.751
 4627SOL    HW114780   3.339   5.770   3.841
 4627SOL    HW214781   3.405   5.888   3.749
 4628SOL     OW14782   6.301   3.836   4.197
 4628SOL    HW114783   6.297   3.936   4.191
 4628SOL    HW214784   6.339   3.799   4.112
 4629SOL     OW14785   2.376   5.154   4.942
 4629SOL    HW114786   2.308   5.132   4.871
 4629SOL    HW214787   2.449   5.086   4.940
 4630SOL     OW14788   3.778   5.551   2.760
 4630SOL    HW114789   3.816   5.644   2.761
 4630SOL    HW214790   3.844   5.488   2.719
 4631SOL     OW14791   2.268   6.143   3.740
 4631SOL    HW114792   2.338   6.178   3.678
 4631SOL    HW214793   2.289   6.049   3.766
 4632SOL     OW14794   4.102   4.829   3.367
 4632SOL    HW114795   4.186   4.869   3.403
 4632SOL    HW214796   4.024   4.860   3.421
 4633SOL     OW14797   6.215   1.985   3.627
 4633SOL    HW114798   6.145   2.029   3.570
 4633SOL    HW214799   6.188   1.993   3.723
 4634SOL     OW14800   2.009   4.541   6.979
 4634SOL    HW114801   2.061   4.579   0.026
 4634SOL    HW214802   1.934   4.485   7.014
 4635SOL     OW14803   5.635   3.670   1.532
 4635SOL    HW114804   5.554   3.724   1.555
 4635SOL    HW214805   5.670   3.625   1.615
 4636SOL     OW14806   1.811   5.346   0.147
 4636SOL    HW114807   1.785   5.262   0.101
 4636SOL    HW214808   1.900   5.334   0.192
 4637SOL     OW14809   1.473   0.679   0.210
 4637SOL    HW114810   1.550   0.689   0.147
 4637SOL    HW214811   1.505   0.696   0.303
 4638SOL     OW14812   4.004   2.684   6.769
 4638SOL    HW114813   3.926   2.722   6.819
 4638SOL    HW214814   4.080   2.749   6.771
 4639SOL     OW14815   1.996   4.407   5.245
 4639SOL    HW114816   2.063   4.480   5.231
 4639SOL    HW214817   2.018   4.330   5.186
 4640SOL     OW14818   5.037   5.120   3.539
 4640SOL    HW114819   4.953   5.098   3.490
 4640SOL    HW214820   5.015   5.143   3.634
 4641SOL     OW14821   3.122   6.674   4.274
 4641SOL    HW114822   3.213   6.712   4.257
 4641SOL    HW214823   3.130   6.576   4.294
 4642SOL     OW14824   0.528   6.637   5.251
 4642SOL    HW114825   0.615   6.653   5.297
 4642SOL    HW214826   0.468   6.585   5.312
 4643SOL     OW14827   5.566   2.477   1.206
 4643SOL    HW114828   5.643   2.415   1.190
 4643SOL    HW214829   5.513   2.445   1.285
 4644SOL     OW14830   1.469   4.872   5.015
 4644SOL    HW114831   1.543   4.930   5.049
 4644SOL    HW214832   1.453   4.892   4.919
 4645SOL     OW14833   1.002   0.385   3.892
 4645SOL    HW114834   1.007   0.365   3.989
 4645SOL    HW214835   1.001   0.484   3.878
 4646SOL     OW14836   2.942   6.686   3.365
 4646SOL    HW114837   2.925   6.624   3.442
 4646SOL    HW214838   2.992   6.638   3.294
 4647SOL     OW14839   1.353   6.893   3.200
 4647SOL    HW114840   1.325   6.905   3.296
 4647SOL    HW214841   1.368   6.796   3.181
 4648SOL     OW14842   3.964   0.873   1.413
 4648SOL    HW114843   3.939   0.854   1.508
 4648SOL    HW214844   4.015   0.958   1.407
 4649SOL     OW14845   5.068   6.884   5.600
 4649SOL    HW114846   5.148   6.935   5.631
 4649SOL    HW214847   5.097   6.800   5.555
 4650SOL     OW14848   4.167   6.003   3.939
 4650SOL    HW114849   4.192   5.915   3.898
 4650SOL    HW214850   4.157   5.992   4.038
 4651SOL     OW14851   6.969   1.557   0.754
 4651SOL    HW114852   7.024   1.476   0.733
 4651SOL    HW214853   7.013   1.638   0.713
 4652SOL     OW14854   0.506   0.340   4.457
 4652SOL    HW114855   0.570   0.408   4.421
 4652SOL    HW214856   0.456   0.297   4.381
 4653SOL     OW14857   6.118   5.785   6.782
 4653SOL    HW114858   6.100   5.758   6.876
 4653SOL    HW214859   6.040   5.759   6.725
 4654SOL     OW14860   0.216   6.704   0.306
 4654SOL    HW114861   0.295   6.695   0.246
 4654SOL    HW214862   0.151   6.631   0.288
 4655SOL     OW14863   6.817   5.709   1.813
 4655SOL    HW114864   6.886   5.708   1.740
 4655SOL    HW214865   6.750   5.636   1.796
 4656SOL     OW14866   1.181   0.427   3.286
 4656SOL    HW114867   1.143   0.515   3.315
 4656SOL    HW214868   1.109   0.357   3.290
 4657SOL     OW14869   4.839   6.592   1.533
 4657SOL    HW114870   4.860   6.496   1.516
 4657SOL    HW214871   4.815   6.605   1.629
 4658SOL     OW14872   3.866   1.456   2.315
 4658SOL    HW114873   3.914   1.412   2.391
 4658SOL    HW214874   3.871   1.555   2.327
 4659SOL     OW14875   2.702   3.995   5.901
 4659SOL    HW114876   2.621   3.968   5.849
 4659SOL    HW214877   2.674   4.040   5.987
 4660SOL     OW14878   1.222   3.066   5.259
 4660SOL    HW114879   1.245   2.972   5.283
 4660SOL    HW214880   1.299   3.126   5.283
 4661SOL     OW14881   3.606   3.872   5.690
 4661SOL    HW114882   3.603   3.896   5.787
 4661SOL    HW214883   3.546   3.932   5.638
 4662SOL     OW14884   4.338   0.353   4.990
 4662SOL    HW114885   4.367   0.393   5.077
 4662SOL    HW214886   4.417   0.344   4.930
 4663SOL     OW14887   0.990   1.803   2.313
 4663SOL    HW114888   1.016   1.747   2.392
 4663SOL    HW214889   1.071   1.822   2.258
 4664SOL     OW14890   2.312   1.956   0.571
 4664SOL    HW114891   2.342   1.875   0.622
 4664SOL    HW214892   2.286   1.929   0.479
 4665SOL     OW14893   4.128   7.008   0.592
 4665SOL    HW114894   4.203   0.011   0.649
 4665SOL    HW214895   4.047   6.995   0.649
 4666SOL     OW14896   1.537   1.936   0.645
 4666SOL    HW114897   1.582   2.025   0.642
 4666SOL    HW214898   1.542   1.892   0.555
 4667SOL     OW14899   6.329   4.457   1.164
 4667SOL    HW114900   6.338   4.422   1.070
 4667SOL    HW214901   6.352   4.554   1.165
 4668SOL     OW14902   5.989   2.555   2.986
 4668SOL    HW114903   5.932   2.562   2.904
 4668SOL    HW214904   6.085   2.554   2.960
 4669SOL     OW14905   3.249   6.935   0.260
 4669SOL    HW114906   3.209   6.875   0.330
 4669SOL    HW214907   3.213   7.027   0.271
 4670SOL     OW14908   3.120   1.856   4.810
 4670SOL    HW114909   3.056   1.816   4.875
 4670SOL    HW214910   3.113   1.956   4.812
 4671SOL     OW14911   6.491   2.711   2.330
 4671SOL    HW114912   6.553   2.690   2.405
 4671SOL    HW214913   6.468   2.626   2.281
 4672SOL     OW14914   2.767   4.863   6.252
 4672SOL    HW114915   2.756   4.930   6.326
 4672SOL    HW214916   2.823   4.787   6.284
 4673SOL     OW14917   4.744   6.517   0.725
 4673SOL    HW114918   4.720   6.612   0.744
 4673SOL    HW214919   4.713   6.459   0.801
 4674SOL     OW14920   4.923   0.077   7.018
 4674SOL    HW114921   4.903   0.173   6.997
 4674SOL    HW214922   4.939   0.067   0.087
 4675SOL     OW14923   0.616   2.855   6.652
 4675SOL    HW114924   0.607   2.954   6.660
 4675SOL    HW214925   0.700   2.833   6.602
 4676SOL     OW14926   6.871   5.735   3.882
 4676SOL    HW114927   6.908   5.666   3.944
 4676SOL    HW214928   6.808   5.691   3.818
 4677SOL     OW14929   3.058   2.226   0.765
 4677SOL    HW114930   3.075   2.142   0.816
 4677SOL    HW214931   3.140   2.249   0.712
 4678SOL     OW14932   2.031   4.629   3.176
 4678SOL    HW114933   2.018   4.585   3.088
 4678SOL    HW214934   2.066   4.562   3.242
 4679SOL     OW14935   4.241   6.977   1.755
 4679SOL    HW114936   4.276   6.884   1.742
 4679SOL    HW214937   4.317   0.012   1.759
 4680SOL     OW14938   3.972   0.965   6.535
 4680SOL    HW114939   4.001   0.872   6.556
 4680SOL    HW214940   4.041   1.030   6.565
 4681SOL     OW14941   5.262   4.900   0.011
 4681SOL    HW114942   5.315   4.851   0.081
 4681SOL    HW214943   5.257   4.845   6.958
 4682SOL     OW14944   4.492   4.809   5.640
 4682SOL    HW114945   4.444   4.872   5.701
 4682SOL    HW214946   4.529   4.860   5.562
 4683SOL     OW14947   5.307   5.610   2.817
 4683SOL    HW114948   5.213   5.583   2.834
 4683SOL    HW214949   5.361   5.597   2.900
 4684SOL     OW14950   4.820   6.988   5.555
 4684SOL    HW114951   4.865   0.026   5.497
 4684SOL    HW214952   4.889   6.935   5.604
 4685SOL     OW14953   1.893   4.839   6.774
 4685SOL    HW114954   1.863   4.901   6.701
 4685SOL    HW214955   1.960   4.774   6.737
 4686SOL     OW14956   3.950   6.162   6.954
 4686SOL    HW114957   4.049   6.165   6.967
 4686SOL    HW214958   3.929   6.158   6.857
 4687SOL     OW14959   4.847   3.088   3.829
 4687SOL    HW114960   4.753   3.059   3.813
 4687SOL    HW214961   4.909   3.013   3.805
 4688SOL     OW14962   5.824   2.827   5.092
 4688SOL    HW114963   5.744   2.839   5.150
 4688SOL    HW214964   5.899   2.884   5.125
 4689SOL     OW14965   5.333   0.557   0.752
 4689SOL    HW114966   5.240   0.527   0.732
 4689SOL    HW214967   5.361   0.520   0.841
 4690SOL     OW14968   2.063   0.541   0.709
 4690SOL    HW114969   1.995   0.611   0.684
 4690SOL    HW214970   2.147   0.557   0.657
 4691SOL     OW14971   2.869   3.305   0.816
 4691SOL    HW114972   2.893   3.264   0.905
 4691SOL    HW214973   2.777   3.344   0.821
 4692SOL     OW14974   5.480   5.529   3.038
 4692SOL    HW114975   5.569   5.562   3.069
 4692SOL    HW214976   5.447   5.458   3.101
 4693SOL     OW14977   1.361   0.557   3.552
 4693SOL    HW114978   1.346   0.459   3.538
 4693SOL    HW214979   1.307   0.609   3.486
 4694SOL     OW14980   2.526   1.489   7.028
 4694SOL    HW114981   2.602   1.428   0.019
 4694SOL    HW214982   2.550   1.546   6.949
 4695SOL     OW14983   1.185   4.687   1.124
 4695SOL    HW114984   1.246   4.765   1.107
 4695SOL    HW214985   1.214   4.610   1.067
 4696SOL     OW14986   0.344   5.353   6.452
 4696SOL    HW114987   0.439   5.384   6.456
 4696SOL    HW214988   0.340   5.262   6.411
 4697SOL     OW14989   1.120   3.870   1.683
 4697SOL    HW114990   1.199   3.929   1.699
 4697SOL    HW214991   1.037   3.925   1.688
 4698SOL     OW14992   4.065   6.222   3.250
 4698SOL    HW114993   4.084   6.167   3.169
 4698SOL    HW214994   4.038   6.314   3.223
 4699SOL     OW14995   0.530   6.427   2.523
 4699SOL    HW114996   0.435   6.395   2.514
 4699SOL    HW214997   0.589   6.371   2.465
 4700SOL     OW14998   6.708   1.923   2.514
 4700SOL    HW114999   6.650   1.957   2.440
 4700SOL    HW215000   6.746   2.001   2.564
 4701SOL     OW15001   3.400   2.002   0.068
 4701SOL    HW115002   3.424   1.939   7.024
 4701SOL    HW215003   3.376   2.091   0.030
 4702SOL     OW15004   4.822   4.818   0.336
 4702SOL    HW115005   4.825   4.915   0.362
 4702SOL    HW215006   4.893   4.768   0.385
 4703SOL     OW15007   0.870   0.233   2.624
 4703SOL    HW115008   0.913   0.157   2.673
 4703SOL    HW215009   0.905   0.320   2.659
 4704SOL     OW15010   6.615   6.108   6.229
 4704SOL    HW115011   6.549   6.161   6.175
 4704SOL    HW215012   6.654   6.036   6.171
 4705SOL     OW15013   4.275   2.324   0.934
 4705SOL    HW115014   4.302   2.245   0.988
 4705SOL    HW215015   4.322   2.406   0.967
 4706SOL     OW15016   1.792   0.622   0.320
 4706SOL    HW115017   1.762   0.713   0.351
 4706SOL    HW215018   1.871   0.632   0.260
 4707SOL     OW15019   0.830   6.810   1.368
 4707SOL    HW115020   0.789   6.795   1.278
 4707SOL    HW215021   0.910   6.750   1.378
 4708SOL     OW15022   1.198   1.979   5.612
 4708SOL    HW115023   1.200   1.902   5.549
 4708SOL    HW215024   1.288   1.992   5.652
 4709SOL     OW15025   4.785   5.660   5.181
 4709SOL    HW115026   4.741   5.705   5.258
 4709SOL    HW215027   4.883   5.681   5.181
 4710SOL     OW15028   5.379   0.389   6.044
 4710SOL    HW115029   5.333   0.302   6.027
 4710SOL    HW215030   5.429   0.383   6.131
 4711SOL     OW15031   6.384   1.646   1.579
 4711SOL    HW115032   6.383   1.637   1.480
 4711SOL    HW215033   6.346   1.735   1.605
 4712SOL     OW15034   3.214   4.763   6.719
 4712SOL    HW115035   3.120   4.796   6.726
 4712SOL    HW215036   3.249   4.779   6.627
 4713SOL     OW15037   3.672   4.479   0.749
 4713SOL    HW115038   3.580   4.510   0.774
 4713SOL    HW215039   3.738   4.551   0.771
 4714SOL     OW15040   0.709   1.478   6.051
 4714SOL    HW115041   0.748   1.410   6.114
 4714SOL    HW215042   0.708   1.442   5.958
 4715SOL     OW15043   6.018   3.735   1.399
 4715SOL    HW115044   5.958   3.655   1.400
 4715SOL    HW215045   6.082   3.730   1.476
 4716SOL     OW15046   4.345   6.402   5.480
 4716SOL    HW115047   4.428   6.377   5.529
 4716SOL    HW215048   4.267   6.400   5.544
 4717SOL     OW15049   0.654   6.012   4.559
 4717SOL    HW115050   0.730   6.076   4.567
 4717SOL    HW215051   0.667   5.953   4.480
 4718SOL     OW15052   5.692   1.649   1.297
 4718SOL    HW115053   5.788   1.673   1.283
 4718SOL    HW215054   5.681   1.608   1.387
 4719SOL     OW15055   4.872   3.528   2.180
 4719SOL    HW115056   4.776   3.544   2.157
 4719SOL    HW215057   4.930   3.552   2.102
 4720SOL     OW15058   2.287   5.352   5.660
 4720SOL    HW115059   2.363   5.334   5.598
 4720SOL    HW215060   2.201   5.327   5.616
 4721SOL     OW15061   6.681   1.724   2.119
 4721SOL    HW115062   6.692   1.776   2.034
 4721SOL    HW215063   6.616   1.771   2.178
 4722SOL     OW15064   1.112   5.895   0.025
 4722SOL    HW115065   1.081   5.836   6.981
 4722SOL    HW215066   1.056   5.879   0.107
 4723SOL     OW15067   2.707   3.442   5.387
 4723SOL    HW115068   2.765   3.388   5.448
 4723SOL    HW215069   2.611   3.423   5.408
 4724SOL     OW15070   6.896   6.975   4.401
 4724SOL    HW115071   6.958   6.933   4.335
 4724SOL    HW215072   6.850   6.904   4.453
 4725SOL     OW15073   6.208   5.448   0.102
 4725SOL    HW115074   6.200   5.539   0.061
 4725SOL    HW215075   6.207   5.456   0.202
 4726SOL     OW15076   1.400   3.006   6.294
 4726SOL    HW115077   1.398   3.016   6.393
 4726SOL    HW215078   1.366   2.915   6.269
 4727SOL     OW15079   0.802   6.274   1.451
 4727SOL    HW115080   0.831   6.365   1.419
 4727SOL    HW215081   0.800   6.211   1.373
 4728SOL     OW15082   5.386   1.493   2.555
 4728SOL    HW115083   5.380   1.538   2.466
 4728SOL    HW215084   5.344   1.403   2.549
 4729SOL     OW15085   5.022   1.101   0.577
 4729SOL    HW115086   5.070   1.039   0.640
 4729SOL    HW215087   5.057   1.087   0.484
 4730SOL     OW15088   3.401   5.709   4.872
 4730SOL    HW115089   3.339   5.738   4.945
 4730SOL    HW215090   3.495   5.711   4.906
 4731SOL     OW15091   3.004   0.987   0.580
 4731SOL    HW115092   2.963   1.078   0.582
 4731SOL    HW215093   3.092   0.991   0.533
 4732SOL     OW15094   0.822   3.615   5.266
 4732SOL    HW115095   0.908   3.563   5.263
 4732SOL    HW215096   0.822   3.674   5.346
 4733SOL     OW15097   1.609   3.835   3.894
 4733SOL    HW115098   1.604   3.788   3.806
 4733SOL    HW215099   1.704   3.858   3.914
 4734SOL     OW15100   4.302   3.313   0.488
 4734SOL    HW115101   4.305   3.214   0.474
 4734SOL    HW215102   4.277   3.358   0.402
 4735SOL     OW15103   6.806   5.819   4.404
 4735SOL    HW115104   6.716   5.796   4.369
 4735SOL    HW215105   6.876   5.785   4.341
 4736SOL     OW15106   5.948   1.582   6.305
 4736SOL    HW115107   5.862   1.630   6.288
 4736SOL    HW215108   6.010   1.594   6.228
 4737SOL     OW15109   2.992   4.514   1.081
 4737SOL    HW115110   2.916   4.476   1.028
 4737SOL    HW215111   2.966   4.519   1.177
 4738SOL     OW15112   2.232   6.435   3.040
 4738SOL    HW115113   2.206   6.494   3.117
 4738SOL    HW215114   2.187   6.468   2.957
 4739SOL     OW15115   5.183   1.487   2.804
 4739SOL    HW115116   5.132   1.400   2.810
 4739SOL    HW215117   5.254   1.488   2.874
 4740SOL     OW15118   0.203   1.419   0.947
 4740SOL    HW115119   0.120   1.465   0.981
 4740SOL    HW215120   0.190   1.394   0.851
 4741SOL     OW15121   4.644   3.297   1.389
 4741SOL    HW115122   4.591   3.317   1.307
 4741SOL    HW215123   4.740   3.319   1.373
 4742SOL     OW15124   2.384   6.664   0.875
 4742SOL    HW115125   2.358   6.568   0.861
 4742SOL    HW215126   2.447   6.692   0.802
 4743SOL     OW15127   1.649   3.007   5.070
 4743SOL    HW115128   1.661   3.106   5.074
 4743SOL    HW215129   1.659   2.976   4.976
 4744SOL     OW15130   2.726   4.127   6.209
 4744SOL    HW115131   2.684   4.218   6.211
 4744SOL    HW215132   2.817   4.134   6.168
 4745SOL     OW15133   2.804   5.332   5.237
 4745SOL    HW115134   2.860   5.414   5.248
 4745SOL    HW215135   2.726   5.352   5.178
 4746SOL     OW15136   5.675   6.580   2.571
 4746SOL    HW115137   5.712   6.549   2.659
 4746SOL    HW215138   5.592   6.528   2.549
 4747SOL     OW15139   1.428   4.133   0.039
 4747SOL    HW115140   1.416   4.219   0.089
 4747SOL    HW215141   1.443   4.059   0.105
 4748SOL     OW15142   1.220   5.225   0.788
 4748SOL    HW115143   1.166   5.141   0.788
 4748SOL    HW215144   1.173   5.295   0.735
 4749SOL     OW15145   2.868   6.202   5.259
 4749SOL    HW115146   2.817   6.215   5.175
 4749SOL    HW215147   2.961   6.171   5.238
 4750SOL     OW15148   0.169   3.154   4.167
 4750SOL    HW115149   0.226   3.222   4.214
 4750SOL    HW215150   0.073   3.181   4.173
 4751SOL     OW15151   2.690   2.800   0.553
 4751SOL    HW115152   2.667   2.736   0.626
 4751SOL    HW215153   2.648   2.770   0.467
 4752SOL     OW15154   2.834   0.496   0.016
 4752SOL    HW115155   2.899   0.425   0.046
 4752SOL    HW215156   2.776   0.523   0.093
 4753SOL     OW15157   5.561   0.316   4.354
 4753SOL    HW115158   5.631   0.344   4.289
 4753SOL    HW215159   5.602   0.300   4.444
 4754SOL     OW15160   5.774   0.528   4.849
 4754SOL    HW115161   5.784   0.442   4.899
 4754SOL    HW215162   5.857   0.545   4.796
 4755SOL     OW15163   2.972   0.887   1.214
 4755SOL    HW115164   2.991   0.919   1.307
 4755SOL    HW215165   3.033   0.934   1.150
 4756SOL     OW15166   5.847   3.055   1.426
 4756SOL    HW115167   5.783   3.070   1.501
 4756SOL    HW215168   5.798   3.012   1.350
 4757SOL     OW15169   1.604   2.433   1.680
 4757SOL    HW115170   1.683   2.461   1.735
 4757SOL    HW215171   1.603   2.484   1.594
 4758SOL     OW15172   2.388   6.127   4.115
 4758SOL    HW115173   2.318   6.189   4.079
 4758SOL    HW215174   2.344   6.043   4.149
 4759SOL     OW15175   5.180   5.364   4.539
 4759SOL    HW115176   5.100   5.423   4.532
 4759SOL    HW215177   5.151   5.271   4.563
 4760SOL     OW15178   3.853   1.920   0.471
 4760SOL    HW115179   3.807   1.907   0.383
 4760SOL    HW215180   3.948   1.890   0.463
 4761SOL     OW15181   0.907   6.379   6.583
 4761SOL    HW115182   0.831   6.339   6.531
 4761SOL    HW215183   0.882   6.386   6.679
 4762SOL     OW15184   2.029   5.253   2.932
 4762SOL    HW115185   2.027   5.352   2.943
 4762SOL    HW215186   1.994   5.210   3.015
 4763SOL     OW15187   6.129   6.427   3.738
 4763SOL    HW115188   6.172   6.339   3.759
 4763SOL    HW215189   6.030   6.417   3.740
 4764SOL     OW15190   5.337   4.194   5.438
 4764SOL    HW115191   5.341   4.257   5.360
 4764SOL    HW215192   5.243   4.190   5.472
 4765SOL     OW15193   5.869   0.942   4.505
 4765SOL    HW115194   5.966   0.920   4.494
 4765SOL    HW215195   5.813   0.877   4.453
 4766SOL     OW15196   4.447   6.987   4.267
 4766SOL    HW115197   4.533   6.997   4.218
 4766SOL    HW215198   4.426   6.890   4.278
 4767SOL     OW15199   3.840   4.685   5.915
 4767SOL    HW115200   3.788   4.607   5.951
 4767SOL    HW215201   3.780   4.765   5.910
 4768SOL     OW15202   4.627   1.921   5.105
 4768SOL    HW115203   4.612   1.828   5.140
 4768SOL    HW215204   4.599   1.926   5.009
 4769SOL     OW15205   4.952   4.659   7.025
 4769SOL    HW115206   5.022   4.681   6.957
 4769SOL    HW215207   4.898   4.741   0.015
 4770SOL     OW15208   0.948   0.882   4.404
 4770SOL    HW115209   0.952   0.844   4.497
 4770SOL    HW215210   0.897   0.820   4.345
 4771SOL     OW15211   3.374   5.567   5.698
 4771SOL    HW115212   3.380   5.471   5.725
 4771SOL    HW215213   3.431   5.582   5.616
 4772SOL     OW15214   3.129   5.060   1.479
 4772SOL    HW115215   3.180   5.039   1.562
 4772SOL    HW215216   3.043   5.106   1.502
 4773SOL     OW15217   6.702   5.384   4.845
 4773SOL    HW115218   6.625   5.447   4.836
 4773SOL    HW215219   6.744   5.372   4.755
 4774SOL     OW15220   1.252   2.581   1.639
 4774SOL    HW115221   1.281   2.574   1.735
 4774SOL    HW215222   1.305   2.518   1.583
 4775SOL     OW15223   4.925   6.567   2.425
 4775SOL    HW115224   4.988   6.645   2.427
 4775SOL    HW215225   4.978   6.482   2.432
 4776SOL     OW15226   1.102   6.341   5.229
 4776SOL    HW115227   1.154   6.372   5.309
 4776SOL    HW215228   1.021   6.398   5.217
 4777SOL     OW15229   2.883   4.390   1.391
 4777SOL    HW115230   2.855   4.298   1.362
 4777SOL    HW215231   2.818   4.425   1.459
 4778SOL     OW15232   6.249   2.817   2.431
 4778SOL    HW115233   6.339   2.822   2.387
 4778SOL    HW215234   6.260   2.786   2.525
 4779SOL     OW15235   6.365   6.524   2.438
 4779SOL    HW115236   6.305   6.458   2.484
 4779SOL    HW215237   6.429   6.474   2.379
 4780SOL     OW15238   6.823   0.729   0.609
 4780SOL    HW115239   6.826   0.649   0.550
 4780SOL    HW215240   6.729   0.758   0.623
 4781SOL     OW15241   3.004   5.947   2.148
 4781SOL    HW115242   3.089   5.947   2.095
 4781SOL    HW215243   2.927   5.965   2.086
 4782SOL     OW15244   4.225   6.193   0.026
 4782SOL    HW115245   4.304   6.158   7.005
 4782SOL    HW215246   4.253   6.273   0.080
 4783SOL     OW15247   4.838   4.716   6.563
 4783SOL    HW115248   4.804   4.647   6.627
 4783SOL    HW215249   4.836   4.806   6.608
 4784SOL     OW15250   5.803   4.064   6.492
 4784SOL    HW115251   5.870   4.089   6.422
 4784SOL    HW215252   5.773   4.147   6.540
 4785SOL     OW15253   5.862   5.664   1.748
 4785SOL    HW115254   5.917   5.616   1.679
 4785SOL    HW215255   5.767   5.669   1.717
 4786SOL     OW15256   2.619   1.989   1.140
 4786SOL    HW115257   2.715   2.001   1.166
 4786SOL    HW215258   2.562   2.051   1.193
 4787SOL     OW15259   3.405   1.867   3.219
 4787SOL    HW115260   3.487   1.815   3.192
 4787SOL    HW215261   3.421   1.964   3.204
 4788SOL     OW15262   1.306   5.126   6.003
 4788SOL    HW115263   1.329   5.034   5.973
 4788SOL    HW215264   1.338   5.192   5.936
 4789SOL     OW15265   5.394   0.831   0.790
 4789SOL    HW115266   5.319   0.879   0.834
 4789SOL    HW215267   5.379   0.732   0.798
 4790SOL     OW15268   0.306   3.083   5.596
 4790SOL    HW115269   0.236   3.013   5.577
 4790SOL    HW215270   0.396   3.039   5.599
 4791SOL     OW15271   6.277   1.754   0.866
 4791SOL    HW115272   6.280   1.783   0.961
 4791SOL    HW215273   6.365   1.777   0.822
 4792SOL     OW15274   2.225   3.011   2.970
 4792SOL    HW115275   2.229   3.105   3.002
 4792SOL    HW215276   2.188   3.009   2.877
 4793SOL     OW15277   2.086   3.170   5.824
 4793SOL    HW115278   2.025   3.186   5.902
 4793SOL    HW215279   2.034   3.183   5.739
 4794SOL     OW15280   4.793   0.476   3.270
 4794SOL    HW115281   4.746   0.516   3.349
 4794SOL    HW215282   4.752   0.388   3.248
 4795SOL     OW15283   6.672   1.662   3.872
 4795SOL    HW115284   6.676   1.728   3.797
 4795SOL    HW215285   6.678   1.711   3.959
 4796SOL     OW15286   5.170   2.051   6.125
 4796SOL    HW115287   5.072   2.043   6.105
 4796SOL    HW215288   5.217   1.970   6.092
 4797SOL     OW15289   1.832   6.130   5.756
 4797SOL    HW115290   1.762   6.202   5.750
 4797SOL    HW215291   1.922   6.170   5.744
 4798SOL     OW15292   0.084   3.049   4.742
 4798SOL    HW115293   7.026   3.013   4.709
 4798SOL    HW215294   0.068   3.107   4.822
 4799SOL     OW15295   4.799   2.496   6.625
 4799SOL    HW115296   4.709   2.488   6.668
 4799SOL    HW215297   4.791   2.551   6.542
 4800SOL     OW15298   2.887   3.265   6.092
 4800SOL    HW115299   2.787   3.260   6.085
 4800SOL    HW215300   2.918   3.354   6.058
 4801SOL     OW15301   2.876   2.047   1.193
 4801SOL    HW115302   2.948   2.085   1.135
 4801SOL    HW215303   2.915   2.018   1.280
 4802SOL     OW15304   0.799   6.356   2.429
 4802SOL    HW115305   0.832   6.392   2.342
 4802SOL    HW215306   0.862   6.384   2.502
 4803SOL     OW15307   1.402   5.724   0.974
 4803SOL    HW115308   1.405   5.756   0.879
 4803SOL    HW215309   1.437   5.795   1.034
 4804SOL     OW15310   4.952   5.724   6.618
 4804SOL    HW115311   5.011   5.743   6.696
 4804SOL    HW215312   4.903   5.807   6.592
 4805SOL     OW15313   5.796   0.040   1.337
 4805SOL    HW115314   5.852   0.123   1.330
 4805SOL    HW215315   5.703   0.064   1.366
 4806SOL     OW15316   0.968   4.797   3.102
 4806SOL    HW115317   0.969   4.698   3.085
 4806SOL    HW215318   0.985   4.814   3.199
 4807SOL     OW15319   0.848   4.768   0.240
 4807SOL    HW115320   0.894   4.817   0.314
 4807SOL    HW215321   0.765   4.725   0.276
 4808SOL     OW15322   6.251   3.717   6.485
 4808SOL    HW115323   6.162   3.764   6.479
 4808SOL    HW215324   6.238   3.628   6.530
 4809SOL     OW15325   3.298   4.192   0.100
 4809SOL    HW115326   3.314   4.291   0.095
 4809SOL    HW215327   3.346   4.155   0.179
 4810SOL     OW15328   0.778   5.166   2.532
 4810SOL    HW115329   0.815   5.080   2.499
 4810SOL    HW215330   0.761   5.227   2.454
 4811SOL     OW15331   1.839   4.337   2.327
 4811SOL    HW115332   1.913   4.378   2.273
 4811SOL    HW215333   1.878   4.282   2.401
 4812SOL     OW15334   6.699   4.821   4.560
 4812SOL    HW115335   6.747   4.796   4.643
 4812SOL    HW215336   6.751   4.791   4.480
 4813SOL     OW15337   5.616   1.975   0.785
 4813SOL    HW115338   5.644   1.902   0.723
 4813SOL    HW215339   5.664   1.965   0.872
 4814SOL     OW15340   5.656   4.290   0.398
 4814SOL    HW115341   5.700   4.361   0.344
 4814SOL    HW215342   5.718   4.260   0.471
 4815SOL     OW15343   5.862   4.166   3.112
 4815SOL    HW115344   5.895   4.085   3.062
 4815SOL    HW215345   5.931   4.194   3.178
 4816SOL     OW15346   0.812   5.255   1.327
 4816SOL    HW115347   0.867   5.249   1.244
 4816SOL    HW215348   0.790   5.162   1.359
 4817SOL     OW15349   0.571   2.171   6.755
 4817SOL    HW115350   0.564   2.269   6.773
 4817SOL    HW215351   0.536   2.152   6.663
 4818SOL     OW15352   1.104   0.524   5.194
 4818SOL    HW115353   1.004   0.530   5.201
 4818SOL    HW215354   1.141   0.610   5.160
 4819SOL     OW15355   0.829   2.168   0.328
 4819SOL    HW115356   0.849   2.186   0.232
 4819SOL    HW215357   0.915   2.156   0.378
 4820SOL     OW15358   6.442   2.757   1.208
 4820SOL    HW115359   6.522   2.812   1.233
 4820SOL    HW215360   6.380   2.752   1.285
 4821SOL     OW15361   1.328   6.086   2.684
 4821SOL    HW115362   1.379   6.082   2.599
 4821SOL    HW215363   1.307   5.992   2.715
 4822SOL     OW15364   2.049   2.941   4.350
 4822SOL    HW115365   2.125   2.975   4.405
 4822SOL    HW215366   1.999   2.871   4.401
 4823SOL     OW15367   1.874   1.025   4.198
 4823SOL    HW115368   1.970   1.021   4.224
 4823SOL    HW215369   1.852   1.117   4.164
 4824SOL     OW15370   4.902   3.086   5.010
 4824SOL    HW115371   4.866   3.156   5.072
 4824SOL    HW215372   4.870   3.104   4.917
 4825SOL     OW15373   1.403   2.700   4.306
 4825SOL    HW115374   1.352   2.632   4.358
 4825SOL    HW215375   1.462   2.752   4.367
 4826SOL     OW15376   5.751   0.757   0.230
 4826SOL    HW115377   5.817   0.755   0.305
 4826SOL    HW215378   5.751   0.668   0.183
 4827SOL     OW15379   6.221   1.494   0.837
 4827SOL    HW115380   6.253   1.588   0.842
 4827SOL    HW215381   6.298   1.432   0.851
 4828SOL     OW15382   5.361   1.484   0.731
 4828SOL    HW115383   5.358   1.514   0.826
 4828SOL    HW215384   5.285   1.525   0.680
 4829SOL     OW15385   3.460   0.322   5.616
 4829SOL    HW115386   3.512   0.247   5.658
 4829SOL    HW215387   3.513   0.407   5.623
 4830SOL     OW15388   4.015   5.951   4.543
 4830SOL    HW115389   3.926   5.913   4.567
 4830SOL    HW215390   4.081   5.876   4.531
 4831SOL     OW15391   1.328   4.903   5.418
 4831SOL    HW115392   1.374   4.982   5.460
 4831SOL    HW215393   1.395   4.831   5.402
 4832SOL     OW15394   3.378   4.076   3.726
 4832SOL    HW115395   3.420   3.996   3.682
 4832SOL    HW215396   3.425   4.159   3.695
 4833SOL     OW15397   6.395   1.261   3.110
 4833SOL    HW115398   6.364   1.214   3.192
 4833SOL    HW215399   6.321   1.317   3.074
 4834SOL     OW15400   2.878   5.505   1.927
 4834SOL    HW115401   2.865   5.577   1.996
 4834SOL    HW215402   2.798   5.445   1.926
 4835SOL     OW15403   5.628   2.692   5.560
 4835SOL    HW115404   5.725   2.701   5.584
 4835SOL    HW215405   5.605   2.595   5.552
 4836SOL     OW15406   5.268   1.766   4.472
 4836SOL    HW115407   5.225   1.716   4.547
 4836SOL    HW215408   5.340   1.826   4.507
 4837SOL     OW15409   0.141   3.518   2.924
 4837SOL    HW115410   0.058   3.549   2.876
 4837SOL    HW215411   0.137   3.419   2.938
 4838SOL     OW15412   2.243   5.939   0.438
 4838SOL    HW115413   2.292   5.862   0.398
 4838SOL    HW215414   2.154   5.908   0.472
 4839SOL     OW15415   1.110   3.750   0.083
 4839SOL    HW115416   1.136   3.658   0.056
 4839SOL    HW215417   1.144   3.769   0.175
 4840SOL     OW15418   6.807   4.675   6.313
 4840SOL    HW115419   6.787   4.654   6.409
 4840SOL    HW215420   6.722   4.697   6.265
 4841SOL     OW15421   2.279   5.203   3.100
 4841SOL    HW115422   2.206   5.137   3.081
 4841SOL    HW215423   2.343   5.163   3.166
 4842SOL     OW15424   2.737   5.078   2.895
 4842SOL    HW115425   2.695   5.168   2.878
 4842SOL    HW215426   2.820   5.090   2.950
 4843SOL     OW15427   6.333   2.797   1.495
 4843SOL    HW115428   6.246   2.752   1.517
 4843SOL    HW215429   6.321   2.896   1.501
 4844SOL     OW15430   0.418   3.935   6.135
 4844SOL    HW115431   0.359   3.870   6.183
 4844SOL    HW215432   0.476   3.886   6.070
 4845SOL     OW15433   4.963   4.928   6.244
 4845SOL    HW115434   4.931   4.834   6.241
 4845SOL    HW215435   4.886   4.991   6.231
 4846SOL     OW15436   0.596   2.601   3.480
 4846SOL    HW115437   0.625   2.695   3.462
 4846SOL    HW215438   0.514   2.580   3.427
 4847SOL     OW15439   1.832   1.512   6.135
 4847SOL    HW115440   1.862   1.461   6.054
 4847SOL    HW215441   1.800   1.603   6.107
 4848SOL     OW15442   2.329   0.955   4.948
 4848SOL    HW115443   2.273   0.874   4.966
 4848SOL    HW215444   2.415   0.927   4.907
 4849SOL     OW15445   1.461   5.874   0.708
 4849SOL    HW115446   1.540   5.826   0.670
 4849SOL    HW215447   1.476   5.973   0.705
 4850SOL     OW15448   4.751   0.772   1.611
 4850SOL    HW115449   4.728   0.782   1.515
 4850SOL    HW215450   4.847   0.745   1.619
 4851SOL     OW15451   3.128   5.667   5.595
 4851SOL    HW115452   3.217   5.632   5.625
 4851SOL    HW215453   3.082   5.712   5.671
 4852SOL     OW15454   2.022   5.843   5.017
 4852SOL    HW115455   2.080   5.766   5.041
 4852SOL    HW215456   1.932   5.810   4.987
 4853SOL     OW15457   4.395   1.154   3.378
 4853SOL    HW115458   4.442   1.067   3.392
 4853SOL    HW215459   4.307   1.138   3.334
 4854SOL     OW15460   5.104   6.961   2.373
 4854SOL    HW115461   5.095   0.031   2.375
 4854SOL    HW215462   5.034   6.922   2.313
 4855SOL     OW15463   6.345   3.057   5.722
 4855SOL    HW115464   6.320   3.059   5.625
 4855SOL    HW215465   6.421   3.121   5.738
 4856SOL     OW15466   1.579   3.229   2.884
 4856SOL    HW115467   1.489   3.229   2.839
 4856SOL    HW215468   1.651   3.238   2.814
 4857SOL     OW15469   2.853   1.989   3.358
 4857SOL    HW115470   2.877   2.060   3.425
 4857SOL    HW215471   2.810   2.032   3.278
 4858SOL     OW15472   6.906   6.258   4.897
 4858SOL    HW115473   6.887   6.211   4.983
 4858SOL    HW215474   6.932   6.353   4.916
 4859SOL     OW15475   0.313   4.808   2.124
 4859SOL    HW115476   0.281   4.882   2.183
 4859SOL    HW215477   0.235   4.763   2.080
 4860SOL     OW15478   4.596   4.511   7.029
 4860SOL    HW115479   4.578   4.424   6.981
 4860SOL    HW215480   4.608   4.493   0.097
 4861SOL     OW15481   5.868   5.603   6.468
 4861SOL    HW115482   5.792   5.661   6.497
 4861SOL    HW215483   5.902   5.551   6.547
 4862SOL     OW15484   2.508   4.858   4.850
 4862SOL    HW115485   2.595   4.900   4.827
 4862SOL    HW215486   2.522   4.785   4.916
 4863SOL     OW15487   5.147   2.932   2.395
 4863SOL    HW115488   5.076   2.862   2.407
 4863SOL    HW215489   5.186   2.924   2.303
 4864SOL     OW15490   3.171   1.105   1.877
 4864SOL    HW115491   3.193   1.132   1.970
 4864SOL    HW215492   3.123   1.179   1.830
 4865SOL     OW15493   2.187   5.849   4.558
 4865SOL    HW115494   2.203   5.884   4.650
 4865SOL    HW215495   2.245   5.899   4.493
 4866SOL     OW15496   5.772   4.521   1.160
 4866SOL    HW115497   5.737   4.594   1.101
 4866SOL    HW215498   5.859   4.487   1.123
 4867SOL     OW15499   4.845   5.857   3.315
 4867SOL    HW115500   4.795   5.813   3.240
 4867SOL    HW215501   4.939   5.823   3.316
 4868SOL     OW15502   6.998   5.414   1.434
 4868SOL    HW115503   0.053   5.437   1.482
 4868SOL    HW215504   7.001   5.451   1.342
 4869SOL     OW15505   6.957   2.454   1.146
 4869SOL    HW115506   0.024   2.444   1.168
 4869SOL    HW215507   6.929   2.549   1.158
 4870SOL     OW15508   5.328   5.361   1.708
 4870SOL    HW115509   5.406   5.359   1.645
 4870SOL    HW215510   5.349   5.304   1.788
 4871SOL     OW15511   0.406   1.317   4.492
 4871SOL    HW115512   0.412   1.230   4.541
 4871SOL    HW215513   0.446   1.390   4.547
 4872SOL     OW15514   0.446   5.959   4.069
 4872SOL    HW115515   0.523   6.002   4.023
 4872SOL    HW215516   0.429   5.869   4.030
 4873SOL     OW15517   6.733   4.874   4.059
 4873SOL    HW115518   6.729   4.917   3.969
 4873SOL    HW215519   6.695   4.781   4.053
 4874SOL     OW15520   5.968   4.118   2.370
 4874SOL    HW115521   5.911   4.200   2.371
 4874SOL    HW215522   5.937   4.056   2.298
 4875SOL     OW15523   4.880   2.525   1.205
 4875SOL    HW115524   4.941   2.566   1.137
 4875SOL    HW215525   4.930   2.507   1.289
 4876SOL     OW15526   6.168   0.901   4.422
 4876SOL    HW115527   6.175   0.835   4.497
 4876SOL    HW215528   6.157   0.853   4.335
 4877SOL     OW15529   6.733   1.598   0.889
 4877SOL    HW115530   6.816   1.627   0.841
 4877SOL    HW215531   6.700   1.512   0.849
 4878SOL     OW15532   6.137   1.641   2.261
 4878SOL    HW115533   6.046   1.611   2.232
 4878SOL    HW215534   6.127   1.714   2.329
 4879SOL     OW15535   4.204   5.266   3.654
 4879SOL    HW115536   4.110   5.289   3.680
 4879SOL    HW215537   4.258   5.350   3.645
 4880SOL     OW15538   5.627   2.998   6.480
 4880SOL    HW115539   5.546   3.009   6.538
 4880SOL    HW215540   5.670   2.909   6.498
 4881SOL     OW15541   2.347   5.975   6.863
 4881SOL    HW115542   2.365   5.955   6.959
 4881SOL    HW215543   2.330   6.073   6.852
 4882SOL     OW15544   5.667   1.349   4.349
 4882SOL    HW115545   5.688   1.282   4.278
 4882SOL    HW215546   5.690   1.312   4.438
 4883SOL     OW15547   5.213   4.665   2.801
 4883SOL    HW115548   5.126   4.689   2.759
 4883SOL    HW215549   5.227   4.566   2.795
 4884SOL     OW15550   4.187   0.158   0.849
 4884SOL    HW115551   4.203   0.094   0.924
 4884SOL    HW215552   4.090   0.183   0.847
 4885SOL     OW15553   2.433   6.478   2.331
 4885SOL    HW115554   2.509   6.479   2.265
 4885SOL    HW215555   2.430   6.388   2.375
 4886SOL     OW15556   0.212   5.556   6.067
 4886SOL    HW115557   0.275   5.613   6.119
 4886SOL    HW215558   0.245   5.546   5.974
 4887SOL     OW15559   0.565   1.445   2.619
 4887SOL    HW115560   0.660   1.444   2.589
 4887SOL    HW215561   0.552   1.516   2.689
 4888SOL     OW15562   1.906   6.840   4.331
 4888SOL    HW115563   1.886   6.895   4.250
 4888SOL    HW215564   1.830   6.845   4.395
 4889SOL     OW15565   0.207   1.366   6.833
 4889SOL    HW115566   0.301   1.401   6.828
 4889SOL    HW215567   0.206   1.269   6.808
 4890SOL     OW15568   0.512   2.371   5.152
 4890SOL    HW115569   0.452   2.297   5.119
 4890SOL    HW215570   0.461   2.456   5.155
 4891SOL     OW15571   1.134   6.084   0.640
 4891SOL    HW115572   1.049   6.042   0.672
 4891SOL    HW215573   1.134   6.086   0.540
 4892SOL     OW15574   2.449   5.979   2.093
 4892SOL    HW115575   2.497   6.054   2.049
 4892SOL    HW215576   2.515   5.921   2.141
 4893SOL     OW15577   6.148   4.788   6.845
 4893SOL    HW115578   6.163   4.858   6.915
 4893SOL    HW215579   6.143   4.832   6.755
 4894SOL     OW15580   2.595   0.837   1.636
 4894SOL    HW115581   2.538   0.893   1.575
 4894SOL    HW215582   2.686   0.879   1.642
 4895SOL     OW15583   0.325   5.034   1.460
 4895SOL    HW115584   0.352   5.089   1.540
 4895SOL    HW215585   0.358   5.078   1.377
 4896SOL     OW15586   2.529   5.249   2.480
 4896SOL    HW115587   2.436   5.214   2.486
 4896SOL    HW215588   2.533   5.323   2.413
 4897SOL     OW15589   2.785   5.259   6.217
 4897SOL    HW115590   2.706   5.217   6.261
 4897SOL    HW215591   2.841   5.305   6.286
 4898SOL     OW15592   5.941   1.640   5.245
 4898SOL    HW115593   6.000   1.627   5.166
 4898SOL    HW215594   5.870   1.570   5.246
 4899SOL     OW15595   6.239   4.485   2.815
 4899SOL    HW115596   6.224   4.494   2.913
 4899SOL    HW215597   6.290   4.400   2.797
 4900SOL     OW15598   1.780   6.157   5.359
 4900SOL    HW115599   1.802   6.061   5.377
 4900SOL    HW215600   1.865   6.209   5.347
 4901SOL     OW15601   2.588   6.559   5.468
 4901SOL    HW115602   2.490   6.545   5.459
 4901SOL    HW215603   2.606   6.625   5.541
 4902SOL     OW15604   2.147   2.341   4.575
 4902SOL    HW115605   2.081   2.369   4.645
 4902SOL    HW215606   2.105   2.276   4.513
 4903SOL     OW15607   3.376   6.730   6.872
 4903SOL    HW115608   3.446   6.685   6.816
 4903SOL    HW215609   3.285   6.702   6.840
 4904SOL     OW15610   1.582   0.048   3.924
 4904SOL    HW115611   1.506   0.002   3.968
 4904SOL    HW215612   1.601   0.006   3.836
 4905SOL     OW15613   4.539   2.110   2.462
 4905SOL    HW115614   4.505   2.022   2.495
 4905SOL    HW215615   4.570   2.101   2.368
 4906SOL     OW15616   3.533   1.118   6.453
 4906SOL    HW115617   3.438   1.093   6.474
 4906SOL    HW215618   3.589   1.104   6.535
 4907SOL     OW15619   4.548   6.126   2.164
 4907SOL    HW115620   4.589   6.207   2.123
 4907SOL    HW215621   4.451   6.141   2.179
 4908SOL     OW15622   4.162   5.195   6.853
 4908SOL    HW115623   4.070   5.231   6.872
 4908SOL    HW215624   4.154   5.107   6.807
 4909SOL     OW15625   6.347   6.846   6.323
 4909SOL    HW115626   6.319   6.834   6.419
 4909SOL    HW215627   6.405   6.927   6.315
 4910SOL     OW15628   5.696   6.872   4.840
 4910SOL    HW115629   5.667   6.884   4.745
 4910SOL    HW215630   5.619   6.889   4.901
 4911SOL     OW15631   6.829   2.660   6.021
 4911SOL    HW115632   6.922   2.639   5.992
 4911SOL    HW215633   6.807   2.755   5.999
 4912SOL     OW15634   5.471   1.712   1.106
 4912SOL    HW115635   5.564   1.702   1.140
 4912SOL    HW215636   5.443   1.808   1.112
 4913SOL     OW15637   3.670   3.317   3.550
 4913SOL    HW115638   3.755   3.270   3.527
 4913SOL    HW215639   3.599   3.293   3.484
 4914SOL     OW15640   3.719   0.816   4.807
 4914SOL    HW115641   3.711   0.915   4.818
 4914SOL    HW215642   3.665   0.787   4.728
 4915SOL     OW15643   4.847   0.460   4.584
 4915SOL    HW115644   4.888   0.372   4.610
 4915SOL    HW215645   4.920   0.527   4.569
 4916SOL     OW15646   1.987   1.337   3.156
 4916SOL    HW115647   2.008   1.240   3.141
 4916SOL    HW215648   2.068   1.392   3.136
 4917SOL     OW15649   1.631   4.182   0.649
 4917SOL    HW115650   1.559   4.250   0.637
 4917SOL    HW215651   1.668   4.189   0.742
 4918SOL     OW15652   3.194   0.061   2.316
 4918SOL    HW115653   3.226   0.047   2.410
 4918SOL    HW215654   3.116   0.001   2.298
 4919SOL     OW15655   2.654   1.736   1.337
 4919SOL    HW115656   2.669   1.651   1.387
 4919SOL    HW215657   2.663   1.718   1.238
 4920SOL     OW15658   4.164   0.637   6.847
 4920SOL    HW115659   4.169   0.553   6.793
 4920SOL    HW215660   4.094   0.627   6.918
 4921SOL     OW15661   2.066   3.839   1.337
 4921SOL    HW115662   1.997   3.874   1.400
 4921SOL    HW215663   2.034   3.754   1.294
 4922SOL     OW15664   1.009   3.366   5.077
 4922SOL    HW115665   0.959   3.308   5.140
 4922SOL    HW215666   1.034   3.313   4.996
 4923SOL     OW15667   4.370   0.886   1.372
 4923SOL    HW115668   4.324   0.903   1.284
 4923SOL    HW215669   4.332   0.947   1.441
 4924SOL     OW15670   2.276   3.051   5.967
 4924SOL    HW115671   2.261   3.092   6.057
 4924SOL    HW215672   2.203   3.080   5.905
 4925SOL     OW15673   6.285   6.323   0.848
 4925SOL    HW115674   6.278   6.368   0.937
 4925SOL    HW215675   6.359   6.256   0.851
 4926SOL     OW15676   5.309   3.175   1.634
 4926SOL    HW115677   5.287   3.081   1.663
 4926SOL    HW215678   5.356   3.172   1.546
 4927SOL     OW15679   4.082   3.349   4.045
 4927SOL    HW115680   3.987   3.342   4.076
 4927SOL    HW215681   4.139   3.384   4.120
 4928SOL     OW15682   0.425   6.849   6.903
 4928SOL    HW115683   0.402   6.841   7.000
 4928SOL    HW215684   0.386   6.934   6.866
 4929SOL     OW15685   1.218   4.209   5.462
 4929SOL    HW115686   1.169   4.281   5.512
 4929SOL    HW215687   1.301   4.247   5.422
 4930SOL     OW15688   6.637   0.300   1.379
 4930SOL    HW115689   6.645   0.310   1.279
 4930SOL    HW215690   6.710   0.240   1.412
 4931SOL     OW15691   0.309   6.605   0.949
 4931SOL    HW115692   0.210   6.599   0.950
 4931SOL    HW215693   0.348   6.514   0.936
 4932SOL     OW15694   2.118   3.248   1.919
 4932SOL    HW115695   2.154   3.341   1.934
 4932SOL    HW215696   2.042   3.232   1.982
 4933SOL     OW15697   2.795   0.128   4.338
 4933SOL    HW115698   2.866   0.061   4.316
 4933SOL    HW215699   2.755   0.162   4.254
 4934SOL     OW15700   1.365   5.372   3.476
 4934SOL    HW115701   1.382   5.435   3.552
 4934SOL    HW215702   1.436   5.383   3.406
 4935SOL     OW15703   1.073   1.122   6.905
 4935SOL    HW115704   1.124   1.204   6.930
 4935SOL    HW215705   0.988   1.118   6.957
 4936SOL     OW15706   1.748   4.817   2.135
 4936SOL    HW115707   1.811   4.740   2.124
 4936SOL    HW215708   1.727   4.856   2.045
 4937SOL     OW15709   0.738   4.057   5.891
 4937SOL    HW115710   0.822   4.062   5.945
 4937SOL    HW215711   0.670   4.120   5.928
 4938SOL     OW15712   3.268   5.357   1.579
 4938SOL    HW115713   3.307   5.442   1.614
 4938SOL    HW215714   3.198   5.324   1.642
 4939SOL     OW15715   1.321   1.908   3.301
 4939SOL    HW115716   1.267   1.986   3.271
 4939SOL    HW215717   1.321   1.838   3.229
 4940SOL     OW15718   0.228   1.766   5.643
 4940SOL    HW115719   0.203   1.670   5.654
 4940SOL    HW215720   0.166   1.823   5.698
 4941SOL     OW15721   4.220   2.743   5.500
 4941SOL    HW115722   4.177   2.833   5.497
 4941SOL    HW215723   4.228   2.708   5.406
 4942SOL     OW15724   5.149   3.198   4.450
 4942SOL    HW115725   5.148   3.105   4.487
 4942SOL    HW215726   5.114   3.197   4.356
 4943SOL     OW15727   5.236   3.995   5.910
 4943SOL    HW115728   5.150   4.007   5.959
 4943SOL    HW215729   5.312   3.990   5.975
 4944SOL     OW15730   2.179   4.423   1.866
 4944SOL    HW115731   2.181   4.353   1.937
 4944SOL    HW215732   2.270   4.463   1.855
 4945SOL     OW15733   1.104   0.095   5.046
 4945SOL    HW115734   1.165   0.168   5.077
 4945SOL    HW215735   1.009   0.122   5.063
 4946SOL     OW15736   1.136   5.443   0.018
 4946SOL    HW115737   1.140   5.348   0.051
 4946SOL    HW215738   1.074   5.448   6.969
 4947SOL     OW15739   2.472   1.025   1.102
 4947SOL    HW115740   2.553   0.983   1.060
 4947SOL    HW215741   2.390   0.993   1.054
 4948SOL     OW15742   2.255   2.746   2.829
 4948SOL    HW115743   2.277   2.747   2.926
 4948SOL    HW215744   2.171   2.797   2.812
 4949SOL     OW15745   6.963   4.048   5.180
 4949SOL    HW115746   0.019   4.097   5.198
 4949SOL    HW215747   6.914   4.094   5.106
 4950SOL     OW15748   2.538   3.918   5.684
 4950SOL    HW115749   2.561   3.829   5.645
 4950SOL    HW215750   2.516   3.982   5.611
 4951SOL     OW15751   6.298   0.005   4.537
 4951SOL    HW115752   6.397   7.023   4.530
 4951SOL    HW215753   6.261   6.968   4.601
 4952SOL     OW15754   0.345   6.714   6.076
 4952SOL    HW115755   0.267   6.723   6.138
 4952SOL    HW215756   0.353   6.797   6.020
 4953SOL     OW15757   1.539   6.870   2.913
 4953SOL    HW115758   1.462   6.923   2.949
 4953SOL    HW215759   1.568   6.910   2.826
 4954SOL     OW15760   3.283   3.554   0.085
 4954SOL    HW115761   3.271   3.593   0.176
 4954SOL    HW215762   3.250   3.619   0.016
 4955SOL     OW15763   3.040   6.436   6.904
 4955SOL    HW115764   3.009   6.456   6.997
 4955SOL    HW215765   3.096   6.354   6.904
 4956SOL     OW15766   2.833   0.337   4.930
 4956SOL    HW115767   2.926   0.324   4.894
 4956SOL    HW215768   2.770   0.277   4.881
 4957SOL     OW15769   5.248   3.221   0.734
 4957SOL    HW115770   5.306   3.294   0.771
 4957SOL    HW215771   5.263   3.137   0.785
 4958SOL     OW15772   1.811   5.554   5.865
 4958SOL    HW115773   1.852   5.466   5.837
 4958SOL    HW215774   1.725   5.537   5.911
 4959SOL     OW15775   6.006   0.892   1.374
 4959SOL    HW115776   5.926   0.838   1.397
 4959SOL    HW215777   6.088   0.834   1.377
 4960SOL     OW15778   4.421   4.796   4.186
 4960SOL    HW115779   4.483   4.873   4.202
 4960SOL    HW215780   4.380   4.769   4.273
 4961SOL     OW15781   3.167   0.246   6.317
 4961SOL    HW115782   3.145   0.271   6.412
 4961SOL    HW215783   3.183   0.148   6.311
 4962SOL     OW15784   5.844   2.672   0.841
 4962SOL    HW115785   5.780   2.735   0.796
 4962SOL    HW215786   5.793   2.605   0.895
 4963SOL     OW15787   0.913   5.340   0.576
 4963SOL    HW115788   0.947   5.430   0.546
 4963SOL    HW215789   0.962   5.268   0.526
 4964SOL     OW15790   2.389   0.141   4.557
 4964SOL    HW115791   2.470   0.086   4.539
 4964SOL    HW215792   2.416   0.236   4.572
 4965SOL     OW15793   1.095   6.243   2.645
 4965SOL    HW115794   1.183   6.202   2.669
 4965SOL    HW215795   1.098   6.341   2.664
 4966SOL     OW15796   3.121   6.735   5.091
 4966SOL    HW115797   3.096   6.756   4.997
 4966SOL    HW215798   3.117   6.636   5.106
 4967SOL     OW15799   3.019   5.226   5.688
 4967SOL    HW115800   3.042   5.294   5.757
 4967SOL    HW215801   2.977   5.272   5.609
 4968SOL     OW15802   0.416   1.349   3.423
 4968SOL    HW115803   0.382   1.356   3.517
 4968SOL    HW215804   0.375   1.421   3.367
 4969SOL     OW15805   1.700   6.034   2.806
 4969SOL    HW115806   1.641   6.066   2.879
 4969SOL    HW215807   1.645   5.989   2.736
 4970SOL     OW15808   2.702   1.432   1.361
 4970SOL    HW115809   2.702   1.443   1.261
 4970SOL    HW215810   2.615   1.391   1.389
 4971SOL     OW15811   6.258   5.560   3.026
 4971SOL    HW115812   6.331   5.557   3.095
 4971SOL    HW215813   6.170   5.575   3.071
 4972SOL     OW15814   0.487   4.101   0.836
 4972SOL    HW115815   0.445   4.160   0.767
 4972SOL    HW215816   0.416   4.049   0.884
 4973SOL     OW15817   0.877   0.109   1.804
 4973SOL    HW115818   0.882   0.035   1.736
 4973SOL    HW215819   0.782   0.132   1.822
 4974SOL     OW15820   6.129   4.946   0.511
 4974SOL    HW115821   6.064   4.888   0.561
 4974SOL    HW215822   6.084   5.031   0.483
 4975SOL     OW15823   5.727   3.851   6.702
 4975SOL    HW115824   5.702   3.933   6.651
 4975SOL    HW215825   5.652   3.826   6.764
 4976SOL     OW15826   1.400   1.365   4.350
 4976SOL    HW115827   1.410   1.275   4.307
 4976SOL    HW215828   1.311   1.404   4.324
 4977SOL     OW15829   4.344   5.191   0.023
 4977SOL    HW115830   4.377   5.099   0.043
 4977SOL    HW215831   4.295   5.191   6.966
 4978SOL     OW15832   5.883   5.078   4.829
 4978SOL    HW115833   5.882   4.991   4.878
 4978SOL    HW215834   5.796   5.089   4.781
 4979SOL     OW15835   6.728   6.734   5.965
 4979SOL    HW115836   6.632   6.754   5.946
 4979SOL    HW215837   6.735   6.682   6.050
 4980SOL     OW15838   5.299   5.230   3.534
 4980SOL    HW115839   5.215   5.175   3.525
 4980SOL    HW215840   5.374   5.171   3.564
 4981SOL     OW15841   4.077   5.399   1.521
 4981SOL    HW115842   4.069   5.342   1.603
 4981SOL    HW215843   4.120   5.346   1.448
 4982SOL     OW15844   3.194   2.218   5.821
 4982SOL    HW115845   3.156   2.299   5.865
 4982SOL    HW215846   3.276   2.244   5.770
 4983SOL     OW15847   5.428   3.951   5.124
 4983SOL    HW115848   5.415   3.921   5.219
 4983SOL    HW215849   5.499   4.021   5.120
 4984SOL     OW15850   4.884   3.723   2.898
 4984SOL    HW115851   4.878   3.667   2.981
 4984SOL    HW215852   4.871   3.664   2.818
 4985SOL     OW15853   5.784   6.922   3.281
 4985SOL    HW115854   5.689   6.900   3.261
 4985SOL    HW215855   5.838   6.913   3.197
 4986SOL     OW15856   6.538   5.232   0.455
 4986SOL    HW115857   6.545   5.230   0.356
 4986SOL    HW215858   6.493   5.149   0.487
 4987SOL     OW15859   1.170   6.782   2.497
 4987SOL    HW115860   1.267   6.775   2.522
 4987SOL    HW215861   1.114   6.741   2.568
 4988SOL     OW15862   5.395   1.170   2.495
 4988SOL    HW115863   5.469   1.224   2.456
 4988SOL    HW215864   5.404   1.075   2.466
 4989SOL     OW15865   5.198   6.699   1.101
 4989SOL    HW115866   5.105   6.688   1.065
 4989SOL    HW215867   5.197   6.767   1.174
 4990SOL     OW15868   2.957   2.183   6.322
 4990SOL    HW115869   2.890   2.255   6.301
 4990SOL    HW215870   2.931   2.099   6.275
 4991SOL     OW15871   6.055   5.323   4.065
 4991SOL    HW115872   6.135   5.382   4.075
 4991SOL    HW215873   6.062   5.270   3.980
 4992SOL     OW15874   4.966   0.208   2.281
 4992SOL    HW115875   4.910   0.234   2.360
 4992SOL    HW215876   4.960   0.279   2.211
 4993SOL     OW15877   3.611   6.483   5.216
 4993SOL    HW115878   3.691   6.481   5.275
 4993SOL    HW215879   3.632   6.438   5.129
 4994SOL     OW15880   2.087   6.737   4.610
 4994SOL    HW115881   2.109   6.701   4.520
 4994SOL    HW215882   2.115   6.833   4.615
 4995SOL     OW15883   0.768   2.095   5.663
 4995SOL    HW115884   0.739   2.093   5.567
 4995SOL    HW215885   0.767   2.002   5.700
 4996SOL     OW15886   0.052   1.320   3.352
 4996SOL    HW115887   0.113   1.260   3.300
 4996SOL    HW215888   6.993   1.276   3.363
 4997SOL     OW15889   4.480   2.371   2.158
 4997SOL    HW115890   4.482   2.272   2.150
 4997SOL    HW215891   4.549   2.401   2.224
 4998SOL     OW15892   2.117   3.603   4.361
 4998SOL    HW115893   2.205   3.556   4.364
 4998SOL    HW215894   2.053   3.556   4.422
 4999SOL     OW15895   6.714   3.428   4.710
 4999SOL    HW115896   6.806   3.389   4.715
 4999SOL    HW215897   6.648   3.356   4.693
 5000SOL     OW15898   3.210   0.188   3.469
 5000SOL    HW115899   3.262   0.196   3.384
 5000SOL    HW215900   3.172   0.096   3.476
 5001SOL     OW15901   0.855   5.078   1.807
 5001SOL    HW115902   0.777   5.086   1.745
 5001SOL    HW215903   0.892   5.169   1.827
 5002SOL     OW15904   0.610   3.754   2.098
 5002SOL    HW115905   0.619   3.782   2.002
 5002SOL    HW215906   0.633   3.657   2.107
 5003SOL     OW15907   3.430   5.860   3.030
 5003SOL    HW115908   3.342   5.820   3.057
 5003SOL    HW215909   3.502   5.822   3.087
 5004SOL     OW15910   2.439   5.007   5.490
 5004SOL    HW115911   2.470   5.048   5.404
 5004SOL    HW215912   2.469   4.912   5.494
 5005SOL     OW15913   3.434   2.903   0.151
 5005SOL    HW115914   3.490   2.906   0.234
 5005SOL    HW215915   3.351   2.956   0.165
 5006SOL     OW15916   5.315   0.738   1.963
 5006SOL    HW115917   5.402   0.724   2.009
 5006SOL    HW215918   5.240   0.721   2.027
 5007SOL     OW15919   0.163   6.756   1.632
 5007SOL    HW115920   0.212   6.815   1.567
 5007SOL    HW215921   0.174   6.661   1.605
 5008SOL     OW15922   5.446   6.026   2.143
 5008SOL    HW115923   5.354   6.019   2.183
 5008SOL    HW215924   5.512   5.983   2.205
 5009SOL     OW15925   0.043   2.141   0.273
 5009SOL    HW115926   0.067   2.163   0.179
 5009SOL    HW215927   0.029   2.042   0.281
 5010SOL     OW15928   3.973   2.987   1.325
 5010SOL    HW115929   4.040   2.916   1.347
 5010SOL    HW215930   4.018   3.077   1.329
 5011SOL     OW15931   1.348   4.887   1.830
 5011SOL    HW115932   1.293   4.836   1.896
 5011SOL    HW215933   1.318   4.866   1.737
 5012SOL     OW15934   5.720   3.146   5.212
 5012SOL    HW115935   5.629   3.104   5.203
 5012SOL    HW215936   5.734   3.175   5.306
 5013SOL     OW15937   5.393   1.578   6.593
 5013SOL    HW115938   5.469   1.578   6.529
 5013SOL    HW215939   5.354   1.670   6.599
 5014SOL     OW15940   5.643   4.390   1.346
 5014SOL    HW115941   5.701   4.441   1.282
 5014SOL    HW215942   5.696   4.319   1.390
 5015SOL     OW15943   5.227   1.565   4.998
 5015SOL    HW115944   5.312   1.614   5.019
 5015SOL    HW215945   5.174   1.616   4.931
 5016SOL     OW15946   1.808   3.009   5.432
 5016SOL    HW115947   1.718   3.004   5.389
 5016SOL    HW215948   1.859   3.086   5.395
 5017SOL     OW15949   2.440   2.436   1.141
 5017SOL    HW115950   2.485   2.354   1.177
 5017SOL    HW215951   2.504   2.513   1.145
 5018SOL     OW15952   1.092   4.937   2.821
 5018SOL    HW115953   1.037   5.004   2.770
 5018SOL    HW215954   1.059   4.932   2.915
 5019SOL     OW15955   1.318   5.634   5.832
 5019SOL    HW115956   1.275   5.688   5.760
 5019SOL    HW215957   1.301   5.676   5.921
 5020SOL     OW15958   5.433   0.088   6.212
 5020SOL    HW115959   5.451   7.021   6.227
 5020SOL    HW215960   5.509   0.129   6.162
 5021SOL     OW15961   0.938   1.486   0.216
 5021SOL    HW115962   0.990   1.466   0.298
 5021SOL    HW215963   0.890   1.404   0.185
 5022SOL     OW15964   2.618   2.015   0.843
 5022SOL    HW115965   2.656   2.026   0.934
 5022SOL    HW215966   2.523   2.046   0.842
 5023SOL     OW15967   0.277   3.269   1.366
 5023SOL    HW115968   0.318   3.279   1.456
 5023SOL    HW215969   0.206   3.338   1.353
 5024SOL     OW15970   6.034   5.533   1.590
 5024SOL    HW115971   6.042   5.602   1.518
 5024SOL    HW215972   6.057   5.444   1.553
 5025SOL     OW15973   4.154   1.737   3.604
 5025SOL    HW115974   4.170   1.689   3.517
 5025SOL    HW215975   4.077   1.696   3.651
 5026SOL     OW15976   6.488   6.387   5.395
 5026SOL    HW115977   6.524   6.328   5.467
 5026SOL    HW215978   6.525   6.358   5.306
 5027SOL     OW15979   6.564   6.344   1.809
 5027SOL    HW115980   6.470   6.356   1.777
 5027SOL    HW215981   6.607   6.268   1.760
 5028SOL     OW15982   0.352   2.089   2.166
 5028SOL    HW115983   0.335   2.179   2.206
 5028SOL    HW215984   0.449   2.081   2.142
 5029SOL     OW15985   6.422   2.354   2.358
 5029SOL    HW115986   6.432   2.272   2.415
 5029SOL    HW215987   6.344   2.343   2.297
 5030SOL     OW15988   0.530   6.031   6.525
 5030SOL    HW115989   0.430   6.043   6.525
 5030SOL    HW215990   0.567   6.066   6.439
 5031SOL     OW15991   6.511   0.949   6.467
 5031SOL    HW115992   6.447   0.898   6.410
 5031SOL    HW215993   6.465   1.029   6.506
 5032SOL     OW15994   2.472   2.639   6.018
 5032SOL    HW115995   2.423   2.572   5.963
 5032SOL    HW215996   2.567   2.610   6.030
 5033SOL     OW15997   2.041   6.829   5.882
 5033SOL    HW115998   2.034   6.818   5.981
 5033SOL    HW215999   2.034   6.926   5.859
 5034SOL     OW16000   6.136   0.104   3.293
 5034SOL    HW116001   6.092   0.037   3.353
 5034SOL    HW216002   6.091   0.102   3.203
 5035SOL     OW16003   0.460   4.174   6.012
 5035SOL    HW116004   0.398   4.179   5.934
 5035SOL    HW216005   0.438   4.093   6.067
 5036SOL     OW16006   0.301   5.035   6.789
 5036SOL    HW116007   0.238   5.084   6.848
 5036SOL    HW216008   0.347   5.100   6.728
 5037SOL     OW16009   5.259   4.238   1.782
 5037SOL    HW116010   5.227   4.209   1.692
 5037SOL    HW216011   5.301   4.161   1.829
 5038SOL     OW16012   3.596   3.691   5.921
 5038SOL    HW116013   3.605   3.679   5.822
 5038SOL    HW216014   3.505   3.727   5.942
 5039SOL     OW16015   2.312   4.515   5.732
 5039SOL    HW116016   2.283   4.420   5.721
 5039SOL    HW216017   2.231   4.575   5.730
 5040SOL     OW16018   1.477   6.729   6.001
 5040SOL    HW116019   1.479   6.690   6.093
 5040SOL    HW216020   1.417   6.674   5.943
 5041SOL     OW16021   1.614   1.931   2.712
 5041SOL    HW116022   1.604   1.840   2.670
 5041SOL    HW216023   1.657   1.921   2.802
 5042SOL     OW16024   6.297   3.453   6.918
 5042SOL    HW116025   6.303   3.535   6.861
 5042SOL    HW216026   6.249   3.381   6.868
 5043SOL     OW16027   3.434   6.971   6.150
 5043SOL    HW116028   3.474   6.953   6.060
 5043SOL    HW216029   3.424   0.040   6.163
 5044SOL     OW16030   0.575   6.485   0.295
 5044SOL    HW116031   0.659   6.518   0.339
 5044SOL    HW216032   0.594   6.465   0.199
 5045SOL     OW16033   5.687   0.140   6.077
 5045SOL    HW116034   5.706   0.196   5.996
 5045SOL    HW216035   5.758   0.071   6.087
 5046SOL     OW16036   3.412   4.136   2.801
 5046SOL    HW116037   3.407   4.153   2.900
 5046SOL    HW216038   3.353   4.058   2.778
 5047SOL     OW16039   0.860   4.206   2.523
 5047SOL    HW116040   0.937   4.163   2.569
 5047SOL    HW216041   0.833   4.288   2.573
 5048SOL     OW16042   1.133   1.478   2.770
 5048SOL    HW116043   1.206   1.428   2.817
 5048SOL    HW216044   1.047   1.465   2.819
 5049SOL     OW16045   5.148   2.048   6.670
 5049SOL    HW116046   5.055   2.068   6.639
 5049SOL    HW216047   5.209   2.122   6.642
 5050SOL     OW16048   1.990   0.554   1.346
 5050SOL    HW116049   1.966   0.538   1.250
 5050SOL    HW216050   1.932   0.626   1.383
 5051SOL     OW16051   4.268   4.452   0.744
 5051SOL    HW116052   4.333   4.527   0.732
 5051SOL    HW216053   4.183   4.473   0.695
 5052SOL     OW16054   2.474   0.724   5.957
 5052SOL    HW116055   2.560   0.698   5.914
 5052SOL    HW216056   2.467   0.823   5.962
 5053SOL     OW16057   1.943   3.579   4.117
 5053SOL    HW116058   1.991   3.552   4.034
 5053SOL    HW216059   2.007   3.622   4.181
 5054SOL     OW16060   3.414   4.943   4.366
 5054SOL    HW116061   3.441   4.955   4.461
 5054SOL    HW216062   3.407   5.032   4.322
 5055SOL     OW16063   1.802   2.304   5.193
 5055SOL    HW116064   1.743   2.350   5.259
 5055SOL    HW216065   1.746   2.261   5.122
 5056SOL     OW16066   5.554   4.148   6.694
 5056SOL    HW116067   5.465   4.104   6.699
 5056SOL    HW216068   5.597   4.146   6.785
 5057SOL     OW16069   6.745   6.144   3.697
 5057SOL    HW116070   6.683   6.178   3.768
 5057SOL    HW216071   6.836   6.183   3.711
 5058SOL     OW16072   3.356   4.099   5.666
 5058SOL    HW116073   3.421   4.167   5.634
 5058SOL    HW216074   3.316   4.051   5.588
 5059SOL     OW16075   6.832   1.513   2.836
 5059SOL    HW116076   6.813   1.425   2.792
 5059SOL    HW216077   6.851   1.497   2.933
 5060SOL     OW16078   0.653   2.183   5.973
 5060SOL    HW116079   0.667   2.258   5.908
 5060SOL    HW216080   0.685   2.097   5.931
 5061SOL     OW16081   4.308   2.782   1.195
 5061SOL    HW116082   4.374   2.790   1.269
 5061SOL    HW216083   4.215   2.778   1.234
 5062SOL     OW16084   5.838   0.533   3.322
 5062SOL    HW116085   5.741   0.526   3.295
 5062SOL    HW216086   5.892   0.469   3.269
 5063SOL     OW16087   0.984   0.210   2.279
 5063SOL    HW116088   1.033   0.297   2.277
 5063SOL    HW216089   1.009   0.159   2.361
 5064SOL     OW16090   5.109   3.468   1.450
 5064SOL    HW116091   5.130   3.379   1.409
 5064SOL    HW216092   5.167   3.538   1.410
 5065SOL     OW16093   2.380   0.783   4.229
 5065SOL    HW116094   2.324   0.760   4.149
 5065SOL    HW216095   2.377   0.708   4.294
 5066SOL     OW16096   4.937   4.767   2.706
 5066SOL    HW116097   4.937   4.867   2.714
 5066SOL    HW216098   4.907   4.727   2.793
 5067SOL     OW16099   4.518   1.237   1.876
 5067SOL    HW116100   4.472   1.320   1.843
 5067SOL    HW216101   4.617   1.250   1.874
 5068SOL     OW16102   3.104   4.039   1.055
 5068SOL    HW116103   3.083   3.986   1.136
 5068SOL    HW216104   3.138   4.130   1.081
 5069SOL     OW16105   1.816   3.842   5.956
 5069SOL    HW116106   1.740   3.812   6.014
 5069SOL    HW216107   1.840   3.937   5.978
 5070SOL     OW16108   5.351   4.075   4.396
 5070SOL    HW116109   5.294   4.052   4.317
 5070SOL    HW216110   5.420   4.005   4.409
 5071SOL     OW16111   4.362   2.432   4.190
 5071SOL    HW116112   4.329   2.438   4.096
 5071SOL    HW216113   4.446   2.486   4.199
 5072SOL     OW16114   1.361   6.954   0.918
 5072SOL    HW116115   1.407   6.874   0.958
 5072SOL    HW216116   1.397   0.008   0.959
 5073SOL     OW16117   0.062   6.061   2.466
 5073SOL    HW116118   0.153   6.022   2.453
 5073SOL    HW216119   0.015   6.066   2.378
 5074SOL     OW16120   3.042   3.116   1.012
 5074SOL    HW116121   3.004   3.121   1.104
 5074SOL    HW216122   3.084   3.204   0.988
 5075SOL     OW16123   1.311   2.232   6.969
 5075SOL    HW116124   1.349   2.325   6.968
 5075SOL    HW216125   1.212   2.237   6.980
 5076SOL     OW16126   3.617   1.248   0.773
 5076SOL    HW116127   3.640   1.342   0.745
 5076SOL    HW216128   3.701   1.195   0.782
 5077SOL     OW16129   1.013   4.026   5.453
 5077SOL    HW116130   1.087   4.092   5.451
 5077SOL    HW216131   0.951   4.042   5.375
 5078SOL     OW16132   1.993   1.719   4.035
 5078SOL    HW116133   2.060   1.716   4.109
 5078SOL    HW216134   1.961   1.626   4.016
 5079SOL     OW16135   2.118   3.637   5.735
 5079SOL    HW116136   2.154   3.708   5.676
 5079SOL    HW216137   2.148   3.547   5.702
 5080SOL     OW16138   6.198   6.239   6.264
 5080SOL    HW116139   6.125   6.265   6.201
 5080SOL    HW216140   6.243   6.156   6.231
 5081SOL     OW16141   3.578   2.857   4.123
 5081SOL    HW116142   3.620   2.785   4.068
 5081SOL    HW216143   3.647   2.896   4.185
 5082SOL     OW16144   5.182   6.128   6.527
 5082SOL    HW116145   5.160   6.122   6.430
 5082SOL    HW216146   5.115   6.075   6.580
 5083SOL     OW16147   2.889   6.979   2.945
 5083SOL    HW116148   2.850   7.009   3.032
 5083SOL    HW216149   2.988   6.971   2.953
 5084SOL     OW16150   0.584   4.545   4.258
 5084SOL    HW116151   0.541   4.622   4.305
 5084SOL    HW216152   0.550   4.459   4.298
 5085SOL     OW16153   4.612   3.551   6.512
 5085SOL    HW116154   4.667   3.634   6.512
 5085SOL    HW216155   4.516   3.574   6.492
 5086SOL     OW16156   0.346   5.319   3.481
 5086SOL    HW116157   0.407   5.243   3.460
 5086SOL    HW216158   0.393   5.406   3.461
 5087SOL     OW16159   0.255   4.593   2.920
 5087SOL    HW116160   0.175   4.650   2.901
 5087SOL    HW216161   0.318   4.642   2.980
 5088SOL     OW16162   6.531   1.614   4.991
 5088SOL    HW116163   6.470   1.682   4.950
 5088SOL    HW216164   6.509   1.523   4.955
 5089SOL     OW16165   5.221   3.385   3.937
 5089SOL    HW116166   5.229   3.346   4.029
 5089SOL    HW216167   5.134   3.358   3.897
 5090SOL     OW16168   2.070   3.819   2.974
 5090SOL    HW116169   2.078   3.794   2.877
 5090SOL    HW216170   1.975   3.842   2.994
 5091SOL     OW16171   1.423   7.005   2.366
 5091SOL    HW116172   1.324   7.017   2.356
 5091SOL    HW216173   1.449   6.916   2.329
 5092SOL     OW16174   3.518   3.054   1.484
 5092SOL    HW116175   3.551   2.961   1.467
 5092SOL    HW216176   3.596   3.115   1.497
 5093SOL     OW16177   3.027   1.458   0.961
 5093SOL    HW116178   2.950   1.393   0.955
 5093SOL    HW216179   3.104   1.413   1.006
 5094SOL     OW16180   1.513   6.219   5.365
 5094SOL    HW116181   1.609   6.189   5.366
 5094SOL    HW216182   1.509   6.319   5.375
 5095SOL     OW16183   0.227   2.622   4.833
 5095SOL    HW116184   0.220   2.718   4.857
 5095SOL    HW216185   0.139   2.576   4.850
 5096SOL     OW16186   4.144   3.930   0.935
 5096SOL    HW116187   4.127   4.011   0.991
 5096SOL    HW216188   4.144   3.849   0.993
 5097SOL     OW16189   1.214   0.636   6.843
 5097SOL    HW116190   1.232   0.590   6.930
 5097SOL    HW216191   1.279   0.602   6.774
 5098SOL     OW16192   1.413   0.694   1.359
 5098SOL    HW116193   1.419   0.718   1.455
 5098SOL    HW216194   1.500   0.713   1.313
 5099SOL     OW16195   0.665   6.571   7.023
 5099SOL    HW116196   0.604   6.527   6.958
 5099SOL    HW216197   0.682   6.666   6.994
 5100SOL     OW16198   4.104   6.153   5.376
 5100SOL    HW116199   4.059   6.163   5.465
 5100SOL    HW216200   4.037   6.123   5.308
 5101SOL     OW16201   3.930   6.830   0.424
 5101SOL    HW116202   3.950   6.739   0.461
 5101SOL    HW216203   3.935   6.898   0.497
 5102SOL     OW16204   6.299   0.589   4.770
 5102SOL    HW116205   6.309   0.688   4.777
 5102SOL    HW216206   6.245   0.555   4.847
 5103SOL     OW16207   0.389   0.747   4.166
 5103SOL    HW116208   0.461   0.799   4.120
 5103SOL    HW216209   0.332   0.810   4.220
 5104SOL     OW16210   1.967   6.632   2.434
 5104SOL    HW116211   1.896   6.698   2.409
 5104SOL    HW216212   2.057   6.670   2.413
 5105SOL     OW16213   3.541   2.672   0.011
 5105SOL    HW116214   3.564   2.666   6.943
 5105SOL    HW216215   3.544   2.768   0.039
 5106SOL     OW16216   3.354   0.898   1.204
 5106SOL    HW116217   3.276   0.945   1.163
 5106SOL    HW216218   3.439   0.935   1.167
 5107SOL     OW16219   4.413   0.699   1.011
 5107SOL    HW116220   4.335   0.649   0.972
 5107SOL    HW216221   4.395   0.797   1.009
 5108SOL     OW16222   2.963   3.774   4.393
 5108SOL    HW116223   2.890   3.842   4.391
 5108SOL    HW216224   2.960   3.725   4.480
 5109SOL     OW16225   1.369   0.625   0.965
 5109SOL    HW116226   1.359   0.606   1.062
 5109SOL    HW216227   1.347   0.543   0.912
 5110SOL     OW16228   0.605   0.582   6.705
 5110SOL    HW116229   0.604   0.520   6.627
 5110SOL    HW216230   0.648   0.536   6.783
 5111SOL     OW16231   2.035   0.941   5.547
 5111SOL    HW116232   1.995   1.027   5.580
 5111SOL    HW216233   2.098   0.960   5.473
 5112SOL     OW16234   1.076   0.005   2.454
 5112SOL    HW116235   1.113   6.942   2.451
 5112SOL    HW216236   1.101   0.048   2.541
 5113SOL     OW16237   2.218   0.220   2.137
 5113SOL    HW116238   2.217   0.126   2.102
 5113SOL    HW216239   2.307   0.240   2.176
 5114SOL     OW16240   3.432   2.463   0.147
 5114SOL    HW116241   3.358   2.508   0.197
 5114SOL    HW216242   3.484   2.532   0.096
 5115SOL     OW16243   2.211   5.078   4.721
 5115SOL    HW116244   2.148   5.014   4.678
 5115SOL    HW216245   2.192   5.171   4.687
 5116SOL     OW16246   5.681   6.679   6.727
 5116SOL    HW116247   5.618   6.604   6.746
 5116SOL    HW216248   5.655   6.759   6.781
 5117SOL     OW16249   1.976   4.591   4.562
 5117SOL    HW116250   1.952   4.546   4.475
 5117SOL    HW216251   2.037   4.532   4.614
 5118SOL     OW16252   4.380   0.262   0.658
 5118SOL    HW116253   4.335   0.341   0.615
 5118SOL    HW216254   4.325   0.231   0.736
 5119SOL     OW16255   5.289   0.999   1.842
 5119SOL    HW116256   5.193   1.009   1.816
 5119SOL    HW216257   5.301   0.911   1.889
 5120SOL     OW16258   4.240   1.290   3.571
 5120SOL    HW116259   4.323   1.277   3.516
 5120SOL    HW216260   4.164   1.318   3.511
 5121SOL     OW16261   2.267   2.491   6.877
 5121SOL    HW116262   2.308   2.402   6.895
 5121SOL    HW216263   2.168   2.483   6.878
 5122SOL     OW16264   3.239   0.359   3.945
 5122SOL    HW116265   3.313   0.327   3.886
 5122SOL    HW216266   3.160   0.384   3.889
 5123SOL     OW16267   6.031   2.292   4.809
 5123SOL    HW116268   6.092   2.215   4.828
 5123SOL    HW216269   6.081   2.362   4.757
 5124SOL     OW16270   2.888   5.362   4.726
 5124SOL    HW116271   2.908   5.272   4.765
 5124SOL    HW216272   2.819   5.407   4.783
 5125SOL     OW16273   6.098   3.077   4.195
 5125SOL    HW116274   6.021   3.103   4.254
 5125SOL    HW216275   6.125   3.156   4.139
 5126SOL     OW16276   6.198   5.401   6.317
 5126SOL    HW116277   6.150   5.477   6.274
 5126SOL    HW216278   6.142   5.319   6.312
 5127SOL     OW16279   6.844   3.915   0.531
 5127SOL    HW116280   6.898   3.984   0.483
 5127SOL    HW216281   6.765   3.957   0.573
 5128SOL     OW16282   0.056   6.694   6.791
 5128SOL    HW116283   0.115   6.759   6.743
 5128SOL    HW216284   0.045   6.722   6.886
 5129SOL     OW16285   4.530   0.357   2.992
 5129SOL    HW116286   4.449   0.412   2.974
 5129SOL    HW216287   4.503   0.263   3.014
 5130SOL     OW16288   1.600   6.172   4.389
 5130SOL    HW116289   1.640   6.264   4.388
 5130SOL    HW216290   1.576   6.148   4.483
 5131SOL     OW16291   2.898   4.770   3.585
 5131SOL    HW116292   2.892   4.757   3.486
 5131SOL    HW216293   2.839   4.846   3.612
 5132SOL     OW16294   3.619   1.129   6.183
 5132SOL    HW116295   3.710   1.089   6.177
 5132SOL    HW216296   3.591   1.135   6.279
 5133SOL     OW16297   2.589   5.554   6.649
 5133SOL    HW116298   2.531   5.575   6.728
 5133SOL    HW216299   2.619   5.638   6.606
 5134SOL     OW16300   6.946   0.126   2.712
 5134SOL    HW116301   6.921   0.118   2.616
 5134SOL    HW216302   6.906   0.050   2.763
 5135SOL     OW16303   5.390   3.566   4.214
 5135SOL    HW116304   5.308   3.554   4.159
 5135SOL    HW216305   5.365   3.593   4.307
 5136SOL     OW16306   5.702   0.656   5.896
 5136SOL    HW116307   5.792   0.700   5.899
 5136SOL    HW216308   5.639   0.712   5.842
 5137SOL     OW16309   5.474   3.461   5.216
 5137SOL    HW116310   5.388   3.512   5.228
 5137SOL    HW216311   5.529   3.506   5.146
 5138SOL     OW16312   3.482   4.018   4.681
 5138SOL    HW116313   3.431   4.086   4.628
 5138SOL    HW216314   3.420   3.973   4.745
 5139SOL     OW16315   0.747   0.109   4.480
 5139SOL    HW116316   0.707   0.134   4.392
 5139SOL    HW216317   0.675   0.095   4.547
 5140SOL     OW16318   4.121   2.448   5.656
 5140SOL    HW116319   4.095   2.359   5.616
 5140SOL    HW216320   4.084   2.521   5.599
 5141SOL     OW16321   6.668   3.673   1.009
 5141SOL    HW116322   6.728   3.738   0.963
 5141SOL    HW216323   6.644   3.709   1.100
 5142SOL     OW16324   5.290   6.567   5.049
 5142SOL    HW116325   5.192   6.555   5.063
 5142SOL    HW216326   5.307   6.655   5.004
 5143SOL     OW16327   0.908   4.298   4.941
 5143SOL    HW116328   0.878   4.202   4.943
 5143SOL    HW216329   1.004   4.303   4.965
 5144SOL     OW16330   1.969   4.363   6.098
 5144SOL    HW116331   1.916   4.447   6.111
 5144SOL    HW216332   2.008   4.362   6.006
 5145SOL     OW16333   4.124   6.190   6.306
 5145SOL    HW116334   4.088   6.277   6.271
 5145SOL    HW216335   4.049   6.125   6.319
 5146SOL     OW16336   3.793   4.312   5.257
 5146SOL    HW116337   3.760   4.231   5.208
 5146SOL    HW216338   3.892   4.306   5.269
 5147SOL     OW16339   6.178   4.803   3.310
 5147SOL    HW116340   6.117   4.850   3.246
 5147SOL    HW216341   6.191   4.859   3.391
 5148SOL     OW16342   0.616   1.360   1.820
 5148SOL    HW116343   0.644   1.281   1.875
 5148SOL    HW216344   0.590   1.435   1.881
 5149SOL     OW16345   5.936   5.932   4.770
 5149SOL    HW116346   5.977   5.993   4.702
 5149SOL    HW216347   5.893   5.854   4.723
 5150SOL     OW16348   1.931   4.367   3.897
 5150SOL    HW116349   1.948   4.465   3.894
 5150SOL    HW216350   1.869   4.341   3.824
 5151SOL     OW16351   6.561   4.011   2.243
 5151SOL    HW116352   6.617   4.087   2.278
 5151SOL    HW216353   6.611   3.964   2.170
 5152SOL     OW16354   2.021   5.625   6.600
 5152SOL    HW116355   2.073   5.703   6.636
 5152SOL    HW216356   2.064   5.594   6.515
 5153SOL     OW16357   0.446   2.301   0.972
 5153SOL    HW116358   0.401   2.221   0.934
 5153SOL    HW216359   0.535   2.313   0.928
 5154SOL     OW16360   1.333   2.601   5.965
 5154SOL    HW116361   1.426   2.619   5.933
 5154SOL    HW216362   1.307   2.669   6.032
 5155SOL     OW16363   3.891   0.866   1.670
 5155SOL    HW116364   3.794   0.865   1.691
 5155SOL    HW216365   3.944   0.853   1.754
 5156SOL     OW16366   5.896   4.847   4.960
 5156SOL    HW116367   5.992   4.821   4.971
 5156SOL    HW216368   5.844   4.768   4.928
 5157SOL     OW16369   3.241   2.121   2.317
 5157SOL    HW116370   3.331   2.084   2.291
 5157SOL    HW216371   3.170   2.060   2.283
 5158SOL     OW16372   4.124   2.654   0.891
 5158SOL    HW116373   4.138   2.569   0.840
 5158SOL    HW216374   4.179   2.652   0.974
 5159SOL     OW16375   5.872   3.572   6.192
 5159SOL    HW116376   5.781   3.533   6.209
 5159SOL    HW216377   5.942   3.503   6.210
 5160SOL     OW16378   0.178   5.212   3.260
 5160SOL    HW116379   0.214   5.269   3.185
 5160SOL    HW216380   0.228   5.232   3.344
 5161SOL     OW16381   1.417   3.691   0.161
 5161SOL    HW116382   1.331   3.736   0.187
 5161SOL    HW216383   1.453   3.640   0.239
 5162SOL     OW16384   0.990   5.307   2.665
 5162SOL    HW116385   0.976   5.222   2.614
 5162SOL    HW216386   1.043   5.371   2.609
 5163SOL     OW16387   3.483   6.499   0.602
 5163SOL    HW116388   3.546   6.522   0.527
 5163SOL    HW216389   3.523   6.427   0.658
 5164SOL     OW16390   3.301   3.066   6.466
 5164SOL    HW116391   3.213   3.022   6.480
 5164SOL    HW216392   3.371   3.023   6.522
 5165SOL     OW16393   0.746   4.314   6.262
 5165SOL    HW116394   0.837   4.310   6.220
 5165SOL    HW216395   0.711   4.221   6.274
 5166SOL     OW16396   1.834   5.176   2.461
 5166SOL    HW116397   1.835   5.155   2.559
 5166SOL    HW216398   1.740   5.195   2.432
 5167SOL     OW16399   6.439   4.183   4.833
 5167SOL    HW116400   6.372   4.179   4.908
 5167SOL    HW216401   6.464   4.090   4.807
 5168SOL     OW16402   5.199   2.900   2.911
 5168SOL    HW116403   5.170   2.863   2.999
 5168SOL    HW216404   5.119   2.914   2.852
 5169SOL     OW16405   4.214   2.017   3.680
 5169SOL    HW116406   4.264   2.026   3.594
 5169SOL    HW216407   4.181   1.923   3.690
 5170SOL     OW16408   1.430   3.599   5.108
 5170SOL    HW116409   1.511   3.560   5.064
 5170SOL    HW216410   1.432   3.580   5.206
 5171SOL     OW16411   6.697   4.508   5.922
 5171SOL    HW116412   6.698   4.408   5.919
 5171SOL    HW216413   6.790   4.542   5.910
 5172SOL     OW16414   1.529   4.270   3.141
 5172SOL    HW116415   1.629   4.275   3.141
 5172SOL    HW216416   1.501   4.176   3.123
 5173SOL     OW16417   4.401   5.149   5.202
 5173SOL    HW116418   4.499   5.132   5.205
 5173SOL    HW216419   4.367   5.134   5.110
 5174SOL     OW16420   2.199   5.136   3.831
 5174SOL    HW116421   2.175   5.220   3.782
 5174SOL    HW216422   2.287   5.102   3.799
 5175SOL     OW16423   2.673   4.029   6.948
 5175SOL    HW116424   2.684   4.125   6.974
 5175SOL    HW216425   2.679   3.972   7.029
 5176SOL     OW16426   4.896   4.636   6.203
 5176SOL    HW116427   4.891   4.555   6.261
 5176SOL    HW216428   4.988   4.643   6.165
 5177SOL     OW16429   4.515   6.674   0.888
 5177SOL    HW116430   4.431   6.618   0.884
 5177SOL    HW216431   4.495   6.765   0.853
 5178SOL     OW16432   1.585   4.502   1.957
 5178SOL    HW116433   1.670   4.534   1.917
 5178SOL    HW216434   1.528   4.580   1.982
 5179SOL     OW16435   4.974   4.191   4.378
 5179SOL    HW116436   4.945   4.095   4.382
 5179SOL    HW216437   4.895   4.250   4.394
 5180SOL     OW16438   3.554   0.945   1.402
 5180SOL    HW116439   3.473   0.900   1.363
 5180SOL    HW216440   3.527   1.004   1.477
 5181SOL     OW16441   6.322   0.325   1.794
 5181SOL    HW116442   6.386   0.365   1.729
 5181SOL    HW216443   6.366   0.249   1.842
 5182SOL     OW16444   4.659   4.472   2.137
 5182SOL    HW116445   4.748   4.497   2.100
 5182SOL    HW216446   4.621   4.396   2.084
 5183SOL     OW16447   3.951   1.995   2.422
 5183SOL    HW116448   3.882   2.044   2.370
 5183SOL    HW216449   3.911   1.958   2.506
 5184SOL     OW16450   2.238   1.918   3.395
 5184SOL    HW116451   2.232   1.834   3.449
 5184SOL    HW216452   2.261   1.895   3.300
 5185SOL     OW16453   5.256   0.491   2.637
 5185SOL    HW116454   5.197   0.425   2.684
 5185SOL    HW216455   5.311   0.541   2.704
 5186SOL     OW16456   6.032   2.611   6.724
 5186SOL    HW116457   5.997   2.563   6.644
 5186SOL    HW216458   6.052   2.706   6.701
 5187SOL     OW16459   1.118   5.636   5.145
 5187SOL    HW116460   1.080   5.727   5.162
 5187SOL    HW216461   1.192   5.644   5.077
 5188SOL     OW16462   5.916   6.172   1.858
 5188SOL    HW116463   5.948   6.231   1.784
 5188SOL    HW216464   5.918   6.077   1.828
 5189SOL     OW16465   4.975   5.967   0.318
 5189SOL    HW116466   5.045   5.951   0.249
 5189SOL    HW216467   5.006   6.037   0.382
 5190SOL     OW16468   0.625   3.855   3.638
 5190SOL    HW116469   0.720   3.824   3.648
 5190SOL    HW216470   0.589   3.823   3.551
 5191SOL     OW16471   3.404   6.015   2.330
 5191SOL    HW116472   3.406   6.108   2.368
 5191SOL    HW216473   3.365   5.953   2.398
 5192SOL     OW16474   1.446   5.893   1.199
 5192SOL    HW116475   1.484   5.810   1.239
 5192SOL    HW216476   1.472   5.972   1.254
 5193SOL     OW16477   4.929   6.012   5.925
 5193SOL    HW116478   4.863   6.068   5.874
 5193SOL    HW216479   5.019   6.020   5.883
 5194SOL     OW16480   3.821   2.216   6.867
 5194SOL    HW116481   3.913   2.243   6.841
 5194SOL    HW216482   3.805   2.239   6.963
 5195SOL     OW16483   0.405   0.699   4.541
 5195SOL    HW116484   0.346   0.619   4.551
 5195SOL    HW216485   0.371   0.756   4.467
 5196SOL     OW16486   4.869   6.819   2.283
 5196SOL    HW116487   4.826   6.730   2.296
 5196SOL    HW216488   4.809   6.891   2.319
 5197SOL     OW16489   1.614   3.914   6.633
 5197SOL    HW116490   1.588   3.828   6.678
 5197SOL    HW216491   1.701   3.901   6.586
 5198SOL     OW16492   4.720   5.450   3.180
 5198SOL    HW116493   4.631   5.407   3.164
 5198SOL    HW216494   4.737   5.456   3.278
 5199SOL     OW16495   0.897   5.717   0.867
 5199SOL    HW116496   0.981   5.737   0.816
 5199SOL    HW216497   0.818   5.723   0.805
 5200SOL     OW16498   0.035   3.522   4.944
 5200SOL    HW116499   6.989   3.532   5.009
 5200SOL    HW216500   0.086   3.607   4.940
 5201SOL     OW16501   1.108   6.928   2.933
 5201SOL    HW116502   1.192   6.971   2.965
 5201SOL    HW216503   1.131   6.843   2.885
 5202SOL     OW16504   5.032   3.227   6.565
 5202SOL    HW116505   4.935   3.209   6.553
 5202SOL    HW216506   5.085   3.160   6.513
 5203SOL     OW16507   2.168   1.986   6.494
 5203SOL    HW116508   2.219   1.900   6.503
 5203SOL    HW216509   2.117   2.003   6.579
 5204SOL     OW16510   3.751   4.987   0.388
 5204SOL    HW116511   3.720   4.923   0.318
 5204SOL    HW216512   3.752   4.941   0.477
 5205SOL     OW16513   1.659   6.628   1.039
 5205SOL    HW116514   1.752   6.635   1.003
 5205SOL    HW216515   1.622   6.538   1.020
 5206SOL     OW16516   0.541   4.348   5.181
 5206SOL    HW116517   0.504   4.418   5.120
 5206SOL    HW216518   0.554   4.263   5.131
 5207SOL     OW16519   0.881   6.026   3.746
 5207SOL    HW116520   0.848   6.118   3.765
 5207SOL    HW216521   0.806   5.961   3.757
 5208SOL     OW16522   3.961   1.995   6.732
 5208SOL    HW116523   3.963   2.074   6.671
 5208SOL    HW216524   4.053   1.955   6.739
 5209SOL     OW16525   5.509   5.794   3.831
 5209SOL    HW116526   5.535   5.882   3.791
 5209SOL    HW216527   5.545   5.720   3.775
 5210SOL     OW16528   5.931   2.496   5.266
 5210SOL    HW116529   5.913   2.459   5.175
 5210SOL    HW216530   5.855   2.473   5.327
 5211SOL     OW16531   3.670   2.944   4.990
 5211SOL    HW116532   3.666   2.864   5.049
 5211SOL    HW216533   3.717   3.019   5.037
 5212SOL     OW16534   6.342   1.341   0.584
 5212SOL    HW116535   6.269   1.329   0.517
 5212SOL    HW216536   6.334   1.272   0.655
 5213SOL     OW16537   5.300   4.042   6.581
 5213SOL    HW116538   5.295   4.105   6.503
 5213SOL    HW216539   5.340   3.955   6.550
 5214SOL     OW16540   4.975   1.521   6.176
 5214SOL    HW116541   5.001   1.608   6.218
 5214SOL    HW216542   5.000   1.446   6.238
 5215SOL     OW16543   5.901   4.968   3.498
 5215SOL    HW116544   5.997   4.971   3.525
 5215SOL    HW216545   5.845   4.940   3.576
 5216SOL     OW16546   4.272   5.105   1.590
 5216SOL    HW116547   4.248   5.185   1.645
 5216SOL    HW216548   4.253   5.022   1.642
 5217SOL     OW16549   3.419   5.499   3.854
 5217SOL    HW116550   3.416   5.405   3.886
 5217SOL    HW216551   3.331   5.542   3.868
 5218SOL     OW16552   1.189   0.713   3.360
 5218SOL    HW116553   1.109   0.769   3.381
 5218SOL    HW216554   1.191   0.695   3.262
 5219SOL     OW16555   3.875   0.501   5.726
 5219SOL    HW116556   3.840   0.456   5.643
 5219SOL    HW216557   3.944   0.568   5.699
 5220SOL     OW16558   1.745   5.707   2.688
 5220SOL    HW116559   1.785   5.618   2.668
 5220SOL    HW216560   1.654   5.694   2.728
 5221SOL     OW16561   5.615   2.098   3.899
 5221SOL    HW116562   5.665   2.111   3.814
 5221SOL    HW216563   5.562   2.013   3.894
 5222SOL     OW16564   2.531   6.838   3.226
 5222SOL    HW116565   2.550   6.758   3.169
 5222SOL    HW216566   2.472   6.901   3.176
 5223SOL     OW16567   5.600   0.566   1.271
 5223SOL    HW116568   5.679   0.623   1.294
 5223SOL    HW216569   5.624   0.470   1.278
 5224SOL     OW16570   0.296   2.206   3.997
 5224SOL    HW116571   0.338   2.116   4.005
 5224SOL    HW216572   0.305   2.255   4.084
 5225SOL     OW16573   6.735   0.237   3.250
 5225SOL    HW116574   6.698   0.316   3.299
 5225SOL    HW216575   6.832   0.226   3.273
 5226SOL     OW16576   0.558   5.817   5.138
 5226SOL    HW116577   0.579   5.821   5.236
 5226SOL    HW216578   0.474   5.868   5.119
 5227SOL     OW16579   1.285   4.940   3.890
 5227SOL    HW116580   1.358   4.949   3.822
 5227SOL    HW216581   1.207   4.997   3.863
 5228SOL     OW16582   6.401   2.237   1.009
 5228SOL    HW116583   6.417   2.241   0.911
 5228SOL    HW216584   6.414   2.328   1.049
 5229SOL     OW16585   1.521   3.950   0.204
 5229SOL    HW116586   1.458   3.979   0.277
 5229SOL    HW216587   1.495   3.858   0.174
 5230SOL     OW16588   0.400   6.742   1.423
 5230SOL    HW116589   0.466   6.813   1.451
 5230SOL    HW216590   0.320   6.785   1.383
 5231SOL     OW16591   3.960   3.447   4.905
 5231SOL    HW116592   3.880   3.419   4.852
 5231SOL    HW216593   3.938   3.529   4.958
 5232SOL     OW16594   3.317   1.979   5.895
 5232SOL    HW116595   3.258   2.047   5.852
 5232SOL    HW216596   3.330   2.002   5.992
 5233SOL     OW16597   5.803   0.228   1.694
 5233SOL    HW116598   5.889   0.188   1.664
 5233SOL    HW216599   5.774   0.299   1.629
 5234SOL     OW16600   2.146   0.239   6.822
 5234SOL    HW116601   2.110   0.307   6.886
 5234SOL    HW216602   2.199   0.285   6.751
 5235SOL     OW16603   2.395   2.869   1.340
 5235SOL    HW116604   2.310   2.908   1.376
 5235SOL    HW216605   2.422   2.791   1.396
 5236SOL     OW16606   5.716   3.506   2.320
 5236SOL    HW116607   5.658   3.530   2.397
 5236SOL    HW216608   5.661   3.500   2.237
 5237SOL     OW16609   2.657   0.818   5.741
 5237SOL    HW116610   2.729   0.750   5.758
 5237SOL    HW216611   2.693   0.890   5.682
 5238SOL     OW16612   1.458   4.864   0.549
 5238SOL    HW116613   1.518   4.874   0.470
 5238SOL    HW216614   1.461   4.947   0.604
 5239SOL     OW16615   4.082   3.800   4.443
 5239SOL    HW116616   4.016   3.844   4.504
 5239SOL    HW216617   4.172   3.798   4.487
 5240SOL     OW16618   2.924   1.828   6.449
 5240SOL    HW116619   3.015   1.859   6.421
 5240SOL    HW216620   2.855   1.875   6.394
 5241SOL     OW16621   1.393   5.374   6.494
 5241SOL    HW116622   1.301   5.375   6.533
 5241SOL    HW216623   1.421   5.467   6.469
 5242SOL     OW16624   0.049   6.820   5.694
 5242SOL    HW116625   7.012   6.749   5.674
 5242SOL    HW216626   0.105   6.838   5.613
 5243SOL     OW16627   1.011   5.663   1.424
 5243SOL    HW116628   1.054   5.739   1.374
 5243SOL    HW216629   0.959   5.700   1.501
 5244SOL     OW16630   3.600   4.289   5.922
 5244SOL    HW116631   3.509   4.327   5.906
 5244SOL    HW216632   3.591   4.201   5.969
 5245SOL     OW16633   4.543   4.766   6.981
 5245SOL    HW116634   4.563   4.669   6.995
 5245SOL    HW216635   4.500   4.803   0.034
 5246SOL     OW16636   5.705   4.698   2.749
 5246SOL    HW116637   5.658   4.749   2.821
 5246SOL    HW216638   5.785   4.651   2.788
 5247SOL     OW16639   1.552   6.178   0.595
 5247SOL    HW116640   1.646   6.143   0.593
 5247SOL    HW216641   1.545   6.260   0.540
 5248SOL     OW16642   6.053   6.973   4.718
 5248SOL    HW116643   6.024   6.886   4.678
 5248SOL    HW216644   6.033   0.017   4.654
 5249SOL     OW16645   0.733   5.185   4.853
 5249SOL    HW116646   0.726   5.238   4.937
 5249SOL    HW216647   0.823   5.141   4.849
 5250SOL     OW16648   0.630   1.043   5.813
 5250SOL    HW116649   0.706   1.105   5.832
 5250SOL    HW216650   0.647   0.954   5.856
 5251SOL     OW16651   0.447   3.408   1.038
 5251SOL    HW116652   0.509   3.468   1.088
 5251SOL    HW216653   0.453   3.315   1.076
 5252SOL     OW16654   1.995   5.570   1.049
 5252SOL    HW116655   2.073   5.508   1.039
 5252SOL    HW216656   1.938   5.567   0.967
 5253SOL     OW16657   6.254   4.122   5.102
 5253SOL    HW116658   6.347   4.144   5.132
 5253SOL    HW216659   6.251   4.028   5.067
 5254SOL     OW16660   5.376   1.136   3.820
 5254SOL    HW116661   5.423   1.061   3.773
 5254SOL    HW216662   5.336   1.198   3.753
 5255SOL     OW16663   4.526   0.404   5.795
 5255SOL    HW116664   4.553   0.370   5.885
 5255SOL    HW216665   4.592   0.373   5.727
 5256SOL     OW16666   4.643   0.654   3.488
 5256SOL    HW116667   4.573   0.686   3.425
 5256SOL    HW216668   4.606   0.648   3.580
 5257SOL     OW16669   4.701   6.987   2.400
 5257SOL    HW116670   4.625   7.017   2.344
 5257SOL    HW216671   4.757   0.036   2.427
 5258SOL     OW16672   5.177   3.228   1.293
 5258SOL    HW116673   5.082   3.197   1.301
 5258SOL    HW216674   5.202   3.232   1.196
 5259SOL     OW16675   4.373   5.943   1.043
 5259SOL    HW116676   4.470   5.969   1.038
 5259SOL    HW216677   4.325   6.006   1.103
 5260SOL     OW16678   5.671   3.444   1.374
 5260SOL    HW116679   5.771   3.446   1.367
 5260SOL    HW216680   5.639   3.532   1.409
 5261SOL     OW16681   1.631   3.101   6.196
 5261SOL    HW116682   1.638   3.107   6.096
 5261SOL    HW216683   1.538   3.072   6.221
 5262SOL     OW16684   3.133   0.475   2.529
 5262SOL    HW116685   3.227   0.441   2.538
 5262SOL    HW216686   3.120   0.553   2.589
 5263SOL     OW16687   1.051   1.066   5.308
 5263SOL    HW116688   0.982   1.122   5.262
 5263SOL    HW216689   1.052   1.088   5.406
 5264SOL     OW16690   6.749   0.426   2.468
 5264SOL    HW116691   6.704   0.461   2.550
 5264SOL    HW216692   6.839   0.468   2.458
 5265SOL     OW16693   4.979   4.532   3.176
 5265SOL    HW116694   4.949   4.570   3.089
 5265SOL    HW216695   4.908   4.547   3.245
 5266SOL     OW16696   2.744   0.643   2.444
 5266SOL    HW116697   2.677   0.676   2.378
 5266SOL    HW216698   2.698   0.613   2.528
 5267SOL     OW16699   4.749   4.657   5.753
 5267SOL    HW116700   4.696   4.601   5.818
 5267SOL    HW216701   4.731   4.754   5.771
 5268SOL     OW16702   5.908   6.445   5.667
 5268SOL    HW116703   5.909   6.355   5.624
 5268SOL    HW216704   6.001   6.479   5.676
 5269SOL     OW16705   2.117   6.784   4.072
 5269SOL    HW116706   2.068   6.731   4.141
 5269SOL    HW216707   2.107   6.881   4.091
 5270SOL     OW16708   5.016   1.533   1.946
 5270SOL    HW116709   5.113   1.556   1.953
 5270SOL    HW216710   5.000   1.444   1.987
 5271SOL     OW16711   4.750   5.264   4.742
 5271SOL    HW116712   4.788   5.290   4.831
 5271SOL    HW216713   4.774   5.168   4.723
 5272SOL     OW16714   2.182   5.808   2.939
 5272SOL    HW116715   2.092   5.835   2.906
 5272SOL    HW216716   2.218   5.879   3.000
 5273SOL     OW16717   0.318   3.450   3.373
 5273SOL    HW116718   0.288   3.500   3.455
 5273SOL    HW216719   0.284   3.356   3.377
 5274SOL     OW16720   6.145   5.600   2.223
 5274SOL    HW116721   6.093   5.544   2.287
 5274SOL    HW216722   6.084   5.638   2.154
 5275SOL     OW16723   4.009   1.224   6.280
 5275SOL    HW116724   4.104   1.211   6.309
 5275SOL    HW216725   3.974   1.140   6.240
 5276SOL     OW16726   1.196   6.908   1.245
 5276SOL    HW116727   1.130   6.837   1.270
 5276SOL    HW216728   1.250   6.877   1.166
 5277SOL     OW16729   1.955   2.720   2.909
 5277SOL    HW116730   1.906   2.779   2.973
 5277SOL    HW216731   1.970   2.630   2.951
 5278SOL     OW16732   5.020   6.957   4.229
 5278SOL    HW116733   5.051   0.014   4.189
 5278SOL    HW216734   5.093   6.889   4.220
 5279SOL     OW16735   1.590   5.546   6.830
 5279SOL    HW116736   1.681   5.529   6.791
 5279SOL    HW216737   1.560   5.465   6.880
 5280SOL     OW16738   2.684   5.886   5.808
 5280SOL    HW116739   2.623   5.953   5.850
 5280SOL    HW216740   2.630   5.810   5.771
 5281SOL     OW16741   0.978   1.549   3.392
 5281SOL    HW116742   1.035   1.625   3.421
 5281SOL    HW216743   0.914   1.525   3.465
 5282SOL     OW16744   1.808   1.443   2.715
 5282SOL    HW116745   1.908   1.438   2.708
 5282SOL    HW216746   1.782   1.451   2.811
 5283SOL     OW16747   2.840   0.267   2.403
 5283SOL    HW116748   2.741   0.277   2.412
 5283SOL    HW216749   2.878   0.350   2.363
 5284SOL     OW16750   4.970   2.958   2.764
 5284SOL    HW116751   4.942   3.052   2.744
 5284SOL    HW216752   4.948   2.899   2.686
 5285SOL     OW16753   1.219   4.158   4.401
 5285SOL    HW116754   1.180   4.194   4.485
 5285SOL    HW216755   1.318   4.146   4.412
 5286SOL     OW16756   6.766   4.012   1.309
 5286SOL    HW116757   6.857   3.975   1.296
 5286SOL    HW216758   6.772   4.111   1.325
 5287SOL     OW16759   1.629   5.947   1.580
 5287SOL    HW116760   1.664   5.861   1.619
 5287SOL    HW216761   1.596   6.006   1.653
 5288SOL     OW16762   3.714   1.066   2.354
 5288SOL    HW116763   3.703   1.157   2.395
 5288SOL    HW216764   3.668   1.064   2.265
 5289SOL     OW16765   1.987   5.127   6.406
 5289SOL    HW116766   1.918   5.055   6.400
 5289SOL    HW216767   2.007   5.162   6.314
 5290SOL     OW16768   1.401   4.357   5.835
 5290SOL    HW116769   1.319   4.307   5.862
 5290SOL    HW216770   1.376   4.452   5.814
 5291SOL     OW16771   2.868   4.848   5.998
 5291SOL    HW116772   2.846   4.849   6.096
 5291SOL    HW216773   2.967   4.851   5.986
 5292SOL     OW16774   6.193   4.890   6.604
 5292SOL    HW116775   6.273   4.865   6.549
 5292SOL    HW216776   6.114   4.901   6.545
 5293SOL     OW16777   1.159   0.122   4.243
 5293SOL    HW116778   1.194   0.105   4.335
 5293SOL    HW216779   1.183   0.045   4.183
 5294SOL     OW16780   5.785   2.979   4.876
 5294SOL    HW116781   5.852   3.051   4.888
 5294SOL    HW216782   5.784   2.920   4.957
 5295SOL     OW16783   3.859   1.089   2.850
 5295SOL    HW116784   3.808   1.134   2.923
 5295SOL    HW216785   3.847   1.139   2.765
 5296SOL     OW16786   2.975   5.250   0.044
 5296SOL    HW116787   2.894   5.291   0.003
 5296SOL    HW216788   3.025   5.319   0.096
 5297SOL     OW16789   2.307   2.441   0.662
 5297SOL    HW116790   2.382   2.417   0.600
 5297SOL    HW216791   2.226   2.388   0.638
 5298SOL     OW16792   1.132   6.064   0.363
 5298SOL    HW116793   1.160   5.970   0.345
 5298SOL    HW216794   1.060   6.091   0.298
 5299SOL     OW16795   2.180   3.207   0.594
 5299SOL    HW116796   2.181   3.257   0.507
 5299SOL    HW216797   2.241   3.128   0.588
 5300SOL     OW16798   0.715   5.916   1.240
 5300SOL    HW116799   0.719   5.877   1.331
 5300SOL    HW216800   0.804   5.955   1.216
 5301SOL     OW16801   3.414   2.223   6.660
 5301SOL    HW116802   3.360   2.218   6.745
 5301SOL    HW216803   3.356   2.198   6.583
 5302SOL     OW16804   5.932   5.766   4.126
 5302SOL    HW116805   5.931   5.715   4.040
 5302SOL    HW216806   5.852   5.741   4.181
 5303SOL     OW16807   6.580   5.664   3.486
 5303SOL    HW116808   6.635   5.736   3.528
 5303SOL    HW216809   6.538   5.699   3.403
 5304SOL     OW16810   5.373   1.327   0.018
 5304SOL    HW116811   5.302   1.359   6.985
 5304SOL    HW216812   5.333   1.309   0.108
 5305SOL     OW16813   0.699   5.150   2.782
 5305SOL    HW116814   0.756   5.115   2.856
 5305SOL    HW216815   0.747   5.140   2.695
 5306SOL     OW16816   1.176   4.351   5.063
 5306SOL    HW116817   1.185   4.437   5.015
 5306SOL    HW216818   1.264   4.304   5.066
 5307SOL     OW16819   4.615   1.815   0.445
 5307SOL    HW116820   4.654   1.904   0.471
 5307SOL    HW216821   4.521   1.828   0.413
 5308SOL     OW16822   0.665   5.769   3.813
 5308SOL    HW116823   0.733   5.758   3.885
 5308SOL    HW216824   0.573   5.763   3.853
 5309SOL     OW16825   4.530   4.528   1.279
 5309SOL    HW116826   4.441   4.566   1.254
 5309SOL    HW216827   4.526   4.490   1.372
 5310SOL     OW16828   6.347   3.680   2.138
 5310SOL    HW116829   6.440   3.716   2.130
 5310SOL    HW216830   6.351   3.581   2.149
 5311SOL     OW16831   6.390   5.844   6.804
 5311SOL    HW116832   6.299   5.801   6.799
 5311SOL    HW216833   6.441   5.825   6.720
 5312SOL     OW16834   6.894   5.365   1.840
 5312SOL    HW116835   6.823   5.357   1.770
 5312SOL    HW216836   6.970   5.418   1.803
 5313SOL     OW16837   1.415   3.998   6.482
 5313SOL    HW116838   1.494   3.973   6.538
 5313SOL    HW216839   1.333   4.001   6.539
 5314SOL     OW16840   3.248   6.182   0.817
 5314SOL    HW116841   3.300   6.267   0.827
 5314SOL    HW216842   3.273   6.119   0.891
 5315SOL     OW16843   4.847   3.496   1.472
 5315SOL    HW116844   4.936   3.454   1.456
 5315SOL    HW216845   4.799   3.448   1.545
 5316SOL     OW16846   0.851   4.042   4.929
 5316SOL    HW116847   0.757   4.013   4.948
 5316SOL    HW216848   0.915   3.978   4.973
 5317SOL     OW16849   6.538   6.782   4.436
 5317SOL    HW116850   6.443   6.754   4.452
 5317SOL    HW216851   6.540   6.875   4.400
 5318SOL     OW16852   0.271   2.940   6.523
 5318SOL    HW116853   0.322   3.024   6.503
 5318SOL    HW216854   0.285   2.914   6.619
 5319SOL     OW16855   3.618   6.712   0.058
 5319SOL    HW116856   3.550   6.650   0.098
 5319SOL    HW216857   3.575   6.767   7.016
 5320SOL     OW16858   5.806   5.232   6.949
 5320SOL    HW116859   5.899   5.268   6.941
 5320SOL    HW216860   5.793   5.158   6.884
 5321SOL     OW16861   1.105   5.083   4.234
 5321SOL    HW116862   1.076   5.084   4.330
 5321SOL    HW216863   1.191   5.032   4.226
 5322SOL     OW16864   4.991   6.394   6.424
 5322SOL    HW116865   4.921   6.362   6.361
 5322SOL    HW216866   4.950   6.414   6.513
 5323SOL     OW16867   3.845   1.501   6.815
 5323SOL    HW116868   3.811   1.488   6.722
 5323SOL    HW216869   3.929   1.556   6.812
 5324SOL     OW16870   4.111   2.419   0.738
 5324SOL    HW116871   4.156   2.368   0.811
 5324SOL    HW216872   4.022   2.378   0.718
 5325SOL     OW16873   4.600   0.849   4.391
 5325SOL    HW116874   4.666   0.923   4.378
 5325SOL    HW216875   4.538   0.873   4.466
 5326SOL     OW16876   0.575   5.061   3.294
 5326SOL    HW116877   0.659   5.044   3.346
 5326SOL    HW216878   0.496   5.034   3.349
 5327SOL     OW16879   5.818   3.134   5.665
 5327SOL    HW116880   5.889   3.186   5.711
 5327SOL    HW216881   5.778   3.068   5.729
 5328SOL     OW16882   4.760   2.815   4.874
 5328SOL    HW116883   4.817   2.879   4.926
 5328SOL    HW216884   4.809   2.729   4.863
 5329SOL     OW16885   6.903   4.878   6.768
 5329SOL    HW116886   6.926   4.967   6.807
 5329SOL    HW216887   6.983   4.839   6.722
 5330SOL     OW16888   3.641   4.268   5.649
 5330SOL    HW116889   3.740   4.260   5.637
 5330SOL    HW216890   3.618   4.262   5.746
 5331SOL     OW16891   5.162   1.204   0.833
 5331SOL    HW116892   5.259   1.223   0.849
 5331SOL    HW216893   5.116   1.287   0.801
 5332SOL     OW16894   0.539   3.911   1.600
 5332SOL    HW116895   0.570   4.004   1.623
 5332SOL    HW216896   0.618   3.858   1.569
 5333SOL     OW16897   1.116   0.587   3.704
 5333SOL    HW116898   1.215   0.577   3.698
 5333SOL    HW216899   1.074   0.557   3.618
 5334SOL     OW16900   4.055   0.259   4.385
 5334SOL    HW116901   4.037   0.332   4.319
 5334SOL    HW216902   4.145   0.220   4.367
 5335SOL     OW16903   5.716   5.747   2.509
 5335SOL    HW116904   5.631   5.765   2.559
 5335SOL    HW216905   5.779   5.824   2.522
 5336SOL     OW16906   2.765   1.735   3.394
 5336SOL    HW116907   2.811   1.822   3.377
 5336SOL    HW216908   2.824   1.676   3.449
 5337SOL     OW16909   5.068   3.633   1.671
 5337SOL    HW116910   5.136   3.707   1.672
 5337SOL    HW216911   5.072   3.587   1.582
 5338SOL     OW16912   5.557   1.765   6.029
 5338SOL    HW116913   5.579   1.854   6.071
 5338SOL    HW216914   5.602   1.693   6.080
 5339SOL     OW16915   6.964   2.412   3.782
 5339SOL    HW116916   6.873   2.372   3.796
 5339SOL    HW216917   0.002   2.339   3.783
 5340SOL     OW16918   5.598   2.899   0.857
 5340SOL    HW116919   5.598   2.915   0.758
 5340SOL    HW216920   5.681   2.938   0.897
 5341SOL     OW16921   3.216   4.192   6.565
 5341SOL    HW116922   3.287   4.162   6.629
 5341SOL    HW216923   3.254   4.200   6.473
 5342SOL     OW16924   3.662   7.001   3.611
 5342SOL    HW116925   3.616   7.028   3.696
 5342SOL    HW216926   3.724   6.925   3.631
 5343SOL     OW16927   3.767   3.347   4.767
 5343SOL    HW116928   3.760   3.418   4.696
 5343SOL    HW216929   3.676   3.328   4.804
 5344SOL     OW16930   2.639   2.090   2.086
 5344SOL    HW116931   2.729   2.102   2.044
 5344SOL    HW216932   2.640   2.010   2.145
 5345SOL     OW16933   3.790   6.620   1.429
 5345SOL    HW116934   3.699   6.660   1.420
 5345SOL    HW216935   3.811   6.605   1.525
 5346SOL     OW16936   3.486   5.686   4.271
 5346SOL    HW116937   3.545   5.661   4.194
 5346SOL    HW216938   3.469   5.785   4.269
 5347SOL     OW16939   0.031   2.404   1.688
 5347SOL    HW116940   6.979   2.458   1.663
 5347SOL    HW216941   0.112   2.448   1.650
 5348SOL     OW16942   6.863   1.973   0.962
 5348SOL    HW116943   6.803   1.985   0.884
 5348SOL    HW216944   6.920   2.054   0.974
 5349SOL     OW16945   2.044   2.466   0.078
 5349SOL    HW116946   1.980   2.493   0.150
 5349SOL    HW216947   1.994   2.456   7.021
 5350SOL     OW16948   2.022   7.001   5.511
 5350SOL    HW116949   2.055   0.022   5.432
 5350SOL    HW216950   1.989   6.911   5.482
 5351SOL     OW16951   6.918   5.231   2.322
 5351SOL    HW116952   6.912   5.309   2.259
 5351SOL    HW216953   7.005   5.235   2.372
 5352SOL     OW16954   2.412   5.061   3.292
 5352SOL    HW116955   2.371   4.970   3.282
 5352SOL    HW216956   2.463   5.065   3.378
 5353SOL     OW16957   4.080   5.067   4.089
 5353SOL    HW116958   4.127   5.097   4.172
 5353SOL    HW216959   4.144   5.018   4.030
 5354SOL     OW16960   2.578   5.217   2.188
 5354SOL    HW116961   2.607   5.128   2.224
 5354SOL    HW216962   2.641   5.288   2.219
 5355SOL     OW16963   0.001   4.194   4.044
 5355SOL    HW116964   6.952   4.242   4.005
 5355SOL    HW216965   0.075   4.189   3.977
 5356SOL     OW16966   6.041   4.735   2.119
 5356SOL    HW116967   5.997   4.648   2.142
 5356SOL    HW216968   6.077   4.777   2.202
 5357SOL     OW16969   3.020   5.928   0.541
 5357SOL    HW116970   3.026   6.019   0.582
 5357SOL    HW216971   3.017   5.859   0.613
 5358SOL     OW16972   4.813   0.982   0.178
 5358SOL    HW116973   4.787   1.040   0.255
 5358SOL    HW216974   4.900   0.937   0.199
 5359SOL     OW16975   1.386   1.212   5.481
 5359SOL    HW116976   1.482   1.220   5.454
 5359SOL    HW216977   1.329   1.269   5.422
 5360SOL     OW16978   3.650   6.577   4.826
 5360SOL    HW116979   3.717   6.634   4.873
 5360SOL    HW216980   3.616   6.625   4.745
 5361SOL     OW16981   2.445   0.994   5.404
 5361SOL    HW116982   2.410   1.041   5.485
 5361SOL    HW216983   2.470   1.062   5.335
 5362SOL     OW16984   6.886   5.939   3.408
 5362SOL    HW116985   6.879   5.959   3.311
 5362SOL    HW216986   6.972   5.890   3.426
 5363SOL     OW16987   0.421   0.294   6.099
 5363SOL    HW116988   0.396   0.258   6.189
 5363SOL    HW216989   0.519   0.280   6.084
 5364SOL     OW16990   6.994   6.433   2.308
 5364SOL    HW116991   7.021   6.519   2.266
 5364SOL    HW216992   0.019   6.358   2.270
 5365SOL     OW16993   4.191   2.990   0.034
 5365SOL    HW116994   4.138   3.011   0.116
 5365SOL    HW216995   4.253   2.914   0.053
 5366SOL     OW16996   5.252   5.626   1.764
 5366SOL    HW116997   5.273   5.530   1.742
 5366SOL    HW216998   5.313   5.657   1.837
 5367SOL     OW16999   0.702   6.775   1.103
 5367SOL    HW117000   0.627   6.723   1.144
 5367SOL    HW217001   0.751   6.717   1.037
 5368SOL     OW17002   5.462   0.306   2.871
 5368SOL    HW117003   5.371   0.267   2.859
 5368SOL    HW217004   5.529   0.232   2.884
 5369SOL     OW17005   2.727   7.023   1.802
 5369SOL    HW117006   2.761   6.968   1.726
 5369SOL    HW217007   2.658   6.971   1.852
 5370SOL     OW17008   4.568   2.641   1.605
 5370SOL    HW117009   4.482   2.605   1.642
 5370SOL    HW217010   4.625   2.675   1.680
 5371SOL     OW17011   0.914   3.777   5.472
 5371SOL    HW117012   0.955   3.848   5.415
 5371SOL    HW217013   0.902   3.811   5.565
 5372SOL     OW17014   2.018   6.320   3.706
 5372SOL    HW117015   1.934   6.282   3.743
 5372SOL    HW217016   2.095   6.262   3.732
 5373SOL     OW17017   3.801   6.893   4.506
 5373SOL    HW117018   3.751   6.970   4.465
 5373SOL    HW217019   3.738   6.816   4.519
 5374SOL     OW17020   1.690   4.153   0.271
 5374SOL    HW117021   1.633   4.225   0.231
 5374SOL    HW217022   1.635   4.069   0.281
 5375SOL     OW17023   0.811   5.759   5.028
 5375SOL    HW117024   0.724   5.789   5.067
 5375SOL    HW217025   0.794   5.696   4.952
 5376SOL     OW17026   1.895   2.845   0.983
 5376SOL    HW117027   1.985   2.856   1.023
 5376SOL    HW217028   1.854   2.759   1.013
 5377SOL     OW17029   6.744   6.822   2.368
 5377SOL    HW117030   6.781   6.812   2.460
 5377SOL    HW217031   6.818   6.845   2.305
 5378SOL     OW17032   6.398   0.533   2.020
 5378SOL    HW117033   6.340   0.454   2.038
 5378SOL    HW217034   6.452   0.555   2.101
 5379SOL     OW17035   1.465   4.606   4.967
 5379SOL    HW117036   1.555   4.568   4.948
 5379SOL    HW217037   1.474   4.702   4.996
 5380SOL     OW17038   2.563   1.419   2.889
 5380SOL    HW117039   2.480   1.378   2.849
 5380SOL    HW217040   2.598   1.489   2.828
 5381SOL     OW17041   6.457   5.017   1.801
 5381SOL    HW117042   6.362   5.004   1.772
 5381SOL    HW217043   6.464   4.997   1.899
 5382SOL     OW17044   2.827   1.012   1.745
 5382SOL    HW117045   2.801   1.105   1.771
 5382SOL    HW217046   2.824   0.952   1.825
 5383SOL     OW17047   2.422   2.288   5.339
 5383SOL    HW117048   2.354   2.215   5.326
 5383SOL    HW217049   2.493   2.256   5.401
 5384SOL     OW17050   6.079   6.807   5.578
 5384SOL    HW117051   6.168   6.780   5.539
 5384SOL    HW217052   6.006   6.778   5.517
 5385SOL     OW17053   3.450   3.218   4.281
 5385SOL    HW117054   3.407   3.130   4.262
 5385SOL    HW217055   3.481   3.259   4.195
 5386SOL     OW17056   5.134   1.632   4.667
 5386SOL    HW117057   5.161   1.538   4.644
 5386SOL    HW217058   5.035   1.642   4.655
 5387SOL     OW17059   2.267   0.303   3.395
 5387SOL    HW117060   2.312   0.242   3.461
 5387SOL    HW217061   2.170   0.278   3.388
 5388SOL     OW17062   0.007   1.747   4.238
 5388SOL    HW117063   0.034   1.822   4.178
 5388SOL    HW217064   0.085   1.687   4.255
 5389SOL     OW17065   4.495   1.404   3.239
 5389SOL    HW117066   4.470   1.317   3.282
 5389SOL    HW217067   4.553   1.457   3.301
 5390SOL     OW17068   4.871   3.829   3.636
 5390SOL    HW117069   4.857   3.856   3.732
 5390SOL    HW217070   4.890   3.731   3.632
 5391SOL     OW17071   2.109   1.912   0.784
 5391SOL    HW117072   2.158   1.919   0.871
 5391SOL    HW217073   2.154   1.969   0.716
 5392SOL     OW17074   5.264   3.560   1.259
 5392SOL    HW117075   5.223   3.546   1.169
 5392SOL    HW217076   5.330   3.487   1.277
 5393SOL     OW17077   4.332   6.655   5.843
 5393SOL    HW117078   4.307   6.735   5.898
 5393SOL    HW217079   4.431   6.656   5.826
 5394SOL     OW17080   0.165   4.961   0.116
 5394SOL    HW117081   0.167   4.912   0.029
 5394SOL    HW217082   0.083   4.936   0.167
 5395SOL     OW17083   4.642   0.844   1.392
 5395SOL    HW117084   4.543   0.857   1.379
 5395SOL    HW217085   4.688   0.847   1.304
 5396SOL     OW17086   4.946   4.272   1.587
 5396SOL    HW117087   4.931   4.174   1.600
 5396SOL    HW217088   5.042   4.294   1.607
 5397SOL     OW17089   0.349   2.743   1.179
 5397SOL    HW117090   0.275   2.736   1.111
 5397SOL    HW217091   0.340   2.829   1.229
 5398SOL     OW17092   3.245   1.757   3.677
 5398SOL    HW117093   3.185   1.831   3.707
 5398SOL    HW217094   3.227   1.735   3.581
 5399SOL     OW17095   2.732   5.509   1.066
 5399SOL    HW117096   2.722   5.608   1.075
 5399SOL    HW217097   2.802   5.489   0.997
 5400SOL     OW17098   3.199   3.756   6.885
 5400SOL    HW117099   3.101   3.775   6.876
 5400SOL    HW217100   3.249   3.842   6.896
 5401SOL     OW17101   5.921   4.061   1.374
 5401SOL    HW117102   5.937   4.085   1.278
 5401SOL    HW217103   5.918   4.145   1.429
 5402SOL     OW17104   2.685   5.314   1.907
 5402SOL    HW117105   2.750   5.243   1.881
 5402SOL    HW217106   2.631   5.282   1.986
 5403SOL     OW17107   5.439   2.690   5.909
 5403SOL    HW117108   5.459   2.614   5.847
 5403SOL    HW217109   5.376   2.754   5.865
 5404SOL     OW17110   0.934   0.594   2.175
 5404SOL    HW117111   1.020   0.543   2.180
 5404SOL    HW217112   0.905   0.602   2.080
 5405SOL     OW17113   6.071   6.292   0.125
 5405SOL    HW117114   6.078   6.193   0.132
 5405SOL    HW217115   6.100   6.334   0.212
 5406SOL     OW17116   2.260   0.106   6.092
 5406SOL    HW117117   2.283   0.195   6.132
 5406SOL    HW217118   2.290   0.104   5.996
 5407SOL     OW17119   4.059   1.929   1.471
 5407SOL    HW117120   4.089   2.016   1.431
 5407SOL    HW217121   4.101   1.916   1.560
 5408SOL     OW17122   3.641   1.166   5.825
 5408SOL    HW117123   3.549   1.143   5.856
 5408SOL    HW217124   3.684   1.227   5.892
 5409SOL     OW17125   6.485   2.030   3.523
 5409SOL    HW117126   6.502   2.129   3.528
 5409SOL    HW217127   6.390   2.012   3.547
 5410SOL     OW17128   0.903   2.812   6.863
 5410SOL    HW117129   0.871   2.906   6.854
 5410SOL    HW217130   0.829   2.755   6.897
 5411SOL     OW17131   6.153   5.131   5.314
 5411SOL    HW117132   6.112   5.047   5.348
 5411SOL    HW217133   6.208   5.111   5.233
 5412SOL     OW17134   4.193   0.417   0.250
 5412SOL    HW117135   4.124   0.346   0.237
 5412SOL    HW217136   4.248   0.426   0.168
 5413SOL     OW17137   0.492   0.255   1.312
 5413SOL    HW117138   0.396   0.267   1.336
 5413SOL    HW217139   0.505   0.168   1.265
 5414SOL     OW17140   0.011   3.140   5.159
 5414SOL    HW117141   0.007   3.188   5.071
 5414SOL    HW217142   6.954   3.153   5.208
 5415SOL     OW17143   1.202   6.322   1.612
 5415SOL    HW117144   1.139   6.391   1.648
 5415SOL    HW217145   1.292   6.334   1.653
 5416SOL     OW17146   3.460   5.083   6.287
 5416SOL    HW117147   3.382   5.146   6.279
 5416SOL    HW217148   3.462   5.023   6.207
 5417SOL     OW17149   4.403   6.795   4.636
 5417SOL    HW117150   4.382   6.892   4.624
 5417SOL    HW217151   4.477   6.769   4.573
 5418SOL     OW17152   5.482   0.630   4.467
 5418SOL    HW117153   5.511   0.550   4.415
 5418SOL    HW217154   5.429   0.691   4.407
 5419SOL     OW17155   3.102   5.581   0.527
 5419SOL    HW117156   3.199   5.576   0.551
 5419SOL    HW217157   3.052   5.625   0.602
 5420SOL     OW17158   1.982   2.970   1.973
 5420SOL    HW117159   2.050   2.967   2.046
 5420SOL    HW217160   2.015   2.916   1.896
 5421SOL     OW17161   2.383   4.348   3.193
 5421SOL    HW117162   2.465   4.399   3.218
 5421SOL    HW217163   2.386   4.325   3.096
 5422SOL     OW17164   0.868   5.829   5.888
 5422SOL    HW117165   0.946   5.877   5.849
 5422SOL    HW217166   0.866   5.734   5.855
 5423SOL     OW17167   5.300   3.446   0.071
 5423SOL    HW117168   5.313   3.427   7.003
 5423SOL    HW217169   5.360   3.388   0.125
 5424SOL     OW17170   6.206   3.431   4.399
 5424SOL    HW117171   6.277   3.500   4.385
 5424SOL    HW217172   6.190   3.382   4.314
 5425SOL     OW17173   5.281   1.300   3.621
 5425SOL    HW117174   5.315   1.392   3.639
 5425SOL    HW217175   5.192   1.305   3.576
 5426SOL     OW17176   6.764   5.240   3.862
 5426SOL    HW117177   6.855   5.246   3.904
 5426SOL    HW217178   6.746   5.146   3.835
 5427SOL     OW17179   5.249   5.143   1.116
 5427SOL    HW117180   5.155   5.143   1.083
 5427SOL    HW217181   5.305   5.083   1.058
 5428SOL     OW17182   0.030   0.121   2.158
 5428SOL    HW117183   0.011   0.178   2.078
 5428SOL    HW217184   0.110   0.157   2.206
 5429SOL     OW17185   1.442   0.765   4.931
 5429SOL    HW117186   1.378   0.842   4.936
 5429SOL    HW217187   1.411   0.692   4.992
 5430SOL     OW17188   2.166   2.678   5.251
 5430SOL    HW117189   2.259   2.710   5.235
 5430SOL    HW217190   2.115   2.748   5.302
 5431SOL     OW17191   3.597   4.928   6.993
 5431SOL    HW117192   3.531   5.002   7.007
 5431SOL    HW217193   3.688   4.966   6.985
 5432SOL     OW17194   3.870   6.215   5.964
 5432SOL    HW117195   3.832   6.124   5.947
 5432SOL    HW217196   3.969   6.213   5.952
 5433SOL     OW17197   6.917   2.006   3.164
 5433SOL    HW117198   6.941   1.954   3.081
 5433SOL    HW217199   6.822   1.986   3.189
 5434SOL     OW17200   4.065   1.137   5.053
 5434SOL    HW117201   3.978   1.183   5.038
 5434SOL    HW217202   4.061   1.083   5.137
 5435SOL     OW17203   5.936   1.771   1.194
 5435SOL    HW117204   5.928   1.690   1.136
 5435SOL    HW217205   6.030   1.806   1.190
 5436SOL     OW17206   5.559   4.259   4.737
 5436SOL    HW117207   5.611   4.182   4.702
 5436SOL    HW217208   5.572   4.338   4.678
 5437SOL     OW17209   2.742   5.012   5.523
 5437SOL    HW117210   2.675   4.940   5.501
 5437SOL    HW217211   2.746   5.024   5.622
 5438SOL     OW17212   5.501   3.909   2.440
 5438SOL    HW117213   5.443   3.988   2.421
 5438SOL    HW217214   5.451   3.825   2.420
 5439SOL     OW17215   6.918   2.451   0.285
 5439SOL    HW117216   6.926   2.379   0.215
 5439SOL    HW217217   6.855   2.422   0.356
 5440SOL     OW17218   0.460   7.019   2.666
 5440SOL    HW117219   0.391   6.991   2.733
 5440SOL    HW217220   0.527   6.946   2.656
 5441SOL     OW17221   4.747   2.797   3.694
 5441SOL    HW117222   4.686   2.718   3.690
 5441SOL    HW217223   4.774   2.813   3.789
 5442SOL     OW17224   3.255   6.795   3.166
 5442SOL    HW117225   3.217   6.857   3.097
 5442SOL    HW217226   3.318   6.846   3.225
 5443SOL     OW17227   2.888   6.053   3.949
 5443SOL    HW117228   2.964   5.995   3.920
 5443SOL    HW217229   2.922   6.146   3.966
 5444SOL     OW17230   0.375   0.819   2.995
 5444SOL    HW117231   0.354   0.789   2.902
 5444SOL    HW217232   0.364   0.919   3.001
 5445SOL     OW17233   6.405   4.503   3.766
 5445SOL    HW117234   6.429   4.482   3.671
 5445SOL    HW217235   6.328   4.566   3.767
 5446SOL     OW17236   5.485   4.986   4.792
 5446SOL    HW117237   5.410   5.053   4.791
 5446SOL    HW217238   5.525   4.981   4.884
 5447SOL     OW17239   1.356   2.060   0.843
 5447SOL    HW117240   1.356   2.019   0.934
 5447SOL    HW217241   1.410   2.005   0.780
 5448SOL     OW17242   6.061   4.242   4.630
 5448SOL    HW117243   6.084   4.332   4.666
 5448SOL    HW217244   6.071   4.241   4.531
 5449SOL     OW17245   1.704   1.811   0.433
 5449SOL    HW117246   1.780   1.846   0.488
 5449SOL    HW217247   1.738   1.746   0.366
 5450SOL     OW17248   2.824   0.163   1.443
 5450SOL    HW117249   2.725   0.175   1.456
 5450SOL    HW217250   2.860   0.106   1.517
 5451SOL     OW17251   1.699   5.724   3.207
 5451SOL    HW117252   1.660   5.815   3.225
 5451SOL    HW217253   1.779   5.711   3.266
 5452SOL     OW17254   2.282   3.489   0.613
 5452SOL    HW117255   2.310   3.572   0.566
 5452SOL    HW217256   2.183   3.483   0.615
 5453SOL     OW17257   5.467   4.250   1.202
 5453SOL    HW117258   5.499   4.326   1.259
 5453SOL    HW217259   5.369   4.238   1.215
 5454SOL     OW17260   6.187   4.882   5.650
 5454SOL    HW117261   6.194   4.786   5.622
 5454SOL    HW217262   6.248   4.938   5.593
 5455SOL     OW17263   6.525   2.437   2.114
 5455SOL    HW117264   6.485   2.394   2.194
 5455SOL    HW217265   6.583   2.372   2.065
 5456SOL     OW17266   2.672   0.665   0.211
 5456SOL    HW117267   2.684   0.764   0.198
 5456SOL    HW217268   2.647   0.646   0.306
 5457SOL     OW17269   0.207   2.416   1.205
 5457SOL    HW117270   0.220   2.464   1.118
 5457SOL    HW217271   0.278   2.444   1.270
 5458SOL     OW17272   0.414   4.771   0.516
 5458SOL    HW117273   0.319   4.749   0.535
 5458SOL    HW217274   0.419   4.844   0.449
 5459SOL     OW17275   2.805   3.298   6.529
 5459SOL    HW117276   2.710   3.313   6.501
 5459SOL    HW217277   2.836   3.376   6.583
 5460SOL     OW17278   3.839   6.993   3.183
 5460SOL    HW117279   3.780   0.031   3.226
 5460SOL    HW217280   3.851   7.016   3.086
 5461SOL     OW17281   0.708   0.304   6.023
 5461SOL    HW117282   0.726   0.207   6.006
 5461SOL    HW217283   0.765   0.336   6.098
 5462SOL     OW17284   6.342   6.653   1.344
 5462SOL    HW117285   6.381   6.570   1.384
 5462SOL    HW217286   6.289   6.701   1.413
 5463SOL     OW17287   0.207   1.282   0.393
 5463SOL    HW117288   0.115   1.260   0.425
 5463SOL    HW217289   0.218   1.248   0.299
 5464SOL     OW17290   6.260   0.245   4.397
 5464SOL    HW117291   6.304   0.182   4.461
 5464SOL    HW217292   6.243   0.332   4.441
 5465SOL     OW17293   4.783   0.897   4.631
 5465SOL    HW117294   4.722   0.975   4.635
 5465SOL    HW217295   4.737   0.816   4.667
 5466SOL     OW17296   5.542   3.018   4.801
 5466SOL    HW117297   5.500   2.938   4.843
 5466SOL    HW217298   5.639   3.022   4.825
 5467SOL     OW17299   4.855   4.095   3.559
 5467SOL    HW117300   4.842   4.003   3.596
 5467SOL    HW217301   4.809   4.161   3.618
 5468SOL     OW17302   6.966   2.672   3.759
 5468SOL    HW117303   0.013   2.686   3.696
 5468SOL    HW217304   6.954   2.574   3.775
 5469SOL     OW17305   2.813   5.649   5.590
 5469SOL    HW117306   2.791   5.742   5.620
 5469SOL    HW217307   2.912   5.641   5.578
 5470SOL     OW17308   3.628   5.200   3.253
 5470SOL    HW117309   3.707   5.227   3.308
 5470SOL    HW217310   3.604   5.105   3.275
 5471SOL     OW17311   5.516   6.882   3.278
 5471SOL    HW117312   5.460   6.866   3.197
 5471SOL    HW217313   5.459   6.919   3.351
 5472SOL     OW17314   2.511   4.278   6.918
 5472SOL    HW117315   2.471   4.369   6.912
 5472SOL    HW217316   2.491   4.240   7.009
 5473SOL     OW17317   0.770   3.514   2.113
 5473SOL    HW117318   0.824   3.592   2.147
 5473SOL    HW217319   0.832   3.447   2.072
 5474SOL     OW17320   0.984   4.798   3.655
 5474SOL    HW117321   1.072   4.759   3.680
 5474SOL    HW217322   0.948   4.853   3.731
 5475SOL     OW17323   2.428   2.979   0.827
 5475SOL    HW117324   2.439   3.027   0.914
 5475SOL    HW217325   2.491   2.902   0.824
 5476SOL     OW17326   2.482   4.427   5.543
 5476SOL    HW117327   2.410   4.375   5.496
 5476SOL    HW217328   2.445   4.468   5.626
 5477SOL     OW17329   2.100   4.433   2.619
 5477SOL    HW117330   2.160   4.416   2.697
 5477SOL    HW217331   2.067   4.346   2.583
 5478SOL     OW17332   2.795   6.043   4.240
 5478SOL    HW117333   2.755   6.025   4.151
 5478SOL    HW217334   2.827   5.957   4.281
 5479SOL     OW17335   5.223   1.373   6.540
 5479SOL    HW117336   5.275   1.289   6.528
 5479SOL    HW217337   5.285   1.450   6.556
 5480SOL     OW17338   5.391   5.020   4.282
 5480SOL    HW117339   5.393   4.982   4.374
 5480SOL    HW217340   5.303   5.065   4.266
 5481SOL     OW17341   4.373   1.605   4.462
 5481SOL    HW117342   4.307   1.657   4.407
 5481SOL    HW217343   4.433   1.553   4.401
 5482SOL     OW17344   3.539   4.266   1.823
 5482SOL    HW117345   3.542   4.365   1.836
 5482SOL    HW217346   3.573   4.220   1.905
 5483SOL     OW17347   0.502   2.072   5.405
 5483SOL    HW117348   0.413   2.115   5.388
 5483SOL    HW217349   0.492   2.007   5.481
 5484SOL     OW17350   3.840   1.160   4.503
 5484SOL    HW117351   3.899   1.240   4.499
 5484SOL    HW217352   3.884   1.084   4.455
 5485SOL     OW17353   3.997   0.605   4.723
 5485SOL    HW117354   4.000   0.520   4.776
 5485SOL    HW217355   3.910   0.611   4.675
 5486SOL     OW17356   2.333   6.143   5.493
 5486SOL    HW117357   2.412   6.200   5.472
 5486SOL    HW217358   2.352   6.048   5.470
 5487SOL     OW17359   5.372   2.530   6.557
 5487SOL    HW117360   5.312   2.474   6.615
 5487SOL    HW217361   5.403   2.609   6.609
 5488SOL     OW17362   6.278   0.359   0.961
 5488SOL    HW117363   6.334   0.370   0.879
 5488SOL    HW217364   6.231   0.444   0.982
 5489SOL     OW17365   0.127   4.270   1.552
 5489SOL    HW117366   0.220   4.293   1.581
 5489SOL    HW217367   0.089   4.201   1.613
 5490SOL     OW17368   3.362   0.089   1.867
 5490SOL    HW117369   3.264   0.075   1.849
 5490SOL    HW217370   3.378   0.088   1.966
 5491SOL     OW17371   1.142   3.456   0.077
 5491SOL    HW117372   1.071   3.392   0.105
 5491SOL    HW217373   1.160   3.444   7.009
 5492SOL     OW17374   0.623   3.563   5.929
 5492SOL    HW117375   0.622   3.546   6.027
 5492SOL    HW217376   0.595   3.657   5.912
 5493SOL     OW17377   2.998   3.981   4.795
 5493SOL    HW117378   2.995   4.058   4.859
 5493SOL    HW217379   2.971   3.897   4.843
 5494SOL     OW17380   0.547   3.540   6.184
 5494SOL    HW117381   0.517   3.447   6.203
 5494SOL    HW217382   0.475   3.604   6.210
 5495SOL     OW17383   4.976   1.204   1.066
 5495SOL    HW117384   5.046   1.200   1.137
 5495SOL    HW217385   5.019   1.222   0.978
 5496SOL     OW17386   4.017   0.836   3.300
 5496SOL    HW117387   4.094   0.873   3.248
 5496SOL    HW217388   4.049   0.760   3.358
 5497SOL     OW17389   6.965   0.832   4.933
 5497SOL    HW117390   6.986   0.881   5.017
 5497SOL    HW217391   6.894   0.763   4.951
 5498SOL     OW17392   6.838   5.811   1.500
 5498SOL    HW117393   6.937   5.825   1.499
 5498SOL    HW217394   6.806   5.794   1.407
 5499SOL     OW17395   0.186   0.456   4.802
 5499SOL    HW117396   0.205   0.547   4.838
 5499SOL    HW217397   0.231   0.445   4.713
 5500SOL     OW17398   0.994   0.522   0.187
 5500SOL    HW117399   1.052   0.451   0.147
 5500SOL    HW217400   0.911   0.531   0.132
 5501SOL     OW17401   3.454   1.876   6.854
 5501SOL    HW117402   3.507   1.793   6.872
 5501SOL    HW217403   3.508   1.937   6.795
 5502SOL     OW17404   4.617   3.643   0.562
 5502SOL    HW117405   4.715   3.636   0.577
 5502SOL    HW217406   4.571   3.563   0.599
 5503SOL     OW17407   6.663   4.470   1.566
 5503SOL    HW117408   6.740   4.413   1.535
 5503SOL    HW217409   6.578   4.432   1.531
 5504SOL     OW17410   4.879   1.542   5.358
 5504SOL    HW117411   4.899   1.640   5.346
 5504SOL    HW217412   4.912   1.491   5.279
 5505SOL     OW17413   2.201   5.220   4.137
 5505SOL    HW117414   2.168   5.161   4.063
 5505SOL    HW217415   2.236   5.164   4.212
 5506SOL     OW17416   0.370   3.370   0.773
 5506SOL    HW117417   0.402   3.404   0.861
 5506SOL    HW217418   0.349   3.448   0.713
 5507SOL     OW17419   4.074   1.279   4.586
 5507SOL    HW117420   4.127   1.268   4.502
 5507SOL    HW217421   4.097   1.206   4.650
 5508SOL     OW17422   1.258   0.905   6.898
 5508SOL    HW117423   1.234   0.809   6.884
 5508SOL    HW217424   1.174   0.959   6.904
 5509SOL     OW17425   0.702   6.280   6.445
 5509SOL    HW117426   0.616   6.301   6.491
 5509SOL    HW217427   0.684   6.248   6.352
 5510SOL     OW17428   4.613   5.594   0.304
 5510SOL    HW117429   4.606   5.682   0.256
 5510SOL    HW217430   4.597   5.520   0.239
 5511SOL     OW17431   1.232   0.301   3.631
 5511SOL    HW117432   1.143   0.308   3.586
 5511SOL    HW217433   1.221   0.315   3.729
 5512SOL     OW17434   5.387   2.463   0.794
 5512SOL    HW117435   5.346   2.372   0.785
 5512SOL    HW217436   5.465   2.458   0.856
 5513SOL     OW17437   3.698   4.913   6.000
 5513SOL    HW117438   3.773   4.977   6.012
 5513SOL    HW217439   3.684   4.861   6.084
 5514SOL     OW17440   3.815   0.486   4.552
 5514SOL    HW117441   3.879   0.409   4.556
 5514SOL    HW217442   3.722   0.453   4.567
 5515SOL     OW17443   0.764   5.886   2.081
 5515SOL    HW117444   0.779   5.829   2.000
 5515SOL    HW217445   0.730   5.976   2.052
 5516SOL     OW17446   1.650   3.575   6.099
 5516SOL    HW117447   1.687   3.530   6.018
 5516SOL    HW217448   1.607   3.661   6.073
 5517SOL     OW17449   2.123   3.362   2.365
 5517SOL    HW117450   2.048   3.328   2.308
 5517SOL    HW217451   2.199   3.392   2.306
 5518SOL     OW17452   5.785   5.945   6.921
 5518SOL    HW117453   5.696   5.973   6.885
 5518SOL    HW217454   5.834   5.892   6.852
 5519SOL     OW17455   5.477   3.424   3.127
 5519SOL    HW117456   5.474   3.402   3.030
 5519SOL    HW217457   5.531   3.508   3.139
 5520SOL     OW17458   6.414   6.781   2.653
 5520SOL    HW117459   6.401   6.871   2.697
 5520SOL    HW217460   6.383   6.787   2.558
 5521SOL     OW17461   4.894   6.462   2.143
 5521SOL    HW117462   4.870   6.515   2.225
 5521SOL    HW217463   4.965   6.396   2.165
 5522SOL     OW17464   5.974   4.846   0.727
 5522SOL    HW117465   5.997   4.934   0.769
 5522SOL    HW217466   6.047   4.780   0.746
 5523SOL     OW17467   3.882   1.485   1.854
 5523SOL    HW117468   3.833   1.405   1.818
 5523SOL    HW217469   3.878   1.559   1.788
 5524SOL     OW17470   4.432   0.580   4.427
 5524SOL    HW117471   4.452   0.677   4.428
 5524SOL    HW217472   4.365   0.559   4.499
 5525SOL     OW17473   0.212   2.112   0.032
 5525SOL    HW117474   0.168   2.121   6.972
 5525SOL    HW217475   0.240   2.017   0.047
 5526SOL     OW17476   4.583   5.124   2.952
 5526SOL    HW117477   4.541   5.210   2.980
 5526SOL    HW217478   4.656   5.141   2.886
 5527SOL     OW17479   5.092   3.591   4.190
 5527SOL    HW117480   5.014   3.528   4.193
 5527SOL    HW217481   5.133   3.598   4.281
 5528SOL     OW17482   1.537   0.735   0.479
 5528SOL    HW117483   1.437   0.734   0.489
 5528SOL    HW217484   1.575   0.809   0.534
 5529SOL     OW17485   3.433   6.913   4.912
 5529SOL    HW117486   3.411   6.816   4.905
 5529SOL    HW217487   3.456   6.936   5.006
 5530SOL     OW17488   5.754   1.900   1.010
 5530SOL    HW117489   5.772   1.849   1.094
 5530SOL    HW217490   5.725   1.836   0.938
 5531SOL     OW17491   3.650   3.492   2.019
 5531SOL    HW117492   3.745   3.462   2.010
 5531SOL    HW217493   3.593   3.414   2.047
 5532SOL     OW17494   1.144   3.111   1.097
 5532SOL    HW117495   1.201   3.066   1.029
 5532SOL    HW217496   1.048   3.092   1.078
 5533SOL     OW17497   3.831   2.033   3.059
 5533SOL    HW117498   3.923   1.994   3.065
 5533SOL    HW217499   3.792   2.040   3.151
 5534SOL     OW17500   0.936   1.861   6.961
 5534SOL    HW117501   0.878   1.933   6.923
 5534SOL    HW217502   0.889   1.817   0.008
 5535SOL     OW17503   0.967   1.871   3.576
 5535SOL    HW117504   0.936   1.824   3.659
 5535SOL    HW217505   1.055   1.832   3.547
 5536SOL     OW17506   3.740   0.954   4.215
 5536SOL    HW117507   3.796   0.923   4.291
 5536SOL    HW217508   3.671   1.018   4.248
 5537SOL     OW17509   2.821   0.910   1.999
 5537SOL    HW117510   2.898   0.866   2.045
 5537SOL    HW217511   2.777   0.973   2.062
 5538SOL     OW17512   3.152   5.593   5.229
 5538SOL    HW117513   3.182   5.522   5.292
 5538SOL    HW217514   3.052   5.601   5.233
 5539SOL     OW17515   0.764   3.787   1.558
 5539SOL    HW117516   0.767   3.687   1.556
 5539SOL    HW217517   0.856   3.822   1.579
 5540SOL     OW17518   4.654   4.259   4.266
 5540SOL    HW117519   4.591   4.316   4.214
 5540SOL    HW217520   4.694   4.312   4.341
 5541SOL     OW17521   5.252   0.031   6.963
 5541SOL    HW117522   5.340   7.019   6.941
 5541SOL    HW217523   5.178   7.001   6.931
 5542SOL     OW17524   4.872   3.491   6.130
 5542SOL    HW117525   4.890   3.413   6.071
 5542SOL    HW217526   4.945   3.499   6.198
 5543SOL     OW17527   3.948   4.060   6.565
 5543SOL    HW117528   3.895   3.983   6.531
 5543SOL    HW217529   3.887   4.139   6.579
 5544SOL     OW17530   5.062   5.378   6.724
 5544SOL    HW117531   4.996   5.453   6.725
 5544SOL    HW217532   5.045   5.319   6.645
 5545SOL     OW17533   4.534   1.157   2.615
 5545SOL    HW117534   4.613   1.099   2.597
 5545SOL    HW217535   4.564   1.248   2.643
 5546SOL     OW17536   0.652   4.322   4.798
 5546SOL    HW117537   0.669   4.373   4.713
 5546SOL    HW217538   0.733   4.327   4.856
 5547SOL     OW17539   2.990   6.673   5.519
 5547SOL    HW117540   2.971   6.605   5.449
 5547SOL    HW217541   2.961   6.764   5.487
 5548SOL     OW17542   6.106   2.366   5.455
 5548SOL    HW117543   6.071   2.272   5.455
 5548SOL    HW217544   6.051   2.422   5.394
 5549SOL     OW17545   4.621   5.054   6.441
 5549SOL    HW117546   4.704   5.029   6.490
 5549SOL    HW217547   4.543   5.004   6.478
 5550SOL     OW17548   2.783   5.300   2.617
 5550SOL    HW117549   2.695   5.317   2.573
 5550SOL    HW217550   2.854   5.294   2.548
 5551SOL     OW17551   2.409   0.839   2.700
 5551SOL    HW117552   2.376   0.762   2.644
 5551SOL    HW217553   2.509   0.842   2.697
 5552SOL     OW17554   6.954   0.995   7.011
 5552SOL    HW117555   0.023   1.002   6.999
 5552SOL    HW217556   6.925   0.902   6.990
 5553SOL     OW17557   3.723   6.511   0.425
 5553SOL    HW117558   3.754   6.532   0.332
 5553SOL    HW217559   3.788   6.548   0.491
 5554SOL     OW17560   3.313   1.756   5.207
 5554SOL    HW117561   3.302   1.663   5.172
 5554SOL    HW217562   3.334   1.818   5.131
 5555SOL     OW17563   0.437   4.726   3.908
 5555SOL    HW117564   0.458   4.714   3.811
 5555SOL    HW217565   0.409   4.638   3.947
 5556SOL     OW17566   0.544   2.744   4.243
 5556SOL    HW117567   0.459   2.797   4.244
 5556SOL    HW217568   0.523   2.648   4.223
 5557SOL     OW17569   3.598   4.936   3.310
 5557SOL    HW117570   3.582   4.900   3.402
 5557SOL    HW217571   3.520   4.914   3.251
 5558SOL     OW17572   5.285   3.427   5.597
 5558SOL    HW117573   5.226   3.393   5.670
 5558SOL    HW217574   5.294   3.357   5.526
 5559SOL     OW17575   2.646   6.800   2.134
 5559SOL    HW117576   2.683   6.792   2.227
 5559SOL    HW217577   2.649   6.710   2.089
 5560SOL     OW17578   0.475   6.727   2.914
 5560SOL    HW117579   0.522   6.746   3.001
 5560SOL    HW217580   0.541   6.695   2.847
 5561SOL     OW17581   2.070   2.058   4.190
 5561SOL    HW117582   2.144   2.031   4.251
 5561SOL    HW217583   2.089   2.027   4.097
 5562SOL     OW17584   2.163   2.371   6.526
 5562SOL    HW117585   2.208   2.307   6.589
 5562SOL    HW217586   2.210   2.460   6.530
 5563SOL     OW17587   4.522   6.469   2.827
 5563SOL    HW117588   4.515   6.458   2.727
 5563SOL    HW217589   4.575   6.552   2.847
 5564SOL     OW17590   5.185   2.110   1.549
 5564SOL    HW117591   5.271   2.155   1.576
 5564SOL    HW217592   5.161   2.137   1.456
 5565SOL     OW17593   4.475   1.819   5.835
 5565SOL    HW117594   4.501   1.893   5.897
 5565SOL    HW217595   4.461   1.856   5.743
 5566SOL     OW17596   1.894   5.451   1.430
 5566SOL    HW117597   1.839   5.421   1.508
 5566SOL    HW217598   1.865   5.400   1.349
 5567SOL     OW17599   0.816   4.893   0.883
 5567SOL    HW117600   0.787   4.807   0.925
 5567SOL    HW217601   0.754   4.917   0.809
 5568SOL     OW17602   4.878   2.377   2.030
 5568SOL    HW117603   4.864   2.460   2.083
 5568SOL    HW217604   4.955   2.390   1.967
 5569SOL     OW17605   3.938   1.992   1.850
 5569SOL    HW117606   3.839   1.995   1.836
 5569SOL    HW217607   3.961   2.037   1.937
 5570SOL     OW17608   6.078   4.733   4.530
 5570SOL    HW117609   6.112   4.825   4.550
 5570SOL    HW217610   5.991   4.719   4.578
 5571SOL     OW17611   0.084   6.514   0.133
 5571SOL    HW117612   0.008   6.457   0.165
 5571SOL    HW217613   0.162   6.456   0.110
 5572SOL     OW17614   2.541   2.705   6.324
 5572SOL    HW117615   2.625   2.715   6.376
 5572SOL    HW217616   2.556   2.640   6.250
 5573SOL     OW17617   1.167   2.811   0.433
 5573SOL    HW117618   1.164   2.825   0.532
 5573SOL    HW217619   1.226   2.733   0.412
 5574SOL     OW17620   6.961   1.374   4.299
 5574SOL    HW117621   7.019   1.382   4.381
 5574SOL    HW217622   6.906   1.291   4.306
 5575SOL     OW17623   1.244   0.708   1.727
 5575SOL    HW117624   1.155   0.743   1.701
 5575SOL    HW217625   1.316   0.770   1.693
 5576SOL     OW17626   6.149   5.600   1.844
 5576SOL    HW117627   6.119   5.639   1.757
 5576SOL    HW217628   6.069   5.571   1.897
 5577SOL     OW17629   2.502   3.139   5.783
 5577SOL    HW117630   2.514   3.078   5.861
 5577SOL    HW217631   2.508   3.234   5.814
 5578SOL     OW17632   3.878   2.662   0.761
 5578SOL    HW117633   3.896   2.664   0.663
 5578SOL    HW217634   3.964   2.669   0.812
 5579SOL     OW17635   6.358   3.776   6.175
 5579SOL    HW117636   6.438   3.719   6.155
 5579SOL    HW217637   6.305   3.734   6.248
 5580SOL     OW17638   4.747   2.069   0.466
 5580SOL    HW117639   4.833   2.022   0.443
 5580SOL    HW217640   4.753   2.106   0.558
 5581SOL     OW17641   2.710   7.020   0.889
 5581SOL    HW117642   2.749   0.043   0.965
 5581SOL    HW217643   2.765   6.939   0.873
 5582SOL     OW17644   3.471   3.367   4.036
 5582SOL    HW117645   3.395   3.354   3.972
 5582SOL    HW217646   3.443   3.430   4.108
 5583SOL     OW17647   4.168   0.100   2.578
 5583SOL    HW117648   4.189   0.074   2.672
 5583SOL    HW217649   4.072   0.082   2.559
 5584SOL     OW17650   5.356   4.024   3.741
 5584SOL    HW117651   5.297   3.967   3.684
 5584SOL    HW217652   5.328   4.120   3.733
 5585SOL     OW17653   5.579   0.615   4.174
 5585SOL    HW117654   5.499   0.660   4.214
 5585SOL    HW217655   5.549   0.542   4.113
 5586SOL     OW17656   1.485   2.623   6.364
 5586SOL    HW117657   1.417   2.550   6.373
 5586SOL    HW217658   1.493   2.672   6.450
 5587SOL     OW17659   4.094   6.781   2.428
 5587SOL    HW117660   4.054   6.697   2.463
 5587SOL    HW217661   4.038   6.859   2.456
 5588SOL     OW17662   1.459   6.849   4.344
 5588SOL    HW117663   1.507   6.832   4.259
 5588SOL    HW217664   1.443   6.948   4.354
 5589SOL     OW17665   5.055   2.953   5.687
 5589SOL    HW117666   5.052   2.901   5.602
 5589SOL    HW217667   4.978   3.016   5.691
 5590SOL     OW17668   6.658   5.444   3.111
 5590SOL    HW117669   6.626   5.439   3.017
 5590SOL    HW217670   6.582   5.468   3.171
 5591SOL     OW17671   5.730   0.504   0.123
 5591SOL    HW117672   5.670   0.524   0.046
 5591SOL    HW217673   5.825   0.504   0.092
 5592SOL     OW17674   1.975   3.702   3.675
 5592SOL    HW117675   2.059   3.727   3.723
 5592SOL    HW217676   1.995   3.630   3.609
 5593SOL     OW17677   0.060   2.807   5.825
 5593SOL    HW117678   0.048   2.826   5.922
 5593SOL    HW217679   0.152   2.773   5.808
 5594SOL     OW17680   2.376   1.354   6.710
 5594SOL    HW117681   2.361   1.442   6.755
 5594SOL    HW217682   2.400   1.286   6.779
 5595SOL     OW17683   6.730   0.722   5.318
 5595SOL    HW117684   6.816   0.673   5.324
 5595SOL    HW217685   6.694   0.738   5.410
 5596SOL     OW17686   5.636   0.108   2.940
 5596SOL    HW117687   5.705   0.162   2.987
 5596SOL    HW217688   5.681   0.039   2.882
 5597SOL     OW17689   5.147   2.748   5.104
 5597SOL    HW117690   5.166   2.845   5.094
 5597SOL    HW217691   5.049   2.731   5.095
 5598SOL     OW17692   5.414   2.300   3.699
 5598SOL    HW117693   5.434   2.226   3.764
 5598SOL    HW217694   5.336   2.275   3.643
 5599SOL     OW17695   5.538   4.375   1.752
 5599SOL    HW117696   5.457   4.431   1.772
 5599SOL    HW217697   5.547   4.304   1.822
 5600SOL     OW17698   2.905   6.787   2.769
 5600SOL    HW117699   2.876   6.855   2.837
 5600SOL    HW217700   2.854   6.801   2.684
 5601SOL     OW17701   4.922   2.890   5.214
 5601SOL    HW117702   4.847   2.824   5.214
 5601SOL    HW217703   4.900   2.965   5.151
 5602SOL     OW17704   0.126   1.675   3.442
 5602SOL    HW117705   0.037   1.638   3.414
 5602SOL    HW217706   0.115   1.772   3.464
 5603SOL     OW17707   4.566   2.625   4.963
 5603SOL    HW117708   4.614   2.695   4.911
 5603SOL    HW217709   4.532   2.554   4.901
 5604SOL     OW17710   0.745   1.128   4.273
 5604SOL    HW117711   0.788   1.037   4.275
 5604SOL    HW217712   0.663   1.124   4.215
 5605SOL     OW17713   0.838   0.125   5.051
 5605SOL    HW117714   0.779   0.197   5.013
 5605SOL    HW217715   0.811   0.107   5.146
 5606SOL     OW17716   4.730   1.405   0.358
 5606SOL    HW117717   4.752   1.466   0.281
 5606SOL    HW217718   4.782   1.434   0.439
 5607SOL     OW17719   6.156   2.223   3.109
 5607SOL    HW117720   6.218   2.199   3.034
 5607SOL    HW217721   6.168   2.158   3.184
 5608SOL     OW17722   6.145   0.747   3.169
 5608SOL    HW117723   6.148   0.659   3.215
 5608SOL    HW217724   6.073   0.804   3.209
 5609SOL     OW17725   4.518   6.547   0.285
 5609SOL    HW117726   4.433   6.510   0.248
 5609SOL    HW217727   4.499   6.595   0.371
 5610SOL     OW17728   5.298   3.898   0.090
 5610SOL    HW117729   5.357   3.819   0.106
 5610SOL    HW217730   5.208   3.867   0.059
 5611SOL     OW17731   0.040   4.312   2.234
 5611SOL    HW117732   7.027   4.373   2.301
 5611SOL    HW217733   0.035   4.355   2.143
 5612SOL     OW17734   3.201   3.070   0.426
 5612SOL    HW117735   3.196   3.151   0.484
 5612SOL    HW217736   3.206   2.988   0.483
 5613SOL     OW17737   6.714   5.030   4.285
 5613SOL    HW117738   6.616   5.022   4.303
 5613SOL    HW217739   6.735   4.990   4.195
 5614SOL     OW17740   6.474   2.159   4.530
 5614SOL    HW117741   6.465   2.258   4.542
 5614SOL    HW217742   6.383   2.117   4.532
 5615SOL     OW17743   7.015   2.145   2.240
 5615SOL    HW117744   7.018   2.161   2.141
 5615SOL    HW217745   0.056   2.079   2.265
 5616SOL     OW17746   2.385   1.405   4.630
 5616SOL    HW117747   2.462   1.446   4.581
 5616SOL    HW217748   2.300   1.452   4.603
 5617SOL     OW17749   1.857   5.179   4.820
 5617SOL    HW117750   1.890   5.268   4.788
 5617SOL    HW217751   1.808   5.133   4.746
 5618SOL     OW17752   6.065   5.571   3.501
 5618SOL    HW117753   6.018   5.658   3.487
 5618SOL    HW217754   6.147   5.586   3.556
 5619SOL     OW17755   3.175   3.024   3.984
 5619SOL    HW117756   3.080   2.997   3.967
 5619SOL    HW217757   3.226   3.021   3.898
 5620SOL     OW17758   4.356   4.005   6.067
 5620SOL    HW117759   4.277   4.044   6.113
 5620SOL    HW217760   4.381   4.062   5.989
 5621SOL     OW17761   1.818   2.812   6.538
 5621SOL    HW117762   1.836   2.820   6.440
 5621SOL    HW217763   1.905   2.797   6.586
 5622SOL     OW17764   4.241   5.809   4.963
 5622SOL    HW117765   4.168   5.812   5.031
 5622SOL    HW217766   4.305   5.884   4.981
 5623SOL     OW17767   5.016   6.733   4.705
 5623SOL    HW117768   5.028   6.641   4.742
 5623SOL    HW217769   5.059   6.739   4.616
 5624SOL     OW17770   0.650   5.316   3.158
 5624SOL    HW117771   0.598   5.346   3.078
 5624SOL    HW217772   0.603   5.239   3.202
 5625SOL     OW17773   1.033   5.741   4.316
 5625SOL    HW117774   1.112   5.727   4.376
 5625SOL    HW217775   1.064   5.786   4.232
 5626SOL     OW17776   1.790   4.514   4.336
 5626SOL    HW117777   1.791   4.582   4.263
 5626SOL    HW217778   1.866   4.451   4.325
 5627SOL     OW17779   0.598   5.677   5.961
 5627SOL    HW117780   0.643   5.675   6.051
 5627SOL    HW217781   0.525   5.744   5.962
 5628SOL     OW17782   2.828   2.913   0.325
 5628SOL    HW117783   2.866   2.821   0.326
 5628SOL    HW217784   2.799   2.939   0.417
 5629SOL     OW17785   3.689   3.183   1.171
 5629SOL    HW117786   3.747   3.192   1.252
 5629SOL    HW217787   3.608   3.130   1.195
 5630SOL     OW17788   1.421   3.679   6.372
 5630SOL    HW117789   1.499   3.695   6.433
 5630SOL    HW217790   1.438   3.724   6.284
 5631SOL     OW17791   4.669   1.052   2.248
 5631SOL    HW117792   4.579   1.069   2.288
 5631SOL    HW217793   4.723   1.137   2.250
 5632SOL     OW17794   5.134   0.859   5.962
 5632SOL    HW117795   5.215   0.832   5.909
 5632SOL    HW217796   5.113   0.955   5.944
 5633SOL     OW17797   0.357   4.973   4.443
 5633SOL    HW117798   0.432   5.001   4.503
 5633SOL    HW217799   0.322   4.884   4.472
 5634SOL     OW17800   2.551   5.676   5.299
 5634SOL    HW117801   2.646   5.650   5.283
 5634SOL    HW217802   2.492   5.596   5.283
 5635SOL     OW17803   3.017   6.896   6.923
 5635SOL    HW117804   3.043   6.808   6.882
 5635SOL    HW217805   3.100   6.950   6.938
 5636SOL     OW17806   6.111   1.423   5.781
 5636SOL    HW117807   6.143   1.502   5.834
 5636SOL    HW217808   6.135   1.436   5.685
 5637SOL     OW17809   5.619   6.872   4.142
 5637SOL    HW117810   5.572   6.949   4.184
 5637SOL    HW217811   5.615   6.879   4.043
 5638SOL     OW17812   5.329   5.849   1.546
 5638SOL    HW117813   5.285   5.785   1.608
 5638SOL    HW217814   5.375   5.799   1.473
 5639SOL     OW17815   1.287   0.942   1.238
 5639SOL    HW117816   1.300   0.843   1.226
 5639SOL    HW217817   1.375   0.989   1.227
 5640SOL     OW17818   2.535   6.976   2.603
 5640SOL    HW117819   2.574   6.887   2.628
 5640SOL    HW217820   2.517   6.978   2.505
 5641SOL     OW17821   1.080   4.589   5.881
 5641SOL    HW117822   1.119   4.659   5.941
 5641SOL    HW217823   0.982   4.604   5.870
 5642SOL     OW17824   0.832   5.326   5.955
 5642SOL    HW117825   0.924   5.296   5.982
 5642SOL    HW217826   0.795   5.262   5.887
 5643SOL     OW17827   3.384   1.278   4.612
 5643SOL    HW117828   3.345   1.344   4.676
 5643SOL    HW217829   3.424   1.202   4.663
 5644SOL     OW17830   5.173   1.174   4.008
 5644SOL    HW117831   5.237   1.183   3.931
 5644SOL    HW217832   5.125   1.087   4.001
 5645SOL     OW17833   6.096   4.498   2.505
 5645SOL    HW117834   6.175   4.454   2.549
 5645SOL    HW217835   6.020   4.501   2.570
 5646SOL     OW17836   1.625   5.553   3.659
 5646SOL    HW117837   1.543   5.508   3.695
 5646SOL    HW217838   1.618   5.651   3.675
 5647SOL     OW17839   6.651   6.341   6.602
 5647SOL    HW117840   6.602   6.264   6.561
 5647SOL    HW217841   6.711   6.382   6.533
 5648SOL     OW17842   1.852   0.967   2.853
 5648SOL    HW117843   1.871   0.886   2.798
 5648SOL    HW217844   1.811   1.038   2.795
 5649SOL     OW17845   1.490   6.502   5.424
 5649SOL    HW117846   1.508   6.555   5.340
 5649SOL    HW217847   1.544   6.539   5.499
 5650SOL     OW17848   0.423   5.136   1.227
 5650SOL    HW117849   0.446   5.233   1.216
 5650SOL    HW217850   0.426   5.091   1.138
 5651SOL     OW17851   0.142   1.635   1.598
 5651SOL    HW117852   0.114   1.618   1.693
 5651SOL    HW217853   0.060   1.648   1.541
 5652SOL     OW17854   4.925   6.050   2.056
 5652SOL    HW117855   4.877   6.002   1.983
 5652SOL    HW217856   5.001   6.102   2.017
 5653SOL     OW17857   0.452   6.331   6.564
 5653SOL    HW117858   0.394   6.282   6.500
 5653SOL    HW217859   0.404   6.411   6.599
 5654SOL     OW17860   0.065   6.717   6.194
 5654SOL    HW117861   0.028   6.734   6.103
 5654SOL    HW217862   0.008   6.763   6.262
 5655SOL     OW17863   0.925   3.361   4.454
 5655SOL    HW117864   0.966   3.295   4.517
 5655SOL    HW217865   0.950   3.339   4.360
 5656SOL     OW17866   2.811   4.263   0.617
 5656SOL    HW117867   2.802   4.340   0.681
 5656SOL    HW217868   2.892   4.209   0.642
 5657SOL     OW17869   4.643   6.845   1.231
 5657SOL    HW117870   4.552   6.804   1.220
 5657SOL    HW217871   4.642   6.938   1.195
 5658SOL     OW17872   2.954   6.646   6.000
 5658SOL    HW117873   2.943   6.603   5.911
 5658SOL    HW217874   3.051   6.649   6.025
 5659SOL     OW17875   2.937   3.765   2.996
 5659SOL    HW117876   2.932   3.835   3.067
 5659SOL    HW217877   2.943   3.809   2.907
 5660SOL     OW17878   5.186   0.572   6.151
 5660SOL    HW117879   5.258   0.505   6.132
 5660SOL    HW217880   5.226   0.651   6.197
 5661SOL     OW17881   0.144   4.957   6.191
 5661SOL    HW117882   0.205   4.896   6.242
 5661SOL    HW217883   0.053   4.954   6.232
 5662SOL     OW17884   2.531   4.975   4.462
 5662SOL    HW117885   2.490   5.055   4.506
 5662SOL    HW217886   2.630   4.976   4.475
 5663SOL     OW17887   1.232   3.994   6.685
 5663SOL    HW117888   1.295   4.066   6.714
 5663SOL    HW217889   1.153   3.992   6.746
 5664SOL     OW17890   6.954   3.819   4.297
 5664SOL    HW117891   6.920   3.733   4.258
 5664SOL    HW217892   6.876   3.878   4.319
 5665SOL     OW17893   1.752   1.305   6.486
 5665SOL    HW117894   1.790   1.397   6.475
 5665SOL    HW217895   1.712   1.297   6.577
 5666SOL     OW17896   4.899   6.184   1.005
 5666SOL    HW117897   4.888   6.128   0.924
 5666SOL    HW217898   4.957   6.263   0.984
 5667SOL     OW17899   0.731   5.300   3.698
 5667SOL    HW117900   0.637   5.300   3.731
 5667SOL    HW217901   0.738   5.356   3.616
 5668SOL     OW17902   5.163   2.506   6.380
 5668SOL    HW117903   5.137   2.554   6.296
 5668SOL    HW217904   5.187   2.412   6.359
 5669SOL     OW17905   0.079   3.595   6.527
 5669SOL    HW117906   0.146   3.584   6.454
 5669SOL    HW217907   0.093   3.525   6.597
 5670SOL     OW17908   0.478   3.167   2.960
 5670SOL    HW117909   0.405   3.225   2.994
 5670SOL    HW217910   0.467   3.074   2.995
 5671SOL     OW17911   0.893   6.619   6.444
 5671SOL    HW117912   0.892   6.532   6.495
 5671SOL    HW217913   0.927   6.692   6.504
 5672SOL     OW17914   4.204   5.186   6.407
 5672SOL    HW117915   4.301   5.210   6.421
 5672SOL    HW217916   4.155   5.267   6.373
 5673SOL     OW17917   1.001   6.773   1.860
 5673SOL    HW117918   0.977   6.847   1.923
 5673SOL    HW217919   0.959   6.688   1.892
 5674SOL     OW17920   6.745   3.571   2.583
 5674SOL    HW117921   6.659   3.621   2.580
 5674SOL    HW217922   6.727   3.473   2.595
 5675SOL     OW17923   4.111   2.238   5.963
 5675SOL    HW117924   4.134   2.264   6.057
 5675SOL    HW217925   4.158   2.299   5.899
 5676SOL     OW17926   1.931   1.699   1.461
 5676SOL    HW117927   1.920   1.607   1.498
 5676SOL    HW217928   1.897   1.766   1.528
 5677SOL     OW17929   0.516   2.004   2.863
 5677SOL    HW117930   0.568   1.944   2.802
 5677SOL    HW217931   0.527   2.099   2.834
 5678SOL     OW17932   3.088   6.559   3.175
 5678SOL    HW117933   3.149   6.635   3.196
 5678SOL    HW217934   3.053   6.569   3.082
 5679SOL     OW17935   1.419   0.107   3.542
 5679SOL    HW117936   1.431   0.174   3.467
 5679SOL    HW217937   1.394   0.156   3.625
 5680SOL     OW17938   1.626   5.119   0.842
 5680SOL    HW117939   1.584   5.115   0.751
 5680SOL    HW217940   1.723   5.095   0.836
 5681SOL     OW17941   0.705   3.599   6.884
 5681SOL    HW117942   0.694   3.658   6.805
 5681SOL    HW217943   0.735   3.653   6.963
 5682SOL     OW17944   2.072   4.970   5.705
 5682SOL    HW117945   2.070   5.015   5.616
 5682SOL    HW217946   2.111   5.032   5.773
 5683SOL     OW17947   4.596   2.181   6.287
 5683SOL    HW117948   4.550   2.269   6.270
 5683SOL    HW217949   4.662   2.192   6.361
 5684SOL     OW17950   4.120   3.535   4.664
 5684SOL    HW117951   4.057   3.612   4.670
 5684SOL    HW217952   4.120   3.484   4.750
 5685SOL     OW17953   0.702   4.632   1.946
 5685SOL    HW117954   0.709   4.685   1.862
 5685SOL    HW217955   0.793   4.607   1.978
 5686SOL     OW17956   3.185   0.563   0.163
 5686SOL    HW117957   3.146   0.638   0.109
 5686SOL    HW217958   3.232   0.500   0.102
 5687SOL     OW17959   6.829   3.838   4.853
 5687SOL    HW117960   6.842   3.935   4.873
 5687SOL    HW217961   6.783   3.828   4.765
 5688SOL     OW17962   6.566   1.158   0.121
 5688SOL    HW117963   6.587   1.244   0.167
 5688SOL    HW217964   6.499   1.173   0.048
 5689SOL     OW17965   4.406   1.081   0.007
 5689SOL    HW117966   4.432   1.175   7.015
 5689SOL    HW217967   4.415   1.024   6.954
 5690SOL     OW17968   2.536   6.244   0.912
 5690SOL    HW117969   2.580   6.272   0.997
 5690SOL    HW217970   2.605   6.203   0.851
 5691SOL     OW17971   3.098   6.380   2.035
 5691SOL    HW117972   3.103   6.364   2.134
 5691SOL    HW217973   3.173   6.331   1.990
 5692SOL     OW17974   6.810   3.280   5.879
 5692SOL    HW117975   6.905   3.261   5.903
 5692SOL    HW217976   6.754   3.283   5.962
 5693SOL     OW17977   5.554   3.080   2.085
 5693SOL    HW117978   5.511   2.990   2.090
 5693SOL    HW217979   5.483   3.150   2.078
 5694SOL     OW17980   0.339   1.252   3.960
 5694SOL    HW117981   0.427   1.284   3.996
 5694SOL    HW217982   0.354   1.170   3.905
 5695SOL     OW17983   0.666   2.556   2.998
 5695SOL    HW117984   0.679   2.457   3.005
 5695SOL    HW217985   0.750   2.599   2.965
 5696SOL     OW17986   1.679   0.499   2.890
 5696SOL    HW117987   1.675   0.477   2.987
 5696SOL    HW217988   1.697   0.416   2.837
 5697SOL     OW17989   6.074   1.892   0.716
 5697SOL    HW117990   6.002   1.925   0.777
 5697SOL    HW217991   6.154   1.865   0.770
 5698SOL     OW17992   0.517   2.603   1.878
 5698SOL    HW117993   0.423   2.601   1.911
 5698SOL    HW217994   0.579   2.581   1.953
 5699SOL     OW17995   6.447   2.384   3.247
 5699SOL    HW117996   6.405   2.318   3.185
 5699SOL    HW217997   6.546   2.368   3.251
 5700SOL     OW17998   6.528   6.407   4.587
 5700SOL    HW117999   6.572   6.496   4.593
 5700SOL    HW218000   6.572   6.343   4.650
 5701SOL     OW18001   1.067   5.831   3.200
 5701SOL    HW118002   1.031   5.740   3.221
 5701SOL    HW218003   1.106   5.871   3.283
 5702SOL     OW18004   1.996   0.043   5.768
 5702SOL    HW118005   1.974   0.140   5.775
 5702SOL    HW218006   2.002   0.017   5.672
 5703SOL     OW18007   4.987   4.435   0.570
 5703SOL    HW118008   5.046   4.378   0.627
 5703SOL    HW218009   4.969   4.521   0.617
 5704SOL     OW18010   4.176   5.335   2.469
 5704SOL    HW118011   4.213   5.384   2.389
 5704SOL    HW218012   4.155   5.241   2.443
 5705SOL     OW18013   5.610   0.748   0.644
 5705SOL    HW118014   5.524   0.782   0.682
 5705SOL    HW218015   5.673   0.728   0.719
 5706SOL     OW18016   1.098   1.957   0.830
 5706SOL    HW118017   1.151   2.028   0.877
 5706SOL    HW218018   1.060   1.994   0.745
 5707SOL     OW18019   0.491   6.570   0.557
 5707SOL    HW118020   0.504   6.661   0.596
 5707SOL    HW218021   0.517   6.570   0.461
 5708SOL     OW18022   5.453   6.242   1.310
 5708SOL    HW118023   5.387   6.301   1.264
 5708SOL    HW218024   5.512   6.197   1.243
 5709SOL     OW18025   0.961   7.009   3.585
 5709SOL    HW118026   1.013   7.008   3.670
 5709SOL    HW218027   0.864   6.991   3.604
 5710SOL     OW18028   2.436   3.365   5.939
 5710SOL    HW118029   2.346   3.376   5.980
 5710SOL    HW218030   2.467   3.453   5.900
 5711SOL     OW18031   5.103   0.729   2.876
 5711SOL    HW118032   5.064   0.716   2.785
 5711SOL    HW218033   5.199   0.701   2.876
 5712SOL     OW18034   0.604   6.129   5.783
 5712SOL    HW118035   0.613   6.087   5.874
 5712SOL    HW218036   0.533   6.081   5.731
 5713SOL     OW18037   1.041   1.944   1.390
 5713SOL    HW118038   0.949   1.920   1.423
 5713SOL    HW218039   1.044   1.936   1.291
 5714SOL     OW18040   1.009   6.152   0.147
 5714SOL    HW118041   1.064   6.104   0.078
 5714SOL    HW218042   0.945   6.214   0.102
 5715SOL     OW18043   1.212   6.186   3.363
 5715SOL    HW118044   1.129   6.238   3.342
 5715SOL    HW218045   1.268   6.178   3.281
 5716SOL     OW18046   1.113   3.778   5.736
 5716SOL    HW118047   1.132   3.866   5.693
 5716SOL    HW218048   1.070   3.793   5.826
 5717SOL     OW18049   1.765   5.481   0.388
 5717SOL    HW118050   1.762   5.452   0.292
 5717SOL    HW218051   1.692   5.548   0.404
 5718SOL     OW18052   1.214   3.911   6.231
 5718SOL    HW118053   1.190   4.001   6.267
 5718SOL    HW218054   1.222   3.846   6.307
 5719SOL     OW18055   2.372   1.305   6.198
 5719SOL    HW118056   2.279   1.304   6.163
 5719SOL    HW218057   2.394   1.216   6.239
 5720SOL     OW18058   0.909   4.890   4.219
 5720SOL    HW118059   0.938   4.810   4.166
 5720SOL    HW218060   0.980   4.960   4.214
 5721SOL     OW18061   0.218   3.732   0.825
 5721SOL    HW118062   0.235   3.733   0.727
 5721SOL    HW218063   0.287   3.789   0.871
 5722SOL     OW18064   5.624   1.819   4.890
 5722SOL    HW118065   5.698   1.752   4.894
 5722SOL    HW218066   5.663   1.910   4.874
 5723SOL     OW18067   3.975   3.900   6.948
 5723SOL    HW118068   3.926   3.823   6.908
 5723SOL    HW218069   4.011   3.874   0.008
 5724SOL     OW18070   3.978   2.537   5.370
 5724SOL    HW118071   3.948   2.625   5.406
 5724SOL    HW218072   4.041   2.552   5.293
 5725SOL     OW18073   5.370   5.817   3.406
 5725SOL    HW118074   5.348   5.857   3.317
 5725SOL    HW218075   5.409   5.726   3.393
 5726SOL     OW18076   6.409   3.395   3.448
 5726SOL    HW118077   6.368   3.329   3.512
 5726SOL    HW218078   6.405   3.358   3.355
 5727SOL     OW18079   0.738   2.933   3.766
 5727SOL    HW118080   0.824   2.979   3.787
 5727SOL    HW218081   0.683   2.990   3.706
 5728SOL     OW18082   4.669   1.357   5.899
 5728SOL    HW118083   4.726   1.312   5.831
 5728SOL    HW218084   4.703   1.336   5.990
 5729SOL     OW18085   0.952   1.223   0.642
 5729SOL    HW118086   1.008   1.268   0.572
 5729SOL    HW218087   0.954   1.278   0.726
 5730SOL     OW18088   4.084   5.227   5.850
 5730SOL    HW118089   4.182   5.211   5.840
 5730SOL    HW218090   4.053   5.291   5.780
 5731SOL     OW18091   1.981   6.598   3.785
 5731SOL    HW118092   2.065   6.651   3.785
 5731SOL    HW218093   2.003   6.500   3.776
 5732SOL     OW18094   6.432   4.421   4.978
 5732SOL    HW118095   6.459   4.501   4.923
 5732SOL    HW218096   6.452   4.337   4.927
 5733SOL     OW18097   3.205   0.461   5.573
 5733SOL    HW118098   3.124   0.403   5.581
 5733SOL    HW218099   3.287   0.404   5.577
 5734SOL     OW18100   1.422   6.387   6.451
 5734SOL    HW118101   1.514   6.349   6.461
 5734SOL    HW218102   1.403   6.450   6.526
 5735SOL     OW18103   3.882   1.414   2.902
 5735SOL    HW118104   3.796   1.365   2.913
 5735SOL    HW218105   3.878   1.471   2.819
 5736SOL     OW18106   5.420   4.776   0.418
 5736SOL    HW118107   5.382   4.684   0.433
 5736SOL    HW218108   5.504   4.787   0.471
 5737SOL     OW18109   5.701   6.180   0.390
 5737SOL    HW118110   5.698   6.143   0.296
 5737SOL    HW218111   5.661   6.271   0.391
 5738SOL     OW18112   3.618   1.653   6.915
 5738SOL    HW118113   3.634   1.653   7.014
 5738SOL    HW218114   3.696   1.610   6.869
 5739SOL     OW18115   1.228   6.430   5.444
 5739SOL    HW118116   1.205   6.408   5.539
 5739SOL    HW218117   1.327   6.438   5.435
 5740SOL     OW18118   4.610   3.598   1.018
 5740SOL    HW118119   4.664   3.591   1.102
 5740SOL    HW218120   4.665   3.639   0.946
 5741SOL     OW18121   0.186   3.745   4.254
 5741SOL    HW118122   0.113   3.811   4.273
 5741SOL    HW218123   0.194   3.681   4.331
 5742SOL     OW18124   4.452   5.849   3.078
 5742SOL    HW118125   4.468   5.905   2.997
 5742SOL    HW218126   4.473   5.903   3.160
 5743SOL     OW18127   2.556   6.118   5.011
 5743SOL    HW118128   2.642   6.162   4.986
 5743SOL    HW218129   2.574   6.046   5.078
 5744SOL     OW18130   5.168   0.987   2.257
 5744SOL    HW118131   5.121   0.918   2.202
 5744SOL    HW218132   5.199   1.062   2.198
 5745SOL     OW18133   2.594   0.817   4.072
 5745SOL    HW118134   2.623   0.907   4.039
 5745SOL    HW218135   2.515   0.827   4.132
 5746SOL     OW18136   4.885   6.794   1.357
 5746SOL    HW118137   4.875   6.718   1.420
 5746SOL    HW218138   4.798   6.809   1.309
 5747SOL     OW18139   0.617   5.226   1.645
 5747SOL    HW118140   0.687   5.211   1.575
 5747SOL    HW218141   0.658   5.268   1.725
 5748SOL     OW18142   1.446   6.779   1.138
 5748SOL    HW118143   1.515   6.719   1.097
 5748SOL    HW218144   1.491   6.863   1.170
 5749SOL     OW18145   1.682   6.771   4.934
 5749SOL    HW118146   1.752   6.711   4.895
 5749SOL    HW218147   1.593   6.747   4.896
 5750SOL     OW18148   6.002   6.371   5.260
 5750SOL    HW118149   6.064   6.339   5.188
 5750SOL    HW218150   6.033   6.460   5.294
 5751SOL     OW18151   2.481   2.583   4.790
 5751SOL    HW118152   2.405   2.560   4.850
 5751SOL    HW218153   2.555   2.623   4.843
 5752SOL     OW18154   5.738   0.368   0.709
 5752SOL    HW118155   5.796   0.341   0.787
 5752SOL    HW218156   5.699   0.286   0.667
 5753SOL     OW18157   3.461   4.115   5.073
 5753SOL    HW118158   3.426   4.164   5.153
 5753SOL    HW218159   3.400   4.129   4.995
 5754SOL     OW18160   0.894   5.441   1.508
 5754SOL    HW118161   0.934   5.515   1.453
 5754SOL    HW218162   0.839   5.381   1.450
 5755SOL     OW18163   1.371   2.099   6.303
 5755SOL    HW118164   1.368   2.008   6.260
 5755SOL    HW218165   1.435   2.156   6.252
 5756SOL     OW18166   0.492   0.946   2.647
 5756SOL    HW118167   0.441   0.898   2.577
 5756SOL    HW218168   0.539   0.880   2.706
 5757SOL     OW18169   0.545   5.426   4.101
 5757SOL    HW118170   0.480   5.369   4.152
 5757SOL    HW218171   0.527   5.417   4.003
 5758SOL     OW18172   2.348   1.309   2.704
 5758SOL    HW118173   2.342   1.293   2.605
 5758SOL    HW218174   2.335   1.407   2.722
 5759SOL     OW18175   4.833   0.585   0.170
 5759SOL    HW118176   4.861   0.635   0.087
 5759SOL    HW218177   4.867   0.633   0.251
 5760SOL     OW18178   6.007   2.298   0.871
 5760SOL    HW118179   6.071   2.374   0.879
 5760SOL    HW218180   5.932   2.323   0.810
 5761SOL     OW18181   6.159   4.990   5.889
 5761SOL    HW118182   6.163   4.911   5.951
 5761SOL    HW218183   6.172   4.960   5.795
 5762SOL     OW18184   5.016   4.345   1.098
 5762SOL    HW118185   4.928   4.350   1.052
 5762SOL    HW218186   5.083   4.399   1.048
 5763SOL     OW18187   6.088   5.932   0.964
 5763SOL    HW118188   6.071   5.983   0.880
 5763SOL    HW218189   6.186   5.913   0.972
 5764SOL     OW18190   4.548   4.543   4.667
 5764SOL    HW118191   4.568   4.452   4.704
 5764SOL    HW218192   4.486   4.591   4.728
 5765SOL     OW18193   6.084   3.381   0.347
 5765SOL    HW118194   6.146   3.309   0.316
 5765SOL    HW218195   6.134   3.467   0.352
 5766SOL     OW18196   1.618   1.703   5.282
 5766SOL    HW118197   1.539   1.660   5.238
 5766SOL    HW218198   1.666   1.635   5.338
 5767SOL     OW18199   2.368   0.265   0.838
 5767SOL    HW118200   2.425   0.295   0.914
 5767SOL    HW218201   2.393   0.171   0.813
 5768SOL     OW18202   0.584   6.967   4.021
 5768SOL    HW118203   0.493   7.007   4.007
 5768SOL    HW218204   0.644   6.994   3.946
 5769SOL     OW18205   2.836   5.253   4.059
 5769SOL    HW118206   2.934   5.260   4.074
 5769SOL    HW218207   2.788   5.309   4.127
 5770SOL     OW18208   6.942   6.229   6.117
 5770SOL    HW118209   6.983   6.137   6.119
 5770SOL    HW218210   6.850   6.223   6.079
 5771SOL     OW18211   0.881   0.032   4.201
 5771SOL    HW118212   0.923   0.022   4.291
 5771SOL    HW218213   0.949   0.013   4.130
 5772SOL     OW18214   5.128   1.304   1.367
 5772SOL    HW118215   5.189   1.282   1.290
 5772SOL    HW218216   5.046   1.247   1.362
 5773SOL     OW18217   4.186   1.118   3.224
 5773SOL    HW118218   4.104   1.125   3.281
 5773SOL    HW218219   4.159   1.110   3.128
 5774SOL     OW18220   3.004   6.990   4.054
 5774SOL    HW118221   3.041   0.009   4.134
 5774SOL    HW218222   3.051   6.903   4.044
 5775SOL     OW18223   1.387   0.293   2.206
 5775SOL    HW118224   1.460   0.244   2.253
 5775SOL    HW218225   1.424   0.377   2.165
 5776SOL     OW18226   0.555   0.599   3.881
 5776SOL    HW118227   0.606   0.662   3.822
 5776SOL    HW218228   0.537   0.644   3.969
 5777SOL     OW18229   6.691   0.239   4.989
 5777SOL    HW118230   6.624   0.168   4.968
 5777SOL    HW218231   6.645   0.323   5.013
 5778SOL     OW18232   1.287   0.168   0.154
 5778SOL    HW118233   1.373   0.215   0.134
 5778SOL    HW218234   1.249   0.203   0.240
 5779SOL     OW18235   4.817   2.235   1.199
 5779SOL    HW118236   4.829   2.333   1.211
 5779SOL    HW218237   4.805   2.192   1.289
 5780SOL     OW18238   6.253   6.197   3.777
 5780SOL    HW118239   6.309   6.169   3.855
 5780SOL    HW218240   6.304   6.181   3.692
 5781SOL     OW18241   6.989   4.996   4.326
 5781SOL    HW118242   6.989   4.896   4.321
 5781SOL    HW218243   6.898   5.030   4.303
 5782SOL     OW18244   1.831   1.684   0.815
 5782SOL    HW118245   1.782   1.769   0.801
 5782SOL    HW218246   1.925   1.703   0.843
 5783SOL     OW18247   0.907   0.927   1.155
 5783SOL    HW118248   0.982   0.966   1.102
 5783SOL    HW218249   0.943   0.891   1.241
 5784SOL     OW18250   6.910   6.174   5.422
 5784SOL    HW118251   7.009   6.165   5.424
 5784SOL    HW218252   6.873   6.157   5.513
 5785SOL     OW18253   2.254   2.038   0.122
 5785SOL    HW118254   2.340   2.071   0.084
 5785SOL    HW218255   2.219   2.105   0.187
 5786SOL     OW18256   0.600   4.600   0.328
 5786SOL    HW118257   0.575   4.565   0.418
 5786SOL    HW218258   0.549   4.684   0.310
 5787SOL     OW18259   2.990   1.780   4.560
 5787SOL    HW118260   2.909   1.810   4.610
 5787SOL    HW218261   3.062   1.755   4.625
 5788SOL     OW18262   3.112   1.654   1.378
 5788SOL    HW118263   3.171   1.691   1.306
 5788SOL    HW218264   3.042   1.596   1.338
 5789SOL     OW18265   3.005   4.706   0.224
 5789SOL    HW118266   3.081   4.769   0.239
 5789SOL    HW218267   3.040   4.617   0.197
 5790SOL     OW18268   1.420   4.232   5.301
 5790SOL    HW118269   1.516   4.206   5.293
 5790SOL    HW218270   1.363   4.149   5.300
 5791SOL     OW18271   4.041   1.730   2.286
 5791SOL    HW118272   3.981   1.781   2.348
 5791SOL    HW218273   4.105   1.793   2.242
 5792SOL     OW18274   5.882   3.293   2.260
 5792SOL    HW118275   5.968   3.331   2.294
 5792SOL    HW218276   5.806   3.354   2.284
 5793SOL     OW18277   4.990   1.426   3.557
 5793SOL    HW118278   4.949   1.337   3.575
 5793SOL    HW218279   4.959   1.460   3.468
 5794SOL     OW18280   2.746   1.438   0.327
 5794SOL    HW118281   2.700   1.509   0.380
 5794SOL    HW218282   2.838   1.469   0.302
 5795SOL     OW18283   6.509   0.150   6.922
 5795SOL    HW118284   6.410   0.152   6.932
 5795SOL    HW218285   6.533   0.102   6.838
 5796SOL     OW18286   4.795   1.278   6.663
 5796SOL    HW118287   4.776   1.254   6.568
 5796SOL    HW218288   4.710   1.304   6.709
 5797SOL     OW18289   4.805   3.035   6.211
 5797SOL    HW118290   4.776   2.968   6.279
 5797SOL    HW218291   4.905   3.037   6.207
 5798SOL     OW18292   0.954   4.696   5.624
 5798SOL    HW118293   1.008   4.776   5.650
 5798SOL    HW218294   0.889   4.675   5.696
 5799SOL     OW18295   0.418   0.374   3.076
 5799SOL    HW118296   0.478   0.441   3.031
 5799SOL    HW218297   0.399   0.403   3.169
 5800SOL     OW18298   6.217   6.456   2.075
 5800SOL    HW118299   6.308   6.416   2.087
 5800SOL    HW218300   6.151   6.404   2.129
 5801SOL     OW18301   2.009   2.263   3.354
 5801SOL    HW118302   1.982   2.188   3.294
 5801SOL    HW218303   1.927   2.312   3.385
 5802SOL     OW18304   0.721   4.334   2.295
 5802SOL    HW118305   0.671   4.404   2.347
 5802SOL    HW218306   0.773   4.278   2.359
 5803SOL     OW18307   2.276   4.704   2.520
 5803SOL    HW118308   2.292   4.737   2.427
 5803SOL    HW218309   2.364   4.689   2.565
 5804SOL     OW18310   0.234   5.456   4.020
 5804SOL    HW118311   0.135   5.455   4.005
 5804SOL    HW218312   0.254   5.453   4.118
 5805SOL     OW18313   2.900   3.432   6.841
 5805SOL    HW118314   2.900   3.434   6.941
 5805SOL    HW218315   2.964   3.363   6.809
 5806SOL     OW18316   0.287   5.772   4.966
 5806SOL    HW118317   0.374   5.724   4.959
 5806SOL    HW218318   0.219   5.726   4.909
 5807SOL     OW18319   0.650   3.973   2.258
 5807SOL    HW118320   0.636   3.901   2.190
 5807SOL    HW218321   0.619   4.061   2.221
 5808SOL     OW18322   5.515   5.713   4.902
 5808SOL    HW118323   5.436   5.714   4.964
 5808SOL    HW218324   5.592   5.760   4.944
 5809SOL     OW18325   5.270   1.390   4.491
 5809SOL    HW118326   5.349   1.449   4.477
 5809SOL    HW218327   5.200   1.410   4.422
 5810SOL     OW18328   3.623   1.750   4.901
 5810SOL    HW118329   3.624   1.749   4.801
 5810SOL    HW218330   3.541   1.798   4.933
 5811SOL     OW18331   2.892   0.899   5.325
 5811SOL    HW118332   2.807   0.856   5.355
 5811SOL    HW218333   2.966   0.872   5.386
 5812SOL     OW18334   6.647   2.734   4.077
 5812SOL    HW118335   6.645   2.808   4.143
 5812SOL    HW218336   6.619   2.649   4.121
 5813SOL     OW18337   2.039   2.312   0.849
 5813SOL    HW118338   1.955   2.263   0.873
 5813SOL    HW218339   2.096   2.323   0.931
 5814SOL     OW18340   6.426   4.706   1.196
 5814SOL    HW118341   6.417   4.720   1.295
 5814SOL    HW218342   6.507   4.754   1.163
 5815SOL     OW18343   3.967   2.172   4.389
 5815SOL    HW118344   3.885   2.152   4.336
 5815SOL    HW218345   4.043   2.189   4.326
 5816SOL     OW18346   4.244   5.390   0.184
 5816SOL    HW118347   4.325   5.444   0.206
 5816SOL    HW218348   4.269   5.314   0.125
 5817SOL     OW18349   5.665   3.375   6.158
 5817SOL    HW118350   5.703   3.289   6.191
 5817SOL    HW218351   5.633   3.364   6.064
 5818SOL     OW18352   6.380   6.329   4.886
 5818SOL    HW118353   6.315   6.262   4.850
 5818SOL    HW218354   6.472   6.307   4.854
 5819SOL     OW18355   3.840   6.786   6.793
 5819SOL    HW118356   3.851   6.769   6.695
 5819SOL    HW218357   3.756   6.838   6.809
 5820SOL     OW18358   4.143   5.693   4.080
 5820SOL    HW118359   4.094   5.779   4.091
 5820SOL    HW218360   4.172   5.683   3.985
 5821SOL     OW18361   0.200   6.919   1.380
 5821SOL    HW118362   0.106   6.894   1.400
 5821SOL    HW218363   0.202   7.006   1.330
 5822SOL     OW18364   1.485   2.195   1.719
 5822SOL    HW118365   1.392   2.189   1.755
 5822SOL    HW218366   1.515   2.291   1.722
 5823SOL     OW18367   1.657   1.108   5.480
 5823SOL    HW118368   1.683   1.011   5.470
 5823SOL    HW218369   1.690   1.141   5.568
 5824SOL     OW18370   6.610   5.492   2.387
 5824SOL    HW118371   6.671   5.448   2.453
 5824SOL    HW218372   6.654   5.493   2.297
 5825SOL     OW18373   1.744   1.532   5.705
 5825SOL    HW118374   1.739   1.625   5.744
 5825SOL    HW218375   1.765   1.467   5.777
 5826SOL     OW18376   6.890   4.824   5.245
 5826SOL    HW118377   6.849   4.772   5.170
 5826SOL    HW218378   6.818   4.869   5.298
 5827SOL     OW18379   2.099   4.423   4.736
 5827SOL    HW118380   2.016   4.436   4.790
 5827SOL    HW218381   2.155   4.351   4.777
 5828SOL     OW18382   6.419   1.864   1.188
 5828SOL    HW118383   6.506   1.908   1.166
 5828SOL    HW218384   6.348   1.901   1.129
 5829SOL     OW18385   1.431   0.881   3.364
 5829SOL    HW118386   1.465   0.952   3.302
 5829SOL    HW218387   1.358   0.829   3.319
 5830SOL     OW18388   5.075   6.506   5.278
 5830SOL    HW118389   5.125   6.422   5.259
 5830SOL    HW218390   5.137   6.572   5.321
 5831SOL     OW18391   0.629   0.871   5.532
 5831SOL    HW118392   0.689   0.791   5.531
 5831SOL    HW218393   0.685   0.955   5.531
 5832SOL     OW18394   3.191   4.434   6.673
 5832SOL    HW118395   3.196   4.494   6.593
 5832SOL    HW218396   3.170   4.341   6.642
 5833SOL     OW18397   3.498   3.642   4.860
 5833SOL    HW118398   3.407   3.670   4.891
 5833SOL    HW218399   3.500   3.543   4.846
 5834SOL     OW18400   0.283   3.162   0.142
 5834SOL    HW118401   0.243   3.241   0.189
 5834SOL    HW218402   0.214   3.089   0.138
 5835SOL     OW18403   5.231   3.226   4.177
 5835SOL    HW118404   5.253   3.137   4.139
 5835SOL    HW218405   5.274   3.236   4.267
 5836SOL     OW18406   2.810   6.694   2.429
 5836SOL    HW118407   2.811   6.601   2.392
 5836SOL    HW218408   2.901   6.735   2.420
 5837SOL     OW18409   4.102   4.465   5.942
 5837SOL    HW118410   4.017   4.444   5.990
 5837SOL    HW218411   4.132   4.558   5.964
 5838SOL     OW18412   3.328   2.283   6.984
 5838SOL    HW118413   3.367   2.355   0.013
 5838SOL    HW218414   3.244   2.317   6.942
 5839SOL     OW18415   0.732   1.690   2.337
 5839SOL    HW118416   0.829   1.710   2.324
 5839SOL    HW218417   0.719   1.592   2.346
 5840SOL     OW18418   0.615   5.379   6.456
 5840SOL    HW118419   0.678   5.455   6.473
 5840SOL    HW218420   0.658   5.312   6.395
 5841SOL     OW18421   5.259   2.076   2.375
 5841SOL    HW118422   5.301   2.086   2.284
 5841SOL    HW218423   5.263   1.980   2.403
 5842SOL     OW18424   4.480   3.043   1.449
 5842SOL    HW118425   4.500   2.961   1.396
 5842SOL    HW218426   4.547   3.114   1.427
 5843SOL     OW18427   1.814   4.241   3.161
 5843SOL    HW118428   1.893   4.301   3.171
 5843SOL    HW218429   1.842   4.157   3.115
 5844SOL     OW18430   1.959   6.446   6.324
 5844SOL    HW118431   1.888   6.428   6.391
 5844SOL    HW218432   1.961   6.544   6.302
 5845SOL     OW18433   0.158   0.915   2.334
 5845SOL    HW118434   0.239   0.955   2.290
 5845SOL    HW218435   0.104   0.866   2.265
 5846SOL     OW18436   0.504   2.389   4.244
 5846SOL    HW118437   0.540   2.383   4.151
 5846SOL    HW218438   0.540   2.313   4.298
 5847SOL     OW18439   2.587   2.081   1.712
 5847SOL    HW118440   2.578   1.996   1.661
 5847SOL    HW218441   2.668   2.130   1.680
 5848SOL     OW18442   2.169   5.459   3.427
 5848SOL    HW118443   2.082   5.420   3.395
 5848SOL    HW218444   2.231   5.471   3.349
 5849SOL     OW18445   0.147   0.134   6.444
 5849SOL    HW118446   0.081   0.085   6.501
 5849SOL    HW218447   0.145   0.231   6.466
 5850SOL     OW18448   6.801   2.457   1.788
 5850SOL    HW118449   6.731   2.503   1.734
 5850SOL    HW218450   6.840   2.521   1.854
 5851SOL     OW18451   5.081   3.847   3.410
 5851SOL    HW118452   5.067   3.882   3.317
 5851SOL    HW218453   4.995   3.854   3.461
 5852SOL     OW18454   6.604   5.862   3.046
 5852SOL    HW118455   6.614   5.807   2.963
 5852SOL    HW218456   6.690   5.910   3.065
 5853SOL     OW18457   3.825   6.136   4.266
 5853SOL    HW118458   3.902   6.154   4.326
 5853SOL    HW218459   3.845   6.057   4.208
 5854SOL     OW18460   5.763   5.001   5.518
 5854SOL    HW118461   5.758   5.093   5.557
 5854SOL    HW218462   5.670   4.968   5.500
 5855SOL     OW18463   0.203   1.381   4.921
 5855SOL    HW118464   0.205   1.284   4.897
 5855SOL    HW218465   0.189   1.391   5.020
 5856SOL     OW18466   1.829   6.018   3.715
 5856SOL    HW118467   1.746   6.020   3.771
 5856SOL    HW218468   1.900   5.967   3.763
 5857SOL     OW18469   6.370   2.329   5.999
 5857SOL    HW118470   6.446   2.360   5.942
 5857SOL    HW218471   6.287   2.381   5.976
 5858SOL     OW18472   2.450   2.352   2.547
 5858SOL    HW118473   2.516   2.373   2.474
 5858SOL    HW218474   2.370   2.413   2.537
 5859SOL     OW18475   5.734   6.391   1.662
 5859SOL    HW118476   5.716   6.380   1.760
 5859SOL    HW218477   5.657   6.439   1.620
 5860SOL     OW18478   1.155   4.114   1.932
 5860SOL    HW118479   1.228   4.138   1.995
 5860SOL    HW218480   1.092   4.049   1.976
 5861SOL     OW18481   4.432   1.654   4.910
 5861SOL    HW118482   4.518   1.609   4.883
 5861SOL    HW218483   4.377   1.589   4.963
 5862SOL     OW18484   5.102   4.980   1.732
 5862SOL    HW118485   5.080   4.971   1.634
 5862SOL    HW218486   5.087   5.075   1.760
 5863SOL     OW18487   3.104   1.627   4.951
 5863SOL    HW118488   3.004   1.623   4.962
 5863SOL    HW218489   3.148   1.580   5.027
 5864SOL     OW18490   3.942   3.860   1.724
 5864SOL    HW118491   4.033   3.870   1.764
 5864SOL    HW218492   3.891   3.791   1.775
 5865SOL     OW18493   5.911   0.844   5.150
 5865SOL    HW118494   5.876   0.928   5.110
 5865SOL    HW218495   5.927   0.857   5.247
 5866SOL     OW18496   3.860   4.281   0.652
 5866SOL    HW118497   3.776   4.310   0.697
 5866SOL    HW218498   3.905   4.359   0.610
 5867SOL     OW18499   1.095   3.873   0.783
 5867SOL    HW118500   1.194   3.859   0.782
 5867SOL    HW218501   1.051   3.796   0.829
 5868SOL     OW18502   0.556   1.568   5.487
 5868SOL    HW118503   0.532   1.598   5.394
 5868SOL    HW218504   0.542   1.469   5.494
 5869SOL     OW18505   1.939   6.296   4.015
 5869SOL    HW118506   1.843   6.273   4.005
 5869SOL    HW218507   1.956   6.334   4.106
 5870SOL     OW18508   5.160   5.987   4.698
 5870SOL    HW118509   5.121   5.924   4.630
 5870SOL    HW218510   5.180   6.074   4.653
 5871SOL     OW18511   3.869   2.829   1.119
 5871SOL    HW118512   3.798   2.870   1.061
 5871SOL    HW218513   3.894   2.894   1.191
 5872SOL     OW18514   3.942   6.033   1.584
 5872SOL    HW118515   3.899   6.109   1.536
 5872SOL    HW218516   3.977   6.065   1.672
 5873SOL     OW18517   2.985   1.903   1.419
 5873SOL    HW118518   3.062   1.840   1.409
 5873SOL    HW218519   2.914   1.859   1.473
 5874SOL     OW18520   2.915   4.340   7.007
 5874SOL    HW118521   2.892   4.376   6.916
 5874SOL    HW218522   2.967   4.255   6.996
 5875SOL     OW18523   4.736   0.966   6.517
 5875SOL    HW118524   4.805   1.037   6.507
 5875SOL    HW218525   4.674   0.991   6.591
 5876SOL     OW18526   3.361   3.406   0.679
 5876SOL    HW118527   3.359   3.501   0.647
 5876SOL    HW218528   3.268   3.370   0.682
 5877SOL     OW18529   0.342   0.288   0.635
 5877SOL    HW118530   0.350   0.377   0.589
 5877SOL    HW218531   0.368   0.215   0.572
 5878SOL     OW18532   5.836   5.122   4.010
 5878SOL    HW118533   5.765   5.143   4.078
 5878SOL    HW218534   5.896   5.050   4.046
 5879SOL     OW18535   1.578   3.326   6.957
 5879SOL    HW118536   1.512   3.301   7.028
 5879SOL    HW218537   1.618   3.415   6.980
 5880SOL     OW18538   5.217   4.405   6.598
 5880SOL    HW118539   5.299   4.405   6.655
 5880SOL    HW218540   5.238   4.360   6.511
 5881SOL     OW18541   1.329   6.866   1.612
 5881SOL    HW118542   1.329   6.779   1.564
 5881SOL    HW218543   1.289   6.937   1.553
 5882SOL     OW18544   1.082   6.353   5.952
 5882SOL    HW118545   0.985   6.364   5.974
 5882SOL    HW218546   1.138   6.383   6.029
 5883SOL     OW18547   0.787   1.308   0.083
 5883SOL    HW118548   0.795   1.213   0.051
 5883SOL    HW218549   0.748   1.364   0.010
 5884SOL     OW18550   4.422   0.835   4.587
 5884SOL    HW118551   4.469   0.751   4.615
 5884SOL    HW218552   4.337   0.845   4.639
 5885SOL     OW18553   0.334   5.754   2.614
 5885SOL    HW118554   0.398   5.726   2.686
 5885SOL    HW218555   0.381   5.812   2.548
 5886SOL     OW18556   0.981   1.940   3.973
 5886SOL    HW118557   0.902   1.974   3.923
 5886SOL    HW218558   1.051   2.012   3.978
 5887SOL     OW18559   2.547   1.922   1.481
 5887SOL    HW118560   2.494   2.006   1.467
 5887SOL    HW218561   2.591   1.895   1.395
 5888SOL     OW18562   2.398   6.769   1.135
 5888SOL    HW118563   2.405   6.748   1.038
 5888SOL    HW218564   2.406   6.868   1.148
 5889SOL     OW18565   6.499   1.892   6.426
 5889SOL    HW118566   6.400   1.898   6.414
 5889SOL    HW218567   6.536   1.823   6.364
 5890SOL     OW18568   2.751   0.230   2.803
 5890SOL    HW118569   2.772   0.143   2.849
 5890SOL    HW218570   2.822   0.251   2.736
 5891SOL     OW18571   2.360   3.667   0.426
 5891SOL    HW118572   2.409   3.653   0.340
 5891SOL    HW218573   2.372   3.762   0.456
 5892SOL     OW18574   0.664   5.159   2.065
 5892SOL    HW118575   0.681   5.229   1.995
 5892SOL    HW218576   0.683   5.196   2.155
 5893SOL     OW18577   2.132   4.139   2.034
 5893SOL    HW118578   2.063   4.173   2.099
 5893SOL    HW218579   2.126   4.039   2.030
 5894SOL     OW18580   0.714   6.157   4.886
 5894SOL    HW118581   0.621   6.148   4.921
 5894SOL    HW218582   0.753   6.065   4.873
 5895SOL     OW18583   5.871   3.786   3.553
 5895SOL    HW118584   5.814   3.838   3.489
 5895SOL    HW218585   5.961   3.770   3.511
 5896SOL     OW18586   4.852   1.833   1.286
 5896SOL    HW118587   4.829   1.922   1.326
 5896SOL    HW218588   4.939   1.802   1.322
 5897SOL     OW18589   4.117   1.109   1.298
 5897SOL    HW118590   4.140   1.146   1.209
 5897SOL    HW218591   4.084   1.182   1.358
 5898SOL     OW18592   2.709   0.586   5.143
 5898SOL    HW118593   2.639   0.654   5.118
 5898SOL    HW218594   2.703   0.508   5.081
 5899SOL     OW18595   5.921   6.313   6.743
 5899SOL    HW118596   5.932   6.251   6.666
 5899SOL    HW218597   5.926   6.408   6.711
 5900SOL     OW18598   6.773   4.581   3.151
 5900SOL    HW118599   6.801   4.530   3.069
 5900SOL    HW218600   6.710   4.655   3.124
 5901SOL     OW18601   3.259   0.635   1.236
 5901SOL    HW118602   3.276   0.732   1.255
 5901SOL    HW218603   3.333   0.599   1.179
 5902SOL     OW18604   5.980   3.353   5.792
 5902SOL    HW118605   6.071   3.390   5.809
 5902SOL    HW218606   5.941   3.318   5.877
 5903SOL     OW18607   4.653   3.931   6.133
 5903SOL    HW118608   4.672   3.840   6.095
 5903SOL    HW218609   4.554   3.942   6.143
 5904SOL     OW18610   0.621   4.280   1.083
 5904SOL    HW118611   0.712   4.265   1.045
 5904SOL    HW218612   0.553   4.230   1.028
 5905SOL     OW18613   6.689   0.492   3.388
 5905SOL    HW118614   6.702   0.564   3.320
 5905SOL    HW218615   6.771   0.487   3.446
 5906SOL     OW18616   4.872   1.713   4.580
 5906SOL    HW118617   4.932   1.735   4.503
 5906SOL    HW218618   4.782   1.755   4.565
 5907SOL     OW18619   1.088   6.682   0.758
 5907SOL    HW118620   1.084   6.668   0.659
 5907SOL    HW218621   1.100   6.595   0.804
 5908SOL     OW18622   6.673   4.262   0.079
 5908SOL    HW118623   6.742   4.304   0.020
 5908SOL    HW218624   6.694   4.282   0.175
 5909SOL     OW18625   6.325   5.147   6.339
 5909SOL    HW118626   6.410   5.157   6.286
 5909SOL    HW218627   6.247   5.170   6.281
 5910SOL     OW18628   0.363   4.447   1.502
 5910SOL    HW118629   0.292   4.515   1.522
 5910SOL    HW218630   0.431   4.487   1.441
 5911SOL     OW18631   6.678   5.201   6.471
 5911SOL    HW118632   6.717   5.113   6.499
 5911SOL    HW218633   6.578   5.196   6.477
 5912SOL     OW18634   5.997   3.136   6.672
 5912SOL    HW118635   6.033   3.199   6.741
 5912SOL    HW218636   5.905   3.106   6.700
 5913SOL     OW18637   3.588   3.034   6.374
 5913SOL    HW118638   3.592   3.133   6.383
 5913SOL    HW218639   3.499   3.007   6.339
 5914SOL     OW18640   3.005   5.800   6.130
 5914SOL    HW118641   2.924   5.765   6.084
 5914SOL    HW218642   3.024   5.745   6.211
 5915SOL     OW18643   5.800   4.484   1.911
 5915SOL    HW118644   5.716   4.440   1.880
 5915SOL    HW218645   5.792   4.583   1.902
 5916SOL     OW18646   4.332   6.145   5.685
 5916SOL    HW118647   4.233   6.160   5.685
 5916SOL    HW218648   4.369   6.170   5.596
 5917SOL     OW18649   3.814   3.640   3.774
 5917SOL    HW118650   3.772   3.549   3.774
 5917SOL    HW218651   3.880   3.646   3.849
 5918SOL     OW18652   2.419   3.785   5.368
 5918SOL    HW118653   2.507   3.755   5.405
 5918SOL    HW218654   2.434   3.850   5.294
 5919SOL     OW18655   3.691   2.522   0.916
 5919SOL    HW118656   3.758   2.577   0.865
 5919SOL    HW218657   3.721   2.427   0.918
 5920SOL     OW18658   3.517   6.977   0.479
 5920SOL    HW118659   3.584   6.958   0.407
 5920SOL    HW218660   3.499   0.045   0.483
 5921SOL     OW18661   3.453   5.328   5.834
 5921SOL    HW118662   3.548   5.357   5.844
 5921SOL    HW218663   3.449   5.230   5.818
 5922SOL     OW18664   6.750   5.485   3.380
 5922SOL    HW118665   6.723   5.487   3.284
 5922SOL    HW218666   6.679   5.529   3.436
 5923SOL     OW18667   5.130   0.221   1.110
 5923SOL    HW118668   5.059   0.227   1.180
 5923SOL    HW218669   5.200   0.291   1.127
 5924SOL     OW18670   6.674   1.980   4.919
 5924SOL    HW118671   6.752   1.943   4.869
 5924SOL    HW218672   6.659   1.925   5.002
 5925SOL     OW18673   4.464   5.396   3.033
 5925SOL    HW118674   4.371   5.432   3.034
 5925SOL    HW218675   4.514   5.434   2.955
 5926SOL     OW18676   4.073   5.073   1.945
 5926SOL    HW118677   4.106   5.007   1.877
 5926SOL    HW218678   4.146   5.094   2.009
 5927SOL     OW18679   1.482   4.430   3.472
 5927SOL    HW118680   1.422   4.408   3.395
 5927SOL    HW218681   1.560   4.367   3.473
 5928SOL     OW18682   3.327   0.379   1.438
 5928SOL    HW118683   3.313   0.402   1.534
 5928SOL    HW218684   3.400   0.436   1.400
 5929SOL     OW18685   0.626   6.431   5.799
 5929SOL    HW118686   0.603   6.443   5.896
 5929SOL    HW218687   0.624   6.334   5.776
 5930SOL     OW18688   0.116   2.094   3.325
 5930SOL    HW118689   0.115   2.189   3.357
 5930SOL    HW218690   0.046   2.081   3.255
 5931SOL     OW18691   6.014   5.503   3.159
 5931SOL    HW118692   5.975   5.431   3.102
 5931SOL    HW218693   6.007   5.476   3.255
 5932SOL     OW18694   2.227   6.376   1.123
 5932SOL    HW118695   2.226   6.281   1.156
 5932SOL    HW218696   2.308   6.390   1.065
 5933SOL     OW18697   0.536   5.842   3.034
 5933SOL    HW118698   0.569   5.808   3.122
 5933SOL    HW218699   0.509   5.938   3.043
 5934SOL     OW18700   3.843   3.624   4.308
 5934SOL    HW118701   3.924   3.594   4.256
 5934SOL    HW218702   3.865   3.708   4.357
 5935SOL     OW18703   4.248   3.553   5.494
 5935SOL    HW118704   4.172   3.504   5.451
 5935SOL    HW218705   4.274   3.631   5.437
 5936SOL     OW18706   4.156   3.743   0.371
 5936SOL    HW118707   4.224   3.756   0.443
 5936SOL    HW218708   4.118   3.651   0.375
 5937SOL     OW18709   0.736   4.730   2.564
 5937SOL    HW118710   0.718   4.716   2.661
 5937SOL    HW218711   0.661   4.691   2.510
 5938SOL     OW18712   1.151   5.533   3.955
 5938SOL    HW118713   1.177   5.465   4.023
 5938SOL    HW218714   1.057   5.517   3.925
 5939SOL     OW18715   3.509   6.892   3.022
 5939SOL    HW118716   3.463   6.818   2.973
 5939SOL    HW218717   3.523   6.865   3.117
 5940SOL     OW18718   4.396   5.535   1.235
 5940SOL    HW118719   4.394   5.490   1.325
 5940SOL    HW218720   4.369   5.630   1.246
 5941SOL     OW18721   6.427   3.187   1.675
 5941SOL    HW118722   6.372   3.251   1.728
 5941SOL    HW218723   6.486   3.134   1.736
 5942SOL     OW18724   4.654   2.906   6.647
 5942SOL    HW118725   4.555   2.892   6.647
 5942SOL    HW218726   4.690   2.894   6.739
 5943SOL     OW18727   3.073   5.256   0.678
 5943SOL    HW118728   3.041   5.165   0.651
 5943SOL    HW218729   3.169   5.267   0.653
 5944SOL     OW18730   5.991   2.272   1.316
 5944SOL    HW118731   6.072   2.331   1.312
 5944SOL    HW218732   6.014   2.188   1.366
 5945SOL     OW18733   6.467   5.462   5.325
 5945SOL    HW118734   6.440   5.372   5.290
 5945SOL    HW218735   6.480   5.456   5.424
 5946SOL     OW18736   3.185   3.153   6.055
 5946SOL    HW118737   3.086   3.145   6.069
 5946SOL    HW218738   3.203   3.224   5.988
 5947SOL     OW18739   4.159   3.304   2.164
 5947SOL    HW118740   4.168   3.303   2.263
 5947SOL    HW218741   4.181   3.214   2.128
 5948SOL     OW18742   4.154   4.992   3.691
 5948SOL    HW118743   4.150   5.086   3.723
 5948SOL    HW218744   4.229   4.981   3.627
 5949SOL     OW18745   3.758   3.180   1.471
 5949SOL    HW118746   3.721   3.273   1.462
 5949SOL    HW218747   3.858   3.185   1.471
 5950SOL     OW18748   5.064   2.815   5.437
 5950SOL    HW118749   5.039   2.841   5.344
 5950SOL    HW218750   5.151   2.765   5.436
 5951SOL     OW18751   0.166   5.597   4.804
 5951SOL    HW118752   0.176   5.639   4.713
 5951SOL    HW218753   0.179   5.498   4.796
 5952SOL     OW18754   5.488   5.312   3.995
 5952SOL    HW118755   5.521   5.381   4.060
 5952SOL    HW218756   5.514   5.221   4.026
 5953SOL     OW18757   6.649   2.787   5.599
 5953SOL    HW118758   6.611   2.868   5.643
 5953SOL    HW218759   6.742   2.771   5.633
 5954SOL     OW18760   0.178   4.463   5.803
 5954SOL    HW118761   0.170   4.463   5.704
 5954SOL    HW218762   0.248   4.528   5.831
 5955SOL     OW18763   5.050   5.681   2.414
 5955SOL    HW118764   5.128   5.743   2.417
 5955SOL    HW218765   4.967   5.731   2.392
 5956SOL     OW18766   3.831   1.319   6.075
 5956SOL    HW118767   3.897   1.306   6.148
 5956SOL    HW218768   3.741   1.285   6.105
 5957SOL     OW18769   4.397   0.582   5.956
 5957SOL    HW118770   4.449   0.521   5.897
 5957SOL    HW218771   4.408   0.555   6.051
 5958SOL     OW18772   6.365   5.990   2.488
 5958SOL    HW118773   6.309   5.964   2.409
 5958SOL    HW218774   6.456   5.951   2.479
 5959SOL     OW18775   3.674   2.169   5.577
 5959SOL    HW118776   3.674   2.071   5.559
 5959SOL    HW218777   3.733   2.189   5.655
 5960SOL     OW18778   4.402   6.048   4.993
 5960SOL    HW118779   4.488   6.014   4.954
 5960SOL    HW218780   4.357   6.108   4.927
 5961SOL     OW18781   4.982   1.588   3.286
 5961SOL    HW118782   5.054   1.554   3.225
 5961SOL    HW218783   5.022   1.652   3.352
 5962SOL     OW18784   4.637   5.642   1.149
 5962SOL    HW118785   4.561   5.600   1.198
 5962SOL    HW218786   4.637   5.611   1.054
 5963SOL     OW18787   3.370   3.106   4.813
 5963SOL    HW118788   3.415   3.043   4.749
 5963SOL    HW218789   3.281   3.133   4.776
 5964SOL     OW18790   0.414   5.168   5.475
 5964SOL    HW118791   0.449   5.233   5.408
 5964SOL    HW218792   0.359   5.098   5.428
 5965SOL     OW18793   1.359   2.498   6.925
 5965SOL    HW118794   1.437   2.551   6.958
 5965SOL    HW218795   1.281   2.558   6.913
 5966SOL     OW18796   2.200   5.950   4.840
 5966SOL    HW118797   2.137   5.904   4.902
 5966SOL    HW218798   2.195   6.049   4.854
 5967SOL     OW18799   4.013   6.093   0.607
 5967SOL    HW118800   4.095   6.097   0.663
 5967SOL    HW218801   4.029   6.036   0.527
 5968SOL     OW18802   4.787   0.919   2.009
 5968SOL    HW118803   4.726   0.956   2.080
 5968SOL    HW218804   4.772   0.970   1.924
 5969SOL     OW18805   6.602   0.637   6.508
 5969SOL    HW118806   6.532   0.705   6.489
 5969SOL    HW218807   6.628   0.590   6.423
 5970SOL     OW18808   0.859   3.921   2.419
 5970SOL    HW118809   0.865   3.982   2.499
 5970SOL    HW218810   0.778   3.944   2.366
 5971SOL     OW18811   1.821   1.424   3.366
 5971SOL    HW118812   1.863   1.360   3.302
 5971SOL    HW218813   1.832   1.390   3.459
 5972SOL     OW18814   5.635   6.780   0.054
 5972SOL    HW118815   5.548   6.740   0.025
 5972SOL    HW218816   5.705   6.709   0.059
 5973SOL     OW18817   1.750   4.026   2.395
 5973SOL    HW118818   1.787   4.032   2.302
 5973SOL    HW218819   1.698   3.941   2.405
 5974SOL     OW18820   5.476   4.494   6.687
 5974SOL    HW118821   5.542   4.457   6.622
 5974SOL    HW218822   5.472   4.594   6.677
 5975SOL     OW18823   3.273   2.026   0.806
 5975SOL    HW118824   3.220   1.961   0.753
 5975SOL    HW218825   3.311   2.096   0.745
 5976SOL     OW18826   3.235   3.754   5.310
 5976SOL    HW118827   3.320   3.743   5.258
 5976SOL    HW218828   3.179   3.672   5.301
 5977SOL     OW18829   1.892   4.763   1.163
 5977SOL    HW118830   1.945   4.700   1.108
 5977SOL    HW218831   1.949   4.798   1.238
 5978SOL     OW18832   4.888   5.875   3.575
 5978SOL    HW118833   4.985   5.854   3.589
 5978SOL    HW218834   4.861   5.845   3.483
 5979SOL     OW18835   6.338   7.028   2.785
 5979SOL    HW118836   6.271   0.042   2.725
 5979SOL    HW218837   6.316   0.019   2.880
 5980SOL     OW18838   4.020   3.379   0.332
 5980SOL    HW118839   4.093   3.445   0.316
 5980SOL    HW218840   3.981   3.350   0.245
 5981SOL     OW18841   6.214   0.977   2.636
 5981SOL    HW118842   6.311   0.990   2.654
 5981SOL    HW218843   6.171   1.066   2.620
 5982SOL     OW18844   6.618   2.758   0.792
 5982SOL    HW118845   6.700   2.795   0.834
 5982SOL    HW218846   6.574   2.830   0.738
 5983SOL     OW18847   1.214   0.846   4.625
 5983SOL    HW118848   1.248   0.913   4.691
 5983SOL    HW218849   1.127   0.808   4.657
 5984SOL     OW18850   6.541   6.670   5.062
 5984SOL    HW118851   6.452   6.666   5.109
 5984SOL    HW218852   6.613   6.639   5.124
 5985SOL     OW18853   6.372   3.453   4.031
 5985SOL    HW118854   6.446   3.501   4.079
 5985SOL    HW218855   6.403   3.362   4.005
 5986SOL     OW18856   3.413   3.554   4.545
 5986SOL    HW118857   3.454   3.547   4.454
 5986SOL    HW218858   3.390   3.463   4.578
 5987SOL     OW18859   4.745   0.856   4.982
 5987SOL    HW118860   4.646   0.867   4.980
 5987SOL    HW218861   4.771   0.778   4.924
 5988SOL     OW18862   4.664   6.723   5.259
 5988SOL    HW118863   4.606   6.692   5.183
 5988SOL    HW218864   4.729   6.651   5.282
 5989SOL     OW18865   2.865   5.521   0.389
 5989SOL    HW118866   2.921   5.600   0.415
 5989SOL    HW218867   2.905   5.478   0.308
 5990SOL     OW18868   3.948   4.547   0.507
 5990SOL    HW118869   3.951   4.621   0.575
 5990SOL    HW218870   4.013   4.567   0.434
 5991SOL     OW18871   3.925   5.419   5.716
 5991SOL    HW118872   3.991   5.493   5.723
 5991SOL    HW218873   3.845   5.441   5.772
 5992SOL     OW18874   3.122   0.743   3.472
 5992SOL    HW118875   3.129   0.645   3.488
 5992SOL    HW218876   3.192   0.771   3.406
 5993SOL     OW18877   3.350   6.019   5.565
 5993SOL    HW118878   3.342   6.116   5.590
 5993SOL    HW218879   3.436   6.004   5.517
 5994SOL     OW18880   6.516   2.163   1.841
 5994SOL    HW118881   6.582   2.196   1.908
 5994SOL    HW218882   6.564   2.107   1.773
 5995SOL     OW18883   5.834   5.140   2.671
 5995SOL    HW118884   5.901   5.144   2.744
 5995SOL    HW218885   5.831   5.048   2.632
 5996SOL     OW18886   0.881   6.106   0.928
 5996SOL    HW118887   0.938   6.040   0.976
 5996SOL    HW218888   0.864   6.075   0.834
 5997SOL     OW18889   1.038   6.245   2.968
 5997SOL    HW118890   1.045   6.223   2.871
 5997SOL    HW218891   0.989   6.172   3.016
 5998SOL     OW18892   6.301   1.940   1.609
 5998SOL    HW118893   6.312   1.937   1.708
 5998SOL    HW218894   6.387   1.965   1.566
 5999SOL     OW18895   1.894   1.760   2.771
 5999SOL    HW118896   1.978   1.706   2.776
 5999SOL    HW218897   1.823   1.708   2.724
 6000SOL     OW18898   4.091   6.614   1.926
 6000SOL    HW118899   4.153   6.631   2.003
 6000SOL    HW218900   4.027   6.691   1.919
 6001SOL     OW18901   0.622   4.065   6.291
 6001SOL    HW118902   0.540   4.037   6.241
 6001SOL    HW218903   0.694   3.996   6.278
 6002SOL     OW18904   6.677   0.422   0.817
 6002SOL    HW118905   6.666   0.480   0.898
 6002SOL    HW218906   6.761   0.369   0.826
 6003SOL     OW18907   0.182   1.973   4.526
 6003SOL    HW118908   0.120   2.043   4.562
 6003SOL    HW218909   0.135   1.884   4.526
 6004SOL     OW18910   0.274   4.320   2.924
 6004SOL    HW118911   0.260   4.419   2.915
 6004SOL    HW218912   0.223   4.287   3.004
 6005SOL     OW18913   4.927   5.333   5.071
 6005SOL    HW118914   4.999   5.402   5.067
 6005SOL    HW218915   4.968   5.242   5.060
 6006SOL     OW18916   2.761   0.659   6.664
 6006SOL    HW118917   2.772   0.649   6.763
 6006SOL    HW218918   2.781   0.571   6.620
 6007SOL     OW18919   4.833   3.885   4.842
 6007SOL    HW118920   4.800   3.949   4.911
 6007SOL    HW218921   4.841   3.793   4.881
 6008SOL     OW18922   2.287   5.402   5.935
 6008SOL    HW118923   2.335   5.323   5.974
 6008SOL    HW218924   2.287   5.393   5.835
 6009SOL     OW18925   4.099   1.045   4.780
 6009SOL    HW118926   4.117   0.947   4.788
 6009SOL    HW218927   4.084   1.083   4.871
 6010SOL     OW18928   1.280   3.983   3.320
 6010SOL    HW118929   1.298   3.969   3.417
 6010SOL    HW218930   1.205   3.923   3.291
 6011SOL     OW18931   4.773   2.643   2.956
 6011SOL    HW118932   4.715   2.627   3.036
 6011SOL    HW218933   4.799   2.739   2.952
 6012SOL     OW18934   5.725   1.203   0.300
 6012SOL    HW118935   5.720   1.139   0.376
 6012SOL    HW218936   5.716   1.154   0.214
 6013SOL     OW18937   5.901   2.478   2.734
 6013SOL    HW118938   5.907   2.556   2.672
 6013SOL    HW218939   5.938   2.397   2.690
 6014SOL     OW18940   4.260   2.505   0.470
 6014SOL    HW118941   4.355   2.537   0.476
 6014SOL    HW218942   4.241   2.442   0.545
 6015SOL     OW18943   5.457   2.034   5.204
 6015SOL    HW118944   5.461   1.956   5.141
 6015SOL    HW218945   5.366   2.038   5.246
 6016SOL     OW18946   0.095   1.494   6.379
 6016SOL    HW118947   0.179   1.505   6.433
 6016SOL    HW218948   0.098   1.407   6.330
 6017SOL     OW18949   6.813   4.435   2.927
 6017SOL    HW118950   6.840   4.476   2.840
 6017SOL    HW218951   6.870   4.355   2.946
 6018SOL     OW18952   3.440   1.116   7.003
 6018SOL    HW118953   3.461   1.208   6.971
 6018SOL    HW218954   3.512   1.053   6.973
 6019SOL     OW18955   6.555   1.713   4.286
 6019SOL    HW118956   6.472   1.707   4.342
 6019SOL    HW218957   6.627   1.756   4.339
 6020SOL     OW18958   2.336   5.133   1.776
 6020SOL    HW118959   2.304   5.181   1.858
 6020SOL    HW218960   2.265   5.135   1.707
 6021SOL     OW18961   3.913   0.949   2.521
 6021SOL    HW118962   3.867   1.018   2.464
 6021SOL    HW218963   3.996   0.989   2.561
 6022SOL     OW18964   4.652   1.492   4.870
 6022SOL    HW118965   4.654   1.396   4.896
 6022SOL    HW218966   4.724   1.541   4.919
 6023SOL     OW18967   5.719   1.149   2.062
 6023SOL    HW118968   5.667   1.234   2.053
 6023SOL    HW218969   5.816   1.170   2.068
 6024SOL     OW18970   0.550   4.379   3.491
 6024SOL    HW118971   0.612   4.401   3.415
 6024SOL    HW218972   0.576   4.432   3.571
 6025SOL     OW18973   3.595   1.426   2.346
 6025SOL    HW118974   3.694   1.435   2.343
 6025SOL    HW218975   3.555   1.484   2.275
 6026SOL     OW18976   6.993   4.428   4.489
 6026SOL    HW118977   7.021   4.371   4.412
 6026SOL    HW218978   6.896   4.415   4.507
 6027SOL     OW18979   1.297   3.679   6.100
 6027SOL    HW118980   1.273   3.773   6.121
 6027SOL    HW218981   1.250   3.617   6.163
 6028SOL     OW18982   0.866   4.172   0.176
 6028SOL    HW118983   0.767   4.173   0.161
 6028SOL    HW218984   0.910   4.237   0.115
 6029SOL     OW18985   1.855   6.604   4.827
 6029SOL    HW118986   1.776   6.547   4.807
 6029SOL    HW218987   1.938   6.549   4.821
 6030SOL     OW18988   3.913   6.493   3.286
 6030SOL    HW118989   3.846   6.552   3.242
 6030SOL    HW218990   3.865   6.423   3.339
 6031SOL     OW18991   3.629   4.961   3.678
 6031SOL    HW118992   3.712   4.906   3.685
 6031SOL    HW218993   3.646   5.040   3.619
 6032SOL     OW18994   2.124   3.878   3.401
 6032SOL    HW118995   2.118   3.782   3.427
 6032SOL    HW218996   2.113   3.935   3.483
 6033SOL     OW18997   3.169   1.516   2.294
 6033SOL    HW118998   3.160   1.611   2.264
 6033SOL    HW218999   3.219   1.514   2.381
 6034SOL     OW19000   1.545   5.931   4.624
 6034SOL    HW119001   1.560   6.020   4.666
 6034SOL    HW219002   1.479   5.939   4.550
 6035SOL     OW19003   0.273   0.660   2.788
 6035SOL    HW119004   0.319   0.571   2.787
 6035SOL    HW219005   0.239   0.682   2.697
 6036SOL     OW19006   6.522   6.442   4.148
 6036SOL    HW119007   6.475   6.529   4.165
 6036SOL    HW219008   6.529   6.390   4.233
 6037SOL     OW19009   4.231   4.897   5.820
 6037SOL    HW119010   4.293   4.973   5.840
 6037SOL    HW219011   4.185   4.912   5.733
 6038SOL     OW19012   1.315   2.766   6.192
 6038SOL    HW119013   1.230   2.724   6.226
 6038SOL    HW219014   1.393   2.719   6.234
 6039SOL     OW19015   3.177   2.975   2.467
 6039SOL    HW119016   3.189   2.922   2.383
 6039SOL    HW219017   3.262   2.974   2.519
 6040SOL     OW19018   0.487   2.207   6.473
 6040SOL    HW119019   0.440   2.291   6.497
 6040SOL    HW219020   0.436   2.158   6.403
 6041SOL     OW19021   2.155   0.244   4.778
 6041SOL    HW119022   2.164   0.290   4.689
 6041SOL    HW219023   2.227   0.175   4.788
 6042SOL     OW19024   5.285   5.590   2.115
 6042SOL    HW119025   5.328   5.582   2.205
 6042SOL    HW219026   5.356   5.607   2.046
 6043SOL     OW19027   1.036   4.423   5.558
 6043SOL    HW119028   1.006   4.419   5.463
 6043SOL    HW219029   1.012   4.512   5.597
 6044SOL     OW19030   1.783   2.367   1.399
 6044SOL    HW119031   1.850   2.365   1.325
 6044SOL    HW219032   1.831   2.372   1.487
 6045SOL     OW19033   6.098   5.261   1.249
 6045SOL    HW119034   6.068   5.354   1.268
 6045SOL    HW219035   6.157   5.261   1.168
 6046SOL     OW19036   3.087   1.767   0.244
 6046SOL    HW119037   3.055   1.813   0.161
 6046SOL    HW219038   3.183   1.743   0.234
 6047SOL     OW19039   6.235   2.300   2.175
 6047SOL    HW119040   6.137   2.311   2.187
 6047SOL    HW219041   6.254   2.269   2.082
 6048SOL     OW19042   4.362   6.421   3.774
 6048SOL    HW119043   4.434   6.489   3.781
 6048SOL    HW219044   4.402   6.331   3.755
 6049SOL     OW19045   6.219   3.454   5.829
 6049SOL    HW119046   6.231   3.545   5.869
 6049SOL    HW219047   6.237   3.458   5.731
 6050SOL     OW19048   3.088   4.698   5.273
 6050SOL    HW119049   3.091   4.789   5.233
 6050SOL    HW219050   3.022   4.642   5.222
 6051SOL     OW19051   1.738   1.623   4.492
 6051SOL    HW119052   1.747   1.631   4.592
 6051SOL    HW219053   1.689   1.703   4.457
 6052SOL     OW19054   6.324   6.159   0.582
 6052SOL    HW119055   6.366   6.224   0.519
 6052SOL    HW219056   6.273   6.208   0.652
 6053SOL     OW19057   2.959   0.867   5.969
 6053SOL    HW119058   2.869   0.845   6.007
 6053SOL    HW219059   2.947   0.915   5.882
 6054SOL     OW19060   2.708   3.794   0.658
 6054SOL    HW119061   2.684   3.830   0.568
 6054SOL    HW219062   2.669   3.853   0.729
 6055SOL     OW19063   5.355   1.565   5.772
 6055SOL    HW119064   5.428   1.593   5.834
 6055SOL    HW219065   5.267   1.595   5.809
 6056SOL     OW19066   5.208   2.976   4.744
 6056SOL    HW119067   5.210   2.914   4.823
 6056SOL    HW219068   5.302   3.001   4.719
 6057SOL     OW19069   5.167   2.925   4.481
 6057SOL    HW119070   5.244   2.875   4.440
 6057SOL    HW219071   5.182   2.935   4.579
 6058SOL     OW19072   5.224   2.991   2.139
 6058SOL    HW119073   5.229   3.090   2.127
 6058SOL    HW219074   5.153   2.954   2.078
 6059SOL     OW19075   4.638   5.543   4.944
 6059SOL    HW119076   4.622   5.448   4.973
 6059SOL    HW219077   4.688   5.592   5.015
 6060SOL     OW19078   3.021   3.975   6.516
 6060SOL    HW119079   3.081   4.055   6.526
 6060SOL    HW219080   2.926   4.005   6.508
 6061SOL     OW19081   4.185   1.680   1.053
 6061SOL    HW119082   4.226   1.602   1.006
 6061SOL    HW219083   4.232   1.696   1.140
 6062SOL     OW19084   1.575   1.382   4.838
 6062SOL    HW119085   1.603   1.302   4.890
 6062SOL    HW219086   1.617   1.380   4.747
 6063SOL     OW19087   3.506   1.376   6.451
 6063SOL    HW119088   3.516   1.278   6.432
 6063SOL    HW219089   3.437   1.390   6.522
 6064SOL     OW19090   2.766   5.907   1.986
 6064SOL    HW119091   2.755   5.834   1.917
 6064SOL    HW219092   2.705   5.982   1.964
 6065SOL     OW19093   5.831   6.969   1.786
 6065SOL    HW119094   5.768   6.904   1.744
 6065SOL    HW219095   5.898   6.999   1.718
 6066SOL     OW19096   4.650   1.697   6.719
 6066SOL    HW119097   4.674   1.711   6.623
 6066SOL    HW219098   4.596   1.774   6.752
 6067SOL     OW19099   5.552   1.963   6.464
 6067SOL    HW119100   5.650   1.983   6.461
 6067SOL    HW219101   5.536   1.887   6.527
 6068SOL     OW19102   5.868   2.854   4.400
 6068SOL    HW119103   5.907   2.840   4.491
 6068SOL    HW219104   5.870   2.768   4.349
 6069SOL     OW19105   0.111   3.260   4.935
 6069SOL    HW119106   0.208   3.253   4.909
 6069SOL    HW219107   0.088   3.357   4.949
 6070SOL     OW19108   2.511   1.787   6.221
 6070SOL    HW119109   2.577   1.849   6.264
 6070SOL    HW219110   2.546   1.756   6.133
 6071SOL     OW19111   5.419   4.895   4.533
 6071SOL    HW119112   5.438   4.902   4.631
 6071SOL    HW219113   5.402   4.799   4.509
 6072SOL     OW19114   0.076   0.345   2.776
 6072SOL    HW119115   0.025   0.262   2.754
 6072SOL    HW219116   0.144   0.363   2.705
 6073SOL     OW19117   6.184   4.165   0.177
 6073SOL    HW119118   6.256   4.125   0.121
 6073SOL    HW219119   6.184   4.265   0.168
 6074SOL     OW19120   0.801   6.472   4.381
 6074SOL    HW119121   0.804   6.566   4.416
 6074SOL    HW219122   0.730   6.465   4.311
 6075SOL     OW19123   6.978   2.019   6.911
 6075SOL    HW119124   6.969   1.928   6.953
 6075SOL    HW219125   6.916   2.026   6.833
 6076SOL     OW19126   2.722   6.000   4.692
 6076SOL    HW119127   2.748   5.957   4.606
 6076SOL    HW219128   2.632   5.966   4.720
 6077SOL     OW19129   4.515   5.880   2.082
 6077SOL    HW119130   4.551   5.962   2.126
 6077SOL    HW219131   4.543   5.879   1.986
 6078SOL     OW19132   3.998   4.729   1.713
 6078SOL    HW119133   3.946   4.786   1.776
 6078SOL    HW219134   3.935   4.684   1.649
 6079SOL     OW19135   3.378   2.909   6.237
 6079SOL    HW119136   3.283   2.929   6.213
 6079SOL    HW219137   3.383   2.819   6.280
 6080SOL     OW19138   6.707   0.893   1.710
 6080SOL    HW119139   6.701   0.804   1.666
 6080SOL    HW219140   6.687   0.883   1.808
 6081SOL     OW19141   5.978   3.179   4.840
 6081SOL    HW119142   6.078   3.181   4.847
 6081SOL    HW219143   5.950   3.190   4.745
 6082SOL     OW19144   2.745   1.727   3.103
 6082SOL    HW119145   2.743   1.742   3.202
 6082SOL    HW219146   2.835   1.750   3.067
 6083SOL     OW19147   0.522   5.259   6.126
 6083SOL    HW119148   0.473   5.334   6.172
 6083SOL    HW219149   0.596   5.227   6.185
 6084SOL     OW19150   0.041   5.542   3.755
 6084SOL    HW119151   6.979   5.580   3.741
 6084SOL    HW219152   0.051   5.457   3.703
 6085SOL     OW19153   0.612   4.212   0.115
 6085SOL    HW119154   0.553   4.228   0.193
 6085SOL    HW219155   0.600   4.285   0.048
 6086SOL     OW19156   2.939   1.334   5.096
 6086SOL    HW119157   3.021   1.296   5.052
 6086SOL    HW219158   2.860   1.316   5.038
 6087SOL     OW19159   4.017   5.517   0.107
 6087SOL    HW119160   4.107   5.476   0.122
 6087SOL    HW219161   4.009   5.546   0.012
 6088SOL     OW19162   5.831   6.583   4.810
 6088SOL    HW119163   5.894   6.553   4.882
 6088SOL    HW219164   5.742   6.540   4.823
 6089SOL     OW19165   6.900   3.300   1.426
 6089SOL    HW119166   6.816   3.355   1.425
 6089SOL    HW219167   6.979   3.361   1.436
 6090SOL     OW19168   1.795   6.584   6.045
 6090SOL    HW119169   1.778   6.656   5.978
 6090SOL    HW219170   1.864   6.616   6.111
 6091SOL     OW19171   2.116   1.879   2.140
 6091SOL    HW119172   2.210   1.887   2.176
 6091SOL    HW219173   2.109   1.930   2.055
 6092SOL     OW19174   2.756   0.550   3.389
 6092SOL    HW119175   2.695   0.625   3.362
 6092SOL    HW219176   2.703   0.467   3.401
 6093SOL     OW19177   0.778   2.789   2.687
 6093SOL    HW119178   0.789   2.887   2.670
 6093SOL    HW219179   0.778   2.740   2.600
 6094SOL     OW19180   3.945   0.783   1.019
 6094SOL    HW119181   3.849   0.768   0.994
 6094SOL    HW219182   4.003   0.739   0.951
 6095SOL     OW19183   4.394   3.641   6.851
 6095SOL    HW119184   4.437   3.649   6.941
 6095SOL    HW219185   4.455   3.680   6.782
 6096SOL     OW19186   5.943   0.468   3.835
 6096SOL    HW119187   5.994   0.393   3.793
 6096SOL    HW219188   5.998   0.510   3.907
 6097SOL     OW19189   1.860   0.380   2.099
 6097SOL    HW119190   1.827   0.392   2.005
 6097SOL    HW219191   1.943   0.433   2.112
 6098SOL     OW19192   1.411   2.017   6.783
 6098SOL    HW119193   1.461   2.040   6.699
 6098SOL    HW219194   1.395   2.100   6.836
 6099SOL     OW19195   0.053   5.987   0.475
 6099SOL    HW119196   0.047   5.941   0.386
 6099SOL    HW219197   0.148   5.983   0.508
 6100SOL     OW19198   4.849   3.671   0.190
 6100SOL    HW119199   4.771   3.620   0.156
 6100SOL    HW219200   4.932   3.641   0.143
 6101SOL     OW19201   6.292   1.948   5.253
 6101SOL    HW119202   6.345   1.873   5.293
 6101SOL    HW219203   6.348   2.031   5.252
 6102SOL     OW19204   3.611   0.713   4.030
 6102SOL    HW119205   3.710   0.710   4.020
 6102SOL    HW219206   3.580   0.638   4.088
 6103SOL     OW19207   0.491   2.295   2.787
 6103SOL    HW119208   0.580   2.325   2.753
 6103SOL    HW219209   0.432   2.271   2.709
 6104SOL     OW19210   6.101   2.230   5.796
 6104SOL    HW119211   6.152   2.315   5.779
 6104SOL    HW219212   6.079   2.224   5.893
 6105SOL     OW19213   2.027   0.374   5.689
 6105SOL    HW119214   2.106   0.432   5.710
 6105SOL    HW219215   1.987   0.402   5.602
 6106SOL     OW19216   1.529   4.011   5.792
 6106SOL    HW119217   1.518   3.936   5.857
 6106SOL    HW219218   1.439   4.039   5.757
 6107SOL     OW19219   2.525   4.642   4.390
 6107SOL    HW119220   2.426   4.629   4.400
 6107SOL    HW219221   2.544   4.735   4.360
 6108SOL     OW19222   0.459   2.691   2.525
 6108SOL    HW119223   0.490   2.731   2.611
 6108SOL    HW219224   0.400   2.613   2.543
 6109SOL     OW19225   5.068   3.068   6.093
 6109SOL    HW119226   5.162   3.097   6.114
 6109SOL    HW219227   5.016   3.145   6.058
 6110SOL     OW19228   3.857   2.544   7.029
 6110SOL    HW119229   3.830   2.565   6.935
 6110SOL    HW219230   3.946   2.585   0.018
 6111SOL     OW19231   1.606   4.379   2.473
 6111SOL    HW119232   1.639   4.347   2.561
 6111SOL    HW219233   1.681   4.376   2.406
 6112SOL     OW19234   3.428   0.807   3.766
 6112SOL    HW119235   3.455   0.714   3.790
 6112SOL    HW219236   3.329   0.814   3.762
 6113SOL     OW19237   0.832   1.212   5.860
 6113SOL    HW119238   0.837   1.232   5.958
 6113SOL    HW219239   0.789   1.289   5.813
 6114SOL     OW19240   5.073   4.788   0.943
 6114SOL    HW119241   5.134   4.808   0.867
 6114SOL    HW219242   5.119   4.808   1.029
 6115SOL     OW19243   5.461   6.361   3.334
 6115SOL    HW119244   5.477   6.280   3.390
 6115SOL    HW219245   5.534   6.428   3.350
 6116SOL     OW19246   2.919   1.256   0.500
 6116SOL    HW119247   2.851   1.304   0.445
 6116SOL    HW219248   3.011   1.280   0.468
 6117SOL     OW19249   6.311   0.605   6.075
 6117SOL    HW119250   6.281   0.521   6.121
 6117SOL    HW219251   6.346   0.581   5.984
 6118SOL     OW19252   0.169   0.413   1.336
 6118SOL    HW119253   0.143   0.417   1.433
 6118SOL    HW219254   0.245   0.476   1.320
 6119SOL     OW19255   0.522   3.733   4.645
 6119SOL    HW119256   0.478   3.677   4.574
 6119SOL    HW219257   0.528   3.828   4.613
 6120SOL     OW19258   4.536   0.064   3.709
 6120SOL    HW119259   4.549   0.036   3.804
 6120SOL    HW219260   4.442   0.098   3.696
 6121SOL     OW19261   0.167   3.210   4.536
 6121SOL    HW119262   0.145   3.164   4.622
 6121SOL    HW219263   0.227   3.151   4.481
 6122SOL     OW19264   3.889   6.793   1.871
 6122SOL    HW119265   3.867   6.786   1.773
 6122SOL    HW219266   3.952   6.869   1.886
 6123SOL     OW19267   6.663   0.180   6.557
 6123SOL    HW119268   6.651   0.270   6.598
 6123SOL    HW219269   6.642   0.109   6.624
 6124SOL     OW19270   2.433   0.888   6.252
 6124SOL    HW119271   2.411   0.793   6.271
 6124SOL    HW219272   2.392   0.947   6.322
 6125SOL     OW19273   3.138   5.513   0.250
 6125SOL    HW119274   3.129   5.521   0.349
 6125SOL    HW219275   3.210   5.574   0.218
 6126SOL     OW19276   6.947   6.801   3.916
 6126SOL    HW119277   7.007   6.721   3.909
 6126SOL    HW219278   6.857   6.772   3.949
 6127SOL     OW19279   2.966   0.248   2.646
 6127SOL    HW119280   2.923   0.265   2.557
 6127SOL    HW219281   3.054   0.296   2.649
 6128SOL     OW19282   6.247   3.720   0.551
 6128SOL    HW119283   6.222   3.637   0.602
 6128SOL    HW219284   6.169   3.782   0.547
 6129SOL     OW19285   6.075   4.249   3.297
 6129SOL    HW119286   6.062   4.224   3.393
 6129SOL    HW219287   6.121   4.173   3.250
 6130SOL     OW19288   6.394   2.029   4.124
 6130SOL    HW119289   6.345   2.055   4.208
 6130SOL    HW219290   6.400   1.930   4.119
 6131SOL     OW19291   6.699   1.452   5.124
 6131SOL    HW119292   6.651   1.371   5.158
 6131SOL    HW219293   6.640   1.502   5.061
 6132SOL     OW19294   5.065   1.384   0.151
 6132SOL    HW119295   5.150   1.359   0.197
 6132SOL    HW219296   5.023   1.461   0.198
 6133SOL     OW19297   1.151   2.443   2.730
 6133SOL    HW119298   1.212   2.375   2.768
 6133SOL    HW219299   1.148   2.523   2.790
 6134SOL     OW19300   3.957   4.389   6.893
 6134SOL    HW119301   4.024   4.355   6.827
 6134SOL    HW219302   3.866   4.385   6.853
 6135SOL     OW19303   0.569   0.079   1.726
 6135SOL    HW119304   0.486   0.086   1.781
 6135SOL    HW219305   0.588   0.168   1.684
 6136SOL     OW19306   1.095   2.805   1.691
 6136SOL    HW119307   1.157   2.734   1.657
 6136SOL    HW219308   1.100   2.808   1.791
 6137SOL     OW19309   5.434   1.736   4.191
 6137SOL    HW119310   5.518   1.788   4.185
 6137SOL    HW219311   5.432   1.683   4.276
 6138SOL     OW19312   4.300   6.208   2.267
 6138SOL    HW119313   4.355   6.223   2.350
 6138SOL    HW219314   4.272   6.296   2.229
 6139SOL     OW19315   1.893   2.590   5.007
 6139SOL    HW119316   1.909   2.678   5.052
 6139SOL    HW219317   1.901   2.516   5.074
 6140SOL     OW19318   0.302   6.098   1.953
 6140SOL    HW119319   0.236   6.044   1.902
 6140SOL    HW219320   0.283   6.091   2.051
 6141SOL     OW19321   5.643   5.924   5.950
 6141SOL    HW119322   5.589   6.003   5.978
 6141SOL    HW219323   5.596   5.876   5.876
 6142SOL     OW19324   6.795   5.140   0.575
 6142SOL    HW119325   6.758   5.161   0.484
 6142SOL    HW219326   6.721   5.138   0.642
 6143SOL     OW19327   6.047   5.184   0.147
 6143SOL    HW119328   6.117   5.255   0.147
 6143SOL    HW219329   5.972   5.210   0.208
 6144SOL     OW19330   6.169   4.926   2.282
 6144SOL    HW119331   6.167   4.989   2.359
 6144SOL    HW219332   6.217   4.969   2.205
 6145SOL     OW19333   4.934   5.381   4.146
 6145SOL    HW119334   5.000   5.441   4.190
 6145SOL    HW219335   4.877   5.337   4.216
 6146SOL     OW19336   3.620   1.239   3.504
 6146SOL    HW119337   3.677   1.262   3.424
 6146SOL    HW219338   3.640   1.304   3.578
 6147SOL     OW19339   1.317   4.010   3.839
 6147SOL    HW119340   1.232   4.058   3.862
 6147SOL    HW219341   1.388   4.034   3.904
 6148SOL     OW19342   0.132   0.177   4.756
 6148SOL    HW119343   0.126   0.276   4.765
 6148SOL    HW219344   0.052   0.134   4.799
 6149SOL     OW19345   3.671   5.166   2.605
 6149SOL    HW119346   3.622   5.235   2.659
 6149SOL    HW219347   3.644   5.173   2.509
 6150SOL     OW19348   3.471   4.737   6.823
 6150SOL    HW119349   3.380   4.744   6.782
 6150SOL    HW219350   3.502   4.828   6.851
 6151SOL     OW19351   6.037   3.875   5.227
 6151SOL    HW119352   6.100   3.918   5.291
 6151SOL    HW219353   6.026   3.933   5.147
 6152SOL     OW19354   5.947   5.698   5.338
 6152SOL    HW119355   5.900   5.671   5.254
 6152SOL    HW219356   6.046   5.683   5.327
 6153SOL     OW19357   4.714   3.578   1.796
 6153SOL    HW119358   4.657   3.521   1.736
 6153SOL    HW219359   4.745   3.659   1.746
 6154SOL     OW19360   6.003   1.597   2.920
 6154SOL    HW119361   6.026   1.685   2.962
 6154SOL    HW219362   5.918   1.562   2.960
 6155SOL     OW19363   1.809   1.966   4.458
 6155SOL    HW119364   1.758   1.946   4.541
 6155SOL    HW219365   1.801   1.890   4.394
 6156SOL     OW19366   4.800   4.697   2.477
 6156SOL    HW119367   4.842   4.727   2.562
 6156SOL    HW219368   4.711   4.655   2.496
 6157SOL     OW19369   1.256   1.404   4.596
 6157SOL    HW119370   1.250   1.501   4.616
 6157SOL    HW219371   1.317   1.389   4.518
 6158SOL     OW19372   4.471   0.723   5.689
 6158SOL    HW119373   4.482   0.625   5.672
 6158SOL    HW219374   4.524   0.749   5.770
 6159SOL     OW19375   4.660   2.428   1.445
 6159SOL    HW119376   4.735   2.382   1.492
 6159SOL    HW219377   4.633   2.510   1.497
 6160SOL     OW19378   4.790   6.705   6.662
 6160SOL    HW119379   4.833   6.774   6.604
 6160SOL    HW219380   4.767   6.745   6.751
 6161SOL     OW19381   6.112   1.832   5.438
 6161SOL    HW119382   6.153   1.904   5.381
 6161SOL    HW219383   6.054   1.774   5.381
 6162SOL     OW19384   1.154   6.024   3.816
 6162SOL    HW119385   1.173   5.959   3.743
 6162SOL    HW219386   1.056   6.027   3.834
 6163SOL     OW19387   5.394   6.123   1.577
 6163SOL    HW119388   5.406   6.158   1.484
 6163SOL    HW219389   5.370   6.026   1.574
 6164SOL     OW19390   2.824   3.198   1.559
 6164SOL    HW119391   2.822   3.127   1.489
 6164SOL    HW219392   2.734   3.242   1.564
 6165SOL     OW19393   4.849   0.176   6.272
 6165SOL    HW119394   4.849   0.263   6.222
 6165SOL    HW219395   4.930   0.123   6.248
 6166SOL     OW19396   4.000   1.078   5.997
 6166SOL    HW119397   3.929   1.040   6.056
 6166SOL    HW219398   4.089   1.042   6.026
 6167SOL     OW19399   0.870   4.449   2.635
 6167SOL    HW119400   0.964   4.462   2.667
 6167SOL    HW219401   0.836   4.534   2.595
 6168SOL     OW19402   0.805   3.349   1.167
 6168SOL    HW119403   0.725   3.332   1.225
 6168SOL    HW219404   0.793   3.437   1.121
 6169SOL     OW19405   1.179   3.112   1.722
 6169SOL    HW119406   1.251   3.056   1.682
 6169SOL    HW219407   1.095   3.101   1.670
 6170SOL     OW19408   0.818   3.941   5.654
 6170SOL    HW119409   0.877   3.993   5.592
 6170SOL    HW219410   0.797   3.997   5.734
 6171SOL     OW19411   0.746   1.855   0.378
 6171SOL    HW119412   0.652   1.822   0.386
 6171SOL    HW219413   0.746   1.946   0.338
 6172SOL     OW19414   1.481   3.265   2.557
 6172SOL    HW119415   1.565   3.309   2.526
 6172SOL    HW219416   1.485   3.168   2.536
 6173SOL     OW19417   6.609   5.067   2.990
 6173SOL    HW119418   6.692   5.121   3.001
 6173SOL    HW219419   6.530   5.122   3.016
 6174SOL     OW19420   5.093   5.761   3.985
 6174SOL    HW119421   5.135   5.799   3.903
 6174SOL    HW219422   5.152   5.777   4.064
 6175SOL     OW19423   4.020   0.377   3.926
 6175SOL    HW119424   4.031   0.414   4.018
 6175SOL    HW219425   4.104   0.330   3.898
 6176SOL     OW19426   5.628   3.958   6.019
 6176SOL    HW119427   5.590   3.872   5.985
 6176SOL    HW219428   5.636   3.954   6.118
 6177SOL     OW19429   5.944   1.866   1.789
 6177SOL    HW119430   5.913   1.957   1.762
 6177SOL    HW219431   6.007   1.831   1.720
 6178SOL     OW19432   5.037   4.467   2.584
 6178SOL    HW119433   5.009   4.562   2.568
 6178SOL    HW219434   5.007   4.440   2.676
 6179SOL     OW19435   6.445   4.378   2.458
 6179SOL    HW119436   6.365   4.328   2.425
 6179SOL    HW219437   6.449   4.467   2.413
 6180SOL     OW19438   2.859   4.733   1.233
 6180SOL    HW119439   2.944   4.758   1.280
 6180SOL    HW219440   2.812   4.662   1.286
 6181SOL     OW19441   4.858   6.646   5.886
 6181SOL    HW119442   4.897   6.566   5.840
 6181SOL    HW219443   4.906   6.728   5.855
 6182SOL     OW19444   4.543   3.514   6.119
 6182SOL    HW119445   4.516   3.429   6.074
 6182SOL    HW219446   4.642   3.524   6.114
 6183SOL     OW19447   2.011   2.191   2.077
 6183SOL    HW119448   2.026   2.135   2.158
 6183SOL    HW219449   1.942   2.260   2.096
 6184SOL     OW19450   2.964   6.990   6.213
 6184SOL    HW119451   2.897   0.019   6.258
 6184SOL    HW219452   3.053   7.003   6.256
 6185SOL     OW19453   1.107   4.431   6.137
 6185SOL    HW119454   1.108   4.476   6.047
 6185SOL    HW219455   1.079   4.497   6.207
 6186SOL     OW19456   5.855   0.718   1.123
 6186SOL    HW119457   5.765   0.759   1.141
 6186SOL    HW219458   5.912   0.783   1.073
 6187SOL     OW19459   4.834   2.935   4.340
 6187SOL    HW119460   4.920   2.968   4.302
 6187SOL    HW219461   4.781   3.013   4.376
 6188SOL     OW19462   1.463   1.754   6.006
 6188SOL    HW119463   1.407   1.721   5.931
 6188SOL    HW219464   1.560   1.745   5.983
 6189SOL     OW19465   4.038   4.787   3.100
 6189SOL    HW119466   3.952   4.832   3.079
 6189SOL    HW219467   4.065   4.808   3.194
 6190SOL     OW19468   0.038   3.668   5.417
 6190SOL    HW119469   6.968   3.670   5.409
 6190SOL    HW219470   0.079   3.666   5.326
 6191SOL     OW19471   2.912   3.141   6.350
 6191SOL    HW119472   2.935   3.196   6.269
 6191SOL    HW219473   2.886   3.202   6.425
 6192SOL     OW19474   2.582   1.977   6.794
 6192SOL    HW119475   2.590   1.882   6.825
 6192SOL    HW219476   2.665   2.004   6.745
 6193SOL     OW19477   4.771   5.885   1.446
 6193SOL    HW119478   4.830   5.880   1.366
 6193SOL    HW219479   4.763   5.795   1.488
 6194SOL     OW19480   6.450   0.357   6.372
 6194SOL    HW119481   6.518   0.417   6.332
 6194SOL    HW219482   6.494   0.293   6.435
 6195SOL     OW19483   5.289   5.862   4.182
 6195SOL    HW119484   5.382   5.877   4.149
 6195SOL    HW219485   5.252   5.948   4.218
 6196SOL     OW19486   4.767   4.077   2.608
 6196SOL    HW119487   4.759   4.055   2.705
 6196SOL    HW219488   4.823   4.008   2.562
 6197SOL     OW19489   2.350   5.247   2.022
 6197SOL    HW119490   2.431   5.223   2.076
 6197SOL    HW219491   2.288   5.303   2.077
 6198SOL     OW19492   4.162   6.579   1.064
 6198SOL    HW119493   4.119   6.617   0.982
 6198SOL    HW219494   4.100   6.589   1.141
 6199SOL     OW19495   0.766   1.039   0.728
 6199SOL    HW119496   0.753   1.062   0.825
 6199SOL    HW219497   0.827   1.107   0.687
 6200SOL     OW19498   1.170   1.902   4.713
 6200SOL    HW119499   1.100   1.949   4.658
 6200SOL    HW219500   1.250   1.961   4.721
 6201SOL     OW19501   0.750   3.693   4.800
 6201SOL    HW119502   0.675   3.705   4.734
 6201SOL    HW219503   0.820   3.633   4.761
 6202SOL     OW19504   5.639   1.004   2.267
 6202SOL    HW119505   5.702   0.950   2.324
 6202SOL    HW219506   5.689   1.041   2.188
 6203SOL     OW19507   5.485   5.699   1.907
 6203SOL    HW119508   5.532   5.634   1.967
 6203SOL    HW219509   5.510   5.792   1.932
 6204SOL     OW19510   0.979   5.982   4.893
 6204SOL    HW119511   0.980   5.930   4.979
 6204SOL    HW219512   1.026   6.069   4.907
 6205SOL     OW19513   6.027   4.455   1.079
 6205SOL    HW119514   6.040   4.447   0.980
 6205SOL    HW219515   6.111   4.492   1.120
 6206SOL     OW19516   5.648   1.624   2.355
 6206SOL    HW119517   5.684   1.630   2.262
 6206SOL    HW219518   5.724   1.630   2.420
 6207SOL     OW19519   1.826   6.593   5.423
 6207SOL    HW119520   1.886   6.523   5.462
 6207SOL    HW219521   1.834   6.592   5.323
 6208SOL     OW19522   3.414   2.266   5.650
 6208SOL    HW119523   3.506   2.239   5.623
 6208SOL    HW219524   3.367   2.307   5.572
 6209SOL     OW19525   3.371   5.671   0.133
 6209SOL    HW119526   3.447   5.703   0.190
 6209SOL    HW219527   3.395   5.682   0.037
 6210SOL     OW19528   5.051   3.902   3.141
 6210SOL    HW119529   5.100   3.819   3.114
 6210SOL    HW219530   4.977   3.919   3.075
 6211SOL     OW19531   3.236   6.539   5.519
 6211SOL    HW119532   3.160   6.590   5.560
 6211SOL    HW219533   3.240   6.560   5.421
 6212SOL     OW19534   2.298   4.575   4.043
 6212SOL    HW119535   2.305   4.504   4.112
 6212SOL    HW219536   2.351   4.548   3.962
 6213SOL     OW19537   4.181   6.856   0.007
 6213SOL    HW119538   4.156   6.767   0.047
 6213SOL    HW219539   4.115   6.925   0.036
 6214SOL     OW19540   5.890   5.949   5.457
 6214SOL    HW119541   5.882   5.853   5.429
 6214SOL    HW219542   5.881   5.956   5.556
 6215SOL     OW19543   3.590   2.709   6.726
 6215SOL    HW119544   3.508   2.677   6.678
 6215SOL    HW219545   3.644   2.631   6.756
 6216SOL     OW19546   6.207   2.023   2.255
 6216SOL    HW119547   6.138   1.999   2.186
 6216SOL    HW219548   6.209   2.122   2.267
 6217SOL     OW19549   0.690   4.315   2.785
 6217SOL    HW119550   0.757   4.384   2.758
 6217SOL    HW219551   0.615   4.313   2.718
 6218SOL     OW19552   3.723   6.963   0.085
 6218SOL    HW119553   3.683   6.872   0.094
 6218SOL    HW219554   3.684   7.008   0.004
 6219SOL     OW19555   0.944   0.760   4.659
 6219SOL    HW119556   0.879   0.804   4.721
 6219SOL    HW219557   0.942   0.661   4.675
 6220SOL     OW19558   3.418   1.548   5.653
 6220SOL    HW119559   3.406   1.615   5.726
 6220SOL    HW219560   3.436   1.594   5.567
 6221SOL     OW19561   6.356   6.467   0.117
 6221SOL    HW119562   6.398   6.489   0.028
 6221SOL    HW219563   6.287   6.396   0.104
 6222SOL     OW19564   0.485   0.362   2.400
 6222SOL    HW119565   0.519   0.449   2.436
 6222SOL    HW219566   0.538   0.336   2.319
 6223SOL     OW19567   1.367   5.667   3.224
 6223SOL    HW119568   1.391   5.760   3.252
 6223SOL    HW219569   1.449   5.609   3.229
 6224SOL     OW19570   3.814   1.575   6.016
 6224SOL    HW119571   3.815   1.476   6.029
 6224SOL    HW219572   3.813   1.595   5.918
 6225SOL     OW19573   3.838   2.267   6.010
 6225SOL    HW119574   3.819   2.362   6.037
 6225SOL    HW219575   3.933   2.244   6.033
 6226SOL     OW19576   1.101   1.357   3.687
 6226SOL    HW119577   1.154   1.327   3.608
 6226SOL    HW219578   1.158   1.416   3.745
 6227SOL     OW19579   3.182   4.975   5.212
 6227SOL    HW119580   3.210   5.040   5.283
 6227SOL    HW219581   3.111   5.017   5.156
 6228SOL     OW19582   0.725   2.365   2.696
 6228SOL    HW119583   0.725   2.389   2.599
 6228SOL    HW219584   0.813   2.326   2.722
 6229SOL     OW19585   0.654   2.928   4.936
 6229SOL    HW119586   0.705   3.013   4.947
 6229SOL    HW219587   0.621   2.921   4.841
 6230SOL     OW19588   1.057   2.397   3.124
 6230SOL    HW119589   0.968   2.371   3.086
 6230SOL    HW219590   1.056   2.495   3.148
 6231SOL     OW19591   5.314   5.469   0.371
 6231SOL    HW119592   5.347   5.461   0.277
 6231SOL    HW219593   5.387   5.506   0.428
 6232SOL     OW19594   6.223   1.136   0.335
 6232SOL    HW119595   6.298   1.117   0.399
 6232SOL    HW219596   6.237   1.225   0.293
 6233SOL     OW19597   6.973   2.825   1.641
 6233SOL    HW119598   6.928   2.914   1.642
 6233SOL    HW219599   0.020   2.826   1.706
 6234SOL     OW19600   6.949   0.070   5.336
 6234SOL    HW119601   6.945   0.164   5.303
 6234SOL    HW219602   6.989   0.069   5.428
 6235SOL     OW19603   0.321   0.610   1.848
 6235SOL    HW119604   0.377   0.672   1.793
 6235SOL    HW219605   0.337   0.629   1.945
 6236SOL     OW19606   6.972   4.930   0.583
 6236SOL    HW119607   6.893   4.989   0.565
 6236SOL    HW219608   0.024   4.986   0.594
 6237SOL     OW19609   3.440   0.281   6.781
 6237SOL    HW119610   3.448   0.379   6.800
 6237SOL    HW219611   3.494   0.229   6.846
 6238SOL     OW19612   4.637   6.609   3.588
 6238SOL    HW119613   4.726   6.654   3.581
 6238SOL    HW219614   4.580   6.656   3.655
 6239SOL     OW19615   3.977   1.044   1.060
 6239SOL    HW119616   3.979   0.945   1.047
 6239SOL    HW219617   3.998   1.065   1.156
 6240SOL     OW19618   3.270   3.739   5.671
 6240SOL    HW119619   3.301   3.678   5.598
 6240SOL    HW219620   3.257   3.831   5.633
 6241SOL     OW19621   4.300   0.423   3.736
 6241SOL    HW119622   4.323   0.408   3.832
 6241SOL    HW219623   4.238   0.502   3.728
 6242SOL     OW19624   2.978   0.463   3.259
 6242SOL    HW119625   2.899   0.511   3.296
 6242SOL    HW219626   2.962   0.441   3.162
 6243SOL     OW19627   6.806   0.377   6.041
 6243SOL    HW119628   6.754   0.332   5.969
 6243SOL    HW219629   6.796   0.327   6.127
 6244SOL     OW19630   4.908   3.530   3.584
 6244SOL    HW119631   5.008   3.533   3.584
 6244SOL    HW219632   4.877   3.447   3.539
 6245SOL     OW19633   0.498   4.452   1.962
 6245SOL    HW119634   0.452   4.459   2.051
 6245SOL    HW219635   0.565   4.525   1.953
 6246SOL     OW19636   0.397   1.046   4.593
 6246SOL    HW119637   0.497   1.049   4.588
 6246SOL    HW219638   0.368   0.976   4.658
 6247SOL     OW19639   1.527   6.251   3.283
 6247SOL    HW119640   1.624   6.269   3.296
 6247SOL    HW219641   1.474   6.307   3.348
 6248SOL     OW19642   3.609   4.086   0.111
 6248SOL    HW119643   3.618   4.153   0.184
 6248SOL    HW219644   3.700   4.065   0.074
 6249SOL     OW19645   6.980   2.758   0.642
 6249SOL    HW119646   0.032   2.702   0.631
 6249SOL    HW219647   7.002   2.854   0.622
 6250SOL     OW19648   6.679   6.674   0.876
 6250SOL    HW119649   6.675   6.579   0.845
 6250SOL    HW219650   6.586   6.709   0.889
 6251SOL     OW19651   3.579   6.037   4.619
 6251SOL    HW119652   3.662   6.012   4.567
 6251SOL    HW219653   3.581   5.992   4.708
 6252SOL     OW19654   2.777   4.539   0.296
 6252SOL    HW119655   2.796   4.627   0.252
 6252SOL    HW219656   2.687   4.505   0.266
 6253SOL     OW19657   2.460   5.183   4.617
 6253SOL    HW119658   2.529   5.155   4.684
 6253SOL    HW219659   2.370   5.149   4.645
 6254SOL     OW19660   6.889   0.006   0.927
 6254SOL    HW119661   6.968   6.986   0.962
 6254SOL    HW219662   6.916   0.100   0.905
 6255SOL     OW19663   2.373   2.170   0.885
 6255SOL    HW119664   2.295   2.219   0.925
 6255SOL    HW219665   2.385   2.200   0.790
 6256SOL     OW19666   4.070   4.865   2.154
 6256SOL    HW119667   4.048   4.852   2.057
 6256SOL    HW219668   4.127   4.790   2.186
 6257SOL     OW19669   4.005   2.976   0.218
 6257SOL    HW119670   4.022   2.909   0.290
 6257SOL    HW219671   3.911   3.010   0.225
 6258SOL     OW19672   3.136   0.101   4.877
 6258SOL    HW119673   3.189   0.050   4.945
 6258SOL    HW219674   3.159   0.198   4.885
 6259SOL     OW19675   2.053   0.836   6.452
 6259SOL    HW119676   2.139   0.852   6.500
 6259SOL    HW219677   2.051   0.890   6.368
 6260SOL     OW19678   2.786   0.705   0.820
 6260SOL    HW119679   2.749   0.614   0.801
 6260SOL    HW219680   2.871   0.696   0.873
 6261SOL     OW19681   4.078   6.712   0.819
 6261SOL    HW119682   4.051   6.690   0.725
 6261SOL    HW219683   4.165   6.762   0.817
 6262SOL     OW19684   1.599   5.836   2.290
 6262SOL    HW119685   1.650   5.828   2.376
 6262SOL    HW219686   1.503   5.817   2.307
 6263SOL     OW19687   0.758   6.357   5.348
 6263SOL    HW119688   0.830   6.289   5.342
 6263SOL    HW219689   0.773   6.427   5.278
 6264SOL     OW19690   1.554   6.960   1.505
 6264SOL    HW119691   1.485   6.912   1.559
 6264SOL    HW219692   1.635   6.977   1.562
 6265SOL     OW19693   3.797   2.918   0.743
 6265SOL    HW119694   3.823   2.824   0.766
 6265SOL    HW219695   3.745   2.957   0.819
 6266SOL     OW19696   4.294   6.801   3.295
 6266SOL    HW119697   4.388   6.775   3.276
 6266SOL    HW219698   4.245   6.815   3.209
 6267SOL     OW19699   1.396   0.015   4.683
 6267SOL    HW119700   1.377   6.954   4.646
 6267SOL    HW219701   1.471   0.009   4.748
 6268SOL     OW19702   3.040   0.591   2.091
 6268SOL    HW119703   3.057   0.688   2.076
 6268SOL    HW219704   3.043   0.571   2.189
 6269SOL     OW19705   5.827   6.792   1.477
 6269SOL    HW119706   5.858   6.872   1.426
 6269SOL    HW219707   5.752   6.819   1.538
 6270SOL     OW19708   0.608   6.819   0.278
 6270SOL    HW119709   0.559   6.835   0.364
 6270SOL    HW219710   0.557   6.754   0.222
 6271SOL     OW19711   5.899   2.525   6.507
 6271SOL    HW119712   5.844   2.558   6.431
 6271SOL    HW219713   5.944   2.439   6.481
 6272SOL     OW19714   1.067   0.986   0.712
 6272SOL    HW119715   1.036   1.075   0.677
 6272SOL    HW219716   0.992   0.941   0.759
 6273SOL     OW19717   0.144   5.426   2.679
 6273SOL    HW119718   0.160   5.523   2.696
 6273SOL    HW219719   0.092   5.387   2.755
 6274SOL     OW19720   3.180   7.023   5.130
 6274SOL    HW119721   3.268   6.987   5.160
 6274SOL    HW219722   3.129   6.952   5.082
 6275SOL     OW19723   2.208   5.645   0.843
 6275SOL    HW119724   2.129   5.707   0.841
 6275SOL    HW219725   2.199   5.578   0.769
 6276SOL     OW19726   3.318   5.617   3.557
 6276SOL    HW119727   3.333   5.681   3.632
 6276SOL    HW219728   3.220   5.604   3.544
 6277SOL     OW19729   5.289   2.273   1.033
 6277SOL    HW119730   5.369   2.332   1.041
 6277SOL    HW219731   5.248   2.285   0.943
 6278SOL     OW19732   4.155   0.664   5.694
 6278SOL    HW119733   4.231   0.725   5.671
 6278SOL    HW219734   4.154   0.646   5.792
 6279SOL     OW19735   4.035   5.832   0.815
 6279SOL    HW119736   4.075   5.923   0.828
 6279SOL    HW219737   4.034   5.783   0.902
 6280SOL     OW19738   0.329   1.108   6.830
 6280SOL    HW119739   0.274   1.039   6.877
 6280SOL    HW219740   0.395   1.148   6.894
 6281SOL     OW19741   6.275   4.427   4.017
 6281SOL    HW119742   6.288   4.343   3.966
 6281SOL    HW219743   6.202   4.481   3.976
 6282SOL     OW19744   5.948   3.050   5.130
 6282SOL    HW119745   5.872   3.108   5.159
 6282SOL    HW219746   6.035   3.097   5.148
 6283SOL     OW19747   0.721   4.138   4.173
 6283SOL    HW119748   0.784   4.216   4.173
 6283SOL    HW219749   0.774   4.053   4.172
 6284SOL     OW19750   1.398   5.735   6.749
 6284SOL    HW119751   1.454   5.663   6.789
 6284SOL    HW219752   1.384   5.808   6.817
 6285SOL     OW19753   1.345   3.360   3.574
 6285SOL    HW119754   1.247   3.368   3.591
 6285SOL    HW219755   1.396   3.405   3.648
 6286SOL     OW19756   6.929   3.563   4.230
 6286SOL    HW119757   6.984   3.491   4.272
 6286SOL    HW219758   6.870   3.523   4.160
 6287SOL     OW19759   3.969   5.123   5.430
 6287SOL    HW119760   3.962   5.070   5.345
 6287SOL    HW219761   3.972   5.220   5.408
 6288SOL     OW19762   5.029   4.467   1.396
 6288SOL    HW119763   4.968   4.399   1.438
 6288SOL    HW219764   5.041   4.447   1.299
 6289SOL     OW19765   2.747   4.536   6.503
 6289SOL    HW119766   2.666   4.569   6.454
 6289SOL    HW219767   2.719   4.465   6.568
 6290SOL     OW19768   5.927   5.505   6.706
 6290SOL    HW119769   5.863   5.428   6.710
 6290SOL    HW219770   5.975   5.514   6.793
 6291SOL     OW19771   3.692   3.566   3.416
 6291SOL    HW119772   3.767   3.606   3.468
 6291SOL    HW219773   3.668   3.477   3.455
 6292SOL     OW19774   2.274   2.287   4.896
 6292SOL    HW119775   2.326   2.292   4.811
 6292SOL    HW219776   2.308   2.211   4.951
 6293SOL     OW19777   4.669   1.623   0.832
 6293SOL    HW119778   4.674   1.549   0.899
 6293SOL    HW219779   4.641   1.707   0.878
 6294SOL     OW19780   4.193   0.163   3.158
 6294SOL    HW119781   4.219   0.258   3.172
 6294SOL    HW219782   4.170   0.121   3.246
 6295SOL     OW19783   5.160   4.999   4.890
 6295SOL    HW119784   5.072   4.965   4.858
 6295SOL    HW219785   5.146   5.066   4.963
 6296SOL     OW19786   0.623   4.467   5.605
 6296SOL    HW119787   0.648   4.496   5.513
 6296SOL    HW219788   0.608   4.368   5.607
 6297SOL     OW19789   6.218   0.287   5.601
 6297SOL    HW119790   6.228   0.187   5.596
 6297SOL    HW219791   6.176   0.320   5.517
 6298SOL     OW19792   6.164   4.371   6.613
 6298SOL    HW119793   6.224   4.438   6.568
 6298SOL    HW219794   6.198   4.279   6.594
 6299SOL     OW19795   6.379   2.834   1.785
 6299SOL    HW119796   6.406   2.765   1.853
 6299SOL    HW219797   6.392   2.797   1.693
 6300SOL     OW19798   5.261   0.455   6.505
 6300SOL    HW119799   5.288   0.523   6.573
 6300SOL    HW219800   5.337   0.438   6.442
 6301SOL     OW19801   3.204   7.005   6.317
 6301SOL    HW119802   3.210   6.995   6.416
 6301SOL    HW219803   3.288   6.970   6.275
 6302SOL     OW19804   2.421   1.199   5.595
 6302SOL    HW119805   2.331   1.220   5.634
 6302SOL    HW219806   2.462   1.283   5.558
 6303SOL     OW19807   0.164   6.401   5.609
 6303SOL    HW119808   0.141   6.308   5.581
 6303SOL    HW219809   0.225   6.397   5.689
 6304SOL     OW19810   3.768   1.783   3.848
 6304SOL    HW119811   3.828   1.837   3.907
 6304SOL    HW219812   3.683   1.833   3.833
 6305SOL     OW19813   5.965   5.961   0.337
 6305SOL    HW119814   5.871   5.992   0.323
 6305SOL    HW219815   6.017   5.975   0.253
 6306SOL     OW19816   0.233   3.540   4.081
 6306SOL    HW119817   0.213   3.624   4.132
 6306SOL    HW219818   0.247   3.465   4.145
 6307SOL     OW19819   3.344   2.982   4.199
 6307SOL    HW119820   3.432   2.939   4.177
 6307SOL    HW219821   3.284   2.978   4.119
 6308SOL     OW19822   0.757   2.360   5.765
 6308SOL    HW119823   0.793   2.319   5.682
 6308SOL    HW219824   0.733   2.456   5.748
 6309SOL     OW19825   0.109   0.461   4.355
 6309SOL    HW119826   0.049   0.384   4.334
 6309SOL    HW219827   0.175   0.472   4.281
 6310SOL     OW19828   1.887   6.548   2.681
 6310SOL    HW119829   1.850   6.455   2.671
 6310SOL    HW219830   1.919   6.580   2.591
 6311SOL     OW19831   5.304   1.849   6.566
 6311SOL    HW119832   5.243   1.921   6.600
 6311SOL    HW219833   5.360   1.885   6.492
 6312SOL     OW19834   1.500   6.851   6.495
 6312SOL    HW119835   1.462   6.940   6.469
 6312SOL    HW219836   1.503   6.844   6.594
 6313SOL     OW19837   5.659   6.579   3.066
 6313SOL    HW119838   5.670   6.661   3.009
 6313SOL    HW219839   5.674   6.604   3.162
 6314SOL     OW19840   3.771   0.591   2.011
 6314SOL    HW119841   3.733   0.616   1.922
 6314SOL    HW219842   3.750   0.663   2.078
 6315SOL     OW19843   2.114   1.782   4.537
 6315SOL    HW119844   2.082   1.690   4.560
 6315SOL    HW219845   2.111   1.840   4.619
 6316SOL     OW19846   4.894   1.993   5.468
 6316SOL    HW119847   4.796   2.009   5.476
 6316SOL    HW219848   4.939   2.076   5.433
 6317SOL     OW19849   4.977   3.612   2.442
 6317SOL    HW119850   4.938   3.699   2.472
 6317SOL    HW219851   4.938   3.587   2.354
 6318SOL     OW19852   4.857   6.943   6.503
 6318SOL    HW119853   4.774   6.971   6.455
 6318SOL    HW219854   4.929   6.922   6.436
 6319SOL     OW19855   6.693   1.800   5.116
 6319SOL    HW119856   6.777   1.761   5.154
 6319SOL    HW219857   6.626   1.727   5.100
 6320SOL     OW19858   6.980   0.231   4.325
 6320SOL    HW119859   6.887   0.267   4.324
 6320SOL    HW219860   6.977   0.132   4.311
 6321SOL     OW19861   4.817   3.385   0.397
 6321SOL    HW119862   4.892   3.379   0.331
 6321SOL    HW219863   4.811   3.478   0.432
 6322SOL     OW19864   3.586   1.801   0.280
 6322SOL    HW119865   3.665   1.857   0.253
 6322SOL    HW219866   3.516   1.860   0.321
 6323SOL     OW19867   1.671   1.874   1.394
 6323SOL    HW119868   1.749   1.814   1.412
 6323SOL    HW219869   1.606   1.827   1.335
 6324SOL     OW19870   4.178   1.658   0.683
 6324SOL    HW119871   4.175   1.758   0.694
 6324SOL    HW219872   4.273   1.628   0.676
 6325SOL     OW19873   2.329   2.822   3.131
 6325SOL    HW119874   2.317   2.897   3.066
 6325SOL    HW219875   2.273   2.839   3.212
 6326SOL     OW19876   5.202   5.662   5.827
 6326SOL    HW119877   5.116   5.682   5.874
 6326SOL    HW219878   5.272   5.728   5.854
 6327SOL     OW19879   6.854   1.557   4.121
 6327SOL    HW119880   6.874   1.652   4.143
 6327SOL    HW219881   6.889   1.498   4.194
 6328SOL     OW19882   4.585   3.862   6.654
 6328SOL    HW119883   4.601   3.898   6.746
 6328SOL    HW219884   4.494   3.890   6.622
 6329SOL     OW19885   0.848   2.915   5.333
 6329SOL    HW119886   0.879   3.007   5.360
 6329SOL    HW219887   0.748   2.912   5.337
 6330SOL     OW19888   5.762   6.583   1.994
 6330SOL    HW119889   5.761   6.567   2.093
 6330SOL    HW219890   5.845   6.632   1.969
 6331SOL     OW19891   6.542   3.203   4.695
 6331SOL    HW119892   6.536   3.162   4.786
 6331SOL    HW219893   6.456   3.189   4.646
 6332SOL     OW19894   0.958   2.665   1.069
 6332SOL    HW119895   0.918   2.740   1.121
 6332SOL    HW219896   1.043   2.635   1.115
 6333SOL     OW19897   4.814   6.927   6.104
 6333SOL    HW119898   4.818   6.830   6.126
 6333SOL    HW219899   4.754   6.973   6.169
 6334SOL     OW19900   2.660   1.201   1.894
 6334SOL    HW119901   2.667   1.174   1.990
 6334SOL    HW219902   2.706   1.289   1.882
 6335SOL     OW19903   5.143   0.959   0.307
 6335SOL    HW119904   5.133   0.862   0.330
 6335SOL    HW219905   5.234   0.990   0.332
 6336SOL     OW19906   0.304   3.738   6.346
 6336SOL    HW119907   0.289   3.817   6.405
 6336SOL    HW219908   0.358   3.669   6.395
 6337SOL     OW19909   4.258   5.475   4.680
 6337SOL    HW119910   4.355   5.493   4.696
 6337SOL    HW219911   4.203   5.518   4.752
 6338SOL     OW19912   3.294   2.155   4.534
 6338SOL    HW119913   3.223   2.188   4.597
 6338SOL    HW219914   3.379   2.139   4.585
 6339SOL     OW19915   0.891   3.767   3.659
 6339SOL    HW119916   0.968   3.793   3.601
 6339SOL    HW219917   0.916   3.782   3.755
 6340SOL     OW19918   2.303   3.666   1.049
 6340SOL    HW119919   2.322   3.666   1.147
 6340SOL    HW219920   2.210   3.701   1.033
 6341SOL     OW19921   0.529   3.847   3.363
 6341SOL    HW119922   0.593   3.910   3.319
 6341SOL    HW219923   0.532   3.758   3.316
 6342SOL     OW19924   3.433   1.227   0.959
 6342SOL    HW119925   3.513   1.230   0.898
 6342SOL    HW219926   3.358   1.179   0.914
 6343SOL     OW19927   3.860   6.765   6.540
 6343SOL    HW119928   3.812   6.749   6.454
 6343SOL    HW219929   3.935   6.830   6.524
 6344SOL     OW19930   5.898   1.974   4.005
 6344SOL    HW119931   5.905   1.885   3.962
 6344SOL    HW219932   5.814   2.019   3.975
 6345SOL     OW19933   4.777   2.807   1.806
 6345SOL    HW119934   4.816   2.771   1.891
 6345SOL    HW219935   4.727   2.892   1.826
 6346SOL     OW19936   6.787   4.445   4.848
 6346SOL    HW119937   6.776   4.438   4.947
 6346SOL    HW219938   6.775   4.540   4.820
 6347SOL     OW19939   2.140   1.652   1.222
 6347SOL    HW119940   2.192   1.725   1.267
 6347SOL    HW219941   2.201   1.574   1.205
 6348SOL     OW19942   0.878   2.571   6.088
 6348SOL    HW119943   0.919   2.532   6.006
 6348SOL    HW219944   0.947   2.578   6.160
 6349SOL     OW19945   1.850   0.689   0.611
 6349SOL    HW119946   1.767   0.634   0.623
 6349SOL    HW219947   1.843   0.741   0.526
 6350SOL     OW19948   0.845   5.034   2.971
 6350SOL    HW119949   0.851   4.940   3.005
 6350SOL    HW219950   0.887   5.096   3.037
 6351SOL     OW19951   6.471   4.082   3.703
 6351SOL    HW119952   6.510   3.993   3.681
 6351SOL    HW219953   6.396   4.103   3.639
 6352SOL     OW19954   2.514   0.364   4.174
 6352SOL    HW119955   2.483   0.269   4.176
 6352SOL    HW219956   2.472   0.411   4.096
 6353SOL     OW19957   2.310   5.562   6.970
 6353SOL    HW119958   2.223   5.581   6.924
 6353SOL    HW219959   2.299   5.482   7.029
 6354SOL     OW19960   3.669   5.986   3.245
 6354SOL    HW119961   3.708   6.036   3.168
 6354SOL    HW219962   3.724   5.904   3.263
 6355SOL     OW19963   2.693   5.814   0.253
 6355SOL    HW119964   2.787   5.816   0.287
 6355SOL    HW219965   2.643   5.740   0.298
 6356SOL     OW19966   5.296   5.327   0.098
 6356SOL    HW119967   5.336   5.236   0.113
 6356SOL    HW219968   5.197   5.322   0.108
 6357SOL     OW19969   5.958   2.885   2.109
 6357SOL    HW119970   5.956   2.934   2.022
 6357SOL    HW219971   5.892   2.926   2.172
 6358SOL     OW19972   0.452   1.905   6.544
 6358SOL    HW119973   0.494   1.927   6.632
 6358SOL    HW219974   0.362   1.947   6.538
 6359SOL     OW19975   6.060   6.277   0.653
 6359SOL    HW119976   5.960   6.279   0.664
 6359SOL    HW219977   6.103   6.327   0.729
 6360SOL     OW19978   0.461   3.256   4.075
 6360SOL    HW119979   0.457   3.274   3.977
 6360SOL    HW219980   0.510   3.170   4.091
 6361SOL     OW19981   1.168   0.451   0.762
 6361SOL    HW119982   1.235   0.384   0.795
 6361SOL    HW219983   1.118   0.489   0.840
 6362SOL     OW19984   1.728   6.110   6.923
 6362SOL    HW119985   1.816   6.091   6.968
 6362SOL    HW219986   1.691   6.025   6.886
 6363SOL     OW19987   3.095   5.292   4.177
 6363SOL    HW119988   3.174   5.242   4.140
 6363SOL    HW219989   3.060   5.244   4.257
 6364SOL     OW19990   2.492   2.683   5.455
 6364SOL    HW119991   2.504   2.643   5.364
 6364SOL    HW219992   2.442   2.769   5.447
 6365SOL     OW19993   5.696   6.217   5.070
 6365SOL    HW119994   5.669   6.163   5.150
 6365SOL    HW219995   5.642   6.188   4.991
 6366SOL     OW19996   0.324   6.316   4.710
 6366SOL    HW119997   0.285   6.401   4.675
 6366SOL    HW219998   0.388   6.336   4.784
 6367SOL     OW19999   3.306   2.119   2.831
 6367SOL    HW120000   3.234   2.130   2.900
 6367SOL    HW220001   3.396   2.127   2.875
 6368SOL     OW20002   4.222   4.755   4.430
 6368SOL    HW120003   4.198   4.808   4.512
 6368SOL    HW220004   4.168   4.788   4.353
 6369SOL     OW20005   1.907   0.369   4.364
 6369SOL    HW120006   1.996   0.414   4.359
 6369SOL    HW220007   1.902   0.316   4.448
 6370SOL     OW20008   5.504   4.183   3.406
 6370SOL    HW120009   5.569   4.187   3.482
 6370SOL    HW220010   5.440   4.108   3.421
 6371SOL     OW20011   5.296   3.967   1.918
 6371SOL    HW120012   5.262   4.026   1.990
 6371SOL    HW220013   5.320   3.877   1.956
 6372SOL     OW20014   1.392   1.429   1.748
 6372SOL    HW120015   1.379   1.455   1.653
 6372SOL    HW220016   1.320   1.470   1.804
 6373SOL     OW20017   5.804   4.345   2.396
 6373SOL    HW120018   5.726   4.343   2.332
 6373SOL    HW220019   5.867   4.417   2.368
 6374SOL     OW20020   4.558   2.920   0.438
 6374SOL    HW120021   4.629   2.986   0.412
 6374SOL    HW220022   4.468   2.964   0.431
 6375SOL     OW20023   0.998   2.464   1.632
 6375SOL    HW120024   1.094   2.493   1.635
 6375SOL    HW220025   0.954   2.502   1.551
 6376SOL     OW20026   3.800   1.603   5.740
 6376SOL    HW120027   3.765   1.675   5.680
 6376SOL    HW220028   3.895   1.621   5.762
 6377SOL     OW20029   6.825   1.361   5.367
 6377SOL    HW120030   6.821   1.449   5.413
 6377SOL    HW220031   6.799   1.372   5.271
 6378SOL     OW20032   5.090   5.757   3.244
 6378SOL    HW120033   5.185   5.779   3.220
 6378SOL    HW220034   5.051   5.698   3.174
 6379SOL     OW20035   1.004   5.150   5.681
 6379SOL    HW120036   1.018   5.134   5.779
 6379SOL    HW220037   0.908   5.172   5.664
 6380SOL     OW20038   0.291   2.831   4.306
 6380SOL    HW120039   0.207   2.851   4.256
 6380SOL    HW220040   0.290   2.736   4.338
 6381SOL     OW20041   4.115   2.716   0.328
 6381SOL    HW120042   4.174   2.645   0.367
 6381SOL    HW220043   4.139   2.731   0.232
 6382SOL     OW20044   3.518   1.643   1.155
 6382SOL    HW120045   3.456   1.609   1.226
 6382SOL    HW220046   3.482   1.617   1.065
 6383SOL     OW20047   2.182   2.432   2.099
 6383SOL    HW120048   2.214   2.393   2.185
 6383SOL    HW220049   2.123   2.367   2.052
 6384SOL     OW20050   5.769   3.031   2.243
 6384SOL    HW120051   5.801   3.124   2.257
 6384SOL    HW220052   5.694   3.031   2.176
 6385SOL     OW20053   6.623   3.748   2.062
 6385SOL    HW120054   6.635   3.652   2.038
 6385SOL    HW220055   6.670   3.805   1.994
 6386SOL     OW20056   1.804   3.831   0.310
 6386SOL    HW120057   1.849   3.827   0.221
 6386SOL    HW220058   1.725   3.892   0.305
 6387SOL     OW20059   6.046   1.065   0.530
 6387SOL    HW120060   6.094   1.065   0.442
 6387SOL    HW220061   5.955   1.105   0.519
 6388SOL     OW20062   5.917   5.053   2.020
 6388SOL    HW120063   5.888   5.046   2.116
 6388SOL    HW220064   5.966   4.970   1.994
 6389SOL     OW20065   1.309   6.624   1.509
 6389SOL    HW120066   1.317   6.570   1.425
 6389SOL    HW220067   1.379   6.594   1.574
 6390SOL     OW20068   6.613   0.277   5.872
 6390SOL    HW120069   6.577   0.280   5.779
 6390SOL    HW220070   6.537   0.278   5.937
 6391SOL     OW20071   1.430   1.062   5.712
 6391SOL    HW120072   1.351   1.048   5.772
 6391SOL    HW220073   1.413   1.138   5.651
 6392SOL     OW20074   3.050   6.304   3.703
 6392SOL    HW120075   3.086   6.371   3.768
 6392SOL    HW220076   3.081   6.212   3.729
 6393SOL     OW20077   5.636   5.928   1.578
 6393SOL    HW120078   5.551   5.930   1.525
 6393SOL    HW220079   5.696   6.001   1.546
 6394SOL     OW20080   1.674   4.914   1.137
 6394SOL    HW120081   1.693   5.012   1.143
 6394SOL    HW220082   1.760   4.864   1.126
 6395SOL     OW20083   0.208   2.939   1.949
 6395SOL    HW120084   0.263   2.969   2.027
 6395SOL    HW220085   0.111   2.957   1.968
 6396SOL     OW20086   6.445   4.105   5.793
 6396SOL    HW120087   6.346   4.102   5.811
 6396SOL    HW220088   6.479   4.198   5.809
 6397SOL     OW20089   6.228   1.356   2.269
 6397SOL    HW120090   6.310   1.299   2.260
 6397SOL    HW220091   6.252   1.452   2.254
 6398SOL     OW20092   1.702   6.708   1.795
 6398SOL    HW120093   1.656   6.687   1.881
 6398SOL    HW220094   1.793   6.667   1.794
 6399SOL     OW20095   1.580   7.022   6.766
 6399SOL    HW120096   1.485   0.014   6.742
 6399SOL    HW220097   1.581   6.962   6.846
 6400SOL     OW20098   1.947   4.873   2.672
 6400SOL    HW120099   1.985   4.966   2.677
 6400SOL    HW220100   1.857   4.871   2.714
 6401SOL     OW20101   5.292   5.096   3.163
 6401SOL    HW120102   5.304   5.030   3.089
 6401SOL    HW220103   5.264   5.049   3.246
 6402SOL     OW20104   1.873   3.161   3.750
 6402SOL    HW120105   1.776   3.137   3.751
 6402SOL    HW220106   1.883   3.258   3.726
 6403SOL     OW20107   5.941   6.354   6.119
 6403SOL    HW120108   5.912   6.320   6.029
 6403SOL    HW220109   5.914   6.450   6.129
 6404SOL     OW20110   4.152   1.615   2.521
 6404SOL    HW120111   4.080   1.626   2.589
 6404SOL    HW220112   4.122   1.654   2.434
 6405SOL     OW20113   4.423   1.548   4.118
 6405SOL    HW120114   4.443   1.646   4.111
 6405SOL    HW220115   4.496   1.496   4.073
 6406SOL     OW20116   1.721   3.368   2.071
 6406SOL    HW120117   1.732   3.464   2.049
 6406SOL    HW220118   1.627   3.352   2.103
 6407SOL     OW20119   2.357   7.016   3.097
 6407SOL    HW120120   2.407   0.038   3.027
 6407SOL    HW220121   2.262   7.003   3.067
 6408SOL     OW20122   5.954   0.547   0.803
 6408SOL    HW120123   6.041   0.501   0.821
 6408SOL    HW220124   5.933   0.540   0.705
 6409SOL     OW20125   0.037   4.775   2.827
 6409SOL    HW120126   6.987   4.829   2.853
 6409SOL    HW220127   0.099   4.831   2.773
 6410SOL     OW20128   2.206   1.094   6.712
 6410SOL    HW120129   2.107   1.088   6.695
 6410SOL    HW220130   2.234   1.190   6.709
 6411SOL     OW20131   1.373   3.028   2.123
 6411SOL    HW120132   1.468   3.043   2.095
 6411SOL    HW220133   1.315   3.100   2.083
 6412SOL     OW20134   2.513   0.846   6.910
 6412SOL    HW120135   2.462   0.895   6.980
 6412SOL    HW220136   2.477   0.754   6.899
 6413SOL     OW20137   3.792   5.145   4.811
 6413SOL    HW120138   3.707   5.097   4.791
 6413SOL    HW220139   3.814   5.206   4.734
 6414SOL     OW20140   6.056   6.894   6.735
 6414SOL    HW120141   5.993   6.932   6.802
 6414SOL    HW220142   6.007   6.877   6.649
 6415SOL     OW20143   1.557   3.464   4.116
 6415SOL    HW120144   1.634   3.399   4.117
 6415SOL    HW220145   1.585   3.549   4.160
 6416SOL     OW20146   2.789   0.147   6.294
 6416SOL    HW120147   2.715   0.143   6.227
 6416SOL    HW220148   2.751   0.161   6.386
 6417SOL     OW20149   5.249   2.695   0.760
 6417SOL    HW120150   5.316   2.628   0.790
 6417SOL    HW220151   5.295   2.780   0.734
 6418SOL     OW20152   5.320   4.381   2.897
 6418SOL    HW120153   5.409   4.413   2.931
 6418SOL    HW220154   5.333   4.298   2.843
 6419SOL     OW20155   0.559   5.359   4.725
 6419SOL    HW120156   0.588   5.384   4.633
 6419SOL    HW220157   0.603   5.273   4.752
 6420SOL     OW20158   1.912   1.476   3.917
 6420SOL    HW120159   1.976   1.449   3.845
 6420SOL    HW220160   1.832   1.520   3.876
 6421SOL     OW20161   4.488   0.579   1.247
 6421SOL    HW120162   4.491   0.648   1.319
 6421SOL    HW220163   4.449   0.619   1.164
 6422SOL     OW20164   6.713   1.618   5.351
 6422SOL    HW120165   6.807   1.641   5.377
 6422SOL    HW220166   6.714   1.556   5.273
 6423SOL     OW20167   4.836   5.721   4.658
 6423SOL    HW120168   4.774   5.677   4.723
 6423SOL    HW220169   4.782   5.761   4.583
 6424SOL     OW20170   1.693   3.728   4.864
 6424SOL    HW120171   1.765   3.658   4.863
 6424SOL    HW220172   1.613   3.692   4.913
 6425SOL     OW20173   0.059   5.566   2.902
 6425SOL    HW120174   0.077   5.643   2.840
 6425SOL    HW220175   7.007   5.585   2.956
 6426SOL     OW20176   5.505   5.364   3.719
 6426SOL    HW120177   5.478   5.289   3.660
 6426SOL    HW220178   5.486   5.341   3.814
 6427SOL     OW20179   3.032   3.692   3.348
 6427SOL    HW120180   3.043   3.740   3.435
 6427SOL    HW220181   2.995   3.755   3.280
 6428SOL     OW20182   5.248   3.483   0.450
 6428SOL    HW120183   5.160   3.463   0.495
 6428SOL    HW220184   5.304   3.400   0.451
 6429SOL     OW20185   1.233   0.582   5.782
 6429SOL    HW120186   1.255   0.515   5.712
 6429SOL    HW220187   1.160   0.546   5.841
 6430SOL     OW20188   6.526   0.860   5.026
 6430SOL    HW120189   6.459   0.812   5.083
 6430SOL    HW220190   6.596   0.900   5.084
 6431SOL     OW20191   4.742   5.475   2.894
 6431SOL    HW120192   4.784   5.501   2.981
 6431SOL    HW220193   4.777   5.385   2.866
 6432SOL     OW20194   3.575   4.327   6.457
 6432SOL    HW120195   3.523   4.266   6.396
 6432SOL    HW220196   3.559   4.422   6.430
 6433SOL     OW20197   3.198   4.917   0.222
 6433SOL    HW120198   3.233   4.931   0.129
 6433SOL    HW220199   3.131   4.987   0.244
 6434SOL     OW20200   2.659   6.796   5.945
 6434SOL    HW120201   2.741   6.776   5.998
 6434SOL    HW220202   2.684   6.816   5.851
 6435SOL     OW20203   6.257   0.093   0.873
 6435SOL    HW120204   6.245   0.175   0.929
 6435SOL    HW220205   6.335   0.105   0.813
 6436SOL     OW20206   1.101   3.736   3.244
 6436SOL    HW120207   1.156   3.667   3.198
 6436SOL    HW220208   1.013   3.745   3.198
 6437SOL     OW20209   1.696   2.469   6.247
 6437SOL    HW120210   1.789   2.488   6.280
 6437SOL    HW220211   1.632   2.533   6.289
 6438SOL     OW20212   1.200   5.011   6.360
 6438SOL    HW120213   1.284   5.040   6.405
 6438SOL    HW220214   1.161   4.934   6.409
 6439SOL     OW20215   5.670   0.936   2.854
 6439SOL    HW120216   5.630   0.849   2.884
 6439SOL    HW220217   5.768   0.925   2.842
 6440SOL     OW20218   2.785   0.483   6.178
 6440SOL    HW120219   2.864   0.541   6.196
 6440SOL    HW220220   2.814   0.388   6.173
 6441SOL     OW20221   0.642   1.092   1.536
 6441SOL    HW120222   0.550   1.055   1.551
 6441SOL    HW220223   0.655   1.107   1.438
 6442SOL     OW20224   2.416   1.821   4.888
 6442SOL    HW120225   2.421   1.848   4.792
 6442SOL    HW220226   2.464   1.888   4.944
 6443SOL     OW20227   3.491   2.287   5.959
 6443SOL    HW120228   3.491   2.212   6.025
 6443SOL    HW220229   3.445   2.258   5.875
 6444SOL     OW20230   6.354   2.777   4.643
 6444SOL    HW120231   6.285   2.850   4.639
 6444SOL    HW220232   6.399   2.768   4.555
 6445SOL     OW20233   3.883   3.368   3.232
 6445SOL    HW120234   3.788   3.347   3.209
 6445SOL    HW220235   3.903   3.335   3.324
 6446SOL     OW20236   0.298   1.998   0.438
 6446SOL    HW120237   0.269   1.980   0.532
 6446SOL    HW220238   0.262   2.087   0.408
 6447SOL     OW20239   6.325   4.543   1.695
 6447SOL    HW120240   6.384   4.566   1.772
 6447SOL    HW220241   6.230   4.533   1.727
 6448SOL     OW20242   5.089   4.764   1.390
 6448SOL    HW120243   5.137   4.782   1.304
 6448SOL    HW220244   5.039   4.678   1.383
 6449SOL     OW20245   2.848   5.104   1.812
 6449SOL    HW120246   2.759   5.075   1.776
 6449SOL    HW220247   2.912   5.027   1.809
 6450SOL     OW20248   1.026   3.945   6.937
 6450SOL    HW120249   0.927   3.956   6.937
 6450SOL    HW220250   1.051   3.862   6.986
 6451SOL     OW20251   2.519   1.283   5.916
 6451SOL    HW120252   2.497   1.235   6.001
 6451SOL    HW220253   2.611   1.257   5.886
 6452SOL     OW20254   4.874   3.981   2.943
 6452SOL    HW120255   4.855   3.884   2.926
 6452SOL    HW220256   4.954   4.009   2.890
 6453SOL     OW20257   2.691   6.728   1.391
 6453SOL    HW120258   2.751   6.710   1.313
 6453SOL    HW220259   2.596   6.736   1.360
 6454SOL     OW20260   0.813   1.457   2.548
 6454SOL    HW120261   0.875   1.416   2.615
 6454SOL    HW220262   0.859   1.464   2.460
 6455SOL     OW20263   6.708   3.487   3.444
 6455SOL    HW120264   6.748   3.420   3.506
 6455SOL    HW220265   6.611   3.465   3.429
 6456SOL     OW20266   1.429   0.915   2.860
 6456SOL    HW120267   1.480   0.852   2.918
 6456SOL    HW220268   1.455   1.009   2.882
 6457SOL     OW20269   4.731   6.568   1.157
 6457SOL    HW120270   4.721   6.667   1.170
 6457SOL    HW220271   4.646   6.522   1.183
 6458SOL     OW20272   1.683   5.036   5.096
 6458SOL    HW120273   1.639   5.120   5.126
 6458SOL    HW220274   1.776   5.056   5.065
 6459SOL     OW20275   6.314   2.540   2.787
 6459SOL    HW120276   6.310   2.548   2.886
 6459SOL    HW220277   6.287   2.626   2.744
 6460SOL     OW20278   6.007   6.036   5.991
 6460SOL    HW120279   6.047   5.968   5.930
 6460SOL    HW220280   5.931   6.081   5.945
 6461SOL     OW20281   2.526   4.399   0.278
 6461SOL    HW120282   2.478   4.484   0.299
 6461SOL    HW220283   2.484   4.355   0.199
 6462SOL     OW20284   0.506   2.983   4.679
 6462SOL    HW120285   0.438   3.003   4.609
 6462SOL    HW220286   0.543   2.891   4.664
 6463SOL     OW20287   5.058   6.717   0.652
 6463SOL    HW120288   5.023   6.637   0.605
 6463SOL    HW220289   5.130   6.689   0.717
 6464SOL     OW20290   1.748   5.820   4.953
 6464SOL    HW120291   1.668   5.841   4.897
 6464SOL    HW220292   1.718   5.784   5.042
 6465SOL     OW20293   6.678   2.697   2.520
 6465SOL    HW120294   6.676   2.645   2.606
 6465SOL    HW220295   6.757   2.668   2.466
 6466SOL     OW20296   6.928   1.724   6.952
 6466SOL    HW120297   7.014   1.708   6.903
 6466SOL    HW220298   6.937   1.693   0.017
 6467SOL     OW20299   3.815   0.181   1.159
 6467SOL    HW120300   3.717   0.164   1.144
 6467SOL    HW220301   3.858   0.204   1.071
 6468SOL     OW20302   3.444   6.428   1.703
 6468SOL    HW120303   3.448   6.494   1.778
 6468SOL    HW220304   3.459   6.336   1.739
 6469SOL     OW20305   3.522   2.067   4.113
 6469SOL    HW120306   3.436   2.097   4.156
 6469SOL    HW220307   3.503   1.993   4.049
 6470SOL     OW20308   6.057   2.555   0.401
 6470SOL    HW120309   5.966   2.566   0.442
 6470SOL    HW220310   6.121   2.519   0.469
 6471SOL     OW20311   0.869   6.173   5.722
 6471SOL    HW120312   0.773   6.145   5.712
 6471SOL    HW220313   0.876   6.271   5.707
 6472SOL     OW20314   6.285   5.740   2.786
 6472SOL    HW120315   6.302   5.699   2.696
 6472SOL    HW220316   6.256   5.668   2.850
 6473SOL     OW20317   1.984   1.612   5.026
 6473SOL    HW120318   2.078   1.603   4.992
 6473SOL    HW220319   1.935   1.525   5.014
 6474SOL     OW20320   3.716   5.462   5.887
 6474SOL    HW120321   3.750   5.473   5.980
 6474SOL    HW220322   3.635   5.519   5.874
 6475SOL     OW20323   5.677   4.586   3.718
 6475SOL    HW120324   5.718   4.524   3.651
 6475SOL    HW220325   5.633   4.663   3.670
 6476SOL     OW20326   4.751   3.157   6.538
 6476SOL    HW120327   4.715   3.219   6.469
 6476SOL    HW220328   4.698   3.072   6.537
 6477SOL     OW20329   6.036   5.073   0.862
 6477SOL    HW120330   6.067   5.162   0.829
 6477SOL    HW220331   6.103   5.035   0.925
 6478SOL     OW20332   3.528   6.863   2.498
 6478SOL    HW120333   3.559   6.809   2.419
 6478SOL    HW220334   3.522   6.959   2.472
 6479SOL     OW20335   3.630   5.226   4.425
 6479SOL    HW120336   3.642   5.318   4.463
 6479SOL    HW220337   3.567   5.230   4.347
 6480SOL     OW20338   2.056   1.297   0.270
 6480SOL    HW120339   2.071   1.376   0.210
 6480SOL    HW220340   2.145   1.264   0.302
 6481SOL     OW20341   3.279   2.629   1.724
 6481SOL    HW120342   3.343   2.552   1.734
 6481SOL    HW220343   3.327   2.714   1.747
 6482SOL     OW20344   6.391   2.549   6.366
 6482SOL    HW120345   6.451   2.563   6.287
 6482SOL    HW220346   6.298   2.575   6.343
 6483SOL     OW20347   0.226   6.274   3.689
 6483SOL    HW120348   0.262   6.354   3.642
 6483SOL    HW220349   0.183   6.213   3.623
 6484SOL     OW20350   3.045   1.178   2.594
 6484SOL    HW120351   2.951   1.145   2.598
 6484SOL    HW220352   3.057   1.231   2.510
 6485SOL     OW20353   1.944   5.974   3.477
 6485SOL    HW120354   2.006   5.897   3.495
 6485SOL    HW220355   1.905   6.005   3.563
 6486SOL     OW20356   0.462   5.342   2.440
 6486SOL    HW120357   0.457   5.320   2.538
 6486SOL    HW220358   0.404   5.278   2.390
 6487SOL     OW20359   0.873   6.442   5.607
 6487SOL    HW120360   0.962   6.412   5.641
 6487SOL    HW220361   0.844   6.381   5.533
 6488SOL     OW20362   4.459   5.991   4.599
 6488SOL    HW120363   4.360   6.003   4.609
 6488SOL    HW220364   4.501   5.989   4.690
 6489SOL     OW20365   3.446   3.471   6.279
 6489SOL    HW120366   3.386   3.399   6.312
 6489SOL    HW220367   3.496   3.439   6.198
 6490SOL     OW20368   2.936   1.258   6.181
 6490SOL    HW120369   2.871   1.232   6.110
 6490SOL    HW220370   2.933   1.357   6.194
 6491SOL     OW20371   2.895   0.420   1.933
 6491SOL    HW120372   2.928   0.480   2.007
 6491SOL    HW220373   2.966   0.411   1.864
 6492SOL     OW20374   3.974   3.196   4.979
 6492SOL    HW120375   3.942   3.138   4.905
 6492SOL    HW220376   3.964   3.292   4.953
 6493SOL     OW20377   1.041   4.625   6.338
 6493SOL    HW120378   1.131   4.607   6.378
 6493SOL    HW220379   0.971   4.575   6.389
 6494SOL     OW20380   6.644   6.599   2.637
 6494SOL    HW120381   6.726   6.655   2.629
 6494SOL    HW220382   6.563   6.657   2.634
 6495SOL     OW20383   6.230   0.503   4.514
 6495SOL    HW120384   6.317   0.530   4.473
 6495SOL    HW220385   6.232   0.522   4.612
 6496SOL     OW20386   5.979   0.043   1.569
 6496SOL    HW120387   6.017   0.053   1.477
 6496SOL    HW220388   6.046   0.076   1.636
 6497SOL     OW20389   1.431   0.145   1.065
 6497SOL    HW120390   1.488   0.079   1.113
 6497SOL    HW220391   1.423   0.228   1.119
 6498SOL     OW20392   0.528   4.024   4.686
 6498SOL    HW120393   0.589   4.065   4.754
 6498SOL    HW220394   0.569   4.032   4.595
 6499SOL     OW20395   5.880   4.105   4.783
 6499SOL    HW120396   5.957   4.149   4.739
 6499SOL    HW220397   5.820   4.065   4.713
 6500SOL     OW20398   0.208   4.035   2.729
 6500SOL    HW120399   0.297   4.001   2.701
 6500SOL    HW220400   0.161   4.074   2.650
 6501SOL     OW20401   0.048   1.143   1.142
 6501SOL    HW120402   7.020   1.076   1.189
 6501SOL    HW220403   0.107   1.096   1.077
 6502SOL     OW20404   0.014   3.810   1.428
 6502SOL    HW120405   0.091   3.822   1.490
 6502SOL    HW220406   0.031   3.861   1.344
 6503SOL     OW20407   5.545   0.918   3.720
 6503SOL    HW120408   5.576   0.852   3.789
 6503SOL    HW220409   5.618   0.983   3.702
 6504SOL     OW20410   3.396   6.367   6.805
 6504SOL    HW120411   3.464   6.441   6.811
 6504SOL    HW220412   3.354   6.368   6.715
 6505SOL     OW20413   4.498   6.361   6.005
 6505SOL    HW120414   4.520   6.418   6.084
 6505SOL    HW220415   4.445   6.281   6.034
 6506SOL     OW20416   0.182   2.571   3.566
 6506SOL    HW120417   0.236   2.549   3.648
 6506SOL    HW220418   0.223   2.526   3.487
 6507SOL     OW20419   2.788   5.665   5.965
 6507SOL    HW120420   2.724   5.734   5.932
 6507SOL    HW220421   2.740   5.603   6.028
 6508SOL     OW20422   1.523   0.514   2.543
 6508SOL    HW120423   1.494   0.421   2.566
 6508SOL    HW220424   1.566   0.513   2.453
 6509SOL     OW20425   4.873   1.582   4.997
 6509SOL    HW120426   4.935   1.660   4.993
 6509SOL    HW220427   4.918   1.506   5.044
 6510SOL     OW20428   5.067   5.199   6.519
 6510SOL    HW120429   5.050   5.105   6.488
 6510SOL    HW220430   5.155   5.230   6.483
 6511SOL     OW20431   4.582   1.365   5.182
 6511SOL    HW120432   4.644   1.297   5.143
 6511SOL    HW220433   4.490   1.353   5.143
 6512SOL     OW20434   3.323   6.642   2.480
 6512SOL    HW120435   3.373   6.557   2.497
 6512SOL    HW220436   3.383   6.720   2.495
 6513SOL     OW20437   1.665   6.354   4.027
 6513SOL    HW120438   1.640   6.259   4.048
 6513SOL    HW220439   1.602   6.391   3.959
 6514SOL     OW20440   6.128   1.173   4.283
 6514SOL    HW120441   6.114   1.076   4.299
 6514SOL    HW220442   6.054   1.210   4.226
 6515SOL     OW20443   1.472   3.887   2.652
 6515SOL    HW120444   1.523   3.806   2.682
 6515SOL    HW220445   1.400   3.859   2.588
 6516SOL     OW20446   6.890   3.127   1.213
 6516SOL    HW120447   6.920   3.183   1.290
 6516SOL    HW220448   6.932   3.160   1.128
 6517SOL     OW20449   0.252   1.891   1.513
 6517SOL    HW120450   0.245   1.795   1.537
 6517SOL    HW220451   0.168   1.921   1.468
 6518SOL     OW20452   0.304   0.681   2.110
 6518SOL    HW120453   0.208   0.679   2.140
 6518SOL    HW220454   0.355   0.608   2.156
 6519SOL     OW20455   6.877   2.077   2.735
 6519SOL    HW120456   6.892   1.995   2.789
 6519SOL    HW220457   6.942   2.080   2.660
 6520SOL     OW20458   6.943   5.689   6.887
 6520SOL    HW120459   7.004   5.763   6.914
 6520SOL    HW220460   6.849   5.724   6.879
 6521SOL     OW20461   2.286   2.815   3.932
 6521SOL    HW120462   2.302   2.805   4.030
 6521SOL    HW220463   2.219   2.748   3.902
 6522SOL     OW20464   2.263   4.685   4.936
 6522SOL    HW120465   2.323   4.755   4.897
 6522SOL    HW220466   2.187   4.668   4.874
 6523SOL     OW20467   3.758   0.677   6.617
 6523SOL    HW120468   3.700   0.752   6.649
 6523SOL    HW220469   3.710   0.590   6.629
 6524SOL     OW20470   2.954   2.572   1.283
 6524SOL    HW120471   2.930   2.667   1.263
 6524SOL    HW220472   3.028   2.570   1.351
 6525SOL     OW20473   1.981   5.136   3.179
 6525SOL    HW120474   1.985   5.207   3.249
 6525SOL    HW220475   1.902   5.077   3.195
 6526SOL     OW20476   0.683   0.475   1.314
 6526SOL    HW120477   0.605   0.413   1.317
 6526SOL    HW220478   0.709   0.492   1.219
 6527SOL     OW20479   6.686   2.216   6.979
 6527SOL    HW120480   6.742   2.212   6.896
 6527SOL    HW220481   6.710   2.140   0.010
 6528SOL     OW20482   6.467   1.794   5.392
 6528SOL    HW120483   6.545   1.732   5.399
 6528SOL    HW220484   6.487   1.879   5.441
 6529SOL     OW20485   1.274   0.728   2.672
 6529SOL    HW120486   1.261   0.777   2.758
 6529SOL    HW220487   1.366   0.746   2.636
 6530SOL     OW20488   0.240   1.925   0.689
 6530SOL    HW120489   0.218   1.992   0.759
 6530SOL    HW220490   0.290   1.849   0.730
 6531SOL     OW20491   5.108   3.453   5.169
 6531SOL    HW120492   5.021   3.486   5.132
 6531SOL    HW220493   5.170   3.530   5.183
 6532SOL     OW20494   1.890   1.424   0.851
 6532SOL    HW120495   1.911   1.428   0.948
 6532SOL    HW220496   1.875   1.517   0.816
 6533SOL     OW20497   4.029   5.942   0.387
 6533SOL    HW120498   3.964   5.866   0.391
 6533SOL    HW220499   4.073   5.943   0.297
 6534SOL     OW20500   4.908   5.190   1.733
 6534SOL    HW120501   4.907   5.115   1.666
 6534SOL    HW220502   4.842   5.170   1.805
 6535SOL     OW20503   6.101   4.691   4.281
 6535SOL    HW120504   6.083   4.707   4.378
 6535SOL    HW220505   6.183   4.741   4.253
 6536SOL     OW20506   0.523   1.878   5.055
 6536SOL    HW120507   0.455   1.911   4.990
 6536SOL    HW220508   0.555   1.955   5.111
 6537SOL     OW20509   6.725   4.702   5.065
 6537SOL    HW120510   6.694   4.621   5.115
 6537SOL    HW220511   6.646   4.757   5.040
 6538SOL     OW20512   1.466   3.576   5.852
 6538SOL    HW120513   1.445   3.479   5.838
 6538SOL    HW220514   1.396   3.618   5.910
 6539SOL     OW20515   4.961   0.171   6.658
 6539SOL    HW120516   4.942   0.218   6.744
 6539SOL    HW220517   4.888   0.105   6.639
 6540SOL     OW20518   3.624   2.796   6.156
 6540SOL    HW120519   3.545   2.853   6.180
 6540SOL    HW220520   3.671   2.834   6.077
 6541SOL     OW20521   5.435   2.123   6.048
 6541SOL    HW120522   5.449   2.030   6.012
 6541SOL    HW220523   5.339   2.135   6.073
 6542SOL     OW20524   1.176   3.544   4.008
 6542SOL    HW120525   1.162   3.604   3.930
 6542SOL    HW220526   1.274   3.540   4.030
 6543SOL     OW20527   4.332   2.770   5.760
 6543SOL    HW120528   4.424   2.729   5.759
 6543SOL    HW220529   4.288   2.752   5.672
 6544SOL     OW20530   0.966   6.721   3.192
 6544SOL    HW120531   0.978   6.794   3.125
 6544SOL    HW220532   1.051   6.669   3.200
 6545SOL     OW20533   4.055   0.661   0.264
 6545SOL    HW120534   4.106   0.576   0.283
 6545SOL    HW220535   4.001   0.649   0.181
 6546SOL     OW20536   3.388   4.225   6.308
 6546SOL    HW120537   3.422   4.165   6.236
 6546SOL    HW220538   3.326   4.292   6.268
 6547SOL     OW20539   4.981   0.525   6.556
 6547SOL    HW120540   4.906   0.462   6.534
 6547SOL    HW220541   5.068   0.476   6.553
 6548SOL     OW20542   1.525   2.741   0.623
 6548SOL    HW120543   1.599   2.798   0.588
 6548SOL    HW220544   1.564   2.658   0.664
 6549SOL     OW20545   4.566   0.363   2.469
 6549SOL    HW120546   4.551   0.422   2.548
 6549SOL    HW220547   4.478   0.329   2.436
 6550SOL     OW20548   0.475   6.709   4.037
 6550SOL    HW120549   0.525   6.795   4.035
 6550SOL    HW220550   0.441   6.688   3.945
 6551SOL     OW20551   2.242   3.632   1.691
 6551SOL    HW120552   2.187   3.594   1.616
 6551SOL    HW220553   2.293   3.559   1.735
 6552SOL     OW20554   2.246   6.744   0.376
 6552SOL    HW120555   2.175   6.813   0.364
 6552SOL    HW220556   2.204   6.656   0.396
 6553SOL     OW20557   0.833   2.292   3.011
 6553SOL    HW120558   0.780   2.211   3.036
 6553SOL    HW220559   0.891   2.271   2.932
 6554SOL     OW20560   1.749   0.597   4.270
 6554SOL    HW120561   1.798   0.526   4.320
 6554SOL    HW220562   1.681   0.639   4.331
 6555SOL     OW20563   5.954   1.892   3.465
 6555SOL    HW120564   5.883   1.847   3.411
 6555SOL    HW220565   5.959   1.849   3.555
 6556SOL     OW20566   6.041   3.653   2.993
 6556SOL    HW120567   6.039   3.620   2.899
 6556SOL    HW220568   6.112   3.723   3.003
 6557SOL     OW20569   2.394   0.527   3.561
 6557SOL    HW120570   2.366   0.622   3.574
 6557SOL    HW220571   2.314   0.472   3.536
 6558SOL     OW20572   5.794   5.695   0.068
 6558SOL    HW120573   5.730   5.688   0.145
 6558SOL    HW220574   5.743   5.713   7.014
 6559SOL     OW20575   0.062   4.207   6.657
 6559SOL    HW120576   7.019   4.162   6.605
 6559SOL    HW220577   0.025   4.288   6.702
 6560SOL     OW20578   3.771   4.648   1.345
 6560SOL    HW120579   3.687   4.634   1.294
 6560SOL    HW220580   3.750   4.665   1.442
 6561SOL     OW20581   3.427   4.220   1.319
 6561SOL    HW120582   3.436   4.121   1.312
 6561SOL    HW220583   3.517   4.261   1.335
 6562SOL     OW20584   5.433   2.002   1.130
 6562SOL    HW120585   5.418   2.093   1.091
 6562SOL    HW220586   5.442   2.010   1.229
 6563SOL     OW20587   5.415   6.331   6.182
 6563SOL    HW120588   5.322   6.313   6.215
 6563SOL    HW220589   5.426   6.429   6.164
 6564SOL     OW20590   6.626   3.491   2.010
 6564SOL    HW120591   6.595   3.396   2.007
 6564SOL    HW220592   6.719   3.497   1.974
 6565SOL     OW20593   6.320   0.039   3.071
 6565SOL    HW120594   6.411   0.046   3.112
 6565SOL    HW220595   6.270   0.124   3.085
 6566SOL     OW20596   3.499   6.228   2.806
 6566SOL    HW120597   3.420   6.253   2.863
 6566SOL    HW220598   3.502   6.128   2.798
 6567SOL     OW20599   5.033   0.959   2.495
 6567SOL    HW120600   5.083   0.973   2.410
 6567SOL    HW220601   4.943   0.920   2.475
 6568SOL     OW20602   3.502   1.811   3.641
 6568SOL    HW120603   3.403   1.804   3.653
 6568SOL    HW220604   3.529   1.907   3.640
 6569SOL     OW20605   2.369   2.545   6.626
 6569SOL    HW120606   2.327   2.540   6.716
 6569SOL    HW220607   2.317   2.609   6.568
 6570SOL     OW20608   3.288   0.931   2.252
 6570SOL    HW120609   3.345   1.000   2.298
 6570SOL    HW220610   3.346   0.856   2.221
 6571SOL     OW20611   3.002   4.959   2.571
 6571SOL    HW120612   2.920   4.943   2.626
 6571SOL    HW220613   3.030   5.054   2.580
 6572SOL     OW20614   0.093   4.286   4.290
 6572SOL    HW120615   0.116   4.381   4.268
 6572SOL    HW220616   0.068   4.237   4.207
 6573SOL     OW20617   0.705   2.001   2.425
 6573SOL    HW120618   0.693   1.922   2.366
 6573SOL    HW220619   0.697   1.974   2.520
 6574SOL     OW20620   2.634   5.930   2.855
 6574SOL    HW120621   2.574   5.982   2.794
 6574SOL    HW220622   2.609   5.834   2.852
 6575SOL     OW20623   0.539   6.660   3.523
 6575SOL    HW120624   0.590   6.713   3.454
 6575SOL    HW220625   0.588   6.664   3.610
 6576SOL     OW20626   2.996   6.184   0.666
 6576SOL    HW120627   3.078   6.195   0.723
 6576SOL    HW220628   2.915   6.183   0.725
 6577SOL     OW20629   1.619   1.693   3.276
 6577SOL    HW120630   1.686   1.623   3.254
 6577SOL    HW220631   1.650   1.782   3.243
 6578SOL     OW20632   1.002   6.296   2.199
 6578SOL    HW120633   0.963   6.384   2.170
 6578SOL    HW220634   1.007   6.235   2.120
 6579SOL     OW20635   6.536   2.796   3.852
 6579SOL    HW120636   6.442   2.766   3.868
 6579SOL    HW220637   6.590   2.785   3.936
 6580SOL     OW20638   0.468   1.810   0.347
 6580SOL    HW120639   0.404   1.844   0.416
 6580SOL    HW220640   0.485   1.881   0.279
 6581SOL     OW20641   2.532   0.784   0.716
 6581SOL    HW120642   2.628   0.781   0.746
 6581SOL    HW220643   2.476   0.730   0.778
 6582SOL     OW20644   0.078   1.111   3.139
 6582SOL    HW120645   7.022   1.157   3.116
 6582SOL    HW220646   0.061   1.013   3.152
 6583SOL     OW20647   4.636   6.202   5.372
 6583SOL    HW120648   4.557   6.235   5.322
 6583SOL    HW220649   4.700   6.157   5.309
 6584SOL     OW20650   4.414   1.721   6.985
 6584SOL    HW120651   4.324   1.696   6.951
 6584SOL    HW220652   4.423   1.696   0.051
 6585SOL     OW20653   6.077   6.021   0.077
 6585SOL    HW120654   6.030   6.035   7.020
 6585SOL    HW220655   6.170   5.989   0.060
 6586SOL     OW20656   6.271   1.902   5.655
 6586SOL    HW120657   6.317   1.981   5.614
 6586SOL    HW220658   6.206   1.863   5.590
 6587SOL     OW20659   1.263   4.876   6.699
 6587SOL    HW120660   1.342   4.857   6.642
 6587SOL    HW220661   1.179   4.863   6.646
 6588SOL     OW20662   0.702   2.715   1.519
 6588SOL    HW120663   0.795   2.685   1.497
 6588SOL    HW220664   0.700   2.752   1.612
 6589SOL     OW20665   4.511   0.716   2.261
 6589SOL    HW120666   4.496   0.810   2.231
 6589SOL    HW220667   4.424   0.673   2.285
 6590SOL     OW20668   0.395   1.114   6.543
 6590SOL    HW120669   0.354   1.112   6.634
 6590SOL    HW220670   0.435   1.025   6.522
 6591SOL     OW20671   5.270   5.940   3.806
 6591SOL    HW120672   5.242   5.923   3.712
 6591SOL    HW220673   5.340   5.873   3.832
 6592SOL     OW20674   5.490   6.417   2.952
 6592SOL    HW120675   5.547   6.485   2.999
 6592SOL    HW220676   5.396   6.422   2.988
 6593SOL     OW20677   2.654   2.395   2.348
 6593SOL    HW120678   2.718   2.468   2.372
 6593SOL    HW220679   2.632   2.400   2.251
 6594SOL     OW20680   3.633   1.236   5.132
 6594SOL    HW120681   3.713   1.225   5.074
 6594SOL    HW220682   3.610   1.148   5.174
 6595SOL     OW20683   1.070   4.176   6.269
 6595SOL    HW120684   1.050   4.236   6.192
 6595SOL    HW220685   1.136   4.220   6.330
 6596SOL     OW20686   3.555   0.323   4.268
 6596SOL    HW120687   3.634   0.287   4.220
 6596SOL    HW220688   3.471   0.296   4.220
 6597SOL     OW20689   1.639   4.915   1.874
 6597SOL    HW120690   1.549   4.872   1.869
 6597SOL    HW220691   1.688   4.902   1.787
 6598SOL     OW20692   1.784   4.642   3.592
 6598SOL    HW120693   1.794   4.722   3.652
 6598SOL    HW220694   1.854   4.645   3.521
 6599SOL     OW20695   4.375   6.246   6.356
 6599SOL    HW120696   4.276   6.228   6.361
 6599SOL    HW220697   4.424   6.171   6.400
 6600SOL     OW20698   4.076   6.425   5.132
 6600SOL    HW120699   4.143   6.481   5.181
 6600SOL    HW220700   4.068   6.460   5.038
 6601SOL     OW20701   0.860   2.364   4.077
 6601SOL    HW120702   0.801   2.285   4.093
 6601SOL    HW220703   0.804   2.443   4.055
 6602SOL     OW20704   1.618   0.293   1.311
 6602SOL    HW120705   1.546   0.334   1.254
 6602SOL    HW220706   1.678   0.237   1.254
 6603SOL     OW20707   0.946   3.077   3.429
 6603SOL    HW120708   0.913   3.009   3.363
 6603SOL    HW220709   0.906   3.058   3.518
 6604SOL     OW20710   1.948   6.234   1.382
 6604SOL    HW120711   1.969   6.329   1.404
 6604SOL    HW220712   1.867   6.231   1.323
 6605SOL     OW20713   5.238   5.095   2.215
 6605SOL    HW120714   5.191   5.164   2.160
 6605SOL    HW220715   5.331   5.127   2.235
 6606SOL     OW20716   6.681   5.460   2.116
 6606SOL    HW120717   6.648   5.504   2.032
 6606SOL    HW220718   6.774   5.427   2.101
 6607SOL     OW20719   0.966   4.867   3.379
 6607SOL    HW120720   0.985   4.842   3.474
 6607SOL    HW220721   0.896   4.938   3.377
 6608SOL     OW20722   0.103   6.416   6.827
 6608SOL    HW120723   0.097   6.516   6.832
 6608SOL    HW220724   0.062   6.376   6.909
 6609SOL     OW20725   5.725   1.036   0.094
 6609SOL    HW120726   5.738   0.973   0.171
 6609SOL    HW220727   5.628   1.040   0.071
 6610SOL     OW20728   2.667   6.780   0.282
 6610SOL    HW120729   2.646   6.859   0.339
 6610SOL    HW220730   2.757   6.744   0.307
 6611SOL     OW20731   4.706   2.756   3.249
 6611SOL    HW120732   4.666   2.838   3.208
 6611SOL    HW220733   4.802   2.773   3.271
 6612SOL     OW20734   6.800   2.394   6.617
 6612SOL    HW120735   6.779   2.361   6.525
 6612SOL    HW220736   6.716   2.427   6.661
 6613SOL     OW20737   6.506   6.653   5.465
 6613SOL    HW120738   6.510   6.555   5.446
 6613SOL    HW220739   6.528   6.670   5.561
 6614SOL     OW20740   4.505   6.167   6.972
 6614SOL    HW120741   4.534   6.252   7.017
 6614SOL    HW220742   4.484   6.186   6.876
 6615SOL     OW20743   1.238   5.525   1.234
 6615SOL    HW120744   1.284   5.531   1.323
 6615SOL    HW220745   1.297   5.475   1.170
 6616SOL     OW20746   4.552   7.021   6.452
 6616SOL    HW120747   4.495   6.953   6.499
 6616SOL    HW220748   4.580   0.061   6.517
 6617SOL     OW20749   4.253   5.741   3.302
 6617SOL    HW120750   4.337   5.778   3.340
 6617SOL    HW220751   4.273   5.692   3.217
 6618SOL     OW20752   2.129   1.841   2.642
 6618SOL    HW120753   2.184   1.783   2.582
 6618SOL    HW220754   2.034   1.810   2.642
 6619SOL     OW20755   5.086   0.169   4.069
 6619SOL    HW120756   5.161   0.134   4.014
 6619SOL    HW220757   5.122   0.229   4.140
 6620SOL     OW20758   2.245   3.563   5.261
 6620SOL    HW120759   2.293   3.644   5.295
 6620SOL    HW220760   2.233   3.498   5.336
 6621SOL     OW20761   3.945   3.245   5.739
 6621SOL    HW120762   4.040   3.277   5.732
 6621SOL    HW220763   3.899   3.294   5.813
 6622SOL     OW20764   5.722   6.274   2.378
 6622SOL    HW120765   5.675   6.225   2.451
 6622SOL    HW220766   5.671   6.263   2.292
 6623SOL     OW20767   4.211   3.430   5.147
 6623SOL    HW120768   4.193   3.374   5.067
 6623SOL    HW220769   4.204   3.527   5.123
 6624SOL     OW20770   0.733   4.501   5.333
 6624SOL    HW120771   0.823   4.463   5.353
 6624SOL    HW220772   0.686   4.443   5.267
 6625SOL     OW20773   5.560   1.604   4.690
 6625SOL    HW120774   5.558   1.510   4.726
 6625SOL    HW220775   5.496   1.660   4.743
 6626SOL     OW20776   3.045   6.950   5.648
 6626SOL    HW120777   3.102   6.942   5.566
 6626SOL    HW220778   3.099   6.991   5.722
 6627SOL     OW20779   1.844   6.530   3.505
 6627SOL    HW120780   1.877   6.510   3.597
 6627SOL    HW220781   1.797   6.449   3.468
 6628SOL     OW20782   5.665   5.289   4.383
 6628SOL    HW120783   5.613   5.358   4.434
 6628SOL    HW220784   5.753   5.329   4.356
 6629SOL     OW20785   4.583   5.855   6.314
 6629SOL    HW120786   4.641   5.873   6.235
 6629SOL    HW220787   4.582   5.757   6.332
 6630SOL     OW20788   3.606   1.834   1.445
 6630SOL    HW120789   3.529   1.796   1.495
 6630SOL    HW220790   3.576   1.913   1.392
 6631SOL     OW20791   2.207   6.263   3.974
 6631SOL    HW120792   2.224   6.196   3.901
 6631SOL    HW220793   2.110   6.288   3.974
 6632SOL     OW20794   0.921   0.812   0.910
 6632SOL    HW120795   0.886   0.834   1.002
 6632SOL    HW220796   0.979   0.731   0.916
 6633SOL     OW20797   2.003   5.239   6.165
 6633SOL    HW120798   2.031   5.335   6.175
 6633SOL    HW220799   2.045   5.200   6.083
 6634SOL     OW20800   5.524   1.678   5.365
 6634SOL    HW120801   5.492   1.754   5.421
 6634SOL    HW220802   5.582   1.618   5.420
 6635SOL     OW20803   5.033   4.634   4.055
 6635SOL    HW120804   5.081   4.708   4.103
 6635SOL    HW220805   4.937   4.634   4.082
 6636SOL     OW20806   4.800   1.631   0.585
 6636SOL    HW120807   4.737   1.684   0.529
 6636SOL    HW220808   4.770   1.633   0.681
 6637SOL     OW20809   1.622   6.801   6.941
 6637SOL    HW120810   1.584   6.782   0.002
 6637SOL    HW220811   1.718   6.773   6.940
 6638SOL     OW20812   3.073   3.565   3.121
 6638SOL    HW120813   3.023   3.623   3.057
 6638SOL    HW220814   3.076   3.608   3.211
 6639SOL     OW20815   4.250   4.476   0.089
 6639SOL    HW120816   4.349   4.469   0.080
 6639SOL    HW220817   4.228   4.530   0.171
 6640SOL     OW20818   0.093   2.025   5.319
 6640SOL    HW120819   0.069   2.003   5.413
 6640SOL    HW220820   0.012   2.060   5.271
 6641SOL     OW20821   3.499   1.352   6.897
 6641SOL    HW120822   3.485   1.389   6.806
 6641SOL    HW220823   3.531   1.424   6.958
 6642SOL     OW20824   2.894   6.063   6.168
 6642SOL    HW120825   2.945   5.979   6.185
 6642SOL    HW220826   2.804   6.057   6.212
 6643SOL     OW20827   5.576   6.405   0.145
 6643SOL    HW120828   5.672   6.406   0.120
 6643SOL    HW220829   5.529   6.333   0.095
 6644SOL     OW20830   2.256   5.797   1.478
 6644SOL    HW120831   2.300   5.880   1.512
 6644SOL    HW220832   2.210   5.817   1.391
 6645SOL     OW20833   5.283   3.641   0.776
 6645SOL    HW120834   5.370   3.687   0.794
 6645SOL    HW220835   5.217   3.708   0.740
 6646SOL     OW20836   5.051   1.407   5.178
 6646SOL    HW120837   5.124   1.440   5.119
 6646SOL    HW220838   5.090   1.357   5.255
 6647SOL     OW20839   4.310   0.078   0.223
 6647SOL    HW120840   4.305   0.168   0.266
 6647SOL    HW220841   4.394   0.070   0.169
 6648SOL     OW20842   3.098   6.862   4.665
 6648SOL    HW120843   3.071   6.785   4.724
 6648SOL    HW220844   3.078   6.948   4.713
 6649SOL     OW20845   6.036   1.806   5.823
 6649SOL    HW120846   6.084   1.721   5.844
 6649SOL    HW220847   6.094   1.864   5.766
 6650SOL     OW20848   3.811   1.631   5.317
 6650SOL    HW120849   3.820   1.713   5.260
 6650SOL    HW220850   3.872   1.639   5.396
 6651SOL     OW20851   1.716   1.132   5.764
 6651SOL    HW120852   1.763   1.144   5.852
 6651SOL    HW220853   1.623   1.099   5.780
 6652SOL     OW20854   0.207   4.621   6.654
 6652SOL    HW120855   0.126   4.662   6.612
 6652SOL    HW220856   0.243   4.549   6.595
 6653SOL     OW20857   4.253   3.143   1.316
 6653SOL    HW120858   4.260   3.129   1.218
 6653SOL    HW220859   4.323   3.089   1.363
 6654SOL     OW20860   1.670   5.429   1.641
 6654SOL    HW120861   1.638   5.409   1.733
 6654SOL    HW220862   1.643   5.522   1.616
 6655SOL     OW20863   6.699   6.247   2.987
 6655SOL    HW120864   6.639   6.254   2.908
 6655SOL    HW220865   6.794   6.248   2.956
 6656SOL     OW20866   5.847   1.862   2.742
 6656SOL    HW120867   5.939   1.830   2.720
 6656SOL    HW220868   5.849   1.961   2.759
 6657SOL     OW20869   6.262   3.578   4.917
 6657SOL    HW120870   6.310   3.495   4.946
 6657SOL    HW220871   6.164   3.568   4.935
 6658SOL     OW20872   5.267   0.465   5.248
 6658SOL    HW120873   5.215   0.515   5.179
 6658SOL    HW220874   5.224   0.476   5.338
 6659SOL     OW20875   2.170   2.900   1.472
 6659SOL    HW120876   2.098   2.953   1.516
 6659SOL    HW220877   2.164   2.804   1.500
 6660SOL     OW20878   1.353   4.876   1.363
 6660SOL    HW120879   1.418   4.834   1.426
 6660SOL    HW220880   1.357   4.830   1.275
 6661SOL     OW20881   2.394   0.215   5.229
 6661SOL    HW120882   2.447   0.197   5.146
 6661SOL    HW220883   2.422   0.151   5.301
 6662SOL     OW20884   1.543   1.200   0.301
 6662SOL    HW120885   1.519   1.113   0.258
 6662SOL    HW220886   1.600   1.184   0.381
 6663SOL     OW20887   6.674   6.821   4.855
 6663SOL    HW120888   6.604   6.810   4.925
 6663SOL    HW220889   6.765   6.817   4.897
 6664SOL     OW20890   1.928   6.817   0.627
 6664SOL    HW120891   2.003   6.786   0.686
 6664SOL    HW220892   1.945   6.912   0.600
 6665SOL     OW20893   1.750   6.628   4.562
 6665SOL    HW120894   1.710   6.579   4.640
 6665SOL    HW220895   1.807   6.703   4.596
 6666SOL     OW20896   6.389   5.986   5.815
 6666SOL    HW120897   6.308   6.029   5.775
 6666SOL    HW220898   6.362   5.903   5.863
 6667SOL     OW20899   6.839   6.683   5.609
 6667SOL    HW120900   6.896   6.640   5.539
 6667SOL    HW220901   6.781   6.614   5.652
 6668SOL     OW20902   6.351   5.981   1.087
 6668SOL    HW120903   6.312   6.046   1.152
 6668SOL    HW220904   6.448   5.969   1.105
 6669SOL     OW20905   2.881   2.107   1.926
 6669SOL    HW120906   2.880   2.198   1.966
 6669SOL    HW220907   2.869   2.113   1.827
 6670SOL     OW20908   3.269   1.424   5.424
 6670SOL    HW120909   3.349   1.364   5.432
 6670SOL    HW220910   3.246   1.462   5.514
 6671SOL     OW20911   4.633   6.877   0.255
 6671SOL    HW120912   4.578   6.825   0.190
 6671SOL    HW220913   4.728   6.881   0.222
 6672SOL     OW20914   6.486   1.610   0.616
 6672SOL    HW120915   6.448   1.536   0.672
 6672SOL    HW220916   6.506   1.689   0.673
 6673SOL     OW20917   4.901   4.228   3.997
 6673SOL    HW120918   4.850   4.183   4.070
 6673SOL    HW220919   4.952   4.159   3.945
 6674SOL     OW20920   6.936   4.174   0.445
 6674SOL    HW120921   6.948   4.185   0.544
 6674SOL    HW220922   6.857   4.227   0.415
 6675SOL     OW20923   6.158   3.006   0.412
 6675SOL    HW120924   6.084   3.007   0.344
 6675SOL    HW220925   6.229   3.072   0.384
 6676SOL     OW20926   0.661   3.743   5.041
 6676SOL    HW120927   0.699   3.751   4.949
 6676SOL    HW220928   0.724   3.692   5.100
 6677SOL     OW20929   0.617   1.621   6.459
 6677SOL    HW120930   0.629   1.526   6.489
 6677SOL    HW220931   0.707   1.664   6.448
 6678SOL     OW20932   3.005   4.022   0.600
 6678SOL    HW120933   2.938   3.983   0.537
 6678SOL    HW220934   3.084   4.055   0.548
 6679SOL     OW20935   3.772   0.245   4.120
 6679SOL    HW120936   3.720   0.296   4.052
 6679SOL    HW220937   3.867   0.236   4.091
 6680SOL     OW20938   4.573   6.633   6.475
 6680SOL    HW120939   4.646   6.624   6.542
 6680SOL    HW220940   4.485   6.615   6.519
 6681SOL     OW20941   4.743   5.853   0.626
 6681SOL    HW120942   4.828   5.808   0.597
 6681SOL    HW220943   4.670   5.831   0.563
 6682SOL     OW20944   2.139   4.874   0.368
 6682SOL    HW120945   2.078   4.924   0.429
 6682SOL    HW220946   2.226   4.922   0.360
 6683SOL     OW20947   5.986   3.272   5.412
 6683SOL    HW120948   5.955   3.348   5.355
 6683SOL    HW220949   5.911   3.240   5.469
 6684SOL     OW20950   3.734   6.356   2.765
 6684SOL    HW120951   3.670   6.317   2.831
 6684SOL    HW220952   3.726   6.309   2.677
 6685SOL     OW20953   4.458   3.346   6.377
 6685SOL    HW120954   4.454   3.425   6.315
 6685SOL    HW220955   4.533   3.359   6.442
 6686SOL     OW20956   5.182   5.430   4.251
 6686SOL    HW120957   5.177   5.335   4.281
 6686SOL    HW220958   5.222   5.486   4.323
 6687SOL     OW20959   0.924   3.316   1.987
 6687SOL    HW120960   1.024   3.322   1.994
 6687SOL    HW220961   0.899   3.228   1.947
 6688SOL     OW20962   4.145   4.752   1.434
 6688SOL    HW120963   4.231   4.794   1.462
 6688SOL    HW220964   4.087   4.821   1.390
 6689SOL     OW20965   5.073   4.163   5.524
 6689SOL    HW120966   5.019   4.107   5.462
 6689SOL    HW220967   5.013   4.200   5.596
 6690SOL     OW20968   0.571   0.077   0.489
 6690SOL    HW120969   0.597   7.020   0.446
 6690SOL    HW220970   0.613   0.084   0.579
 6691SOL     OW20971   2.167   0.431   2.463
 6691SOL    HW120972   2.206   0.364   2.400
 6691SOL    HW220973   2.134   0.385   2.545
 6692SOL     OW20974   3.975   3.849   3.315
 6692SOL    HW120975   3.932   3.815   3.399
 6692SOL    HW220976   3.993   3.947   3.324
 6693SOL     OW20977   4.314   2.225   5.075
 6693SOL    HW120978   4.285   2.174   4.994
 6693SOL    HW220979   4.297   2.322   5.061
 6694SOL     OW20980   4.177   5.994   1.473
 6694SOL    HW120981   4.251   6.012   1.539
 6694SOL    HW220982   4.090   5.989   1.522
 6695SOL     OW20983   2.775   2.428   6.339
 6695SOL    HW120984   2.759   2.443   6.242
 6695SOL    HW220985   2.802   2.514   6.382
 6696SOL     OW20986   3.764   3.000   4.253
 6696SOL    HW120987   3.763   3.095   4.222
 6696SOL    HW220988   3.817   2.993   4.337
 6697SOL     OW20989   4.997   2.015   3.168
 6697SOL    HW120990   5.032   2.109   3.171
 6697SOL    HW220991   5.071   1.954   3.140
 6698SOL     OW20992   3.012   2.480   0.912
 6698SOL    HW120993   3.063   2.473   0.997
 6698SOL    HW220994   3.012   2.391   0.865
 6699SOL     OW20995   2.123   6.192   5.653
 6699SOL    HW120996   2.135   6.171   5.750
 6699SOL    HW220997   2.210   6.183   5.605
 6700SOL     OW20998   0.051   1.837   1.090
 6700SOL    HW120999   7.011   1.874   1.030
 6700SOL    HW221000   0.028   1.859   1.185
 6701SOL     OW21001   5.421   4.969   1.571
 6701SOL    HW121002   5.480   4.962   1.490
 6701SOL    HW221003   5.338   5.018   1.546
 6702SOL     OW21004   1.948   2.438   1.142
 6702SOL    HW121005   1.915   2.355   1.097
 6702SOL    HW221006   2.040   2.422   1.178
 6703SOL     OW21007   6.649   6.987   0.837
 6703SOL    HW121008   6.600   6.942   0.913
 6703SOL    HW221009   6.745   6.999   0.862
 6704SOL     OW21010   4.150   2.283   3.210
 6704SOL    HW121011   4.052   2.272   3.196
 6704SOL    HW221012   4.199   2.211   3.162
 6705SOL     OW21013   6.092   3.066   0.681
 6705SOL    HW121014   6.183   3.087   0.717
 6705SOL    HW221015   6.101   3.003   0.604
 6706SOL     OW21016   0.441   5.939   1.177
 6706SOL    HW121017   0.441   5.958   1.079
 6706SOL    HW221018   0.535   5.929   1.209
 6707SOL     OW21019   5.608   6.598   3.339
 6707SOL    HW121020   5.669   6.650   3.399
 6707SOL    HW221021   5.520   6.645   3.333
 6708SOL     OW21022   5.345   5.334   0.901
 6708SOL    HW121023   5.436   5.361   0.930
 6708SOL    HW221024   5.287   5.319   0.981
 6709SOL     OW21025   1.214   5.949   3.002
 6709SOL    HW121026   1.276   6.017   3.041
 6709SOL    HW221027   1.181   5.889   3.076
 6710SOL     OW21028   3.382   0.992   6.158
 6710SOL    HW121029   3.305   1.030   6.106
 6710SOL    HW221030   3.460   1.054   6.153
 6711SOL     OW21031   5.501   6.591   5.349
 6711SOL    HW121032   5.562   6.571   5.426
 6711SOL    HW221033   5.554   6.631   5.274
 6712SOL     OW21034   5.512   3.286   1.182
 6712SOL    HW121035   5.565   3.347   1.242
 6712SOL    HW221036   5.562   3.270   1.097
 6713SOL     OW21037   1.181   1.050   3.156
 6713SOL    HW121038   1.086   1.055   3.187
 6713SOL    HW221039   1.231   1.129   3.191
 6714SOL     OW21040   6.746   1.525   6.581
 6714SOL    HW121041   6.796   1.492   6.661
 6714SOL    HW221042   6.774   1.618   6.560
 6715SOL     OW21043   1.947   0.464   1.070
 6715SOL    HW121044   2.035   0.429   1.038
 6715SOL    HW221045   1.880   0.391   1.072
 6716SOL     OW21046   0.289   5.881   1.659
 6716SOL    HW121047   0.337   5.796   1.682
 6716SOL    HW221048   0.357   5.952   1.638
 6717SOL     OW21049   3.054   2.952   6.495
 6717SOL    HW121050   2.990   2.998   6.433
 6717SOL    HW221051   3.029   2.974   6.590
 6718SOL     OW21052   4.578   6.960   0.860
 6718SOL    HW121053   4.671   6.932   0.880
 6718SOL    HW221054   4.539   7.008   0.940
 6719SOL     OW21055   3.001   6.920   0.460
 6719SOL    HW121056   3.018   7.013   0.426
 6719SOL    HW221057   2.918   6.920   0.516
 6720SOL     OW21058   1.919   0.635   3.353
 6720SOL    HW121059   1.824   0.663   3.334
 6720SOL    HW221060   1.963   0.608   3.267
 6721SOL     OW21061   6.867   6.395   0.179
 6721SOL    HW121062   6.888   6.345   0.263
 6721SOL    HW221063   6.808   6.473   0.201
 6722SOL     OW21064   6.281   2.734   0.523
 6722SOL    HW121065   6.218   2.782   0.584
 6722SOL    HW221066   6.291   2.639   0.554
 6723SOL     OW21067   1.193   0.190   4.692
 6723SOL    HW121068   1.222   0.266   4.751
 6723SOL    HW221069   1.263   0.120   4.690
 6724SOL     OW21070   2.060   3.563   6.402
 6724SOL    HW121071   2.079   3.479   6.452
 6724SOL    HW221072   2.114   3.638   6.440
 6725SOL     OW21073   6.504   1.971   1.428
 6725SOL    HW121074   6.483   1.908   1.354
 6725SOL    HW221075   6.496   2.065   1.395
 6726SOL     OW21076   1.039   2.989   3.833
 6726SOL    HW121077   1.045   3.080   3.792
 6726SOL    HW221078   1.066   2.920   3.766
 6727SOL     OW21079   0.315   4.648   5.578
 6727SOL    HW121080   0.242   4.580   5.565
 6727SOL    HW221081   0.280   4.723   5.635
 6728SOL     OW21082   4.075   2.090   2.797
 6728SOL    HW121083   4.112   2.183   2.803
 6728SOL    HW221084   4.150   2.024   2.794
 6729SOL     OW21085   6.835   0.481   0.424
 6729SOL    HW121086   6.928   0.497   0.456
 6729SOL    HW221087   6.838   0.420   0.345
 6730SOL     OW21088   1.856   6.615   1.462
 6730SOL    HW121089   1.928   6.547   1.477
 6730SOL    HW221090   1.862   6.650   1.369
 6731SOL     OW21091   1.349   6.525   1.243
 6731SOL    HW121092   1.384   6.614   1.214
 6731SOL    HW221093   1.350   6.461   1.166
 6732SOL     OW21094   6.034   4.204   4.363
 6732SOL    HW121095   6.070   4.287   4.321
 6732SOL    HW221096   5.992   4.147   4.292
 6733SOL     OW21097   3.769   5.594   6.664
 6733SOL    HW121098   3.739   5.687   6.642
 6733SOL    HW221099   3.768   5.538   6.581
 6734SOL     OW21100   6.379   2.287   4.860
 6734SOL    HW121101   6.474   2.262   4.845
 6734SOL    HW221102   6.348   2.346   4.785
 6735SOL     OW21103   6.577   3.472   4.473
 6735SOL    HW121104   6.504   3.536   4.450
 6735SOL    HW221105   6.596   3.478   4.571
 6736SOL     OW21106   2.903   3.093   6.728
 6736SOL    HW121107   2.985   3.146   6.751
 6736SOL    HW221108   2.845   3.147   6.667
 6737SOL     OW21109   1.880   3.181   1.228
 6737SOL    HW121110   1.880   3.221   1.320
 6737SOL    HW221111   1.974   3.164   1.199
 6738SOL     OW21112   1.480   5.921   3.272
 6738SOL    HW121113   1.473   5.997   3.207
 6738SOL    HW221114   1.482   5.956   3.365
 6739SOL     OW21115   4.788   6.466   4.165
 6739SOL    HW121116   4.769   6.372   4.192
 6739SOL    HW221117   4.839   6.466   4.078
 6740SOL     OW21118   6.836   0.087   5.789
 6740SOL    HW121119   6.919   0.095   5.733
 6740SOL    HW221120   6.770   0.157   5.760
 6741SOL     OW21121   3.436   2.898   5.511
 6741SOL    HW121122   3.345   2.862   5.492
 6741SOL    HW221123   3.480   2.844   5.583
 6742SOL     OW21124   5.705   5.660   3.173
 6742SOL    HW121125   5.793   5.624   3.140
 6742SOL    HW221126   5.718   5.753   3.207
 6743SOL     OW21127   3.659   4.723   6.293
 6743SOL    HW121128   3.619   4.732   6.385
 6743SOL    HW221129   3.692   4.630   6.279
 6744SOL     OW21130   6.801   5.133   5.298
 6744SOL    HW121131   6.861   5.189   5.241
 6744SOL    HW221132   6.755   5.191   5.365
 6745SOL     OW21133   0.059   6.731   3.533
 6745SOL    HW121134   0.068   6.819   3.580
 6745SOL    HW221135   7.028   6.671   3.584
 6746SOL     OW21136   0.646   0.778   3.664
 6746SOL    HW121137   0.630   0.874   3.643
 6746SOL    HW221138   0.654   0.726   3.578
 6747SOL     OW21139   5.612   1.490   6.215
 6747SOL    HW121140   5.634   1.521   6.307
 6747SOL    HW221141   5.593   1.392   6.216
 6748SOL     OW21142   3.668   1.786   3.128
 6748SOL    HW121143   3.727   1.765   3.205
 6748SOL    HW221144   3.706   1.863   3.076
 6749SOL     OW21145   3.620   4.072   0.593
 6749SOL    HW121146   3.559   4.010   0.544
 6749SOL    HW221147   3.712   4.067   0.555
 6750SOL     OW21148   3.671   2.028   4.504
 6750SOL    HW121149   3.606   1.973   4.556
 6750SOL    HW221150   3.718   2.092   4.565
 6751SOL     OW21151   5.089   0.299   3.537
 6751SOL    HW121152   5.187   0.302   3.557
 6751SOL    HW221153   5.065   0.376   3.478
 6752SOL     OW21154   2.079   6.939   3.018
 6752SOL    HW121155   2.020   6.933   3.098
 6752SOL    HW221156   2.030   6.905   2.937
 6753SOL     OW21157   3.152   1.110   6.042
 6753SOL    HW121158   3.086   1.102   5.968
 6753SOL    HW221159   3.126   1.185   6.102
 6754SOL     OW21160   0.230   0.778   0.630
 6754SOL    HW121161   0.264   0.774   0.724
 6754SOL    HW221162   0.250   0.691   0.584
 6755SOL     OW21163   4.447   2.003   1.970
 6755SOL    HW121164   4.499   2.062   1.908
 6755SOL    HW221165   4.477   1.908   1.959
 6756SOL     OW21166   3.519   6.303   4.646
 6756SOL    HW121167   3.603   6.357   4.644
 6756SOL    HW221168   3.542   6.206   4.648
 6757SOL     OW21169   2.957   2.664   0.300
 6757SOL    HW121170   2.935   2.613   0.217
 6757SOL    HW221171   2.938   2.607   0.381
 6758SOL     OW21172   6.085   1.984   2.029
 6758SOL    HW121173   6.158   2.043   1.995
 6758SOL    HW221174   6.035   1.945   1.951
 6759SOL     OW21175   1.286   3.882   2.923
 6759SOL    HW121176   1.262   3.854   2.829
 6759SOL    HW221177   1.359   3.823   2.958
 6760SOL     OW21178   6.950   3.476   2.404
 6760SOL    HW121179   7.009   3.539   2.354
 6760SOL    HW221180   6.883   3.528   2.457
 6761SOL     OW21181   6.599   2.468   5.480
 6761SOL    HW121182   6.611   2.561   5.513
 6761SOL    HW221183   6.513   2.462   5.429
 6762SOL     OW21184   1.215   4.573   4.862
 6762SOL    HW121185   1.306   4.598   4.896
 6762SOL    HW221186   1.209   4.594   4.764
 6763SOL     OW21187   6.470   5.743   3.858
 6763SOL    HW121188   6.567   5.766   3.854
 6763SOL    HW221189   6.439   5.746   3.953
 6764SOL     OW21190   1.749   5.425   1.161
 6764SOL    HW121191   1.693   5.422   1.078
 6764SOL    HW221192   1.824   5.490   1.149
 6765SOL     OW21193   5.765   4.977   3.772
 6765SOL    HW121194   5.808   5.038   3.839
 6765SOL    HW221195   5.705   4.913   3.819
 6766SOL     OW21196   4.694   6.754   5.517
 6766SOL    HW121197   4.680   6.743   5.419
 6766SOL    HW221198   4.730   6.846   5.536
 6767SOL     OW21199   2.015   1.109   0.680
 6767SOL    HW121200   1.955   1.127   0.758
 6767SOL    HW221201   2.044   1.013   0.681
 6768SOL     OW21202   1.711   0.223   4.627
 6768SOL    HW121203   1.682   0.229   4.723
 6768SOL    HW221204   1.770   0.144   4.614
 6769SOL     OW21205   2.834   1.023   6.529
 6769SOL    HW121206   2.902   1.040   6.458
 6769SOL    HW221207   2.748   1.067   6.503
 6770SOL     OW21208   6.792   1.004   3.142
 6770SOL    HW121209   6.831   0.917   3.114
 6770SOL    HW221210   6.695   0.992   3.163
 6771SOL     OW21211   4.656   1.979   3.603
 6771SOL    HW121212   4.613   2.022   3.682
 6771SOL    HW221213   4.616   2.018   3.519
 6772SOL     OW21214   4.331   2.332   2.483
 6772SOL    HW121215   4.403   2.402   2.483
 6772SOL    HW221216   4.370   2.243   2.505
 6773SOL     OW21217   6.421   5.289   2.377
 6773SOL    HW121218   6.352   5.271   2.307
 6773SOL    HW221219   6.485   5.358   2.344
 6774SOL     OW21220   1.157   3.689   5.356
 6774SOL    HW121221   1.144   3.663   5.261
 6774SOL    HW221222   1.068   3.711   5.397
 6775SOL     OW21223   2.611   2.375   2.059
 6775SOL    HW121224   2.711   2.366   2.059
 6775SOL    HW221225   2.570   2.290   2.026
 6776SOL     OW21226   5.108   4.077   6.771
 6776SOL    HW121227   5.036   4.135   6.733
 6776SOL    HW221228   5.185   4.074   6.708
 6777SOL     OW21229   4.837   4.714   0.706
 6777SOL    HW121230   4.858   4.722   0.803
 6777SOL    HW221231   4.905   4.764   0.652
 6778SOL     OW21232   6.002   5.344   1.960
 6778SOL    HW121233   5.981   5.378   2.051
 6778SOL    HW221234   6.015   5.245   1.962
 6779SOL     OW21235   5.596   5.328   0.055
 6779SOL    HW121236   5.682   5.301   0.011
 6779SOL    HW221237   5.536   5.249   0.061
 6780SOL     OW21238   1.577   2.654   2.062
 6780SOL    HW121239   1.534   2.673   1.974
 6780SOL    HW221240   1.507   2.648   2.133
 6781SOL     OW21241   6.701   2.061   4.344
 6781SOL    HW121242   6.724   1.964   4.343
 6781SOL    HW221243   6.610   2.074   4.383
 6782SOL     OW21244   0.063   0.696   2.964
 6782SOL    HW121245   0.001   0.618   2.964
 6782SOL    HW221246   0.137   0.681   2.898
 6783SOL     OW21247   6.418   1.498   5.351
 6783SOL    HW121248   6.388   1.522   5.259
 6783SOL    HW221249   6.495   1.557   5.377
 6784SOL     OW21250   1.525   3.025   0.460
 6784SOL    HW121251   1.477   3.075   0.532
 6784SOL    HW221252   1.617   3.001   0.493
 6785SOL     OW21253   5.788   5.806   4.471
 6785SOL    HW121254   5.813   5.749   4.549
 6785SOL    HW221255   5.740   5.750   4.403
 6786SOL     OW21256   1.891   2.161   0.133
 6786SOL    HW121257   1.841   2.245   0.112
 6786SOL    HW221258   1.960   2.145   0.063
 6787SOL     OW21259   2.208   2.725   0.171
 6787SOL    HW121260   2.203   2.780   0.254
 6787SOL    HW221261   2.116   2.696   0.145
 6788SOL     OW21262   0.936   4.299   1.341
 6788SOL    HW121263   0.843   4.272   1.312
 6788SOL    HW221264   0.931   4.348   1.428
 6789SOL     OW21265   0.152   5.236   2.464
 6789SOL    HW121266   0.115   5.146   2.489
 6789SOL    HW221267   0.117   5.304   2.528
 6790SOL     OW21268   0.169   3.637   1.081
 6790SOL    HW121269   0.197   3.658   0.987
 6790SOL    HW221270   0.232   3.681   1.145
 6791SOL     OW21271   3.979   2.115   2.067
 6791SOL    HW121272   4.071   2.152   2.077
 6791SOL    HW221273   3.925   2.136   2.149
 6792SOL     OW21274   6.392   6.594   4.864
 6792SOL    HW121275   6.463   6.622   4.928
 6792SOL    HW221276   6.408   6.499   4.835
 6793SOL     OW21277   1.854   1.989   0.847
 6793SOL    HW121278   1.942   1.959   0.810
 6793SOL    HW221279   1.796   2.021   0.772
 6794SOL     OW21280   4.353   1.180   5.656
 6794SOL    HW121281   4.366   1.200   5.559
 6794SOL    HW221282   4.255   1.182   5.677
 6795SOL     OW21283   2.474   6.506   0.536
 6795SOL    HW121284   2.446   6.443   0.464
 6795SOL    HW221285   2.425   6.483   0.620
 6796SOL     OW21286   6.706   0.149   2.535
 6796SOL    HW121287   6.712   0.248   2.522
 6796SOL    HW221288   6.671   0.107   2.452
 6797SOL     OW21289   6.770   1.840   1.865
 6797SOL    HW121290   6.805   1.753   1.831
 6797SOL    HW221291   6.721   1.888   1.792
 6798SOL     OW21292   5.311   6.933   2.191
 6798SOL    HW121293   5.351   6.842   2.191
 6798SOL    HW221294   5.243   6.940   2.264
 6799SOL     OW21295   6.657   6.795   1.939
 6799SOL    HW121296   6.703   6.724   1.885
 6799SOL    HW221297   6.614   6.753   2.019
 6800SOL     OW21298   2.173   3.660   2.184
 6800SOL    HW121299   2.181   3.584   2.120
 6800SOL    HW221300   2.223   3.739   2.148
 6801SOL     OW21301   1.035   0.085   2.753
 6801SOL    HW121302   1.113   0.140   2.725
 6801SOL    HW221303   1.056   0.037   2.838
 6802SOL     OW21304   3.095   5.748   1.268
 6802SOL    HW121305   3.195   5.747   1.267
 6802SOL    HW221306   3.063   5.811   1.338
 6803SOL     OW21307   4.636   3.146   5.388
 6803SOL    HW121308   4.691   3.189   5.317
 6803SOL    HW221309   4.567   3.088   5.346
 6804SOL     OW21310   3.606   5.227   3.574
 6804SOL    HW121311   3.516   5.269   3.563
 6804SOL    HW221312   3.672   5.273   3.514
 6805SOL     OW21313   0.420   5.088   6.399
 6805SOL    HW121314   0.509   5.103   6.355
 6805SOL    HW221315   0.387   4.996   6.376
 6806SOL     OW21316   5.918   0.648   3.561
 6806SOL    HW121317   5.883   0.582   3.628
 6806SOL    HW221318   5.892   0.619   3.469
 6807SOL     OW21319   3.219   3.582   1.274
 6807SOL    HW121320   3.262   3.492   1.264
 6807SOL    HW221321   3.283   3.645   1.319
 6808SOL     OW21322   6.844   2.341   5.562
 6808SOL    HW121323   6.760   2.360   5.511
 6808SOL    HW221324   6.822   2.323   5.658
 6809SOL     OW21325   0.886   2.889   1.214
 6809SOL    HW121326   0.888   2.977   1.166
 6809SOL    HW221327   0.928   2.899   1.304
 6810SOL     OW21328   1.539   1.151   2.941
 6810SOL    HW121329   1.625   1.136   2.893
 6810SOL    HW221330   1.540   1.240   2.986
 6811SOL     OW21331   5.959   3.431   1.360
 6811SOL    HW121332   6.004   3.384   1.436
 6811SOL    HW221333   5.978   3.384   1.274
 6812SOL     OW21334   2.916   3.624   4.636
 6812SOL    HW121335   2.936   3.652   4.730
 6812SOL    HW221336   2.906   3.524   4.632
 6813SOL     OW21337   5.346   2.593   2.386
 6813SOL    HW121338   5.418   2.649   2.427
 6813SOL    HW221339   5.350   2.500   2.423
 6814SOL     OW21340   3.551   1.646   6.066
 6814SOL    HW121341   3.649   1.643   6.045
 6814SOL    HW221342   3.539   1.637   6.165
 6815SOL     OW21343   3.373   6.412   1.238
 6815SOL    HW121344   3.325   6.435   1.323
 6815SOL    HW221345   3.415   6.494   1.200
 6816SOL     OW21346   6.698   6.747   6.459
 6816SOL    HW121347   6.623   6.811   6.481
 6816SOL    HW221348   6.734   6.708   6.544
 6817SOL     OW21349   2.477   2.509   3.046
 6817SOL    HW121350   2.537   2.561   2.985
 6817SOL    HW221351   2.529   2.435   3.088
 6818SOL     OW21352   2.600   6.120   1.919
 6818SOL    HW121353   2.554   6.144   1.834
 6818SOL    HW221354   2.678   6.181   1.933
 6819SOL     OW21355   5.056   2.035   3.440
 6819SOL    HW121356   5.015   1.999   3.523
 6819SOL    HW221357   4.995   2.020   3.362
 6820SOL     OW21358   2.250   5.588   2.273
 6820SOL    HW121359   2.178   5.653   2.299
 6820SOL    HW221360   2.327   5.596   2.336
 6821SOL     OW21361   3.709   2.045   4.814
 6821SOL    HW121362   3.728   2.066   4.910
 6821SOL    HW221363   3.789   2.066   4.759
 6822SOL     OW21364   5.105   2.695   6.138
 6822SOL    HW121365   5.103   2.779   6.084
 6822SOL    HW221366   5.012   2.658   6.145
 6823SOL     OW21367   4.397   3.344   5.348
 6823SOL    HW121368   4.355   3.380   5.432
 6823SOL    HW221369   4.331   3.350   5.273
 6824SOL     OW21370   1.230   2.057   0.401
 6824SOL    HW121371   1.204   2.044   0.305
 6824SOL    HW221372   1.265   1.972   0.438
 6825SOL     OW21373   4.954   6.579   0.992
 6825SOL    HW121374   4.926   6.657   0.936
 6825SOL    HW221375   4.898   6.574   1.074
 6826SOL     OW21376   1.780   3.242   3.149
 6826SOL    HW121377   1.717   3.248   3.072
 6826SOL    HW221378   1.730   3.219   3.232
 6827SOL     OW21379   4.593   5.586   6.384
 6827SOL    HW121380   4.637   5.508   6.339
 6827SOL    HW221381   4.505   5.559   6.422
 6828SOL     OW21382   3.208   1.812   1.846
 6828SOL    HW121383   3.165   1.895   1.882
 6828SOL    HW221384   3.290   1.791   1.899
 6829SOL     OW21385   4.829   6.114   5.651
 6829SOL    HW121386   4.738   6.074   5.648
 6829SOL    HW221387   4.822   6.213   5.664
 6830SOL     OW21388   4.997   1.160   3.396
 6830SOL    HW121389   5.094   1.159   3.421
 6830SOL    HW221390   4.951   1.083   3.440
 6831SOL     OW21391   1.418   0.566   6.693
 6831SOL    HW121392   1.407   0.631   6.618
 6831SOL    HW221393   1.417   0.473   6.657
 6832SOL     OW21394   2.428   3.676   0.805
 6832SOL    HW121395   2.352   3.639   0.753
 6832SOL    HW221396   2.393   3.719   0.888
 6833SOL     OW21397   3.156   4.683   6.195
 6833SOL    HW121398   3.069   4.654   6.235
 6833SOL    HW221399   3.141   4.760   6.133
 6834SOL     OW21400   4.420   6.356   0.864
 6834SOL    HW121401   4.486   6.386   0.933
 6834SOL    HW221402   4.451   6.383   0.773
 6835SOL     OW21403   3.650   0.870   4.541
 6835SOL    HW121404   3.577   0.802   4.534
 6835SOL    HW221405   3.624   0.953   4.493
 6836SOL     OW21406   2.469   4.666   0.616
 6836SOL    HW121407   2.402   4.683   0.688
 6836SOL    HW221408   2.504   4.572   0.624
 6837SOL     OW21409   0.528   1.774   2.148
 6837SOL    HW121410   0.599   1.737   2.208
 6837SOL    HW221411   0.439   1.767   2.194
 6838SOL     OW21412   3.332   6.097   0.121
 6838SOL    HW121413   3.417   6.049   0.100
 6838SOL    HW221414   3.341   6.143   0.210
 6839SOL     OW21415   5.796   1.046   6.688
 6839SOL    HW121416   5.823   1.058   6.783
 6839SOL    HW221417   5.744   0.961   6.679
 6840SOL     OW21418   3.421   1.034   4.752
 6840SOL    HW121419   3.390   1.059   4.844
 6840SOL    HW221420   3.396   0.939   4.733
 6841SOL     OW21421   4.105   4.626   6.724
 6841SOL    HW121422   4.057   4.631   6.812
 6841SOL    HW221423   4.158   4.542   6.720
 6842SOL     OW21424   2.861   4.132   0.948
 6842SOL    HW121425   2.815   4.069   0.885
 6842SOL    HW221426   2.952   4.097   0.969
 6843SOL     OW21427   6.494   6.443   1.455
 6843SOL    HW121428   6.403   6.406   1.469
 6843SOL    HW221429   6.562   6.383   1.498
 6844SOL     OW21430   5.071   0.904   4.026
 6844SOL    HW121431   5.015   0.867   4.100
 6844SOL    HW221432   5.134   0.833   3.994
 6845SOL     OW21433   6.309   3.874   2.668
 6845SOL    HW121434   6.232   3.823   2.629
 6845SOL    HW221435   6.354   3.927   2.596
 6846SOL     OW21436   3.639   2.974   7.017
 6846SOL    HW121437   3.681   3.044   0.046
 6846SOL    HW221438   3.541   2.969   0.006
 6847SOL     OW21439   0.361   3.047   4.441
 6847SOL    HW121440   0.332   2.967   4.389
 6847SOL    HW221441   0.460   3.053   4.441
 6848SOL     OW21442   4.922   5.508   3.864
 6848SOL    HW121443   4.877   5.475   3.947
 6848SOL    HW221444   4.987   5.580   3.888
 6849SOL     OW21445   4.229   4.966   5.304
 6849SOL    HW121446   4.159   4.964   5.233
 6849SOL    HW221447   4.293   5.040   5.286
 6850SOL     OW21448   5.718   4.133   2.088
 6850SOL    HW121449   5.758   4.050   2.127
 6850SOL    HW221450   5.653   4.172   2.153
 6851SOL     OW21451   0.395   1.819   3.015
 6851SOL    HW121452   0.438   1.814   3.106
 6851SOL    HW221453   0.432   1.898   2.966
 6852SOL     OW21454   2.548   4.275   1.342
 6852SOL    HW121455   2.572   4.191   1.293
 6852SOL    HW221456   2.474   4.323   1.293
 6853SOL     OW21457   5.682   4.890   0.082
 6853SOL    HW121458   5.638   4.978   0.065
 6853SOL    HW221459   5.615   4.825   0.116
 6854SOL     OW21460   4.784   1.000   6.024
 6854SOL    HW121461   4.719   0.962   5.958
 6854SOL    HW221462   4.754   1.091   6.051
 6855SOL     OW21463   4.243   6.683   3.993
 6855SOL    HW121464   4.198   6.668   3.904
 6855SOL    HW221465   4.239   6.598   4.046
 6856SOL     OW21466   6.828   2.890   4.892
 6856SOL    HW121467   6.750   2.835   4.920
 6856SOL    HW221468   6.903   2.878   4.958
 6857SOL     OW21469   3.105   2.055   6.503
 6857SOL    HW121470   3.152   1.976   6.465
 6857SOL    HW221471   3.038   2.089   6.437
 6858SOL     OW21472   4.092   3.679   2.889
 6858SOL    HW121473   4.152   3.750   2.925
 6858SOL    HW221474   4.052   3.628   2.965
 6859SOL     OW21475   1.011   1.684   0.895
 6859SOL    HW121476   1.035   1.778   0.871
 6859SOL    HW221477   0.920   1.682   0.938
 6860SOL     OW21478   6.753   5.115   1.002
 6860SOL    HW121479   6.765   5.201   1.050
 6860SOL    HW221480   6.842   5.079   0.974
 6861SOL     OW21481   4.086   5.012   0.135
 6861SOL    HW121482   4.028   5.094   0.132
 6861SOL    HW221483   4.033   4.934   0.165
 6862SOL     OW21484   1.649   5.264   5.935
 6862SOL    HW121485   1.639   5.313   6.021
 6862SOL    HW221486   1.571   5.285   5.876
 6863SOL     OW21487   5.198   6.662   6.097
 6863SOL    HW121488   5.243   6.673   6.186
 6863SOL    HW221489   5.249   6.712   6.027
 6864SOL     OW21490   2.548   4.528   4.665
 6864SOL    HW121491   2.505   4.438   4.672
 6864SOL    HW221492   2.547   4.558   4.570
 6865SOL     OW21493   0.876   6.258   4.576
 6865SOL    HW121494   0.937   6.183   4.548
 6865SOL    HW221495   0.848   6.310   4.496
 6866SOL     OW21496   5.763   5.175   3.391
 6866SOL    HW121497   5.825   5.099   3.409
 6866SOL    HW221498   5.731   5.171   3.297
 6867SOL     OW21499   2.352   4.272   2.367
 6867SOL    HW121500   2.358   4.179   2.403
 6867SOL    HW221501   2.263   4.286   2.324
 6868SOL     OW21502   1.495   5.996   6.652
 6868SOL    HW121503   1.475   5.954   6.563
 6868SOL    HW221504   1.516   5.926   6.719
 6869SOL     OW21505   5.379   1.152   6.531
 6869SOL    HW121506   5.359   1.157   6.433
 6869SOL    HW221507   5.342   1.066   6.568
 6870SOL     OW21508   0.234   4.732   1.513
 6870SOL    HW121509   0.206   4.805   1.451
 6870SOL    HW221510   0.262   4.771   1.600
 6871SOL     OW21511   6.172   4.019   3.188
 6871SOL    HW121512   6.133   4.010   3.096
 6871SOL    HW221513   6.267   3.988   3.187
 6872SOL     OW21514   0.546   2.168   1.268
 6872SOL    HW121515   0.512   2.209   1.183
 6872SOL    HW221516   0.582   2.240   1.328
 6873SOL     OW21517   6.657   3.595   3.833
 6873SOL    HW121518   6.616   3.506   3.812
 6873SOL    HW221519   6.666   3.648   3.749
 6874SOL     OW21520   6.561   5.299   2.690
 6874SOL    HW121521   6.503   5.218   2.684
 6874SOL    HW221522   6.625   5.299   2.613
 6875SOL     OW21523   2.102   2.995   2.722
 6875SOL    HW121524   2.104   3.071   2.657
 6875SOL    HW221525   2.013   2.949   2.718
 6876SOL     OW21526   3.889   0.642   3.941
 6876SOL    HW121527   3.980   0.607   3.922
 6876SOL    HW221528   3.889   0.742   3.935
 6877SOL     OW21529   2.993   3.649   1.168
 6877SOL    HW121530   3.083   3.622   1.201
 6877SOL    HW221531   2.981   3.619   1.073
 6878SOL     OW21532   3.927   0.928   3.987
 6878SOL    HW121533   3.865   0.927   4.066
 6878SOL    HW221534   3.889   0.987   3.916
 6879SOL     OW21535   0.982   2.788   0.806
 6879SOL    HW121536   1.078   2.781   0.779
 6879SOL    HW221537   0.973   2.758   0.901
 6880SOL     OW21538   2.432   5.414   5.277
 6880SOL    HW121539   2.351   5.360   5.253
 6880SOL    HW221540   2.481   5.367   5.351
 6881SOL     OW21541   1.935   4.333   1.057
 6881SOL    HW121542   1.855   4.331   1.117
 6881SOL    HW221543   1.946   4.244   1.013
 6882SOL     OW21544   2.877   0.913   0.338
 6882SOL    HW121545   2.911   0.970   0.263
 6882SOL    HW221546   2.940   0.920   0.416
 6883SOL     OW21547   5.054   1.743   6.871
 6883SOL    HW121548   5.138   1.790   6.899
 6883SOL    HW221549   5.070   1.696   6.784
 6884SOL     OW21550   0.877   4.286   3.605
 6884SOL    HW121551   0.799   4.241   3.648
 6884SOL    HW221552   0.878   4.383   3.630
 6885SOL     OW21553   4.420   4.569   4.436
 6885SOL    HW121554   4.460   4.577   4.527
 6885SOL    HW221555   4.331   4.614   4.435
 6886SOL     OW21556   6.722   0.828   4.508
 6886SOL    HW121557   6.816   0.855   4.528
 6886SOL    HW221558   6.703   0.740   4.550
 6887SOL     OW21559   5.253   5.711   6.196
 6887SOL    HW121560   5.329   5.654   6.165
 6887SOL    HW221561   5.283   5.806   6.200
 6888SOL     OW21562   5.394   5.512   6.082
 6888SOL    HW121563   5.416   5.433   6.139
 6888SOL    HW221564   5.415   5.491   5.986
 6889SOL     OW21565   1.494   2.862   5.941
 6889SOL    HW121566   1.563   2.805   5.986
 6889SOL    HW221567   1.532   2.953   5.923
 6890SOL     OW21568   3.860   6.337   2.331
 6890SOL    HW121569   3.907   6.419   2.298
 6890SOL    HW221570   3.925   6.279   2.379
 6891SOL     OW21571   2.198   4.149   2.951
 6891SOL    HW121572   2.241   4.239   2.948
 6891SOL    HW221573   2.190   4.119   3.046
 6892SOL     OW21574   3.850   2.139   3.637
 6892SOL    HW121575   3.825   2.107   3.728
 6892SOL    HW221576   3.893   2.065   3.586
 6893SOL     OW21577   4.505   4.944   6.779
 6893SOL    HW121578   4.532   4.879   6.850
 6893SOL    HW221579   4.407   4.932   6.758
 6894SOL     OW21580   5.756   5.193   0.449
 6894SOL    HW121581   5.708   5.157   0.528
 6894SOL    HW221582   5.808   5.274   0.475
 6895SOL     OW21583   2.648   4.931   1.236
 6895SOL    HW121584   2.605   4.922   1.326
 6895SOL    HW221585   2.702   4.849   1.217
 6896SOL     OW21586   2.518   0.888   3.778
 6896SOL    HW121587   2.553   0.863   3.868
 6896SOL    HW221588   2.594   0.911   3.718
 6897SOL     OW21589   5.037   3.760   5.139
 6897SOL    HW121590   4.969   3.717   5.079
 6897SOL    HW221591   5.055   3.853   5.107
 6898SOL     OW21592   4.208   1.422   1.287
 6898SOL    HW121593   4.121   1.392   1.246
 6898SOL    HW221594   4.214   1.521   1.284
 6899SOL     OW21595   4.676   6.364   1.724
 6899SOL    HW121596   4.675   6.275   1.679
 6899SOL    HW221597   4.766   6.406   1.711
 6900SOL     OW21598   5.991   5.838   5.023
 6900SOL    HW121599   5.974   5.739   5.020
 6900SOL    HW221600   5.969   5.877   4.933
 6901SOL     OW21601   6.344   6.034   6.133
 6901SOL    HW121602   6.354   6.009   6.037
 6901SOL    HW221603   6.329   5.952   6.188
 6902SOL     OW21604   6.818   6.039   6.949
 6902SOL    HW121605   6.747   6.024   7.018
 6902SOL    HW221606   6.776   6.068   6.863
 6903SOL     OW21607   3.290   5.129   5.426
 6903SOL    HW121608   3.231   5.079   5.489
 6903SOL    HW221609   3.385   5.103   5.440
 6904SOL     OW21610   6.205   0.471   4.990
 6904SOL    HW121611   6.212   0.374   4.964
 6904SOL    HW221612   6.115   0.488   5.030
 6905SOL     OW21613   5.872   5.844   6.661
 6905SOL    HW121614   5.919   5.822   6.575
 6905SOL    HW221615   5.787   5.892   6.642
 6906SOL     OW21616   3.888   1.464   4.099
 6906SOL    HW121617   3.812   1.453   4.163
 6906SOL    HW221618   3.868   1.415   4.015
 6907SOL     OW21619   5.547   2.527   1.677
 6907SOL    HW121620   5.545   2.488   1.769
 6907SOL    HW221621   5.642   2.549   1.652
 6908SOL     OW21622   1.436   5.531   0.071
 6908SOL    HW121623   1.432   5.442   0.026
 6908SOL    HW221624   1.391   5.600   0.014
 6909SOL     OW21625   4.913   3.979   1.347
 6909SOL    HW121626   4.939   3.991   1.443
 6909SOL    HW221627   4.814   3.975   1.340
 6910SOL     OW21628   0.949   2.786   3.154
 6910SOL    HW121629   0.924   2.750   3.064
 6910SOL    HW221630   1.003   2.718   3.204
 6911SOL     OW21631   4.125   6.834   4.214
 6911SOL    HW121632   4.037   6.881   4.222
 6911SOL    HW221633   4.145   6.818   4.117
 6912SOL     OW21634   3.521   3.752   6.314
 6912SOL    HW121635   3.451   3.810   6.271
 6912SOL    HW221636   3.493   3.657   6.309
 6913SOL     OW21637   5.580   6.039   3.737
 6913SOL    HW121638   5.584   6.128   3.783
 6913SOL    HW221639   5.536   6.049   3.648
 6914SOL     OW21640   6.229   4.233   3.572
 6914SOL    HW121641   6.250   4.330   3.562
 6914SOL    HW221642   6.129   4.221   3.571
 6915SOL     OW21643   6.047   2.673   1.888
 6915SOL    HW121644   6.006   2.618   1.962
 6915SOL    HW221645   6.139   2.700   1.915
 6916SOL     OW21646   5.400   1.965   0.136
 6916SOL    HW121647   5.438   1.996   0.223
 6916SOL    HW221648   5.439   2.019   0.061
 6917SOL     OW21649   3.268   6.644   1.386
 6917SOL    HW121650   3.218   6.701   1.320
 6917SOL    HW221651   3.301   6.701   1.461
 6918SOL     OW21652   1.006   2.573   4.557
 6918SOL    HW121653   1.020   2.648   4.491
 6918SOL    HW221654   1.040   2.602   4.647
 6919SOL     OW21655   5.566   5.734   4.079
 6919SOL    HW121656   5.538   5.770   3.990
 6919SOL    HW221657   5.598   5.810   4.137
 6920SOL     OW21658   4.073   6.457   6.238
 6920SOL    HW121659   3.977   6.480   6.255
 6920SOL    HW221660   4.096   6.476   6.143
 6921SOL     OW21661   4.509   5.828   4.156
 6921SOL    HW121662   4.472   5.916   4.128
 6921SOL    HW221663   4.600   5.840   4.195
 6922SOL     OW21664   1.447   6.693   4.765
 6922SOL    HW121665   1.485   6.601   4.768
 6922SOL    HW221666   1.355   6.690   4.725
 6923SOL     OW21667   5.026   5.655   3.005
 6923SOL    HW121668   5.018   5.740   2.953
 6923SOL    HW221669   5.058   5.582   2.944
 6924SOL     OW21670   1.718   4.452   6.607
 6924SOL    HW121671   1.804   4.497   6.631
 6924SOL    HW221672   1.668   4.508   6.541
 6925SOL     OW21673   4.689   5.960   3.938
 6925SOL    HW121674   4.733   5.982   3.851
 6925SOL    HW221675   4.646   5.870   3.932
 6926SOL     OW21676   2.938   2.461   0.512
 6926SOL    HW121677   3.006   2.474   0.584
 6926SOL    HW221678   2.848   2.445   0.553
 6927SOL     OW21679   3.898   2.953   5.684
 6927SOL    HW121680   3.984   2.924   5.727
 6927SOL    HW221681   3.893   3.053   5.685
 6928SOL     OW21682   5.927   6.085   1.107
 6928SOL    HW121683   5.982   6.020   1.055
 6928SOL    HW221684   5.847   6.112   1.053
 6929SOL     OW21685   5.096   5.667   1.444
 6929SOL    HW121686   5.051   5.713   1.367
 6929SOL    HW221687   5.185   5.631   1.414
 6930SOL     OW21688   1.068   0.907   1.625
 6930SOL    HW121689   1.137   0.971   1.592
 6930SOL    HW221690   0.989   0.958   1.660
 6931SOL     OW21691   2.034   1.243   2.332
 6931SOL    HW121692   1.978   1.211   2.256
 6931SOL    HW221693   2.006   1.196   2.416
 6932SOL     OW21694   4.079   6.919   6.809
 6932SOL    HW121695   4.133   6.878   6.882
 6932SOL    HW221696   3.987   6.880   6.810
 6933SOL     OW21697   3.518   5.555   5.465
 6933SOL    HW121698   3.604   5.504   5.468
 6933SOL    HW221699   3.501   5.586   5.371
 6934SOL     OW21700   4.443   3.765   6.212
 6934SOL    HW121701   4.450   3.666   6.208
 6934SOL    HW221702   4.410   3.799   6.124
 6935SOL     OW21703   4.718   5.590   2.403
 6935SOL    HW121704   4.717   5.601   2.502
 6935SOL    HW221705   4.753   5.674   2.360
 6936SOL     OW21706   6.085   2.244   3.470
 6936SOL    HW121707   6.177   2.276   3.495
 6936SOL    HW221708   6.092   2.178   3.395
 6937SOL     OW21709   6.072   6.734   6.967
 6937SOL    HW121710   6.126   6.650   6.975
 6937SOL    HW221711   6.067   6.760   6.870
 6938SOL     OW21712   6.368   2.794   5.261
 6938SOL    HW121713   6.450   2.741   5.237
 6938SOL    HW221714   6.286   2.744   5.232
 6939SOL     OW21715   0.707   5.286   2.294
 6939SOL    HW121716   0.754   5.362   2.249
 6939SOL    HW221717   0.621   5.320   2.333
 6940SOL     OW21718   3.537   0.799   5.997
 6940SOL    HW121719   3.628   0.831   5.969
 6940SOL    HW221720   3.506   0.851   6.076
 6941SOL     OW21721   3.121   4.018   1.942
 6941SOL    HW121722   3.079   3.934   1.978
 6941SOL    HW221723   3.219   4.017   1.961
 6942SOL     OW21724   5.960   6.737   1.891
 6942SOL    HW121725   5.925   6.829   1.873
 6942SOL    HW221726   5.982   6.692   1.805
 6943SOL     OW21727   3.435   5.646   0.475
 6943SOL    HW121728   3.492   5.601   0.406
 6943SOL    HW221729   3.390   5.725   0.433
 6944SOL     OW21730   0.534   4.784   6.506
 6944SOL    HW121731   0.528   4.768   6.605
 6944SOL    HW221732   0.442   4.787   6.468
 6945SOL     OW21733   6.257   1.394   0.212
 6945SOL    HW121734   6.224   1.406   0.119
 6945SOL    HW221735   6.239   1.478   0.265
 6946SOL     OW21736   4.039   6.652   1.337
 6946SOL    HW121737   4.109   6.642   1.407
 6946SOL    HW221738   3.950   6.625   1.375
 6947SOL     OW21739   3.422   5.742   6.520
 6947SOL    HW121740   3.473   5.821   6.486
 6947SOL    HW221741   3.395   5.759   6.615
 6948SOL     OW21742   0.775   6.724   0.640
 6948SOL    HW121743   0.732   6.801   0.688
 6948SOL    HW221744   0.874   6.727   0.653
 6949SOL     OW21745   3.689   0.418   3.459
 6949SOL    HW121746   3.734   0.350   3.517
 6949SOL    HW221747   3.663   0.497   3.515
 6950SOL     OW21748   1.390   1.652   5.142
 6950SOL    HW121749   1.339   1.581   5.190
 6950SOL    HW221750   1.382   1.639   5.044
 6951SOL     OW21751   6.693   5.329   5.497
 6951SOL    HW121752   6.736   5.386   5.428
 6951SOL    HW221753   6.706   5.371   5.587
 6952SOL     OW21754   0.707   6.236   3.064
 6952SOL    HW121755   0.738   6.310   3.125
 6952SOL    HW221756   0.771   6.159   3.070
 6953SOL     OW21757   4.126   6.329   1.463
 6953SOL    HW121758   4.212   6.311   1.511
 6953SOL    HW221759   4.053   6.339   1.530
 6954SOL     OW21760   7.000   3.741   2.247
 6954SOL    HW121761   6.929   3.748   2.316
 6954SOL    HW221762   0.043   3.806   2.267
 6955SOL     OW21763   5.461   0.332   1.959
 6955SOL    HW121764   5.430   0.288   2.043
 6955SOL    HW221765   5.518   0.268   1.907
 6956SOL     OW21766   5.434   6.065   3.509
 6956SOL    HW121767   5.344   6.095   3.541
 6956SOL    HW221768   5.430   5.969   3.485
 6957SOL     OW21769   6.451   5.569   1.113
 6957SOL    HW121770   6.370   5.618   1.082
 6957SOL    HW221771   6.424   5.481   1.152
 6958SOL     OW21772   3.738   3.516   4.555
 6958SOL    HW121773   3.684   3.594   4.587
 6958SOL    HW221774   3.789   3.543   4.473
 6959SOL     OW21775   2.122   3.371   3.571
 6959SOL    HW121776   2.184   3.349   3.647
 6959SOL    HW221777   2.073   3.289   3.543
 6960SOL     OW21778   1.212   4.153   1.087
 6960SOL    HW121779   1.171   4.149   0.996
 6960SOL    HW221780   1.139   4.157   1.156
 6961SOL     OW21781   5.876   0.949   4.170
 6961SOL    HW121782   5.965   0.957   4.125
 6961SOL    HW221783   5.858   0.854   4.193
 6962SOL     OW21784   4.869   6.073   1.785
 6962SOL    HW121785   4.795   6.095   1.722
 6962SOL    HW221786   4.926   6.154   1.798
 6963SOL     OW21787   4.969   5.942   1.248
 6963SOL    HW121788   5.060   5.979   1.266
 6963SOL    HW221789   4.900   6.009   1.276
 6964SOL     OW21790   3.929   1.260   5.790
 6964SOL    HW121791   3.938   1.217   5.880
 6964SOL    HW221792   4.005   1.324   5.776
 6965SOL     OW21793   1.961   0.936   6.930
 6965SOL    HW121794   1.949   0.996   7.009
 6965SOL    HW221795   1.913   0.973   6.851
 6966SOL     OW21796   1.379   1.961   2.520
 6966SOL    HW121797   1.474   1.985   2.540
 6966SOL    HW221798   1.374   1.865   2.490
 6967SOL     OW21799   2.853   1.294   5.614
 6967SOL    HW121800   2.932   1.269   5.559
 6967SOL    HW221801   2.884   1.337   5.699
 6968SOL     OW21802   3.543   0.405   3.225
 6968SOL    HW121803   3.576   0.440   3.312
 6968SOL    HW221804   3.445   0.420   3.217
 6969SOL     OW21805   3.126   2.285   1.751
 6969SOL    HW121806   3.054   2.331   1.804
 6969SOL    HW221807   3.197   2.253   1.814
 6970SOL     OW21808   4.257   4.022   5.770
 6970SOL    HW121809   4.305   4.106   5.743
 6970SOL    HW221810   4.304   3.943   5.731
 6971SOL     OW21811   6.426   4.642   0.732
 6971SOL    HW121812   6.451   4.676   0.641
 6971SOL    HW221813   6.496   4.579   0.764
 6972SOL     OW21814   5.560   4.479   3.002
 6972SOL    HW121815   5.650   4.438   2.993
 6972SOL    HW221816   5.567   4.579   2.993
 6973SOL     OW21817   1.279   3.321   3.046
 6973SOL    HW121818   1.294   3.296   2.950
 6973SOL    HW221819   1.212   3.259   3.087
 6974SOL     OW21820   2.950   3.827   2.723
 6974SOL    HW121821   2.896   3.861   2.645
 6974SOL    HW221822   3.024   3.769   2.690
 6975SOL     OW21823   1.450   6.241   5.674
 6975SOL    HW121824   1.481   6.151   5.647
 6975SOL    HW221825   1.528   6.297   5.702
 6976SOL     OW21826   6.067   5.257   5.825
 6976SOL    HW121827   6.087   5.164   5.856
 6976SOL    HW221828   6.126   5.322   5.874
 6977SOL     OW21829   3.648   2.812   1.444
 6977SOL    HW121830   3.734   2.857   1.467
 6977SOL    HW221831   3.651   2.716   1.474
 6978SOL     OW21832   5.826   1.676   2.144
 6978SOL    HW121833   5.857   1.679   2.049
 6978SOL    HW221834   5.837   1.767   2.185
 6979SOL     OW21835   0.910   4.412   1.590
 6979SOL    HW121836   0.989   4.400   1.649
 6979SOL    HW221837   0.848   4.334   1.601
 6980SOL     OW21838   1.821   1.297   3.595
 6980SOL    HW121839   1.736   1.303   3.647
 6980SOL    HW221840   1.845   1.201   3.582
 6981SOL     OW21841   3.838   3.404   5.976
 6981SOL    HW121842   3.881   3.495   5.974
 6981SOL    HW221843   3.878   3.351   6.050
 6982SOL     OW21844   0.943   0.953   4.941
 6982SOL    HW121845   0.882   0.944   4.863
 6982SOL    HW221846   0.897   0.920   5.024
 6983SOL     OW21847   3.716   2.117   3.897
 6983SOL    HW121848   3.643   2.151   3.957
 6983SOL    HW221849   3.805   2.134   3.940
 6984SOL     OW21850   1.672   1.801   3.533
 6984SOL    HW121851   1.663   1.758   3.443
 6984SOL    HW221852   1.750   1.863   3.533
 6985SOL     OW21853   5.798   4.897   1.338
 6985SOL    HW121854   5.748   4.984   1.340
 6985SOL    HW221855   5.895   4.915   1.321
 6986SOL     OW21856   2.339   0.006   6.376
 6986SOL    HW121857   2.319   0.027   6.280
 6986SOL    HW221858   2.260   6.992   6.418
 6987SOL     OW21859   5.915   1.039   6.427
 6987SOL    HW121860   5.863   1.070   6.507
 6987SOL    HW221861   6.008   1.017   6.454
 6988SOL     OW21862   1.235   6.672   6.957
 6988SOL    HW121863   1.172   6.651   6.882
 6988SOL    HW221864   1.183   6.676   0.013
 6989SOL     OW21865   1.197   4.137   2.971
 6989SOL    HW121866   1.216   4.039   2.968
 6989SOL    HW221867   1.259   4.185   2.908
 6990SOL     OW21868   4.509   2.768   1.370
 6990SOL    HW121869   4.512   2.724   1.460
 6990SOL    HW221870   4.578   2.725   1.310
 6991SOL     OW21871   4.730   4.305   3.731
 6991SOL    HW121872   4.734   4.255   3.817
 6991SOL    HW221873   4.732   4.403   3.750
 6992SOL     OW21874   5.474   0.043   6.538
 6992SOL    HW121875   5.436   0.066   6.449
 6992SOL    HW221876   5.402   0.008   6.598
 6993SOL     OW21877   6.131   0.308   3.039
 6993SOL    HW121878   6.178   0.342   2.958
 6993SOL    HW221879   6.117   0.384   3.103
 6994SOL     OW21880   0.711   2.551   3.908
 6994SOL    HW121881   0.777   2.517   3.842
 6994SOL    HW221882   0.622   2.509   3.891
 6995SOL     OW21883   0.711   4.853   6.302
 6995SOL    HW121884   0.673   4.816   6.387
 6995SOL    HW221885   0.659   4.819   6.224
 6996SOL     OW21886   1.628   0.262   6.826
 6996SOL    HW121887   1.608   0.166   6.806
 6996SOL    HW221888   1.673   0.303   6.747
 6997SOL     OW21889   0.568   5.282   5.851
 6997SOL    HW121890   0.554   5.309   5.947
 6997SOL    HW221891   0.535   5.355   5.791
 6998SOL     OW21892   1.746   0.686   1.661
 6998SOL    HW121893   1.806   0.714   1.586
 6998SOL    HW221894   1.704   0.598   1.639
 6999SOL     OW21895   2.450   2.128   6.323
 6999SOL    HW121896   2.460   2.218   6.365
 6999SOL    HW221897   2.354   2.101   6.326
 7000SOL     OW21898   5.398   6.498   1.714
 7000SOL    HW121899   5.434   6.473   1.624
 7000SOL    HW221900   5.307   6.538   1.704
 7001SOL     OW21901   1.939   3.205   6.058
 7001SOL    HW121902   1.856   3.252   6.027
 7001SOL    HW221903   1.938   3.197   6.158
 7002SOL     OW21904   1.452   5.606   4.179
 7002SOL    HW121905   1.358   5.606   4.147
 7002SOL    HW221906   1.460   5.553   4.263
 7003SOL     OW21907   4.302   5.560   0.675
 7003SOL    HW121908   4.280   5.537   0.770
 7003SOL    HW221909   4.224   5.605   0.633
 7004SOL     OW21910   0.496   5.677   1.678
 7004SOL    HW121911   0.523   5.626   1.596
 7004SOL    HW221912   0.505   5.619   1.758
 7005SOL     OW21913   0.928   6.970   0.515
 7005SOL    HW121914   0.973   6.937   0.597
 7005SOL    HW221915   0.957   0.035   0.496
 7006SOL     OW21916   4.986   5.192   3.773
 7006SOL    HW121917   5.054   5.240   3.827
 7006SOL    HW221918   4.896   5.205   3.813
 7007SOL     OW21919   4.097   0.684   4.395
 7007SOL    HW121920   4.114   0.770   4.443
 7007SOL    HW221921   4.124   0.608   4.454
 7008SOL     OW21922   0.298   4.170   4.496
 7008SOL    HW121923   0.214   4.198   4.450
 7008SOL    HW221924   0.338   4.091   4.448
 7009SOL     OW21925   4.402   6.328   3.005
 7009SOL    HW121926   4.444   6.369   2.924
 7009SOL    HW221927   4.306   6.357   3.011
 7010SOL     OW21928   5.704   4.080   3.582
 7010SOL    HW121929   5.656   4.162   3.612
 7010SOL    HW221930   5.695   4.009   3.652
 7011SOL     OW21931   3.194   6.619   6.456
 7011SOL    HW121932   3.146   6.579   6.377
 7011SOL    HW221933   3.239   6.704   6.428
 7012SOL     OW21934   0.779   1.843   1.470
 7012SOL    HW121935   0.725   1.915   1.514
 7012SOL    HW221936   0.728   1.757   1.473
 7013SOL     OW21937   0.776   6.612   0.397
 7013SOL    HW121938   0.751   6.682   0.331
 7013SOL    HW221939   0.785   6.654   0.488
 7014SOL     OW21940   4.688   3.225   0.854
 7014SOL    HW121941   4.652   3.281   0.929
 7014SOL    HW221942   4.622   3.224   0.779
 7015SOL     OW21943   6.042   4.129   0.849
 7015SOL    HW121944   6.125   4.092   0.806
 7015SOL    HW221945   5.986   4.054   0.883
 7016SOL     OW21946   3.470   5.199   1.464
 7016SOL    HW121947   3.417   5.272   1.508
 7016SOL    HW221948   3.414   5.153   1.395
 7017SOL     OW21949   2.784   5.045   3.508
 7017SOL    HW121950   2.781   4.992   3.423
 7017SOL    HW221951   2.713   5.115   3.505
 7018SOL     OW21952   5.609   3.535   4.016
 7018SOL    HW121953   5.535   3.551   4.081
 7018SOL    HW221954   5.697   3.551   4.060
 7019SOL     OW21955   3.431   4.621   0.307
 7019SOL    HW121956   3.342   4.630   0.352
 7019SOL    HW221957   3.503   4.620   0.376
 7020SOL     OW21958   6.695   4.222   5.900
 7020SOL    HW121959   6.675   4.179   5.988
 7020SOL    HW221960   6.789   4.202   5.874
 7021SOL     OW21961   1.971   2.094   5.253
 7021SOL    HW121962   1.935   2.073   5.344
 7021SOL    HW221963   1.929   2.177   5.217
 7022SOL     OW21964   4.592   0.152   6.697
 7022SOL    HW121965   4.553   0.209   6.770
 7022SOL    HW221966   4.659   0.089   6.736
 7023SOL     OW21967   1.511   2.763   2.972
 7023SOL    HW121968   1.470   2.854   2.972
 7023SOL    HW221969   1.593   2.763   3.028
 7024SOL     OW21970   3.200   3.942   5.492
 7024SOL    HW121971   3.218   3.869   5.425
 7024SOL    HW221972   3.110   3.981   5.475
 7025SOL     OW21973   3.243   0.363   0.557
 7025SOL    HW121974   3.175   0.425   0.518
 7025SOL    HW221975   3.239   0.368   0.657
 7026SOL     OW21976   3.465   2.056   2.181
 7026SOL    HW121977   3.529   2.125   2.146
 7026SOL    HW221978   3.489   1.966   2.145
 7027SOL     OW21979   1.874   5.486   3.830
 7027SOL    HW121980   1.854   5.466   3.926
 7027SOL    HW221981   1.789   5.497   3.779
 7028SOL     OW21982   3.592   1.590   2.911
 7028SOL    HW121983   3.507   1.606   2.860
 7028SOL    HW221984   3.596   1.653   2.989
 7029SOL     OW21985   4.330   4.744   5.430
 7029SOL    HW121986   4.274   4.815   5.386
 7029SOL    HW221987   4.362   4.777   5.518
 7030SOL     OW21988   0.543   0.924   5.101
 7030SOL    HW121989   0.483   0.910   5.180
 7030SOL    HW221990   0.591   0.838   5.081
 7031SOL     OW21991   3.584   5.963   6.457
 7031SOL    HW121992   3.515   6.020   6.501
 7031SOL    HW221993   3.659   5.946   6.521
 7032SOL     OW21994   4.297   1.889   3.928
 7032SOL    HW121995   4.251   1.801   3.917
 7032SOL    HW221996   4.296   1.939   3.841
 7033SOL     OW21997   1.968   2.481   3.072
 7033SOL    HW121998   2.055   2.477   3.121
 7033SOL    HW221999   1.918   2.396   3.086
 7034SOL     OW22000   6.906   1.297   3.037
 7034SOL    HW122001   6.871   1.277   2.945
 7034SOL    HW222002   6.845   1.256   3.105
 7035SOL     OW22003   1.666   0.013   0.714
 7035SOL    HW122004   1.590   6.995   0.670
 7035SOL    HW222005   1.715   6.979   0.774
 7036SOL     OW22006   6.836   0.986   2.772
 7036SOL    HW122007   6.926   0.987   2.814
 7036SOL    HW222008   6.845   0.984   2.673
 7037SOL     OW22009   1.548   1.670   6.431
 7037SOL    HW122010   1.549   1.583   6.383
 7037SOL    HW222011   1.488   1.734   6.383
 7038SOL     OW22012   2.153   3.858   4.912
 7038SOL    HW122013   2.101   3.814   4.985
 7038SOL    HW222014   2.219   3.922   4.951
 7039SOL     OW22015   1.035   5.385   2.925
 7039SOL    HW122016   1.030   5.382   2.825
 7039SOL    HW222017   0.953   5.429   2.961
 7040SOL     OW22018   5.250   2.602   5.440
 7040SOL    HW122019   5.348   2.586   5.448
 7040SOL    HW222020   5.223   2.600   5.343
 7041SOL     OW22021   6.639   1.323   1.949
 7041SOL    HW122022   6.573   1.248   1.959
 7041SOL    HW222023   6.621   1.372   1.864
 7042SOL     OW22024   4.086   5.651   4.805
 7042SOL    HW122025   4.000   5.691   4.772
 7042SOL    HW222026   4.139   5.720   4.853
 7043SOL     OW22027   2.313   4.814   3.378
 7043SOL    HW122028   2.270   4.823   3.468
 7043SOL    HW222029   2.257   4.754   3.320
 7044SOL     OW22030   5.734   5.370   4.936
 7044SOL    HW122031   5.699   5.423   4.858
 7044SOL    HW222032   5.816   5.321   4.909
 7045SOL     OW22033   4.980   5.049   2.749
 7045SOL    HW122034   5.017   5.088   2.834
 7045SOL    HW222035   5.032   5.085   2.671
 7046SOL     OW22036   2.961   1.641   3.793
 7046SOL    HW122037   2.940   1.717   3.855
 7046SOL    HW222038   2.891   1.570   3.803
 7047SOL     OW22039   6.277   0.349   2.382
 7047SOL    HW122040   6.345   0.423   2.384
 7047SOL    HW222041   6.265   0.318   2.287
 7048SOL     OW22042   5.997   6.901   4.045
 7048SOL    HW122043   5.977   6.808   4.075
 7048SOL    HW222044   5.929   6.930   3.978
 7049SOL     OW22045   3.855   1.843   0.884
 7049SOL    HW122046   3.892   1.752   0.866
 7049SOL    HW222047   3.781   1.836   0.951
 7050SOL     OW22048   4.353   3.387   1.319
 7050SOL    HW122049   4.277   3.334   1.357
 7050SOL    HW222050   4.385   3.343   1.234
 7051SOL     OW22051   6.787   6.826   1.138
 7051SOL    HW122052   6.723   6.753   1.162
 7051SOL    HW222053   6.778   6.848   1.041
 7052SOL     OW22054   6.719   1.400   3.457
 7052SOL    HW122055   6.760   1.412   3.547
 7052SOL    HW222056   6.780   1.345   3.400
 7053SOL     OW22057   1.773   3.288   4.720
 7053SOL    HW122058   1.821   3.206   4.688
 7053SOL    HW222059   1.709   3.319   4.650
 7054SOL     OW22060   6.912   6.769   0.724
 7054SOL    HW122061   6.825   6.761   0.772
 7054SOL    HW222062   6.968   6.688   0.743
 7055SOL     OW22063   2.928   0.173   6.643
 7055SOL    HW122064   3.027   0.184   6.633
 7055SOL    HW222065   2.901   0.082   6.611
 7056SOL     OW22066   6.629   5.153   1.503
 7056SOL    HW122067   6.683   5.074   1.473
 7056SOL    HW222068   6.538   5.149   1.463
 7057SOL     OW22069   2.956   4.812   3.848
 7057SOL    HW122070   2.967   4.791   3.750
 7057SOL    HW222071   2.883   4.755   3.886
 7058SOL     OW22072   5.304   2.925   5.833
 7058SOL    HW122073   5.215   2.927   5.786
 7058SOL    HW222074   5.315   3.008   5.886
 7059SOL     OW22075   0.524   1.559   4.112
 7059SOL    HW122076   0.562   1.506   4.036
 7059SOL    HW222077   0.575   1.644   4.122
 7060SOL     OW22078   3.650   0.199   1.662
 7060SOL    HW122079   3.658   0.289   1.704
 7060SOL    HW222080   3.723   0.140   1.694
 7061SOL     OW22081   0.512   3.485   3.566
 7061SOL    HW122082   0.444   3.460   3.497
 7061SOL    HW222083   0.482   3.565   3.616
 7062SOL     OW22084   3.115   2.135   5.344
 7062SOL    HW122085   3.078   2.054   5.298
 7062SOL    HW222086   3.117   2.211   5.280
 7063SOL     OW22087   1.403   6.404   1.791
 7063SOL    HW122088   1.388   6.426   1.887
 7063SOL    HW222089   1.500   6.415   1.769
 7064SOL     OW22090   4.097   1.822   6.981
 7064SOL    HW122091   3.998   1.836   6.976
 7064SOL    HW222092   4.137   1.886   0.016
 7065SOL     OW22093   4.006   3.656   5.616
 7065SOL    HW122094   3.951   3.716   5.674
 7065SOL    HW222095   4.058   3.593   5.672
 7066SOL     OW22096   3.791   0.050   5.951
 7066SOL    HW122097   3.824   0.094   5.867
 7066SOL    HW222098   3.847   0.079   6.028
 7067SOL     OW22099   1.453   3.503   5.389
 7067SOL    HW122100   1.533   3.535   5.440
 7067SOL    HW222101   1.372   3.511   5.446
 7068SOL     OW22102   6.076   4.323   5.014
 7068SOL    HW122103   6.144   4.253   5.037
 7068SOL    HW222104   6.054   4.375   5.097
 7069SOL     OW22105   5.450   1.897   4.663
 7069SOL    HW122106   5.397   1.965   4.715
 7069SOL    HW222107   5.542   1.891   4.700
 7070SOL     OW22108   0.976   6.912   4.855
 7070SOL    HW122109   0.977   6.930   4.757
 7070SOL    HW222110   1.018   6.988   4.904
 7071SOL     OW22111   3.609   6.217   6.669
 7071SOL    HW122112   3.515   6.252   6.669
 7071SOL    HW222113   3.664   6.270   6.734
 7072SOL     OW22114   2.008   5.595   0.390
 7072SOL    HW122115   2.025   5.622   0.296
 7072SOL    HW222116   1.921   5.546   0.397
 7073SOL     OW22117   5.118   6.889   3.892
 7073SOL    HW122118   5.074   6.932   3.814
 7073SOL    HW222119   5.170   6.958   3.944
 7074SOL     OW22120   6.175   3.049   1.872
 7074SOL    HW122121   6.082   3.026   1.844
 7074SOL    HW222122   6.237   2.976   1.846
 7075SOL     OW22123   1.743   4.300   4.652
 7075SOL    HW122124   1.782   4.213   4.623
 7075SOL    HW222125   1.805   4.345   4.716
 7076SOL     OW22126   5.396   3.257   0.459
 7076SOL    HW122127   5.474   3.241   0.519
 7076SOL    HW222128   5.317   3.204   0.491
 7077SOL     OW22129   2.001   4.183   3.442
 7077SOL    HW122130   1.944   4.222   3.514
 7077SOL    HW222131   2.096   4.176   3.475
 7078SOL     OW22132   6.744   6.054   1.478
 7078SOL    HW122133   6.774   5.959   1.487
 7078SOL    HW222134   6.799   6.100   1.408
 7079SOL     OW22135   0.967   6.876   3.930
 7079SOL    HW122136   0.932   6.968   3.911
 7079SOL    HW222137   0.902   6.828   3.989
 7080SOL     OW22138   3.280   1.577   4.342
 7080SOL    HW122139   3.305   1.671   4.322
 7080SOL    HW222140   3.186   1.560   4.310
 7081SOL     OW22141   2.020   5.837   0.568
 7081SOL    HW122142   2.015   5.838   0.668
 7081SOL    HW222143   2.019   5.743   0.536
 7082SOL     OW22144   6.092   4.744   0.263
 7082SOL    HW122145   6.153   4.823   0.257
 7082SOL    HW222146   6.052   4.725   0.173
 7083SOL     OW22147   1.165   1.208   1.727
 7083SOL    HW122148   1.184   1.160   1.642
 7083SOL    HW222149   1.211   1.297   1.727
 7084SOL     OW22150   1.168   5.571   5.425
 7084SOL    HW122151   1.158   5.599   5.330
 7084SOL    HW222152   1.080   5.579   5.472
 7085SOL     OW22153   0.218   1.626   2.481
 7085SOL    HW122154   0.193   1.610   2.385
 7085SOL    HW222155   0.313   1.656   2.486
 7086SOL     OW22156   5.455   1.185   5.954
 7086SOL    HW122157   5.509   1.263   5.925
 7086SOL    HW222158   5.358   1.209   5.953
 7087SOL     OW22159   5.981   4.593   2.783
 7087SOL    HW122160   6.077   4.569   2.795
 7087SOL    HW222161   5.924   4.523   2.825
 7088SOL     OW22162   5.116   2.239   4.776
 7088SOL    HW122163   5.108   2.277   4.684
 7088SOL    HW222164   5.025   2.212   4.808
 7089SOL     OW22165   2.246   2.784   4.205
 7089SOL    HW122166   2.153   2.818   4.218
 7089SOL    HW222167   2.287   2.766   4.295
 7090SOL     OW22168   2.407   1.212   0.211
 7090SOL    HW122169   2.423   1.242   0.305
 7090SOL    HW222170   2.481   1.245   0.152
 7091SOL     OW22171   0.511   1.242   0.927
 7091SOL    HW122172   0.459   1.254   1.012
 7091SOL    HW222173   0.597   1.195   0.947
 7092SOL     OW22174   4.576   2.932   5.598
 7092SOL    HW122175   4.587   3.016   5.545
 7092SOL    HW222176   4.483   2.928   5.636
 7093SOL     OW22177   3.679   4.112   2.351
 7093SOL    HW122178   3.776   4.129   2.364
 7093SOL    HW222179   3.633   4.106   2.440
 7094SOL     OW22180   0.341   6.465   5.393
 7094SOL    HW122181   0.287   6.457   5.477
 7094SOL    HW222182   0.281   6.459   5.314
 7095SOL     OW22183   2.515   4.561   5.941
 7095SOL    HW122184   2.470   4.559   6.030
 7095SOL    HW222185   2.447   4.555   5.869
 7096SOL     OW22186   6.356   6.861   2.086
 7096SOL    HW122187   6.297   6.780   2.092
 7096SOL    HW222188   6.445   6.841   2.128
 7097SOL     OW22189   4.472   0.432   2.107
 7097SOL    HW122190   4.544   0.368   2.081
 7097SOL    HW222191   4.483   0.456   2.204
 7098SOL     OW22192   1.756   5.701   5.638
 7098SOL    HW122193   1.736   5.799   5.638
 7098SOL    HW222194   1.786   5.673   5.729
 7099SOL     OW22195   3.791   1.814   5.116
 7099SOL    HW122196   3.739   1.805   5.032
 7099SOL    HW222197   3.760   1.895   5.166
 7100SOL     OW22198   6.353   3.569   0.360
 7100SOL    HW122199   6.326   3.607   0.272
 7100SOL    HW222200   6.294   3.606   0.432
 7101SOL     OW22201   2.579   1.566   5.285
 7101SOL    HW122202   2.482   1.545   5.297
 7101SOL    HW222203   2.594   1.664   5.296
 7102SOL     OW22204   5.586   0.102   0.658
 7102SOL    HW122205   5.522   0.122   0.584
 7102SOL    HW222206   5.621   0.009   0.649
 7103SOL     OW22207   5.917   5.654   2.029
 7103SOL    HW122208   5.893   5.643   1.932
 7103SOL    HW222209   5.866   5.730   2.068
 7104SOL     OW22210   6.527   3.715   2.764
 7104SOL    HW122211   6.461   3.760   2.704
 7104SOL    HW222212   6.611   3.770   2.768
 7105SOL     OW22213   3.125   3.120   5.002
 7105SOL    HW122214   3.203   3.059   5.014
 7105SOL    HW222215   3.064   3.112   5.081
 7106SOL     OW22216   3.268   2.954   1.999
 7106SOL    HW122217   3.319   2.906   1.928
 7106SOL    HW222218   3.284   3.053   1.990
 7107SOL     OW22219   4.621   0.106   0.634
 7107SOL    HW122220   4.622   0.064   0.725
 7107SOL    HW222221   4.535   0.155   0.621
 7108SOL     OW22222   3.158   5.501   2.636
 7108SOL    HW122223   3.140   5.537   2.727
 7108SOL    HW222224   3.094   5.541   2.571
 7109SOL     OW22225   2.157   0.509   6.310
 7109SOL    HW122226   2.110   0.432   6.353
 7109SOL    HW222227   2.194   0.569   6.381
 7110SOL     OW22228   3.096   6.048   4.186
 7110SOL    HW122229   3.018   6.080   4.239
 7110SOL    HW222230   3.063   5.996   4.107
 7111SOL     OW22231   1.298   2.726   4.648
 7111SOL    HW122232   1.234   2.778   4.705
 7111SOL    HW222233   1.360   2.674   4.707
 7112SOL     OW22234   2.126   5.009   4.356
 7112SOL    HW122235   2.116   4.963   4.444
 7112SOL    HW222236   2.149   4.942   4.285
 7113SOL     OW22237   3.733   4.082   5.156
 7113SOL    HW122238   3.635   4.077   5.137
 7113SOL    HW222239   3.755   4.018   5.230
 7114SOL     OW22240   5.104   5.726   1.020
 7114SOL    HW122241   5.029   5.676   1.065
 7114SOL    HW222242   5.158   5.663   0.966
 7115SOL     OW22243   4.307   3.061   0.358
 7115SOL    HW122244   4.231   3.012   0.315
 7115SOL    HW222245   4.365   3.099   0.286
 7116SOL     OW22246   5.465   4.534   3.292
 7116SOL    HW122247   5.536   4.471   3.262
 7116SOL    HW222248   5.379   4.484   3.306
 7117SOL     OW22249   6.935   6.695   4.964
 7117SOL    HW122250   7.027   6.666   4.936
 7117SOL    HW222251   6.939   6.791   4.993
 7118SOL     OW22252   3.418   4.882   6.106
 7118SOL    HW122253   3.378   4.839   6.025
 7118SOL    HW222254   3.462   4.812   6.162
 7119SOL     OW22255   5.014   0.910   4.800
 7119SOL    HW122256   4.928   0.914   4.749
 7119SOL    HW222257   5.001   0.944   4.893
 7120SOL     OW22258   3.656   1.986   1.822
 7120SOL    HW122259   3.609   2.000   1.734
 7120SOL    HW222260   3.635   2.061   1.884
 7121SOL     OW22261   0.729   6.685   3.755
 7121SOL    HW122262   0.814   6.635   3.765
 7121SOL    HW222263   0.654   6.633   3.796
 7122SOL     OW22264   1.564   0.782   5.664
 7122SOL    HW122265   1.569   0.881   5.682
 7122SOL    HW222266   1.504   0.766   5.586
 7123SOL     OW22267   0.812   5.415   4.072
 7123SOL    HW122268   0.850   5.423   4.164
 7123SOL    HW222269   0.713   5.418   4.076
 7124SOL     OW22270   0.597   2.355   1.449
 7124SOL    HW122271   0.542   2.438   1.437
 7124SOL    HW222272   0.635   2.354   1.542
 7125SOL     OW22273   1.316   0.896   0.843
 7125SOL    HW122274   1.349   0.802   0.851
 7125SOL    HW222275   1.262   0.906   0.760
 7126SOL     OW22276   3.469   4.983   0.697
 7126SOL    HW122277   3.424   4.968   0.609
 7126SOL    HW222278   3.435   4.916   0.763
 7127SOL     OW22279   2.841   5.672   6.956
 7127SOL    HW122280   2.872   5.692   6.863
 7127SOL    HW222281   2.749   5.709   6.969
 7128SOL     OW22282   3.339   3.665   6.667
 7128SOL    HW122283   3.310   3.572   6.645
 7128SOL    HW222284   3.288   3.699   6.745
 7129SOL     OW22285   2.376   1.112   0.845
 7129SOL    HW122286   2.301   1.127   0.781
 7129SOL    HW222287   2.412   1.019   0.833
 7130SOL     OW22288   3.466   6.343   4.144
 7130SOL    HW122289   3.477   6.263   4.203
 7130SOL    HW222290   3.548   6.400   4.148
 7131SOL     OW22291   3.345   1.218   1.624
 7131SOL    HW122292   3.360   1.119   1.629
 7131SOL    HW222293   3.278   1.245   1.692
 7132SOL     OW22294   4.170   4.138   0.240
 7132SOL    HW122295   4.151   4.074   0.165
 7132SOL    HW222296   4.154   4.092   0.328
 7133SOL     OW22297   3.928   4.964   5.217
 7133SOL    HW122298   3.943   4.866   5.225
 7133SOL    HW222299   3.831   4.984   5.227
 7134SOL     OW22300   4.488   0.089   1.746
 7134SOL    HW122301   4.510   0.158   1.678
 7134SOL    HW222302   4.564   0.082   1.812
 7135SOL     OW22303   2.242   2.489   3.181
 7135SOL    HW122304   2.235   2.581   3.219
 7135SOL    HW222305   2.314   2.487   3.111
 7136SOL     OW22306   3.546   1.585   0.443
 7136SOL    HW122307   3.626   1.529   0.463
 7136SOL    HW222308   3.572   1.660   0.382
 7137SOL     OW22309   3.102   1.956   0.438
 7137SOL    HW122310   3.081   1.890   0.366
 7137SOL    HW222311   3.081   2.048   0.406
 7138SOL     OW22312   2.067   1.652   0.965
 7138SOL    HW122313   2.157   1.628   0.929
 7138SOL    HW222314   2.073   1.665   1.064
 7139SOL     OW22315   4.785   4.931   2.342
 7139SOL    HW122316   4.800   4.839   2.380
 7139SOL    HW222317   4.697   4.966   2.373
 7140SOL     OW22318   6.146   4.331   0.566
 7140SOL    HW122319   6.211   4.278   0.620
 7140SOL    HW222320   6.192   4.372   0.487
 7141SOL     OW22321   3.415   6.643   1.088
 7141SOL    HW122322   3.488   6.700   1.127
 7141SOL    HW222323   3.416   6.651   0.988
 7142SOL     OW22324   4.203   6.978   3.756
 7142SOL    HW122325   4.224   0.044   3.735
 7142SOL    HW222326   4.196   6.926   3.672
 7143SOL     OW22327   2.350   3.603   0.030
 7143SOL    HW122328   2.401   3.680   7.023
 7143SOL    HW222329   2.412   3.543   0.082
 7144SOL     OW22330   0.970   0.909   3.453
 7144SOL    HW122331   0.919   0.924   3.538
 7144SOL    HW222332   0.937   0.826   3.408
 7145SOL     OW22333   4.027   0.720   6.606
 7145SOL    HW122334   3.931   0.695   6.595
 7145SOL    HW222335   4.052   0.715   6.703
 7146SOL     OW22336   1.730   0.697   6.152
 7146SOL    HW122337   1.692   0.788   6.136
 7146SOL    HW222338   1.807   0.681   6.091
 7147SOL     OW22339   6.943   6.299   2.902
 7147SOL    HW122340   6.997   6.357   2.963
 7147SOL    HW222341   6.961   6.324   2.807
 7148SOL     OW22342   5.987   5.905   1.751
 7148SOL    HW122343   6.006   5.925   1.655
 7148SOL    HW222344   5.954   5.811   1.759
 7149SOL     OW22345   0.419   5.372   3.844
 7149SOL    HW122346   0.345   5.374   3.911
 7149SOL    HW222347   0.403   5.442   3.774
 7150SOL     OW22348   3.489   3.225   0.392
 7150SOL    HW122349   3.492   3.131   0.358
 7150SOL    HW222350   3.418   3.276   0.343
 7151SOL     OW22351   2.843   6.664   1.172
 7151SOL    HW122352   2.848   6.568   1.201
 7151SOL    HW222353   2.931   6.708   1.189
 7152SOL     OW22354   6.966   0.595   5.945
 7152SOL    HW122355   6.900   0.669   5.938
 7152SOL    HW222356   6.919   0.510   5.967
 7153SOL     OW22357   3.737   5.098   1.785
 7153SOL    HW122358   3.751   5.068   1.690
 7153SOL    HW222359   3.659   5.049   1.824
 7154SOL     OW22360   4.320   6.328   3.393
 7154SOL    HW122361   4.285   6.416   3.360
 7154SOL    HW222362   4.272   6.254   3.347
 7155SOL     OW22363   3.150   3.460   1.830
 7155SOL    HW122364   3.099   3.434   1.748
 7155SOL    HW222365   3.132   3.556   1.851
 7156SOL     OW22366   5.599   3.841   2.136
 7156SOL    HW122367   5.640   3.796   2.056
 7156SOL    HW222368   5.671   3.878   2.193
 7157SOL     OW22369   6.775   4.995   1.798
 7157SOL    HW122370   6.751   5.058   1.872
 7157SOL    HW222371   6.696   4.937   1.776
 7158SOL     OW22372   0.980   0.233   3.490
 7158SOL    HW122373   1.005   0.148   3.537
 7158SOL    HW222374   0.959   0.214   3.394
 7159SOL     OW22375   1.475   5.190   4.184
 7159SOL    HW122376   1.441   5.118   4.246
 7159SOL    HW222377   1.556   5.233   4.225
 7160SOL     OW22378   6.392   6.792   3.110
 7160SOL    HW122379   6.393   6.889   3.085
 7160SOL    HW222380   6.411   6.736   3.029
 7161SOL     OW22381   3.275   3.844   3.056
 7161SOL    HW122382   3.314   3.754   3.035
 7161SOL    HW222383   3.248   3.889   2.971
 7162SOL     OW22384   1.567   5.086   6.202
 7162SOL    HW122385   1.503   5.159   6.178
 7162SOL    HW222386   1.584   5.029   6.122
 7163SOL     OW22387   2.967   0.499   2.340
 7163SOL    HW122388   3.040   0.500   2.408
 7163SOL    HW222389   2.891   0.554   2.373
 7164SOL     OW22390   2.575   0.141   5.064
 7164SOL    HW122391   2.638   0.130   5.141
 7164SOL    HW222392   2.628   0.161   4.982
 7165SOL     OW22393   5.553   6.433   1.942
 7165SOL    HW122394   5.632   6.483   1.978
 7165SOL    HW222395   5.498   6.493   1.884
 7166SOL     OW22396   5.481   2.050   0.393
 7166SOL    HW122397   5.393   2.021   0.429
 7166SOL    HW222398   5.483   2.150   0.387
 7167SOL     OW22399   4.953   3.415   4.861
 7167SOL    HW122400   4.901   3.330   4.854
 7167SOL    HW222401   4.904   3.479   4.920
 7168SOL     OW22402   2.777   2.060   3.055
 7168SOL    HW122403   2.681   2.036   3.073
 7168SOL    HW222404   2.827   1.977   3.029
 7169SOL     OW22405   6.994   4.590   5.332
 7169SOL    HW122406   6.978   4.684   5.302
 7169SOL    HW222407   6.906   4.546   5.352
 7170SOL     OW22408   4.769   0.099   2.740
 7170SOL    HW122409   4.794   0.142   2.827
 7170SOL    HW222410   4.816   0.011   2.731
 7171SOL     OW22411   5.712   3.818   0.358
 7171SOL    HW122412   5.712   3.777   0.450
 7171SOL    HW222413   5.650   3.896   0.356
 7172SOL     OW22414   1.947   0.215   4.936
 7172SOL    HW122415   2.024   0.231   4.875
 7172SOL    HW222416   1.974   0.152   5.009
 7173SOL     OW22417   6.128   5.126   6.707
 7173SOL    HW122418   6.033   5.118   6.735
 7173SOL    HW222419   6.155   5.045   6.655
 7174SOL     OW22420   0.136   4.330   0.581
 7174SOL    HW122421   0.164   4.423   0.560
 7174SOL    HW222422   0.073   4.329   0.658
 7175SOL     OW22423   6.435   3.249   5.330
 7175SOL    HW122424   6.534   3.248   5.344
 7175SOL    HW222425   6.404   3.343   5.317
 7176SOL     OW22426   7.024   1.879   3.784
 7176SOL    HW122427   0.017   1.947   3.854
 7176SOL    HW222428   0.043   1.794   3.803
 7177SOL     OW22429   1.684   4.658   5.378
 7177SOL    HW122430   1.607   4.605   5.343
 7177SOL    HW222431   1.713   4.725   5.309
 7178SOL     OW22432   0.094   1.923   6.293
 7178SOL    HW122433   0.173   1.915   6.232
 7178SOL    HW222434   0.040   1.840   6.290
 7179SOL     OW22435   1.415   3.589   4.609
 7179SOL    HW122436   1.408   3.517   4.677
 7179SOL    HW222437   1.323   3.620   4.583
 7180SOL     OW22438   2.056   3.798   0.411
 7180SOL    HW122439   2.125   3.820   0.343
 7180SOL    HW222440   1.967   3.832   0.382
 7181SOL     OW22441   2.390   0.394   0.340
 7181SOL    HW122442   2.423   0.317   0.285
 7181SOL    HW222443   2.415   0.480   0.296
 7182SOL     OW22444   0.328   3.989   3.498
 7182SOL    HW122445   0.292   3.933   3.574
 7182SOL    HW222446   0.386   3.932   3.440
 7183SOL     OW22447   1.818   5.440   2.118
 7183SOL    HW122448   1.745   5.391   2.166
 7183SOL    HW222449   1.890   5.375   2.091
 7184SOL     OW22450   6.788   1.407   3.904
 7184SOL    HW122451   6.826   1.446   3.988
 7184SOL    HW222452   6.729   1.474   3.860
 7185SOL     OW22453   5.703   1.513   5.482
 7185SOL    HW122454   5.767   1.577   5.525
 7185SOL    HW222455   5.652   1.464   5.553
 7186SOL     OW22456   6.613   1.682   1.349
 7186SOL    HW122457   6.520   1.690   1.313
 7186SOL    HW222458   6.666   1.621   1.289
 7187SOL     OW22459   2.905   4.039   5.474
 7187SOL    HW122460   2.924   4.132   5.505
 7187SOL    HW222461   2.818   4.038   5.424
 7188SOL     OW22462   4.499   5.840   0.198
 7188SOL    HW122463   4.400   5.826   0.204
 7188SOL    HW222464   4.525   5.919   0.254
 7189SOL     OW22465   6.458   2.623   6.109
 7189SOL    HW122466   6.366   2.592   6.084
 7189SOL    HW222467   6.502   2.664   6.030
 7190SOL     OW22468   6.377   5.698   1.593
 7190SOL    HW122469   6.370   5.737   1.685
 7190SOL    HW222470   6.471   5.666   1.577
 7191SOL     OW22471   1.419   4.561   3.049
 7191SOL    HW122472   1.358   4.571   3.128
 7191SOL    HW222473   1.442   4.465   3.036
 7192SOL     OW22474   1.682   4.254   6.305
 7192SOL    HW122475   1.697   4.289   6.398
 7192SOL    HW222476   1.712   4.323   6.239
 7193SOL     OW22477   2.357   1.848   2.317
 7193SOL    HW122478   2.453   1.849   2.287
 7193SOL    HW222479   2.338   1.929   2.372
 7194SOL     OW22480   1.750   3.068   6.627
 7194SOL    HW122481   1.763   3.136   6.554
 7194SOL    HW222482   1.769   2.977   6.591
 7195SOL     OW22483   6.710   4.317   0.351
 7195SOL    HW122484   6.729   4.407   0.389
 7195SOL    HW222485   6.620   4.286   0.383
 7196SOL     OW22486   2.297   3.898   1.659
 7196SOL    HW122487   2.375   3.934   1.711
 7196SOL    HW222488   2.276   3.805   1.691
 7197SOL     OW22489   1.175   3.472   6.275
 7197SOL    HW122490   1.210   3.390   6.230
 7197SOL    HW222491   1.225   3.486   6.360
 7198SOL     OW22492   0.364   0.981   0.483
 7198SOL    HW122493   0.325   0.898   0.522
 7198SOL    HW222494   0.313   1.007   0.401
 7199SOL     OW22495   0.590   0.226   2.699
 7199SOL    HW122496   0.685   0.220   2.668
 7199SOL    HW222497   0.546   0.137   2.692
 7200SOL     OW22498   2.289   3.093   6.526
 7200SOL    HW122499   2.281   3.020   6.459
 7200SOL    HW222500   2.261   3.060   6.616
 7201SOL     OW22501   0.846   5.720   4.004
 7201SOL    HW122502   0.942   5.744   4.021
 7201SOL    HW222503   0.806   5.681   4.086
 7202SOL     OW22504   4.359   6.550   6.811
 7202SOL    HW122505   4.391   6.460   6.785
 7202SOL    HW222506   4.398   6.576   6.900
 7203SOL     OW22507   6.799   0.977   1.183
 7203SOL    HW122508   6.749   0.931   1.110
 7203SOL    HW222509   6.740   0.987   1.263
 7204SOL     OW22510   0.180   1.162   6.387
 7204SOL    HW122511   0.260   1.137   6.443
 7204SOL    HW222512   0.097   1.154   6.442
 7205SOL     OW22513   1.669   4.421   5.741
 7205SOL    HW122514   1.577   4.383   5.729
 7205SOL    HW222515   1.734   4.347   5.753
 7206SOL     OW22516   1.321   1.160   2.325
 7206SOL    HW122517   1.355   1.068   2.348
 7206SOL    HW222518   1.227   1.153   2.293
 7207SOL     OW22519   3.967   0.490   4.232
 7207SOL    HW122520   4.027   0.562   4.269
 7207SOL    HW222521   3.872   0.521   4.237
 7208SOL     OW22522   4.659   0.259   3.287
 7208SOL    HW122523   4.664   0.246   3.386
 7208SOL    HW222524   4.646   0.171   3.242
 7209SOL     OW22525   2.316   3.161   1.736
 7209SOL    HW122526   2.243   3.134   1.674
 7209SOL    HW222527   2.287   3.238   1.792
 7210SOL     OW22528   3.907   1.575   3.657
 7210SOL    HW122529   3.864   1.636   3.723
 7210SOL    HW222530   3.873   1.595   3.565
 7211SOL     OW22531   1.673   6.215   5.099
 7211SOL    HW122532   1.764   6.193   5.064
 7211SOL    HW222533   1.670   6.198   5.197
 7212SOL     OW22534   0.527   6.249   5.386
 7212SOL    HW122535   0.614   6.288   5.357
 7212SOL    HW222536   0.456   6.320   5.381
 7213SOL     OW22537   3.402   6.886   6.549
 7213SOL    HW122538   3.415   6.794   6.585
 7213SOL    HW222539   3.489   6.935   6.551
 7214SOL     OW22540   6.592   0.732   5.547
 7214SOL    HW122541   6.593   0.639   5.585
 7214SOL    HW222542   6.564   0.797   5.618
 7215SOL     OW22543   6.283   2.934   4.063
 7215SOL    HW122544   6.235   2.883   3.992
 7215SOL    HW222545   6.222   3.003   4.101
 7216SOL     OW22546   3.087   0.044   1.825
 7216SOL    HW122547   3.016   0.067   1.892
 7216SOL    HW222548   3.107   6.976   1.830
 7217SOL     OW22549   2.105   3.593   3.417
 7217SOL    HW122550   2.133   3.511   3.467
 7217SOL    HW222551   2.030   3.571   3.355
 7218SOL     OW22552   6.364   3.165   4.326
 7218SOL    HW122553   6.341   3.206   4.414
 7218SOL    HW222554   6.281   3.155   4.271
 7219SOL     OW22555   3.491   0.977   2.724
 7219SOL    HW122556   3.392   0.986   2.713
 7219SOL    HW222557   3.512   0.891   2.772
 7220SOL     OW22558   6.533   4.141   4.144
 7220SOL    HW122559   6.542   4.213   4.075
 7220SOL    HW222560   6.439   4.139   4.178
 7221SOL     OW22561   3.769   6.007   5.082
 7221SOL    HW122562   3.774   5.993   5.181
 7221SOL    HW222563   3.826   6.084   5.056
 7222SOL     OW22564   6.618   6.475   3.735
 7222SOL    HW122565   6.572   6.394   3.772
 7222SOL    HW222566   6.562   6.513   3.661
 7223SOL     OW22567   3.432   1.522   0.929
 7223SOL    HW122568   3.428   1.423   0.937
 7223SOL    HW222569   3.392   1.550   0.842
 7224SOL     OW22570   5.307   2.692   4.110
 7224SOL    HW122571   5.358   2.721   4.191
 7224SOL    HW222572   5.217   2.657   4.139
 7225SOL     OW22573   1.250   6.421   0.626
 7225SOL    HW122574   1.222   6.383   0.537
 7225SOL    HW222575   1.176   6.409   0.692
 7226SOL     OW22576   5.396   6.989   1.120
 7226SOL    HW122577   5.348   6.989   1.032
 7226SOL    HW222578   5.343   6.936   1.187
 7227SOL     OW22579   2.632   1.732   1.023
 7227SOL    HW122580   2.627   1.721   0.924
 7227SOL    HW222581   2.597   1.823   1.048
 7228SOL     OW22582   1.366   1.676   2.431
 7228SOL    HW122583   1.381   1.661   2.333
 7228SOL    HW222584   1.321   1.596   2.470
 7229SOL     OW22585   1.198   5.823   5.661
 7229SOL    HW122586   1.294   5.851   5.652
 7229SOL    HW222587   1.144   5.899   5.695
 7230SOL     OW22588   3.764   5.862   4.504
 7230SOL    HW122589   3.697   5.796   4.540
 7230SOL    HW222590   3.768   5.853   4.404
 7231SOL     OW22591   3.640   0.435   6.601
 7231SOL    HW122592   3.549   0.465   6.629
 7231SOL    HW222593   3.632   0.364   6.531
 7232SOL     OW22594   4.857   5.869   2.846
 7232SOL    HW122595   4.810   5.839   2.930
 7232SOL    HW222596   4.796   5.925   2.792
 7233SOL     OW22597   1.570   1.522   3.993
 7233SOL    HW122598   1.620   1.487   4.072
 7233SOL    HW222599   1.558   1.620   4.002
 7234SOL     OW22600   6.249   2.922   3.033
 7234SOL    HW122601   6.163   2.969   3.013
 7234SOL    HW222602   6.316   2.944   2.962
 7235SOL     OW22603   6.975   4.459   2.431
 7235SOL    HW122604   6.955   4.381   2.490
 7235SOL    HW222605   6.933   4.541   2.470
 7236SOL     OW22606   2.966   1.968   2.277
 7236SOL    HW122607   2.928   1.954   2.185
 7236SOL    HW222608   2.922   2.048   2.319
 7237SOL     OW22609   3.869   0.100   5.006
 7237SOL    HW122610   3.805   0.174   4.983
 7237SOL    HW222611   3.902   0.058   4.922
 7238SOL     OW22612   4.344   2.454   6.501
 7238SOL    HW122613   4.259   2.402   6.490
 7238SOL    HW222614   4.411   2.424   6.432
 7239SOL     OW22615   0.587   1.913   1.788
 7239SOL    HW122616   0.574   1.817   1.762
 7239SOL    HW222617   0.620   1.965   1.709
 7240SOL     OW22618   0.376   1.083   5.728
 7240SOL    HW122619   0.293   1.104   5.780
 7240SOL    HW222620   0.454   1.079   5.789
 7241SOL     OW22621   2.531   0.323   1.057
 7241SOL    HW122622   2.543   0.419   1.082
 7241SOL    HW222623   2.620   0.282   1.036
 7242SOL     OW22624   6.277   5.991   6.549
 7242SOL    HW122625   6.276   5.991   6.649
 7242SOL    HW222626   6.231   5.908   6.515
 7243SOL     OW22627   6.322   4.288   6.898
 7243SOL    HW122628   6.311   4.341   6.982
 7243SOL    HW222629   6.233   4.258   6.865
 7244SOL     OW22630   7.010   0.757   1.847
 7244SOL    HW122631   6.982   0.729   1.755
 7244SOL    HW222632   0.032   0.842   1.842
 7245SOL     OW22633   1.736   2.837   4.865
 7245SOL    HW122634   1.698   2.811   4.776
 7245SOL    HW222635   1.808   2.773   4.890
 7246SOL     OW22636   0.982   0.552   3.477
 7246SOL    HW122637   0.907   0.488   3.490
 7246SOL    HW222638   0.958   0.619   3.407
 7247SOL     OW22639   2.214   1.830   5.098
 7247SOL    HW122640   2.276   1.890   5.149
 7247SOL    HW222641   2.227   1.844   5.000
 7248SOL     OW22642   3.243   1.509   3.050
 7248SOL    HW122643   3.266   1.602   3.020
 7248SOL    HW222644   3.157   1.480   3.009
 7249SOL     OW22645   4.949   5.050   2.026
 7249SOL    HW122646   4.871   5.113   2.028
 7249SOL    HW222647   5.026   5.094   1.981
 7250SOL     OW22648   5.792   6.235   5.887
 7250SOL    HW122649   5.754   6.312   5.838
 7250SOL    HW222650   5.721   6.191   5.942
 7251SOL     OW22651   0.276   6.915   5.874
 7251SOL    HW122652   0.196   6.868   5.837
 7251SOL    HW222653   0.322   6.966   5.801
 7252SOL     OW22654   3.789   3.141   2.195
 7252SOL    HW122655   3.847   3.073   2.240
 7252SOL    HW222656   3.772   3.216   2.259
 7253SOL     OW22657   1.979   6.074   7.014
 7253SOL    HW122658   2.042   6.149   0.005
 7253SOL    HW222659   2.019   6.015   6.944
 7254SOL     OW22660   5.187   5.055   4.607
 7254SOL    HW122661   5.177   5.022   4.701
 7254SOL    HW222662   5.252   4.996   4.559
 7255SOL     OW22663   4.075   3.892   0.166
 7255SOL    HW122664   4.106   3.824   0.233
 7255SOL    HW222665   3.990   3.933   0.199
 7256SOL     OW22666   3.007   6.009   4.572
 7256SOL    HW122667   2.950   5.988   4.651
 7256SOL    HW222668   3.064   5.930   4.550
 7257SOL     OW22669   6.533   2.073   3.032
 7257SOL    HW122670   6.540   2.171   3.012
 7257SOL    HW222671   6.563   2.057   3.126
 7258SOL     OW22672   4.901   1.713   2.808
 7258SOL    HW122673   4.891   1.793   2.867
 7258SOL    HW222674   4.993   1.713   2.768
 7259SOL     OW22675   1.707   3.715   1.452
 7259SOL    HW122676   1.725   3.627   1.408
 7259SOL    HW222677   1.672   3.700   1.544
 7260SOL     OW22678   4.979   1.638   1.513
 7260SOL    HW122679   5.034   1.571   1.563
 7260SOL    HW222680   4.929   1.697   1.577
 7261SOL     OW22681   1.562   3.846   1.686
 7261SOL    HW122682   1.503   3.914   1.730
 7261SOL    HW222683   1.545   3.846   1.587
 7262SOL     OW22684   5.344   2.745   6.308
 7262SOL    HW122685   5.327   2.662   6.363
 7262SOL    HW222686   5.266   2.761   6.248
 7263SOL     OW22687   0.871   6.429   0.147
 7263SOL    HW122688   0.815   6.475   0.077
 7263SOL    HW222689   0.829   6.341   0.170
 7264SOL     OW22690   4.904   1.966   6.974
 7264SOL    HW122691   4.962   1.923   6.905
 7264SOL    HW222692   4.808   1.957   6.948
 7265SOL     OW22693   5.796   5.263   5.634
 7265SOL    HW122694   5.783   5.362   5.645
 7265SOL    HW222695   5.880   5.235   5.680
 7266SOL     OW22696   5.613   0.068   2.404
 7266SOL    HW122697   5.617   0.137   2.477
 7266SOL    HW222698   5.520   0.063   2.368
 7267SOL     OW22699   6.184   6.656   5.194
 7267SOL    HW122700   6.165   6.610   5.107
 7267SOL    HW222701   6.209   6.589   5.263
 7268SOL     OW22702   6.941   5.547   4.100
 7268SOL    HW122703   6.850   5.515   4.126
 7268SOL    HW222704   6.987   5.585   4.180
 7269SOL     OW22705   0.986   6.046   6.367
 7269SOL    HW122706   0.943   6.006   6.286
 7269SOL    HW222707   1.000   6.144   6.352
 7270SOL     OW22708   0.923   3.491   4.723
 7270SOL    HW122709   1.004   3.453   4.766
 7270SOL    HW222710   0.897   3.434   4.644
 7271SOL     OW22711   0.916   5.367   4.589
 7271SOL    HW122712   0.936   5.274   4.556
 7271SOL    HW222713   0.996   5.404   4.635
 7272SOL     OW22714   6.179   5.137   2.509
 7272SOL    HW122715   6.127   5.141   2.595
 7272SOL    HW222716   6.244   5.213   2.507
 7273SOL     OW22717   6.167   4.255   1.351
 7273SOL    HW122718   6.070   4.273   1.370
 7273SOL    HW222719   6.209   4.338   1.313
 7274SOL     OW22720   0.240   5.527   6.632
 7274SOL    HW122721   0.240   5.455   6.563
 7274SOL    HW222722   0.331   5.567   6.639
 7275SOL     OW22723   0.652   6.576   2.738
 7275SOL    HW122724   0.743   6.551   2.771
 7275SOL    HW222725   0.615   6.500   2.684
 7276SOL     OW22726   4.836   1.102   3.092
 7276SOL    HW122727   4.911   1.066   3.037
 7276SOL    HW222728   4.749   1.086   3.045
 7277SOL     OW22729   4.852   1.007   4.378
 7277SOL    HW122730   4.917   1.081   4.358
 7277SOL    HW222731   4.857   0.985   4.476
 7278SOL     OW22732   3.841   2.268   1.677
 7278SOL    HW122733   3.921   2.322   1.699
 7278SOL    HW222734   3.770   2.284   1.745
 7279SOL     OW22735   3.933   4.725   5.664
 7279SOL    HW122736   4.000   4.798   5.677
 7279SOL    HW222737   3.904   4.690   5.753
 7280SOL     OW22738   0.383   1.833   3.819
 7280SOL    HW122739   0.458   1.798   3.763
 7280SOL    HW222740   0.299   1.785   3.796
 7281SOL     OW22741   2.338   1.634   6.802
 7281SOL    HW122742   2.430   1.674   6.810
 7281SOL    HW222743   2.273   1.692   6.850
 7282SOL     OW22744   6.048   5.162   2.847
 7282SOL    HW122745   6.119   5.231   2.864
 7282SOL    HW222746   6.090   5.080   2.809
 7283SOL     OW22747   5.024   0.689   2.615
 7283SOL    HW122748   5.068   0.750   2.549
 7283SOL    HW222749   5.065   0.598   2.608
 7284SOL     OW22750   0.112   2.568   6.036
 7284SOL    HW122751   0.202   2.612   6.040
 7284SOL    HW222752   0.064   2.581   6.123
 7285SOL     OW22753   5.637   2.971   2.478
 7285SOL    HW122754   5.689   3.032   2.538
 7285SOL    HW222755   5.660   2.989   2.383
 7286SOL     OW22756   2.323   1.015   0.599
 7286SOL    HW122757   2.353   0.941   0.539
 7286SOL    HW222758   2.237   0.990   0.643
 7287SOL     OW22759   0.641   2.799   5.761
 7287SOL    HW122760   0.658   2.706   5.730
 7287SOL    HW222761   0.722   2.855   5.745
 7288SOL     OW22762   1.884   1.111   1.014
 7288SOL    HW122763   1.892   1.198   1.062
 7288SOL    HW222764   1.960   1.051   1.039
 7289SOL     OW22765   5.543   2.326   4.032
 7289SOL    HW122766   5.581   2.402   3.981
 7289SOL    HW222767   5.552   2.242   3.979
 7290SOL     OW22768   3.844   1.268   4.957
 7290SOL    HW122769   3.808   1.199   4.895
 7290SOL    HW222770   3.871   1.349   4.905
 7291SOL     OW22771   1.871   6.473   0.494
 7291SOL    HW122772   1.821   6.513   0.571
 7291SOL    HW222773   1.848   6.376   0.487
 7292SOL     OW22774   3.549   1.440   3.844
 7292SOL    HW122775   3.507   1.486   3.922
 7292SOL    HW222776   3.522   1.343   3.844
 7293SOL     OW22777   1.273   2.149   4.576
 7293SOL    HW122778   1.176   2.150   4.552
 7293SOL    HW222779   1.295   2.230   4.630
 7294SOL     OW22780   2.984   4.915   6.766
 7294SOL    HW122781   2.936   4.946   6.848
 7294SOL    HW222782   2.970   4.982   6.693
 7295SOL     OW22783   6.030   3.035   1.607
 7295SOL    HW122784   5.967   3.058   1.534
 7295SOL    HW222785   5.991   2.962   1.664
 7296SOL     OW22786   3.288   5.809   2.509
 7296SOL    HW122787   3.255   5.850   2.594
 7296SOL    HW222788   3.379   5.771   2.523
 7297SOL     OW22789   4.220   0.353   1.388
 7297SOL    HW122790   4.178   0.350   1.297
 7297SOL    HW222791   4.238   0.449   1.412
 7298SOL     OW22792   4.937   5.629   5.917
 7298SOL    HW122793   4.965   5.535   5.939
 7298SOL    HW222794   4.839   5.632   5.901
 7299SOL     OW22795   1.110   2.269   0.784
 7299SOL    HW122796   1.187   2.332   0.776
 7299SOL    HW222797   1.053   2.295   0.862
 7300SOL     OW22798   0.701   6.870   2.717
 7300SOL    HW122799   0.757   6.929   2.659
 7300SOL    HW222800   0.732   6.776   2.710
 7301SOL     OW22801   5.937   1.521   4.345
 7301SOL    HW122802   5.868   1.459   4.383
 7301SOL    HW222803   6.008   1.536   4.414
 7302SOL     OW22804   1.053   2.229   5.280
 7302SOL    HW122805   1.034   2.180   5.365
 7302SOL    HW222806   0.976   2.288   5.257
 7303SOL     OW22807   3.932   0.613   0.005
 7303SOL    HW122808   3.841   0.653   7.022
 7303SOL    HW222809   3.937   0.525   6.988
 7304SOL     OW22810   3.296   5.559   1.982
 7304SOL    HW122811   3.308   5.543   2.080
 7304SOL    HW222812   3.278   5.472   1.936
 7305SOL     OW22813   4.611   0.514   0.652
 7305SOL    HW122814   4.696   0.469   0.680
 7305SOL    HW222815   4.632   0.587   0.587
 7306SOL     OW22816   5.021   1.431   0.760
 7306SOL    HW122817   5.018   1.518   0.808
 7306SOL    HW222818   5.016   1.447   0.661
 7307SOL     OW22819   2.541   6.583   2.625
 7307SOL    HW122820   2.611   6.553   2.689
 7307SOL    HW222821   2.582   6.601   2.536
 7308SOL     OW22822   6.795   3.061   5.507
 7308SOL    HW122823   6.887   3.033   5.535
 7308SOL    HW222824   6.766   3.007   5.428
 7309SOL     OW22825   4.075   5.001   1.095
 7309SOL    HW122826   4.143   4.948   1.044
 7309SOL    HW222827   3.984   4.985   1.055
 7310SOL     OW22828   2.345   4.143   0.948
 7310SOL    HW122829   2.333   4.110   1.042
 7310SOL    HW222830   2.258   4.136   0.899
 7311SOL     OW22831   2.342   2.136   1.400
 7311SOL    HW122832   2.408   2.210   1.383
 7311SOL    HW222833   2.271   2.138   1.330
 7312SOL     OW22834   1.028   3.839   4.990
 7312SOL    HW122835   1.070   3.842   4.900
 7312SOL    HW222836   1.089   3.792   5.054
 7313SOL     OW22837   2.098   0.820   0.404
 7313SOL    HW122838   2.071   0.857   0.493
 7313SOL    HW222839   2.105   0.895   0.337
 7314SOL     OW22840   0.279   5.161   6.032
 7314SOL    HW122841   0.258   5.091   6.101
 7314SOL    HW222842   0.375   5.186   6.040
 7315SOL     OW22843   6.314   6.796   2.405
 7315SOL    HW122844   6.222   6.826   2.379
 7315SOL    HW222845   6.319   6.696   2.401
 7316SOL     OW22846   3.850   3.686   6.855
 7316SOL    HW122847   3.900   3.605   6.885
 7316SOL    HW222848   3.764   3.692   6.906
 7317SOL     OW22849   5.199   1.453   3.165
 7317SOL    HW122850   5.186   1.354   3.177
 7317SOL    HW222851   5.256   1.469   3.084
 7318SOL     OW22852   2.094   0.634   2.180
 7318SOL    HW122853   2.122   0.647   2.275
 7318SOL    HW222854   2.032   0.707   2.153
 7319SOL     OW22855   0.102   3.392   6.703
 7319SOL    HW122856   0.090   3.299   6.668
 7319SOL    HW222857   0.024   3.417   6.760
 7320SOL     OW22858   0.614   3.809   2.925
 7320SOL    HW122859   0.562   3.888   2.957
 7320SOL    HW222860   0.631   3.746   3.001
 7321SOL     OW22861   2.043   0.945   6.158
 7321SOL    HW122862   2.049   0.853   6.120
 7321SOL    HW222863   2.125   0.997   6.135
 7322SOL     OW22864   6.742   2.808   3.672
 7322SOL    HW122865   6.668   2.804   3.740
 7322SOL    HW222866   6.820   2.755   3.705
 7323SOL     OW22867   1.989   2.554   1.833
 7323SOL    HW122868   2.067   2.552   1.895
 7323SOL    HW222869   1.904   2.544   1.885
 7324SOL     OW22870   4.609   5.942   1.810
 7324SOL    HW122871   4.596   5.999   1.729
 7324SOL    HW222872   4.701   5.955   1.846
 7325SOL     OW22873   3.007   0.246   0.013
 7325SOL    HW122874   3.092   0.194   0.026
 7325SOL    HW222875   2.929   0.185   0.027
 7326SOL     OW22876   2.667   5.908   6.276
 7326SOL    HW122877   2.598   5.974   6.306
 7326SOL    HW222878   2.630   5.852   6.202
 7327SOL     OW22879   6.315   1.849   6.160
 7327SOL    HW122880   6.303   1.866   6.062
 7327SOL    HW222881   6.359   1.929   6.202
 7328SOL     OW22882   3.219   0.720   5.525
 7328SOL    HW122883   3.314   0.723   5.492
 7328SOL    HW222884   3.201   0.629   5.563
 7329SOL     OW22885   6.469   4.362   1.397
 7329SOL    HW122886   6.427   4.399   1.314
 7329SOL    HW222887   6.407   4.298   1.441
 7330SOL     OW22888   2.314   2.879   6.358
 7330SOL    HW122889   2.393   2.821   6.340
 7330SOL    HW222890   2.257   2.884   6.275
 7331SOL     OW22891   4.909   6.333   1.472
 7331SOL    HW122892   4.834   6.290   1.421
 7331SOL    HW222893   4.996   6.314   1.426
 7332SOL     OW22894   2.951   5.823   0.311
 7332SOL    HW122895   2.984   5.862   0.397
 7332SOL    HW222896   2.977   5.882   0.235
 7333SOL     OW22897   6.972   3.018   1.970
 7333SOL    HW122898   6.895   3.036   2.032
 7333SOL    HW222899   6.998   3.103   1.923
 7334SOL     OW22900   2.697   5.778   6.520
 7334SOL    HW122901   2.710   5.819   6.430
 7334SOL    HW222902   2.626   5.827   6.570
 7335SOL     OW22903   1.770   2.394   3.480
 7335SOL    HW122904   1.709   2.452   3.427
 7335SOL    HW222905   1.752   2.407   3.578
 7336SOL     OW22906   1.653   6.624   2.815
 7336SOL    HW122907   1.742   6.610   2.771
 7336SOL    HW222908   1.656   6.707   2.871
 7337SOL     OW22909   1.076   3.344   1.257
 7337SOL    HW122910   0.988   3.321   1.217
 7337SOL    HW222911   1.148   3.290   1.212
 7338SOL     OW22912   5.569   1.901   1.691
 7338SOL    HW122913   5.635   1.826   1.689
 7338SOL    HW222914   5.617   1.987   1.706
 7339SOL     OW22915   6.130   0.295   3.683
 7339SOL    HW122916   6.217   0.261   3.718
 7339SOL    HW222917   6.146   0.358   3.607
 7340SOL     OW22918   3.353   1.643   0.235
 7340SOL    HW122919   3.350   1.556   0.284
 7340SOL    HW222920   3.443   1.684   0.247
 7341SOL     OW22921   0.972   4.133   6.000
 7341SOL    HW122922   1.004   4.053   5.949
 7341SOL    HW222923   1.013   4.216   5.961
 7342SOL     OW22924   0.591   1.549   0.264
 7342SOL    HW122925   0.671   1.526   0.320
 7342SOL    HW222926   0.547   1.632   0.302
 7343SOL     OW22927   6.221   3.977   1.422
 7343SOL    HW122928   6.176   4.065   1.405
 7343SOL    HW222929   6.172   3.905   1.373
 7344SOL     OW22930   1.282   1.406   6.232
 7344SOL    HW122931   1.367   1.447   6.263
 7344SOL    HW222932   1.216   1.478   6.210
 7345SOL     OW22933   4.484   4.819   5.170
 7345SOL    HW122934   4.459   4.844   5.263
 7345SOL    HW222935   4.415   4.759   5.131
 7346SOL     OW22936   4.402   4.758   1.868
 7346SOL    HW122937   4.407   4.659   1.864
 7346SOL    HW222938   4.476   4.798   1.814
 7347SOL     OW22939   0.269   2.331   0.158
 7347SOL    HW122940   0.367   2.347   0.168
 7347SOL    HW222941   0.254   2.242   0.116
 7348SOL     OW22942   1.772   3.858   4.382
 7348SOL    HW122943   1.741   3.818   4.468
 7348SOL    HW222944   1.790   3.785   4.316
 7349SOL     OW22945   4.700   1.611   1.609
 7349SOL    HW122946   4.762   1.595   1.532
 7349SOL    HW222947   4.753   1.647   1.686
 7350SOL     OW22948   2.250   3.120   5.583
 7350SOL    HW122949   2.267   3.161   5.673
 7350SOL    HW222950   2.172   3.058   5.589
 7351SOL     OW22951   5.645   6.001   5.255
 7351SOL    HW122952   5.716   5.984   5.324
 7351SOL    HW222953   5.561   5.954   5.281
 7352SOL     OW22954   2.277   0.951   3.155
 7352SOL    HW122955   2.290   0.856   3.126
 7352SOL    HW222956   2.294   0.958   3.253
 7353SOL     OW22957   0.836   0.062   6.356
 7353SOL    HW122958   0.837   0.080   6.454
 7353SOL    HW222959   0.753   0.011   6.332
 7354SOL     OW22960   0.689   2.363   4.941
 7354SOL    HW122961   0.616   2.318   4.890
 7354SOL    HW222962   0.660   2.374   5.036
 7355SOL     OW22963   1.653   0.564   0.774
 7355SOL    HW122964   1.690   0.472   0.783
 7355SOL    HW222965   1.608   0.590   0.860
 7356SOL     OW22966   4.087   3.988   6.164
 7356SOL    HW122967   4.012   3.927   6.190
 7356SOL    HW222968   4.117   4.040   6.244
 7357SOL     OW22969   3.909   6.876   1.592
 7357SOL    HW122970   3.912   6.963   1.543
 7357SOL    HW222971   3.815   6.841   1.592
 7358SOL     OW22972   5.721   3.590   2.823
 7358SOL    HW122973   5.737   3.656   2.749
 7358SOL    HW222974   5.771   3.620   2.905
 7359SOL     OW22975   3.705   1.933   6.027
 7359SOL    HW122976   3.709   1.843   6.070
 7359SOL    HW222977   3.755   1.999   6.083
 7360SOL     OW22978   3.018   3.644   5.789
 7360SOL    HW122979   3.108   3.664   5.751
 7360SOL    HW222980   2.956   3.719   5.768
 7361SOL     OW22981   4.252   0.317   1.967
 7361SOL    HW122982   4.280   0.246   1.902
 7361SOL    HW222983   4.331   0.345   2.022
 7362SOL     OW22984   1.700   4.691   5.666
 7362SOL    HW122985   1.697   4.689   5.567
 7362SOL    HW222986   1.704   4.598   5.702
 7363SOL     OW22987   4.472   1.791   1.498
 7363SOL    HW122988   4.538   1.731   1.541
 7363SOL    HW222989   4.495   1.886   1.519
 7364SOL     OW22990   4.683   0.454   1.637
 7364SOL    HW122991   4.734   0.530   1.677
 7364SOL    HW222992   4.592   0.450   1.678
 7365SOL     OW22993   0.109   5.917   1.847
 7365SOL    HW122994   0.168   5.881   1.775
 7365SOL    HW222995   0.087   5.843   1.911
 7366SOL     OW22996   2.699   5.919   6.960
 7366SOL    HW122997   2.674   5.887   0.022
 7366SOL    HW222998   2.694   6.019   6.958
 7367SOL     OW22999   5.499   2.742   1.298
 7367SOL    HW123000   5.511   2.643   1.296
 7367SOL    HW223001   5.421   2.767   1.240
 7368SOL     OW23002   3.409   3.000   2.613
 7368SOL    HW123003   3.466   3.081   2.596
 7368SOL    HW223004   3.446   2.950   2.691
 7369SOL     OW23005   3.767   1.995   0.170
 7369SOL    HW123006   3.806   1.983   0.078
 7369SOL    HW223007   3.752   2.093   0.186
 7370SOL     OW23008   2.386   0.625   4.429
 7370SOL    HW123009   2.463   0.576   4.469
 7370SOL    HW223010   2.332   0.668   4.501
 7371SOL     OW23011   2.703   6.405   3.159
 7371SOL    HW123012   2.785   6.349   3.147
 7371SOL    HW223013   2.692   6.428   3.256
 7372SOL     OW23014   4.733   1.319   4.185
 7372SOL    HW123015   4.683   1.293   4.267
 7372SOL    HW223016   4.780   1.239   4.147
 7373SOL     OW23017   6.206   1.423   3.499
 7373SOL    HW123018   6.298   1.442   3.534
 7373SOL    HW223019   6.152   1.380   3.572
 7374SOL     OW23020   2.834   1.626   5.026
 7374SOL    HW123021   2.772   1.645   4.949
 7374SOL    HW223022   2.783   1.582   5.100
 7375SOL     OW23023   2.726   2.321   2.961
 7375SOL    HW123024   2.802   2.313   2.896
 7375SOL    HW223025   2.711   2.233   3.005
 7376SOL     OW23026   2.531   2.456   0.451
 7376SOL    HW123027   2.539   2.378   0.389
 7376SOL    HW223028   2.606   2.454   0.517
 7377SOL     OW23029   5.542   4.592   0.806
 7377SOL    HW123030   5.579   4.500   0.801
 7377SOL    HW223031   5.443   4.589   0.790
 7378SOL     OW23032   0.477   0.598   5.942
 7378SOL    HW123033   0.499   0.505   5.912
 7378SOL    HW223034   0.389   0.626   5.903
 7379SOL     OW23035   3.045   1.988   2.735
 7379SOL    HW123036   3.056   2.014   2.639
 7379SOL    HW223037   3.044   2.070   2.792
 7380SOL     OW23038   7.013   4.558   3.752
 7380SOL    HW123039   0.058   4.498   3.722
 7380SOL    HW223040   6.949   4.506   3.807
 7381SOL     OW23041   3.863   3.010   0.512
 7381SOL    HW123042   3.810   2.987   0.594
 7381SOL    HW223043   3.958   2.981   0.525
 7382SOL     OW23044   0.486   6.819   5.500
 7382SOL    HW123045   0.514   6.889   5.566
 7382SOL    HW223046   0.524   6.730   5.527
 7383SOL     OW23047   2.353   6.408   0.785
 7383SOL    HW123048   2.267   6.368   0.754
 7383SOL    HW223049   2.414   6.336   0.818
 7384SOL     OW23050   6.120   6.754   3.066
 7384SOL    HW123051   6.205   6.764   3.117
 7384SOL    HW223052   6.137   6.701   2.983
 7385SOL     OW23053   3.540   5.689   2.562
 7385SOL    HW123054   3.511   5.596   2.582
 7385SOL    HW223055   3.621   5.712   2.617
 7386SOL     OW23056   0.157   2.482   6.979
 7386SOL    HW123057   0.181   2.426   0.029
 7386SOL    HW223058   0.071   2.450   6.940
 7387SOL     OW23059   6.226   6.505   5.416
 7387SOL    HW123060   6.312   6.453   5.412
 7387SOL    HW223061   6.197   6.514   5.511
 7388SOL     OW23062   1.032   5.703   2.321
 7388SOL    HW123063   0.961   5.774   2.318
 7388SOL    HW223064   0.994   5.619   2.358
 7389SOL     OW23065   5.997   3.851   6.530
 7389SOL    HW123066   5.939   3.930   6.513
 7389SOL    HW223067   5.944   3.781   6.579
 7390SOL     OW23068   1.371   1.951   1.096
 7390SOL    HW123069   1.363   1.959   1.196
 7390SOL    HW223070   1.329   1.866   1.066
 7391SOL     OW23071   4.025   3.608   3.923
 7391SOL    HW123072   4.066   3.682   3.975
 7391SOL    HW223073   4.040   3.521   3.970
 7392SOL     OW23074   2.791   6.727   6.497
 7392SOL    HW123075   2.780   6.814   6.546
 7392SOL    HW223076   2.825   6.745   6.405
 7393SOL     OW23077   6.105   4.874   2.776
 7393SOL    HW123078   6.187   4.881   2.719
 7393SOL    HW223079   6.046   4.801   2.740
 7394SOL     OW23080   2.531   2.929   5.970
 7394SOL    HW123081   2.434   2.950   5.974
 7394SOL    HW223082   2.543   2.830   5.962
 7395SOL     OW23083   1.893   3.252   1.497
 7395SOL    HW123084   1.857   3.297   1.579
 7395SOL    HW223085   1.962   3.185   1.524
 7396SOL     OW23086   1.522   6.379   1.397
 7396SOL    HW123087   1.546   6.417   1.486
 7396SOL    HW223088   1.463   6.443   1.349
 7397SOL     OW23089   4.364   5.409   4.262
 7397SOL    HW123090   4.402   5.489   4.308
 7397SOL    HW223091   4.274   5.432   4.224
 7398SOL     OW23092   1.622   4.870   3.999
 7398SOL    HW123093   1.543   4.922   4.034
 7398SOL    HW223094   1.601   4.773   3.999
 7399SOL     OW23095   0.927   3.139   4.633
 7399SOL    HW123096   0.838   3.180   4.653
 7399SOL    HW223097   0.914   3.050   4.590
 7400SOL     OW23098   4.501   2.991   6.123
 7400SOL    HW123099   4.438   3.031   6.190
 7400SOL    HW223100   4.564   3.061   6.090
 7401SOL     OW23101   1.188   2.614   3.874
 7401SOL    HW123102   1.179   2.696   3.817
 7401SOL    HW223103   1.273   2.618   3.926
 7402SOL     OW23104   3.081   5.650   6.346
 7402SOL    HW123105   3.100   5.726   6.409
 7402SOL    HW223106   3.159   5.587   6.345
 7403SOL     OW23107   2.092   3.623   2.451
 7403SOL    HW123108   2.140   3.654   2.369
 7403SOL    HW223109   2.118   3.529   2.471
 7404SOL     OW23110   2.588   5.032   1.761
 7404SOL    HW123111   2.580   4.957   1.826
 7404SOL    HW223112   2.504   5.086   1.761
 7405SOL     OW23113   3.427   5.309   4.832
 7405SOL    HW123114   3.411   5.386   4.770
 7405SOL    HW223115   3.448   5.343   4.923
 7406SOL     OW23116   0.187   2.820   3.430
 7406SOL    HW123117   0.178   2.743   3.493
 7406SOL    HW223118   0.280   2.855   3.433
 7407SOL     OW23119   1.036   6.979   5.423
 7407SOL    HW123120   1.055   6.940   5.513
 7407SOL    HW223121   1.107   6.950   5.358
 7408SOL     OW23122   3.252   4.027   6.912
 7408SOL    HW123123   3.287   4.064   6.826
 7408SOL    HW223124   3.277   4.087   6.987
 7409SOL     OW23125   5.154   3.074   0.191
 7409SOL    HW123126   5.220   3.053   0.119
 7409SOL    HW223127   5.096   2.994   0.207
 7410SOL     OW23128   0.280   0.144   0.316
 7410SOL    HW123129   0.369   0.117   0.281
 7410SOL    HW223130   0.235   0.064   0.357
 7411SOL     OW23131   1.840   0.548   6.812
 7411SOL    HW123132   1.919   0.606   6.830
 7411SOL    HW223133   1.756   0.599   6.830
 7412SOL     OW23134   5.190   0.437   1.976
 7412SOL    HW123135   5.270   0.446   1.917
 7412SOL    HW223136   5.198   0.500   2.053
 7413SOL     OW23137   4.749   5.223   3.912
 7413SOL    HW123138   4.708   5.278   3.986
 7413SOL    HW223139   4.692   5.143   3.895
 7414SOL     OW23140   0.899   1.079   3.222
 7414SOL    HW123141   0.833   1.028   3.168
 7414SOL    HW223142   0.921   1.028   3.305
 7415SOL     OW23143   1.423   4.746   4.336
 7415SOL    HW123144   1.356   4.781   4.271
 7415SOL    HW223145   1.435   4.647   4.322
 7416SOL     OW23146   2.073   1.373   2.625
 7416SOL    HW123147   2.071   1.303   2.553
 7416SOL    HW223148   2.167   1.381   2.659
 7417SOL     OW23149   2.190   2.084   1.202
 7417SOL    HW123150   2.229   2.022   1.133
 7417SOL    HW223151   2.098   2.052   1.227
 7418SOL     OW23152   2.333   5.716   0.324
 7418SOL    HW123153   2.417   5.666   0.347
 7418SOL    HW223154   2.272   5.655   0.274
 7419SOL     OW23155   0.208   3.010   3.939
 7419SOL    HW123156   0.208   3.086   4.003
 7419SOL    HW223157   0.205   2.923   3.989
 7420SOL     OW23158   0.744   6.329   1.732
 7420SOL    HW123159   0.759   6.298   1.638
 7420SOL    HW223160   0.650   6.311   1.759
 7421SOL     OW23161   3.997   3.982   1.257
 7421SOL    HW123162   3.901   3.986   1.228
 7421SOL    HW223163   4.036   3.894   1.228
 7422SOL     OW23164   6.953   4.052   2.237
 7422SOL    HW123165   7.025   4.121   2.240
 7422SOL    HW223166   6.947   4.014   2.144
 7423SOL     OW23167   6.326   2.693   5.564
 7423SOL    HW123168   6.336   2.788   5.532
 7423SOL    HW223169   6.339   2.631   5.487
 7424SOL     OW23170   6.865   0.424   5.565
 7424SOL    HW123171   6.880   0.468   5.476
 7424SOL    HW223172   6.954   0.405   5.608
 7425SOL     OW23173   4.124   6.642   0.174
 7425SOL    HW123174   4.160   6.722   0.221
 7425SOL    HW223175   4.026   6.633   0.194
 7426SOL     OW23176   3.032   2.240   5.569
 7426SOL    HW123177   3.069   2.192   5.489
 7426SOL    HW223178   3.101   2.240   5.642
 7427SOL     OW23179   5.114   0.829   3.278
 7427SOL    HW123180   5.142   0.922   3.255
 7427SOL    HW223181   5.051   0.831   3.356
 7428SOL     OW23182   4.948   1.803   5.232
 7428SOL    HW123183   4.937   1.849   5.143
 7428SOL    HW223184   4.949   1.871   5.305
 7429SOL     OW23185   0.201   6.476   4.234
 7429SOL    HW123186   0.163   6.430   4.155
 7429SOL    HW223187   0.275   6.421   4.272
 7430SOL     OW23188   1.108   3.383   0.820
 7430SOL    HW123189   1.196   3.378   0.774
 7430SOL    HW223190   1.035   3.356   0.757
 7431SOL     OW23191   1.610   2.646   2.729
 7431SOL    HW123192   1.691   2.588   2.742
 7431SOL    HW223193   1.593   2.698   2.813
 7432SOL     OW23194   0.760   0.834   3.032
 7432SOL    HW123195   0.826   0.875   2.969
 7432SOL    HW223196   0.687   0.900   3.052
 7433SOL     OW23197   4.375   5.626   6.150
 7433SOL    HW123198   4.471   5.621   6.178
 7433SOL    HW223199   4.343   5.535   6.125
 7434SOL     OW23200   4.678   5.110   5.239
 7434SOL    HW123201   4.736   5.080   5.164
 7434SOL    HW223202   4.696   5.207   5.259
 7435SOL     OW23203   4.267   5.750   1.330
 7435SOL    HW123204   4.176   5.709   1.315
 7435SOL    HW223205   4.257   5.848   1.345
 7436SOL     OW23206   4.145   4.493   6.356
 7436SOL    HW123207   4.063   4.465   6.406
 7436SOL    HW223208   4.132   4.586   6.322
 7437SOL     OW23209   2.091   5.676   0.134
 7437SOL    HW123210   2.058   5.633   0.050
 7437SOL    HW223211   2.106   5.774   0.117
 7438SOL     OW23212   0.842   5.983   0.693
 7438SOL    HW123213   0.858   5.917   0.619
 7438SOL    HW223214   0.744   5.993   0.708
 7439SOL     OW23215   1.705   6.742   5.861
 7439SOL    HW123216   1.620   6.721   5.908
 7439SOL    HW223217   1.722   6.840   5.864
 7440SOL     OW23218   0.428   2.803   3.913
 7440SOL    HW123219   0.427   2.889   3.862
 7440SOL    HW223220   0.498   2.806   3.984
 7441SOL     OW23221   5.160   6.715   4.454
 7441SOL    HW123222   5.228   6.739   4.524
 7441SOL    HW223223   5.206   6.700   4.367
 7442SOL     OW23224   6.193   1.466   6.182
 7442SOL    HW123225   6.182   1.367   6.191
 7442SOL    HW223226   6.289   1.487   6.162
 7443SOL     OW23227   6.292   6.380   1.793
 7443SOL    HW123228   6.247   6.449   1.737
 7443SOL    HW223229   6.252   6.380   1.884
 7444SOL     OW23230   5.535   2.267   6.719
 7444SOL    HW123231   5.484   2.214   6.652
 7444SOL    HW223232   5.497   2.359   6.725
 7445SOL     OW23233   3.958   0.481   1.534
 7445SOL    HW123234   3.887   0.539   1.494
 7445SOL    HW223235   3.985   0.411   1.467
 7446SOL     OW23236   5.596   3.178   0.613
 7446SOL    HW123237   5.595   3.079   0.623
 7446SOL    HW223238   5.688   3.208   0.586
 7447SOL     OW23239   6.399   3.857   0.164
 7447SOL    HW123240   6.423   3.857   0.261
 7447SOL    HW223241   6.420   3.946   0.124
 7448SOL     OW23242   6.694   6.932   5.113
 7448SOL    HW123243   6.694   6.870   5.192
 7448SOL    HW223244   6.788   6.950   5.085
 7449SOL     OW23245   0.224   4.321   2.029
 7449SOL    HW123246   0.201   4.224   2.029
 7449SOL    HW223247   0.302   4.338   1.968
 7450SOL     OW23248   5.610   2.782   5.289
 7450SOL    HW123249   5.603   2.750   5.383
 7450SOL    HW223250   5.573   2.713   5.227
 7451SOL     OW23251   6.707   5.787   2.768
 7451SOL    HW123252   6.772   5.857   2.739
 7451SOL    HW223253   6.636   5.778   2.698
 7452SOL     OW23254   6.163   5.932   4.151
 7452SOL    HW123255   6.134   6.009   4.094
 7452SOL    HW223256   6.088   5.867   4.160
 7453SOL     OW23257   5.393   5.442   4.923
 7453SOL    HW123258   5.444   5.372   4.973
 7453SOL    HW223259   5.449   5.525   4.916
 7454SOL     OW23260   1.323   1.923   1.366
 7454SOL    HW123261   1.228   1.948   1.386
 7454SOL    HW223262   1.375   1.919   1.452
 7455SOL     OW23263   6.759   2.655   1.476
 7455SOL    HW123264   6.746   2.716   1.398
 7455SOL    HW223265   6.824   2.696   1.540
 7456SOL     OW23266   1.249   0.940   4.902
 7456SOL    HW123267   1.150   0.940   4.916
 7456SOL    HW223268   1.277   1.029   4.865
 7457SOL     OW23269   3.460   1.014   5.190
 7457SOL    HW123270   3.366   1.029   5.219
 7457SOL    HW223271   3.472   0.918   5.164
 7458SOL     OW23272   2.000   6.701   6.243
 7458SOL    HW123273   2.072   6.761   6.209
 7458SOL    HW223274   1.934   6.754   6.296
 7459SOL     OW23275   5.202   0.267   2.388
 7459SOL    HW123276   5.119   0.236   2.340
 7459SOL    HW223277   5.185   0.357   2.428
 7460SOL     OW23278   0.840   5.013   0.633
 7460SOL    HW123279   0.794   5.086   0.583
 7460SOL    HW223280   0.854   5.041   0.728
 7461SOL     OW23281   5.898   6.972   6.932
 7461SOL    HW123282   5.901   6.878   6.966
 7461SOL    HW223283   5.904   0.006   7.009
 7462SOL     OW23284   1.346   4.418   2.226
 7462SOL    HW123285   1.440   4.396   2.253
 7462SOL    HW223286   1.347   4.460   2.136
 7463SOL     OW23287   2.846   4.921   0.808
 7463SOL    HW123288   2.929   4.927   0.864
 7463SOL    HW223289   2.800   5.010   0.809
 7464SOL     OW23290   5.413   6.852   6.316
 7464SOL    HW123291   5.498   6.854   6.369
 7464SOL    HW223292   5.388   6.757   6.297
 7465SOL     OW23293   2.887   5.433   6.410
 7465SOL    HW123294   2.841   5.461   6.494
 7465SOL    HW223295   2.937   5.511   6.372
 7466SOL     OW23296   0.512   0.331   4.733
 7466SOL    HW123297   0.484   0.236   4.742
 7466SOL    HW223298   0.521   0.354   4.636
 7467SOL     OW23299   0.580   1.263   0.279
 7467SOL    HW123300   0.517   1.322   0.227
 7467SOL    HW223301   0.670   1.265   0.236
 7468SOL     OW23302   5.986   2.650   3.681
 7468SOL    HW123303   5.909   2.652   3.618
 7468SOL    HW223304   5.987   2.735   3.735
 7469SOL     OW23305   6.773   0.778   6.990
 7469SOL    HW123306   6.722   0.809   6.909
 7469SOL    HW223307   6.735   0.821   0.042
 7470SOL     OW23308   5.971   3.839   3.288
 7470SOL    HW123309   6.027   3.912   3.249
 7470SOL    HW223310   5.877   3.870   3.297
 7471SOL     OW23311   5.326   0.009   5.655
 7471SOL    HW123312   5.286   0.077   5.593
 7471SOL    HW223313   5.406   6.998   5.611
 7472SOL     OW23314   5.941   0.964   6.135
 7472SOL    HW123315   5.931   0.979   6.233
 7472SOL    HW223316   5.884   1.029   6.086
 7473SOL     OW23317   5.624   5.114   4.184
 7473SOL    HW123318   5.574   5.035   4.221
 7473SOL    HW223319   5.641   5.180   4.256
 7474SOL     OW23320   0.043   1.966   5.839
 7474SOL    HW123321   0.110   2.037   5.862
 7474SOL    HW223322   7.013   1.950   5.917
 7475SOL     OW23323   4.939   2.480   2.344
 7475SOL    HW123324   5.021   2.521   2.303
 7475SOL    HW223325   4.966   2.405   2.405
 7476SOL     OW23326   3.578   0.985   3.437
 7476SOL    HW123327   3.594   0.983   3.339
 7476SOL    HW223328   3.589   1.079   3.471
 7477SOL     OW23329   7.022   2.055   5.579
 7477SOL    HW123330   0.015   2.045   5.676
 7477SOL    HW223331   6.984   2.146   5.563
 7478SOL     OW23332   6.084   3.651   5.412
 7478SOL    HW123333   6.078   3.712   5.333
 7478SOL    HW223334   6.061   3.702   5.495
 7479SOL     OW23335   4.233   2.033   2.367
 7479SOL    HW123336   4.140   2.008   2.396
 7479SOL    HW223337   4.299   1.999   2.433
 7480SOL     OW23338   1.484   4.543   2.640
 7480SOL    HW123339   1.506   4.488   2.559
 7480SOL    HW223340   1.466   4.482   2.717
 7481SOL     OW23341   5.567   5.796   0.877
 7481SOL    HW123342   5.581   5.700   0.853
 7481SOL    HW223343   5.476   5.808   0.914
 7482SOL     OW23344   4.263   2.368   2.748
 7482SOL    HW123345   4.272   2.374   2.648
 7482SOL    HW223346   4.228   2.454   2.784
 7483SOL     OW23347   4.868   3.494   4.526
 7483SOL    HW123348   4.923   3.556   4.581
 7483SOL    HW223349   4.782   3.539   4.501
 7484SOL     OW23350   1.238   6.299   3.865
 7484SOL    HW123351   1.216   6.205   3.842
 7484SOL    HW223352   1.229   6.357   3.784
 7485SOL     OW23353   3.566   0.365   4.573
 7485SOL    HW123354   3.532   0.311   4.650
 7485SOL    HW223355   3.525   0.332   4.489
 7486SOL     OW23356   1.667   5.655   0.656
 7486SOL    HW123357   1.678   5.567   0.611
 7486SOL    HW223358   1.734   5.665   0.729
 7487SOL     OW23359   2.623   0.476   2.884
 7487SOL    HW123360   2.592   0.457   2.978
 7487SOL    HW223361   2.667   0.395   2.846
 7488SOL     OW23362   2.661   5.725   4.580
 7488SOL    HW123363   2.634   5.692   4.671
 7488SOL    HW223364   2.696   5.648   4.526
 7489SOL     OW23365   6.126   2.578   6.241
 7489SOL    HW123366   6.091   2.619   6.156
 7489SOL    HW223367   6.172   2.492   6.220
 7490SOL     OW23368   1.153   0.362   2.974
 7490SOL    HW123369   1.075   0.422   2.957
 7490SOL    HW223370   1.139   0.314   3.061
 7491SOL     OW23371   4.292   3.423   6.667
 7491SOL    HW123372   4.292   3.324   6.676
 7491SOL    HW223373   4.343   3.464   6.742
 7492SOL     OW23374   1.623   0.666   3.311
 7492SOL    HW123375   1.637   0.632   3.403
 7492SOL    HW223376   1.539   0.720   3.308
 7493SOL     OW23377   0.522   3.109   6.491
 7493SOL    HW123378   0.581   3.037   6.454
 7493SOL    HW223379   0.491   3.168   6.416
 7494SOL     OW23380   5.711   1.775   2.999
 7494SOL    HW123381   5.794   1.799   2.949
 7494SOL    HW223382   5.666   1.858   3.031
 7495SOL     OW23383   1.755   2.393   6.994
 7495SOL    HW123384   1.822   2.371   6.923
 7495SOL    HW223385   1.708   2.478   6.972
 7496SOL     OW23386   6.864   3.028   3.553
 7496SOL    HW123387   6.827   2.936   3.568
 7496SOL    HW223388   6.888   3.069   3.640
 7497SOL     OW23389   2.367   4.674   1.258
 7497SOL    HW123390   2.364   4.656   1.160
 7497SOL    HW223391   2.364   4.773   1.274
 7498SOL     OW23392   3.173   1.085   5.262
 7498SOL    HW123393   3.155   0.987   5.259
 7498SOL    HW223394   3.158   1.125   5.171
 7499SOL     OW23395   4.255   1.902   3.352
 7499SOL    HW123396   4.245   1.804   3.364
 7499SOL    HW223397   4.347   1.923   3.319
 7500SOL     OW23398   3.197   5.910   3.264
 7500SOL    HW123399   3.292   5.884   3.283
 7500SOL    HW223400   3.167   5.977   3.333
 7501SOL     OW23401   5.098   4.025   5.010
 7501SOL    HW123402   5.069   4.080   5.089
 7501SOL    HW223403   5.070   4.071   4.926
 7502SOL     OW23404   3.074   1.188   4.184
 7502SOL    HW123405   3.054   1.095   4.154
 7502SOL    HW223406   3.172   1.198   4.201
 7503SOL     OW23407   2.053   6.756   1.219
 7503SOL    HW123408   2.062   6.657   1.230
 7503SOL    HW223409   2.128   6.790   1.162
 7504SOL     OW23410   0.570   6.176   3.562
 7504SOL    HW123411   0.548   6.178   3.659
 7504SOL    HW223412   0.635   6.248   3.540
 7505SOL     OW23413   1.669   3.071   5.900
 7505SOL    HW123414   1.730   3.017   5.842
 7505SOL    HW223415   1.672   3.167   5.871
 7506SOL     OW23416   5.564   1.759   3.521
 7506SOL    HW123417   5.475   1.796   3.494
 7506SOL    HW223418   5.622   1.751   3.440
 7507SOL     OW23419   6.933   1.580   2.110
 7507SOL    HW123420   6.899   1.488   2.125
 7507SOL    HW223421   6.856   1.644   2.104
 7508SOL     OW23422   1.493   6.087   1.386
 7508SOL    HW123423   1.496   6.184   1.411
 7508SOL    HW223424   1.569   6.039   1.429
 7509SOL     OW23425   5.990   3.847   0.477
 7509SOL    HW123426   5.936   3.813   0.401
 7509SOL    HW223427   6.021   3.940   0.457
 7510SOL     OW23428   2.824   3.624   5.247
 7510SOL    HW123429   2.922   3.602   5.251
 7510SOL    HW223430   2.772   3.552   5.291
 7511SOL     OW23431   2.818   6.158   3.616
 7511SOL    HW123432   2.894   6.197   3.667
 7511SOL    HW223433   2.844   6.069   3.579
 7512SOL     OW23434   2.855   0.757   6.355
 7512SOL    HW123435   2.831   0.801   6.441
 7512SOL    HW223436   2.884   0.663   6.373
 7513SOL     OW23437   1.527   1.060   1.514
 7513SOL    HW123438   1.595   1.117   1.468
 7513SOL    HW223439   1.435   1.090   1.489
 7514SOL     OW23440   2.150   5.084   2.752
 7514SOL    HW123441   2.112   5.159   2.806
 7514SOL    HW223442   2.184   5.119   2.665
 7515SOL     OW23443   6.829   5.379   4.594
 7515SOL    HW123444   6.890   5.457   4.603
 7515SOL    HW223445   6.800   5.369   4.499
 7516SOL     OW23446   6.696   5.501   6.049
 7516SOL    HW123447   6.719   5.481   6.144
 7516SOL    HW223448   6.738   5.432   5.990
 7517SOL     OW23449   6.923   1.557   0.446
 7517SOL    HW123450   6.992   1.605   0.500
 7517SOL    HW223451   6.835   1.604   0.453
 7518SOL     OW23452   4.851   3.859   4.394
 7518SOL    HW123453   4.938   3.853   4.345
 7518SOL    HW223454   4.859   3.812   4.482
 7519SOL     OW23455   0.186   6.542   4.608
 7519SOL    HW123456   0.239   6.599   4.546
 7519SOL    HW223457   0.088   6.561   4.596
 7520SOL     OW23458   2.233   0.234   2.694
 7520SOL    HW123459   2.329   0.212   2.710
 7520SOL    HW223460   2.203   0.192   2.609
 7521SOL     OW23461   4.689   2.695   5.202
 7521SOL    HW123462   4.640   2.698   5.115
 7521SOL    HW223463   4.758   2.623   5.199
 7522SOL     OW23464   1.512   1.173   6.245
 7522SOL    HW123465   1.469   1.154   6.334
 7522SOL    HW223466   1.504   1.270   6.225
 7523SOL     OW23467   5.092   0.253   6.446
 7523SOL    HW123468   5.025   0.209   6.506
 7523SOL    HW223469   5.145   0.319   6.499
 7524SOL     OW23470   1.143   2.742   5.318
 7524SOL    HW123471   1.154   2.655   5.270
 7524SOL    HW223472   1.049   2.774   5.308
 7525SOL     OW23473   3.483   0.714   6.939
 7525SOL    HW123474   3.394   0.731   6.898
 7525SOL    HW223475   3.545   0.789   6.916
 7526SOL     OW23476   2.947   3.170   1.266
 7526SOL    HW123477   2.924   3.091   1.323
 7526SOL    HW223478   3.039   3.202   1.290
 7527SOL     OW23479   3.180   6.484   3.903
 7527SOL    HW123480   3.214   6.418   3.969
 7527SOL    HW223481   3.253   6.510   3.840
 7528SOL     OW23482   6.241   2.291   0.117
 7528SOL    HW123483   6.287   2.361   0.171
 7528SOL    HW223484   6.143   2.293   0.136
 7529SOL     OW23485   5.496   1.539   4.380
 7529SOL    HW123486   5.565   1.476   4.345
 7529SOL    HW223487   5.523   1.571   4.470
 7530SOL     OW23488   6.946   2.738   2.362
 7530SOL    HW123489   6.945   2.838   2.363
 7530SOL    HW223490   7.010   2.705   2.431
 7531SOL     OW23491   5.588   2.928   4.490
 7531SOL    HW123492   5.541   2.982   4.560
 7531SOL    HW223493   5.683   2.914   4.518
 7532SOL     OW23494   4.260   6.229   0.363
 7532SOL    HW123495   4.160   6.232   0.368
 7532SOL    HW223496   4.293   6.146   0.408
 7533SOL     OW23497   3.437   1.705   1.642
 7533SOL    HW123498   3.493   1.645   1.699
 7533SOL    HW223499   3.384   1.767   1.700
 7534SOL     OW23500   4.823   6.018   5.226
 7534SOL    HW123501   4.876   6.009   5.141
 7534SOL    HW223502   4.788   5.928   5.253
 7535SOL     OW23503   2.196   6.996   4.636
 7535SOL    HW123504   2.243   0.040   4.588
 7535SOL    HW223505   2.222   6.998   4.733
 7536SOL     OW23506   5.568   4.230   4.247
 7536SOL    HW123507   5.597   4.157   4.185
 7536SOL    HW223508   5.530   4.190   4.331
 7537SOL     OW23509   1.928   4.927   2.310
 7537SOL    HW123510   1.847   4.908   2.255
 7537SOL    HW223511   1.911   5.007   2.368
 7538SOL     OW23512   1.948   2.411   1.604
 7538SOL    HW123513   2.014   2.336   1.601
 7538SOL    HW223514   1.956   2.458   1.692
 7539SOL     OW23515   1.690   3.445   4.509
 7539SOL    HW123516   1.659   3.538   4.531
 7539SOL    HW223517   1.615   3.396   4.465
 7540SOL     OW23518   4.351   0.673   5.001
 7540SOL    HW123519   4.394   0.600   5.053
 7540SOL    HW223520   4.416   0.749   4.989
 7541SOL     OW23521   0.573   4.009   5.115
 7541SOL    HW123522   0.600   3.919   5.081
 7541SOL    HW223523   0.478   4.028   5.090
 7542SOL     OW23524   0.907   5.551   6.812
 7542SOL    HW123525   0.996   5.567   6.769
 7542SOL    HW223526   0.918   5.491   6.891
 7543SOL     OW23527   4.052   0.935   5.250
 7543SOL    HW123528   4.025   0.927   5.346
 7543SOL    HW223529   3.973   0.912   5.192
 7544SOL     OW23530   6.313   2.277   3.810
 7544SOL    HW123531   6.261   2.357   3.781
 7544SOL    HW223532   6.251   2.200   3.823
 7545SOL     OW23533   0.856   6.095   6.934
 7545SOL    HW123534   0.907   6.172   6.895
 7545SOL    HW223535   0.893   6.010   6.898
 7546SOL     OW23536   4.280   1.762   1.303
 7546SOL    HW123537   4.207   1.828   1.321
 7546SOL    HW223538   4.338   1.754   1.383
 7547SOL     OW23539   5.584   1.469   0.592
 7547SOL    HW123540   5.562   1.491   0.497
 7547SOL    HW223541   5.501   1.477   0.648
 7548SOL     OW23542   4.256   2.234   6.739
 7548SOL    HW123543   4.203   2.309   6.778
 7548SOL    HW223544   4.221   2.213   6.648
 7549SOL     OW23545   3.522   3.371   0.007
 7549SOL    HW123546   3.536   3.330   6.947
 7549SOL    HW223547   3.432   3.413   0.011
 7550SOL     OW23548   1.841   4.651   4.104
 7550SOL    HW123549   1.845   4.751   4.100
 7550SOL    HW223550   1.920   4.612   4.058
 7551SOL     OW23551   6.363   3.010   5.447
 7551SOL    HW123552   6.346   2.933   5.385
 7551SOL    HW223553   6.406   3.084   5.398
 7552SOL     OW23554   1.541   6.204   3.710
 7552SOL    HW123555   1.610   6.213   3.638
 7552SOL    HW223556   1.506   6.295   3.734
 7553SOL     OW23557   4.118   0.068   5.656
 7553SOL    HW123558   4.022   0.095   5.646
 7553SOL    HW223559   4.132   0.028   5.746
 7554SOL     OW23560   5.303   0.987   6.752
 7554SOL    HW123561   5.216   0.985   6.801
 7554SOL    HW223562   5.377   0.999   6.818
 7555SOL     OW23563   3.337   5.475   6.445
 7555SOL    HW123564   3.382   5.563   6.461
 7555SOL    HW223565   3.370   5.408   6.512
 7556SOL     OW23566   2.452   2.922   6.831
 7556SOL    HW123567   2.425   2.852   6.897
 7556SOL    HW223568   2.537   2.894   6.785
 7557SOL     OW23569   5.322   0.855   6.256
 7557SOL    HW123570   5.324   0.821   6.350
 7557SOL    HW223571   5.283   0.947   6.254
 7558SOL     OW23572   1.944   2.727   4.488
 7558SOL    HW123573   2.008   2.684   4.552
 7558SOL    HW223574   1.875   2.660   4.461
 7559SOL     OW23575   4.136   2.964   6.587
 7559SOL    HW123576   4.083   2.982   6.669
 7559SOL    HW223577   4.078   2.923   6.517
 7560SOL     OW23578   4.740   6.905   0.534
 7560SOL    HW123579   4.695   6.863   0.455
 7560SOL    HW223580   4.683   6.980   0.569
 7561SOL     OW23581   6.927   3.316   6.196
 7561SOL    HW123582   6.916   3.240   6.261
 7561SOL    HW223583   6.949   3.279   6.106
 7562SOL     OW23584   0.392   5.830   5.494
 7562SOL    HW123585   0.338   5.785   5.423
 7562SOL    HW223586   0.488   5.802   5.486
 7563SOL     OW23587   3.087   7.013   1.555
 7563SOL    HW123588   3.007   6.963   1.523
 7563SOL    HW223589   3.068   0.025   1.644
 7564SOL     OW23590   4.224   0.930   3.676
 7564SOL    HW123591   4.141   0.983   3.658
 7564SOL    HW223592   4.286   0.983   3.734
 7565SOL     OW23593   6.135   3.526   6.664
 7565SOL    HW123594   6.049   3.568   6.694
 7565SOL    HW223595   6.116   3.459   6.591
 7566SOL     OW23596   5.843   5.568   2.684
 7566SOL    HW123597   5.845   5.626   2.765
 7566SOL    HW223598   5.770   5.597   2.623
 7567SOL     OW23599   1.935   1.224   5.586
 7567SOL    HW123600   1.890   1.306   5.551
 7567SOL    HW223601   1.886   1.191   5.667
 7568SOL     OW23602   5.565   4.796   2.982
 7568SOL    HW123603   5.573   4.797   3.082
 7568SOL    HW223604   5.532   4.885   2.950
 7569SOL     OW23605   3.272   4.421   6.151
 7569SOL    HW123606   3.324   4.431   6.066
 7569SOL    HW223607   3.223   4.506   6.170
 7570SOL     OW23608   5.713   4.095   4.574
 7570SOL    HW123609   5.689   4.000   4.556
 7570SOL    HW223610   5.714   4.146   4.488
 7571SOL     OW23611   4.583   4.388   3.497
 7571SOL    HW123612   4.623   4.328   3.428
 7571SOL    HW223613   4.616   4.361   3.588
 7572SOL     OW23614   4.849   0.485   2.438
 7572SOL    HW123615   4.814   0.547   2.509
 7572SOL    HW223616   4.775   0.463   2.375
 7573SOL     OW23617   0.379   6.816   4.843
 7573SOL    HW123618   0.362   6.838   4.747
 7573SOL    HW223619   0.292   6.792   4.887
 7574SOL     OW23620   5.121   0.747   5.564
 7574SOL    HW123621   5.071   0.705   5.640
 7574SOL    HW223622   5.064   0.816   5.520
 7575SOL     OW23623   5.429   0.410   6.782
 7575SOL    HW123624   5.498   0.395   6.853
 7575SOL    HW223625   5.378   0.325   6.766
 7576SOL     OW23626   5.185   3.060   0.460
 7576SOL    HW123627   5.174   3.072   0.362
 7576SOL    HW223628   5.153   2.970   0.487
 7577SOL     OW23629   0.433   6.665   0.134
 7577SOL    HW123630   0.456   6.630   0.043
 7577SOL    HW223631   0.465   6.600   0.204
 7578SOL     OW23632   3.212   5.210   2.348
 7578SOL    HW123633   3.243   5.116   2.361
 7578SOL    HW223634   3.282   5.262   2.301
 7579SOL     OW23635   0.095   1.015   1.888
 7579SOL    HW123636   0.182   1.027   1.936
 7579SOL    HW223637   0.026   1.076   1.929
 7580SOL     OW23638   0.489   4.082   4.054
 7580SOL    HW123639   0.577   4.107   4.095
 7580SOL    HW223640   0.505   4.029   3.971
 7581SOL     OW23641   0.509   2.034   1.500
 7581SOL    HW123642   0.431   1.971   1.494
 7581SOL    HW223643   0.528   2.071   1.409
 7582SOL     OW23644   3.816   1.720   3.350
 7582SOL    HW123645   3.897   1.672   3.315
 7582SOL    HW223646   3.845   1.797   3.407
 7583SOL     OW23647   5.147   2.599   2.207
 7583SOL    HW123648   5.234   2.598   2.256
 7583SOL    HW223649   5.163   2.622   2.111
 7584SOL     OW23650   2.568   0.790   3.277
 7584SOL    HW123651   2.572   0.890   3.283
 7584SOL    HW223652   2.487   0.763   3.225
 7585SOL     OW23653   1.796   2.853   6.265
 7585SOL    HW123654   1.771   2.949   6.259
 7585SOL    HW223655   1.747   2.801   6.194
 7586SOL     OW23656   2.456   6.564   3.713
 7586SOL    HW123657   2.370   6.614   3.725
 7586SOL    HW223658   2.463   6.493   3.783
 7587SOL     OW23659   2.052   1.365   6.635
 7587SOL    HW123660   2.004   1.436   6.583
 7587SOL    HW223661   2.138   1.343   6.589
 7588SOL     OW23662   1.996   2.549   3.538
 7588SOL    HW123663   1.942   2.465   3.544
 7588SOL    HW223664   2.078   2.540   3.594
 7589SOL     OW23665   0.245   0.420   2.535
 7589SOL    HW123666   0.318   0.374   2.485
 7589SOL    HW223667   0.167   0.435   2.474
 7590SOL     OW23668   4.292   1.694   6.622
 7590SOL    HW123669   4.289   1.720   6.526
 7590SOL    HW223670   4.364   1.745   6.669
 7591SOL     OW23671   5.485   4.506   0.519
 7591SOL    HW123672   5.553   4.566   0.563
 7591SOL    HW223673   5.526   4.464   0.438
 7592SOL     OW23674   6.311   5.746   4.740
 7592SOL    HW123675   6.273   5.780   4.654
 7592SOL    HW223676   6.300   5.815   4.811
 7593SOL     OW23677   6.523   3.359   0.043
 7593SOL    HW123678   6.521   3.272   0.092
 7593SOL    HW223679   6.442   3.365   7.014
 7594SOL     OW23680   1.371   4.656   2.028
 7594SOL    HW123681   1.361   4.699   2.118
 7594SOL    HW223682   1.288   4.672   1.974
 7595SOL     OW23683   5.886   3.211   6.000
 7595SOL    HW123684   5.935   3.244   6.081
 7595SOL    HW223685   5.871   3.112   6.008
 7596SOL     OW23686   3.626   6.517   4.354
 7596SOL    HW123687   3.699   6.519   4.286
 7596SOL    HW223688   3.616   6.425   4.390
 7597SOL     OW23689   1.704   6.562   3.222
 7597SOL    HW123690   1.726   6.465   3.237
 7597SOL    HW223691   1.781   6.607   3.177
 7598SOL     OW23692   0.061   0.821   3.209
 7598SOL    HW123693   0.065   0.772   3.122
 7598SOL    HW223694   0.141   0.798   3.265
 7599SOL     OW23695   5.629   2.319   2.300
 7599SOL    HW123696   5.558   2.343   2.234
 7599SOL    HW223697   5.678   2.401   2.328
 7600SOL     OW23698   0.797   1.581   3.675
 7600SOL    HW123699   0.719   1.643   3.662
 7600SOL    HW223700   0.877   1.634   3.702
 7601SOL     OW23701   2.921   5.045   2.163
 7601SOL    HW123702   2.959   4.966   2.210
 7601SOL    HW223703   2.822   5.034   2.152
 7602SOL     OW23704   1.631   3.602   0.004
 7602SOL    HW123705   1.555   3.629   0.063
 7602SOL    HW223706   1.717   3.627   0.047
 7603SOL     OW23707   1.987   5.984   6.517
 7603SOL    HW123708   1.975   6.062   6.578
 7603SOL    HW223709   1.903   5.929   6.516
 7604SOL     OW23710   1.428   2.975   4.159
 7604SOL    HW123711   1.402   3.025   4.077
 7604SOL    HW223712   1.450   2.880   4.136
 7605SOL     OW23713   1.384   0.293   0.810
 7605SOL    HW123714   1.437   0.287   0.725
 7605SOL    HW223715   1.410   0.219   0.871
 7606SOL     OW23716   5.837   3.101   4.282
 7606SOL    HW123717   5.835   3.012   4.327
 7606SOL    HW223718   5.745   3.123   4.247
 7607SOL     OW23719   3.689   4.847   0.605
 7607SOL    HW123720   3.657   4.784   0.534
 7607SOL    HW223721   3.612   4.900   0.640
 7608SOL     OW23722   4.173   3.457   0.671
 7608SOL    HW123723   4.204   3.396   0.598
 7608SOL    HW223724   4.249   3.479   0.731
 7609SOL     OW23725   1.773   3.310   4.087
 7609SOL    HW123726   1.817   3.350   4.006
 7609SOL    HW223727   1.826   3.231   4.117
 7610SOL     OW23728   4.353   4.842   6.226
 7610SOL    HW123729   4.355   4.793   6.138
 7610SOL    HW223730   4.264   4.827   6.269
 7611SOL     OW23731   5.487   3.954   1.497
 7611SOL    HW123732   5.488   4.053   1.488
 7611SOL    HW223733   5.566   3.915   1.449
 7612SOL     OW23734   4.992   3.134   2.439
 7612SOL    HW123735   4.957   3.183   2.360
 7612SOL    HW223736   5.045   3.055   2.409
 7613SOL     OW23737   0.682   1.773   0.770
 7613SOL    HW123738   0.631   1.688   0.755
 7613SOL    HW223739   0.629   1.833   0.829
 7614SOL     OW23740   5.737   2.887   1.226
 7614SOL    HW123741   5.653   2.838   1.249
 7614SOL    HW223742   5.752   2.883   1.127
 7615SOL     OW23743   3.883   4.690   6.597
 7615SOL    HW123744   3.971   4.674   6.642
 7615SOL    HW223745   3.857   4.785   6.609
 7616SOL     OW23746   6.639   6.218   4.788
 7616SOL    HW123747   6.609   6.125   4.771
 7616SOL    HW223748   6.730   6.216   4.830
 7617SOL     OW23749   3.404   6.174   3.619
 7617SOL    HW123750   3.496   6.177   3.581
 7617SOL    HW223751   3.404   6.214   3.710
 7618SOL     OW23752   0.376   2.701   6.080
 7618SOL    HW123753   0.325   2.683   6.164
 7618SOL    HW223754   0.474   2.686   6.097
 7619SOL     OW23755   6.800   3.067   4.685
 7619SOL    HW123756   6.708   3.107   4.691
 7619SOL    HW223757   6.810   2.995   4.754
 7620SOL     OW23758   3.859   5.768   1.589
 7620SOL    HW123759   3.905   5.857   1.581
 7620SOL    HW223760   3.838   5.733   1.498
 7621SOL     OW23761   6.602   1.095   0.926
 7621SOL    HW123762   6.619   1.099   0.828
 7621SOL    HW223763   6.590   1.000   0.954
 7622SOL     OW23764   4.544   4.434   5.839
 7622SOL    HW123765   4.486   4.456   5.760
 7622SOL    HW223766   4.491   4.444   5.923
 7623SOL     OW23767   4.784   4.535   6.776
 7623SOL    HW123768   4.685   4.525   6.786
 7623SOL    HW223769   4.824   4.565   6.863
 7624SOL     OW23770   6.500   3.898   4.790
 7624SOL    HW123771   6.584   3.902   4.735
 7624SOL    HW223772   6.459   3.807   4.782
 7625SOL     OW23773   5.313   1.308   0.288
 7625SOL    HW123774   5.349   1.388   0.336
 7625SOL    HW223775   5.362   1.226   0.318
 7626SOL     OW23776   6.378   0.657   5.422
 7626SOL    HW123777   6.437   0.577   5.410
 7626SOL    HW223778   6.434   0.736   5.447
 7627SOL     OW23779   3.529   2.811   0.670
 7627SOL    HW123780   3.494   2.795   0.577
 7627SOL    HW223781   3.628   2.802   0.670
 7628SOL     OW23782   3.332   2.879   2.247
 7628SOL    HW123783   3.303   2.875   2.151
 7628SOL    HW223784   3.421   2.834   2.257
 7629SOL     OW23785   0.153   4.570   3.451
 7629SOL    HW123786   0.207   4.489   3.474
 7629SOL    HW223787   0.062   4.542   3.420
 7630SOL     OW23788   0.655   0.957   0.468
 7630SOL    HW123789   0.558   0.956   0.493
 7630SOL    HW223790   0.709   0.985   0.547
 7631SOL     OW23791   1.263   2.306   5.586
 7631SOL    HW123792   1.176   2.265   5.615
 7631SOL    HW223793   1.338   2.265   5.638
 7632SOL     OW23794   5.119   4.239   0.704
 7632SOL    HW123795   5.195   4.222   0.767
 7632SOL    HW223796   5.042   4.181   0.728
 7633SOL     OW23797   5.368   0.686   1.713
 7633SOL    HW123798   5.386   0.771   1.664
 7633SOL    HW223799   5.327   0.706   1.802
 7634SOL     OW23800   2.412   1.123   1.860
 7634SOL    HW123801   2.506   1.155   1.855
 7634SOL    HW223802   2.411   1.024   1.878
 7635SOL     OW23803   3.449   4.833   5.211
 7635SOL    HW123804   3.363   4.870   5.244
 7635SOL    HW223805   3.469   4.747   5.257
 7636SOL     OW23806   1.076   3.332   4.203
 7636SOL    HW123807   1.069   3.407   4.137
 7636SOL    HW223808   1.037   3.249   4.163
 7637SOL     OW23809   2.628   6.168   2.342
 7637SOL    HW123810   2.530   6.159   2.325
 7637SOL    HW223811   2.674   6.082   2.322
 7638SOL     OW23812   1.991   5.248   2.101
 7638SOL    HW123813   2.020   5.170   2.046
 7638SOL    HW223814   2.027   5.238   2.194
 7639SOL     OW23815   0.131   1.376   0.691
 7639SOL    HW123816   0.200   1.387   0.620
 7639SOL    HW223817   0.118   1.279   0.712
 7640SOL     OW23818   2.785   1.504   5.952
 7640SOL    HW123819   2.877   1.489   5.916
 7640SOL    HW223820   2.740   1.416   5.969
 7641SOL     OW23821   0.915   3.525   2.572
 7641SOL    HW123822   0.923   3.601   2.637
 7641SOL    HW223823   0.859   3.552   2.495
 7642SOL     OW23824   3.789   1.673   2.519
 7642SOL    HW123825   3.719   1.715   2.462
 7642SOL    HW223826   3.820   1.738   2.588
 7643SOL     OW23827   5.256   1.888   3.155
 7643SOL    HW123828   5.327   1.947   3.192
 7643SOL    HW223829   5.275   1.793   3.181
 7644SOL     OW23830   4.797   2.910   2.256
 7644SOL    HW123831   4.812   2.982   2.188
 7644SOL    HW223832   4.705   2.919   2.294
 7645SOL     OW23833   4.980   3.849   5.475
 7645SOL    HW123834   5.013   3.842   5.569
 7645SOL    HW223835   4.906   3.784   5.461
 7646SOL     OW23836   1.180   3.043   4.298
 7646SOL    HW123837   1.266   3.066   4.253
 7646SOL    HW223838   1.118   3.000   4.231
 7647SOL     OW23839   0.150   2.226   3.771
 7647SOL    HW123840   0.179   2.217   3.866
 7647SOL    HW223841   0.230   2.242   3.713
 7648SOL     OW23842   2.665   1.830   2.272
 7648SOL    HW123843   2.687   1.909   2.329
 7648SOL    HW223844   2.684   1.746   2.323
 7649SOL     OW23845   1.706   0.229   3.731
 7649SOL    HW123846   1.678   0.136   3.708
 7649SOL    HW223847   1.632   0.292   3.710
 7650SOL     OW23848   5.511   0.472   0.569
 7650SOL    HW123849   5.595   0.462   0.622
 7650SOL    HW223850   5.449   0.534   0.616
 7651SOL     OW23851   2.212   0.177   4.327
 7651SOL    HW123852   2.222   0.275   4.314
 7651SOL    HW223853   2.276   0.146   4.398
 7652SOL     OW23854   5.421   2.199   4.475
 7652SOL    HW123855   5.361   2.130   4.518
 7652SOL    HW223856   5.454   2.164   4.388
 7653SOL     OW23857   0.811   1.708   0.123
 7653SOL    HW123858   0.859   1.624   0.150
 7653SOL    HW223859   0.810   1.772   0.199
 7654SOL     OW23860   4.974   3.349   4.212
 7654SOL    HW123861   4.939   3.288   4.284
 7654SOL    HW223862   5.051   3.305   4.165
 7655SOL     OW23863   4.112   6.372   3.874
 7655SOL    HW123864   4.092   6.391   3.970
 7655SOL    HW223865   4.207   6.397   3.854
 7656SOL     OW23866   4.172   4.109   6.956
 7656SOL    HW123867   4.091   4.049   6.952
 7656SOL    HW223868   4.159   4.186   6.894
 7657SOL     OW23869   1.566   2.224   3.121
 7657SOL    HW123870   1.565   2.125   3.109
 7657SOL    HW223871   1.472   2.259   3.116
 7658SOL     OW23872   2.676   0.235   0.346
 7658SOL    HW123873   2.725   0.323   0.356
 7658SOL    HW223874   2.639   0.208   0.435
 7659SOL     OW23875   5.148   4.685   6.856
 7659SOL    HW123876   5.204   4.610   6.893
 7659SOL    HW223877   5.136   4.671   6.758
 7660SOL     OW23878   6.632   6.000   4.004
 7660SOL    HW123879   6.729   6.026   4.000
 7660SOL    HW223880   6.624   5.908   4.040
 7661SOL     OW23881   5.504   2.460   5.414
 7661SOL    HW123882   5.460   2.406   5.341
 7661SOL    HW223883   5.565   2.401   5.467
 7662SOL     OW23884   1.075   2.744   4.338
 7662SOL    HW123885   1.010   2.754   4.263
 7662SOL    HW223886   1.153   2.805   4.322
 7663SOL     OW23887   5.985   4.992   6.448
 7663SOL    HW123888   5.902   4.991   6.503
 7663SOL    HW223889   5.995   5.082   6.405
 7664SOL     OW23890   4.121   0.974   2.266
 7664SOL    HW123891   4.201   1.008   2.216
 7664SOL    HW223892   4.144   0.964   2.363
 7665SOL     OW23893   6.148   0.850   4.987
 7665SOL    HW123894   6.054   0.866   5.016
 7665SOL    HW223895   6.190   0.783   5.048
 7666SOL     OW23896   0.535   4.350   2.992
 7666SOL    HW123897   0.452   4.298   2.970
 7666SOL    HW223898   0.600   4.343   2.917
 7667SOL     OW23899   4.286   0.495   2.409
 7667SOL    HW123900   4.195   0.489   2.368
 7667SOL    HW223901   4.286   0.567   2.479
 7668SOL     OW23902   2.703   5.161   0.793
 7668SOL    HW123903   2.693   5.243   0.738
 7668SOL    HW223904   2.746   5.184   0.880
 7669SOL     OW23905   4.931   1.333   5.530
 7669SOL    HW123906   5.019   1.311   5.489
 7669SOL    HW223907   4.887   1.406   5.478
 7670SOL     OW23908   0.798   5.321   0.852
 7670SOL    HW123909   0.704   5.287   0.848
 7670SOL    HW223910   0.835   5.328   0.760
 7671SOL     OW23911   3.660   0.769   2.553
 7671SOL    HW123912   3.747   0.817   2.568
 7671SOL    HW223913   3.585   0.822   2.594
 7672SOL     OW23914   0.490   5.694   2.812
 7672SOL    HW123915   0.506   5.757   2.889
 7672SOL    HW223916   0.577   5.666   2.773
 7673SOL     OW23917   1.905   5.649   1.958
 7673SOL    HW123918   1.872   5.568   2.007
 7673SOL    HW223919   1.857   5.730   1.992
 7674SOL     OW23920   4.791   1.081   4.066
 7674SOL    HW123921   4.862   1.030   4.115
 7674SOL    HW223922   4.702   1.038   4.082
 7675SOL     OW23923   5.811   6.303   3.278
 7675SOL    HW123924   5.899   6.294   3.232
 7675SOL    HW223925   5.789   6.400   3.288
 7676SOL     OW23926   3.052   2.254   0.115
 7676SOL    HW123927   3.132   2.260   0.056
 7676SOL    HW223928   2.978   2.208   0.067
 7677SOL     OW23929   0.264   4.065   1.952
 7677SOL    HW123930   0.225   4.083   1.861
 7677SOL    HW223931   0.242   3.971   1.979
 7678SOL     OW23932   2.456   2.740   5.156
 7678SOL    HW123933   2.507   2.825   5.162
 7678SOL    HW223934   2.391   2.744   5.080
 7679SOL     OW23935   2.648   6.207   5.664
 7679SOL    HW123936   2.661   6.305   5.678
 7679SOL    HW223937   2.678   6.158   5.745
 7680SOL     OW23938   1.789   0.698   1.010
 7680SOL    HW123939   1.829   0.731   0.924
 7680SOL    HW223940   1.826   0.608   1.032
 7681SOL     OW23941   2.714   0.791   1.156
 7681SOL    HW123942   2.707   0.837   1.068
 7681SOL    HW223943   2.779   0.839   1.215
 7682SOL     OW23944   4.474   0.017   2.230
 7682SOL    HW123945   4.415   6.970   2.208
 7682SOL    HW223946   4.420   0.091   2.271
 7683SOL     OW23947   0.096   1.468   5.172
 7683SOL    HW123948   0.015   1.497   5.121
 7683SOL    HW223949   0.127   1.543   5.230
 7684SOL     OW23950   4.301   1.448   0.926
 7684SOL    HW123951   4.353   1.490   0.852
 7684SOL    HW223952   4.360   1.433   1.005
 7685SOL     OW23953   2.462   1.713   5.755
 7685SOL    HW123954   2.456   1.696   5.656
 7685SOL    HW223955   2.430   1.632   5.804
 7686SOL     OW23956   6.435   6.541   3.537
 7686SOL    HW123957   6.355   6.592   3.506
 7686SOL    HW223958   6.503   6.538   3.463
 7687SOL     OW23959   5.847   5.681   4.694
 7687SOL    HW123960   5.939   5.644   4.703
 7687SOL    HW223961   5.781   5.606   4.690
 7688SOL     OW23962   0.127   6.119   5.568
 7688SOL    HW123963   0.226   6.133   5.567
 7688SOL    HW223964   0.107   6.021   5.560
 7689SOL     OW23965   5.647   6.211   2.856
 7689SOL    HW123966   5.578   6.275   2.890
 7689SOL    HW223967   5.734   6.229   2.901
 7690SOL     OW23968   5.598   5.563   0.202
 7690SOL    HW123969   5.614   5.502   0.280
 7690SOL    HW223970   5.578   5.508   0.120
 7691SOL     OW23971   5.559   4.110   2.649
 7691SOL    HW123972   5.548   4.044   2.575
 7691SOL    HW223973   5.484   4.098   2.715
 7692SOL     OW23974   0.687   6.131   2.014
 7692SOL    HW123975   0.649   6.185   2.089
 7692SOL    HW223976   0.669   6.177   1.927
 7693SOL     OW23977   3.198   0.728   1.535
 7693SOL    HW123978   3.173   0.718   1.439
 7693SOL    HW223979   3.191   0.639   1.581
 7694SOL     OW23980   5.591   3.271   3.508
 7694SOL    HW123981   5.492   3.283   3.511
 7694SOL    HW223982   5.631   3.342   3.450
 7695SOL     OW23983   5.086   0.426   1.535
 7695SOL    HW123984   5.064   0.370   1.615
 7695SOL    HW223985   5.185   0.441   1.531
 7696SOL     OW23986   0.080   1.586   6.137
 7696SOL    HW123987   0.001   1.638   6.105
 7696SOL    HW223988   0.067   1.564   6.234
 7697SOL     OW23989   2.524   0.065   3.448
 7697SOL    HW123990   2.547   0.082   3.544
 7697SOL    HW223991   2.606   0.037   3.398
 7698SOL     OW23992   5.690   1.126   4.194
 7698SOL    HW123993   5.773   1.073   4.213
 7698SOL    HW223994   5.631   1.073   4.133
 7699SOL     OW23995   2.597   5.512   6.122
 7699SOL    HW123996   2.654   5.465   6.190
 7699SOL    HW223997   2.526   5.450   6.089
 7700SOL     OW23998   4.187   5.635   3.564
 7700SOL    HW123999   4.091   5.611   3.547
 7700SOL    HW224000   4.230   5.663   3.478
 7701SOL     OW24001   6.980   2.849   6.734
 7701SOL    HW124002   0.017   2.814   6.800
 7701SOL    HW224003   6.930   2.926   6.775
 7702SOL     OW24004   4.701   5.816   5.401
 7702SOL    HW124005   4.776   5.801   5.465
 7702SOL    HW224006   4.629   5.869   5.446
 7703SOL     OW24007   5.996   5.931   6.251
 7703SOL    HW124008   6.004   5.942   6.152
 7703SOL    HW224009   5.945   6.009   6.289
 7704SOL     OW24010   5.543   0.603   3.629
 7704SOL    HW124011   5.515   0.667   3.700
 7704SOL    HW224012   5.598   0.651   3.561
 7705SOL     OW24013   2.223   6.049   0.919
 7705SOL    HW124014   2.319   6.023   0.907
 7705SOL    HW224015   2.209   6.082   1.012
 7706SOL     OW24016   3.669   3.393   3.826
 7706SOL    HW124017   3.581   3.382   3.873
 7706SOL    HW224018   3.662   3.353   3.734
 7707SOL     OW24019   0.061   4.278   6.244
 7707SOL    HW124020   6.992   4.292   6.254
 7707SOL    HW224021   0.090   4.201   6.300
 7708SOL     OW24022   1.245   6.360   5.005
 7708SOL    HW124023   1.186   6.405   4.939
 7708SOL    HW224024   1.200   6.356   5.094
 7709SOL     OW24025   6.715   4.704   1.685
 7709SOL    HW124026   6.685   4.612   1.662
 7709SOL    HW224027   6.811   4.715   1.661
 7710SOL     OW24028   2.227   2.306   0.189
 7710SOL    HW124029   2.297   2.354   0.242
 7710SOL    HW224030   2.158   2.371   0.158
 7711SOL     OW24031   5.768   5.751   6.116
 7711SOL    HW124032   5.808   5.775   6.205
 7711SOL    HW224033   5.729   5.833   6.074
 7712SOL     OW24034   6.092   5.231   0.452
 7712SOL    HW124035   6.149   5.303   0.413
 7712SOL    HW224036   6.021   5.272   0.509
 7713SOL     OW24037   1.361   3.903   0.601
 7713SOL    HW124038   1.454   3.903   0.564
 7713SOL    HW224039   1.364   3.885   0.700
 7714SOL     OW24040   0.017   4.987   5.477
 7714SOL    HW124041   0.116   4.975   5.469
 7714SOL    HW224042   7.000   4.925   5.414
 7715SOL     OW24043   2.970   2.298   6.603
 7715SOL    HW124044   3.040   2.231   6.577
 7715SOL    HW224045   2.965   2.369   6.533
 7716SOL     OW24046   6.434   4.278   0.309
 7716SOL    HW124047   6.387   4.239   0.230
 7716SOL    HW224048   6.435   4.377   0.302
 7717SOL     OW24049   1.103   1.129   5.573
 7717SOL    HW124050   1.107   1.094   5.666
 7717SOL    HW224051   1.193   1.163   5.546
 7718SOL     OW24052   6.734   3.721   3.149
 7718SOL    HW124053   6.814   3.661   3.154
 7718SOL    HW224054   6.660   3.674   3.102
 7719SOL     OW24055   0.299   4.049   5.061
 7719SOL    HW124056   0.303   4.044   4.961
 7719SOL    HW224057   0.259   4.137   5.088
 7720SOL     OW24058   6.426   2.693   6.620
 7720SOL    HW124059   6.416   2.770   6.558
 7720SOL    HW224060   6.465   2.615   6.570
 7721SOL     OW24061   0.608   5.656   2.108
 7721SOL    HW124062   0.564   5.646   2.197
 7721SOL    HW224063   0.660   5.741   2.107
 7722SOL     OW24064   1.769   4.381   3.672
 7722SOL    HW124065   1.765   4.480   3.660
 7722SOL    HW224066   1.723   4.336   3.596
 7723SOL     OW24067   3.851   3.307   0.097
 7723SOL    HW124068   3.846   3.285   0.000
 7723SOL    HW224069   3.803   3.393   0.115
 7724SOL     OW24070   3.285   4.526   0.932
 7724SOL    HW124071   3.277   4.432   0.966
 7724SOL    HW224072   3.242   4.532   0.842
 7725SOL     OW24073   6.469   1.827   2.991
 7725SOL    HW124074   6.535   1.770   2.941
 7725SOL    HW224075   6.508   1.919   3.004
 7726SOL     OW24076   1.612   4.555   6.380
 7726SOL    HW124077   1.590   4.488   6.309
 7726SOL    HW224078   1.703   4.593   6.363
 7727SOL     OW24079   6.749   2.301   2.371
 7727SOL    HW124080   6.663   2.347   2.391
 7727SOL    HW224081   6.820   2.336   2.432
 7728SOL     OW24082   2.117   3.004   5.156
 7728SOL    HW124083   2.135   3.030   5.251
 7728SOL    HW224084   2.203   3.009   5.105
 7729SOL     OW24085   6.152   1.004   1.866
 7729SOL    HW124086   6.136   0.918   1.818
 7729SOL    HW224087   6.115   1.080   1.813
 7730SOL     OW24088   6.939   4.964   6.330
 7730SOL    HW124089   6.890   5.024   6.267
 7730SOL    HW224090   6.883   4.947   6.411
 7731SOL     OW24091   6.000   0.030   0.188
 7731SOL    HW124092   6.094   0.058   0.209
 7731SOL    HW224093   5.985   6.967   0.222
 7732SOL     OW24094   3.726   0.092   0.296
 7732SOL    HW124095   3.741   0.042   0.211
 7732SOL    HW224096   3.714   0.189   0.276
 7733SOL     OW24097   5.189   6.019   2.232
 7733SOL    HW124098   5.201   5.979   2.323
 7733SOL    HW224099   5.119   5.967   2.182
 7734SOL     OW24100   1.818   4.814   5.176
 7734SOL    HW124101   1.769   4.901   5.169
 7734SOL    HW224102   1.916   4.831   5.173
 7735SOL     OW24103   5.646   5.954   6.541
 7735SOL    HW124104   5.612   5.863   6.516
 7735SOL    HW224105   5.596   6.023   6.489
 7736SOL     OW24106   2.829   2.717   6.417
 7736SOL    HW124107   2.827   2.798   6.358
 7736SOL    HW224108   2.892   2.733   6.493
 7737SOL     OW24109   3.691   0.287   2.673
 7737SOL    HW124110   3.658   0.379   2.651
 7737SOL    HW224111   3.790   0.288   2.681
 7738SOL     OW24112   2.827   5.137   0.433
 7738SOL    HW124113   2.783   5.052   0.463
 7738SOL    HW224114   2.827   5.203   0.508
 7739SOL     OW24115   1.354   2.260   2.267
 7739SOL    HW124116   1.286   2.218   2.207
 7739SOL    HW224117   1.318   2.346   2.303
 7740SOL     OW24118   2.701   0.916   3.572
 7740SOL    HW124119   2.789   0.961   3.560
 7740SOL    HW224120   2.715   0.820   3.595
 7741SOL     OW24121   0.442   4.260   5.443
 7741SOL    HW124122   0.343   4.247   5.448
 7741SOL    HW224123   0.470   4.270   5.348
 7742SOL     OW24124   4.560   2.298   3.688
 7742SOL    HW124125   4.479   2.244   3.664
 7742SOL    HW224126   4.634   2.278   3.623
 7743SOL     OW24127   4.738   1.598   0.179
 7743SOL    HW124128   4.752   1.616   0.082
 7743SOL    HW224129   4.715   1.683   0.226
 7744SOL     OW24130   0.908   0.102   3.881
 7744SOL    HW124131   0.924   0.200   3.879
 7744SOL    HW224132   0.816   0.082   3.846
 7745SOL     OW24133   3.489   0.232   0.515
 7745SOL    HW124134   3.405   0.279   0.543
 7745SOL    HW224135   3.532   0.283   0.440
 7746SOL     OW24136   0.874   0.463   0.474
 7746SOL    HW124137   0.929   0.511   0.406
 7746SOL    HW224138   0.800   0.524   0.506
 7747SOL     OW24139   6.637   6.388   1.212
 7747SOL    HW124140   6.670   6.294   1.204
 7747SOL    HW224141   6.585   6.398   1.297
 7748SOL     OW24142   3.338   4.063   4.416
 7748SOL    HW124143   3.252   4.025   4.449
 7748SOL    HW224144   3.324   4.104   4.325
 7749SOL     OW24145   3.059   3.384   4.934
 7749SOL    HW124146   3.087   3.288   4.941
 7749SOL    HW224147   3.011   3.398   4.847
 7750SOL     OW24148   6.650   5.762   0.067
 7750SOL    HW124149   6.664   5.766   6.998
 7750SOL    HW224150   6.561   5.803   0.089
 7751SOL     OW24151   1.028   3.065   2.377
 7751SOL    HW124152   0.979   3.021   2.301
 7751SOL    HW224153   1.107   3.008   2.402
 7752SOL     OW24154   5.538   6.023   5.561
 7752SOL    HW124155   5.461   6.087   5.556
 7752SOL    HW224156   5.596   6.045   5.639
 7753SOL     OW24157   2.221   0.647   4.032
 7753SOL    HW124158   2.264   0.558   4.021
 7753SOL    HW224159   2.129   0.645   3.991
 7754SOL     OW24160   5.231   6.405   1.929
 7754SOL    HW124161   5.307   6.435   1.871
 7754SOL    HW224162   5.194   6.483   1.979
 7755SOL     OW24163   1.409   2.078   5.727
 7755SOL    HW124164   1.454   2.005   5.676
 7755SOL    HW224165   1.479   2.133   5.774
 7756SOL     OW24166   3.905   5.191   2.816
 7756SOL    HW124167   3.843   5.168   2.891
 7756SOL    HW224168   3.853   5.216   2.735
 7757SOL     OW24169   5.228   5.557   4.757
 7757SOL    HW124170   5.180   5.506   4.685
 7757SOL    HW224171   5.274   5.493   4.818
 7758SOL     OW24172   1.312   1.812   0.462
 7758SOL    HW124173   1.362   1.726   0.470
 7758SOL    HW224174   1.320   1.847   0.369
 7759SOL     OW24175   0.990   2.000   4.909
 7759SOL    HW124176   1.046   1.954   4.840
 7759SOL    HW224177   1.049   2.042   4.977
 7760SOL     OW24178   5.488   3.477   2.866
 7760SOL    HW124179   5.576   3.524   2.856
 7760SOL    HW224180   5.415   3.534   2.830
 7761SOL     OW24181   1.320   0.028   6.381
 7761SOL    HW124182   1.360   7.028   6.295
 7761SOL    HW224183   1.288   0.122   6.373
 7762SOL     OW24184   4.511   0.671   4.011
 7762SOL    HW124185   4.554   0.601   4.068
 7762SOL    HW224186   4.437   0.715   4.062
 7763SOL     OW24187   1.080   1.408   0.479
 7763SOL    HW124188   1.159   1.365   0.437
 7763SOL    HW224189   1.110   1.484   0.537
 7764SOL     OW24190   3.604   2.897   3.190
 7764SOL    HW124191   3.507   2.911   3.174
 7764SOL    HW224192   3.621   2.882   3.287
 7765SOL     OW24193   6.182   2.043   3.911
 7765SOL    HW124194   6.249   2.033   3.984
 7765SOL    HW224195   6.093   2.011   3.943
 7766SOL     OW24196   5.534   2.093   6.988
 7766SOL    HW124197   5.534   2.164   6.917
 7766SOL    HW224198   5.625   2.052   6.994
 7767SOL     OW24199   4.634   6.565   3.890
 7767SOL    HW124200   4.724   6.593   3.856
 7767SOL    HW224201   4.566   6.635   3.868
 7768SOL     OW24202   4.303   4.795   2.509
 7768SOL    HW124203   4.234   4.848   2.557
 7768SOL    HW224204   4.320   4.710   2.560
 7769SOL     OW24205   4.889   2.803   2.488
 7769SOL    HW124206   4.926   2.710   2.487
 7769SOL    HW224207   4.837   2.819   2.404
 7770SOL     OW24208   1.088   3.751   2.007
 7770SOL    HW124209   1.088   3.835   1.953
 7770SOL    HW224210   1.118   3.675   1.950
 7771SOL     OW24211   2.961   1.928   5.026
 7771SOL    HW124212   2.991   2.023   5.027
 7771SOL    HW224213   2.957   1.894   5.120
 7772SOL     OW24214   5.614   0.298   2.577
 7772SOL    HW124215   5.615   0.333   2.483
 7772SOL    HW224216   5.519   0.285   2.605
 7773SOL     OW24217   3.061   5.723   4.546
 7773SOL    HW124218   3.046   5.710   4.644
 7773SOL    HW224219   3.151   5.763   4.530
 7774SOL     OW24220   5.671   2.015   6.132
 7774SOL    HW124221   5.690   2.044   6.226
 7774SOL    HW224222   5.603   2.075   6.091
 7775SOL     OW24223   4.175   6.446   2.295
 7775SOL    HW124224   4.196   6.458   2.392
 7775SOL    HW224225   4.168   6.536   2.251
 7776SOL     OW24226   2.213   4.670   0.129
 7776SOL    HW124227   2.213   4.767   0.103
 7776SOL    HW224228   2.289   4.653   0.192
 7777SOL     OW24229   0.700   0.694   5.048
 7777SOL    HW124230   0.618   0.636   5.048
 7777SOL    HW224231   0.743   0.691   4.957
 7778SOL     OW24232   4.907   5.277   0.336
 7778SOL    HW124233   4.836   5.210   0.314
 7778SOL    HW224234   4.963   5.293   0.255
 7779SOL     OW24235   3.011   2.324   1.184
 7779SOL    HW124236   3.014   2.265   1.265
 7779SOL    HW224237   2.980   2.415   1.211
 7780SOL     OW24238   0.788   5.264   5.484
 7780SOL    HW124239   0.860   5.225   5.426
 7780SOL    HW224240   0.744   5.191   5.536
 7781SOL     OW24241   1.161   4.694   0.157
 7781SOL    HW124242   1.214   4.738   0.084
 7781SOL    HW224243   1.203   4.714   0.245
 7782SOL     OW24244   1.051   4.924   4.676
 7782SOL    HW124245   1.026   4.840   4.628
 7782SOL    HW224246   1.021   4.919   4.771
 7783SOL     OW24247   1.018   6.072   4.441
 7783SOL    HW124248   1.003   5.977   4.468
 7783SOL    HW224249   1.106   6.079   4.395
 7784SOL     OW24250   3.106   2.758   0.870
 7784SOL    HW124251   3.091   2.661   0.849
 7784SOL    HW224252   3.203   2.773   0.888
 7785SOL     OW24253   1.485   6.499   4.211
 7785SOL    HW124254   1.498   6.597   4.196
 7785SOL    HW224255   1.553   6.448   4.159
 7786SOL     OW24256   3.151   6.196   6.881
 7786SOL    HW124257   3.213   6.186   6.959
 7786SOL    HW224258   3.086   6.121   6.881
 7787SOL     OW24259   2.727   2.938   6.252
 7787SOL    HW124260   2.634   2.960   6.283
 7787SOL    HW224261   2.789   3.012   6.279
 7788SOL     OW24262   1.500   5.408   1.901
 7788SOL    HW124263   1.486   5.323   1.950
 7788SOL    HW224264   1.458   5.483   1.952
 7789SOL     OW24265   2.737   6.951   6.636
 7789SOL    HW124266   2.648   6.995   6.631
 7789SOL    HW224267   2.755   6.922   6.730
 7790SOL     OW24268   5.085   5.453   2.829
 7790SOL    HW124269   5.037   5.453   2.741
 7790SOL    HW224270   5.100   5.359   2.859
 7791SOL     OW24271   2.369   5.829   3.339
 7791SOL    HW124272   2.387   5.743   3.291
 7791SOL    HW224273   2.372   5.905   3.274
 7792SOL     OW24274   1.830   5.318   5.341
 7792SOL    HW124275   1.857   5.394   5.400
 7792SOL    HW224276   1.792   5.245   5.398
 7793SOL     OW24277   2.980   1.076   0.136
 7793SOL    HW124278   3.076   1.102   0.124
 7793SOL    HW224279   2.925   1.115   0.062
 7794SOL     OW24280   5.818   4.733   3.324
 7794SOL    HW124281   5.863   4.823   3.332
 7794SOL    HW224282   5.856   4.684   3.246
 7795SOL     OW24283   2.180   4.002   5.306
 7795SOL    HW124284   2.271   3.995   5.266
 7795SOL    HW224285   2.175   4.085   5.362
 7796SOL     OW24286   3.532   4.056   3.455
 7796SOL    HW124287   3.525   3.972   3.508
 7796SOL    HW224288   3.619   4.101   3.476
 7797SOL     OW24289   1.511   0.230   2.626
 7797SOL    HW124290   1.529   0.207   2.530
 7797SOL    HW224291   1.596   0.229   2.678
 7798SOL     OW24292   2.013   4.344   5.829
 7798SOL    HW124293   2.097   4.322   5.780
 7798SOL    HW224294   1.946   4.381   5.764
 7799SOL     OW24295   1.284   5.989   2.279
 7799SOL    HW124296   1.325   5.904   2.313
 7799SOL    HW224297   1.197   6.005   2.324
 7800SOL     OW24298   1.350   5.469   0.968
 7800SOL    HW124299   1.265   5.432   0.932
 7800SOL    HW224300   1.348   5.569   0.961
 7801SOL     OW24301   2.403   1.674   1.640
 7801SOL    HW124302   2.383   1.758   1.689
 7801SOL    HW224303   2.440   1.695   1.550
 7802SOL     OW24304   5.804   2.376   1.119
 7802SOL    HW124305   5.873   2.448   1.111
 7802SOL    HW224306   5.841   2.300   1.172
 7803SOL     OW24307   4.272   2.020   6.221
 7803SOL    HW124308   4.261   2.005   6.123
 7803SOL    HW224309   4.368   2.008   6.247
 7804SOL     OW24310   4.802   2.093   4.345
 7804SOL    HW124311   4.849   2.007   4.361
 7804SOL    HW224312   4.854   2.147   4.278
 7805SOL     OW24313   5.336   1.940   0.862
 7805SOL    HW124314   5.421   1.952   0.811
 7805SOL    HW224315   5.341   1.990   0.949
 7806SOL     OW24316   5.813   1.833   6.574
 7806SOL    HW124317   5.844   1.765   6.640
 7806SOL    HW224318   5.803   1.922   6.620
 7807SOL     OW24319   0.816   4.799   5.399
 7807SOL    HW124320   0.792   4.704   5.379
 7807SOL    HW224321   0.844   4.808   5.495
 7808SOL     OW24322   6.531   3.189   4.006
 7808SOL    HW124323   6.577   3.235   4.082
 7808SOL    HW224324   6.496   3.101   4.036
 7809SOL     OW24325   1.942   5.754   3.964
 7809SOL    HW124326   1.879   5.677   3.954
 7809SOL    HW224327   2.005   5.756   3.886
 7810SOL     OW24328   3.386   0.770   4.768
 7810SOL    HW124329   3.404   0.674   4.789
 7810SOL    HW224330   3.382   0.782   4.669
 7811SOL     OW24331   1.144   5.533   2.558
 7811SOL    HW124332   1.102   5.618   2.593
 7811SOL    HW224333   1.225   5.512   2.612
 7812SOL     OW24334   0.998   2.141   3.591
 7812SOL    HW124335   0.969   2.194   3.511
 7812SOL    HW224336   0.974   2.045   3.578
 7813SOL     OW24337   4.527   2.455   6.713
 7813SOL    HW124338   4.494   2.431   6.805
 7813SOL    HW224339   4.452   2.448   6.648
 7814SOL     OW24340   7.002   2.759   3.293
 7814SOL    HW124341   7.007   2.660   3.278
 7814SOL    HW224342   0.055   2.790   3.341
 7815SOL     OW24343   5.128   0.368   5.723
 7815SOL    HW124344   5.159   0.459   5.748
 7815SOL    HW224345   5.182   0.299   5.772
 7816SOL     OW24346   1.773   2.230   6.483
 7816SOL    HW124347   1.826   2.156   6.442
 7816SOL    HW224348   1.810   2.318   6.454
 7817SOL     OW24349   5.580   4.869   3.247
 7817SOL    HW124350   5.495   4.892   3.293
 7817SOL    HW224351   5.627   4.796   3.298
 7818SOL     OW24352   4.491   0.862   2.925
 7818SOL    HW124353   4.583   0.833   2.899
 7818SOL    HW224354   4.496   0.951   2.971
 7819SOL     OW24355   6.985   3.295   1.797
 7819SOL    HW124356   0.033   3.334   1.846
 7819SOL    HW224357   6.929   3.369   1.759
 7820SOL     OW24358   1.355   2.357   4.715
 7820SOL    HW124359   1.412   2.431   4.680
 7820SOL    HW224360   1.306   2.388   4.796
 7821SOL     OW24361   5.464   6.288   0.936
 7821SOL    HW124362   5.497   6.362   0.877
 7821SOL    HW224363   5.375   6.257   0.904
 7822SOL     OW24364   0.953   1.868   5.735
 7822SOL    HW124365   1.033   1.904   5.686
 7822SOL    HW224366   0.908   1.799   5.678
 7823SOL     OW24367   2.625   4.036   5.370
 7823SOL    HW124368   2.630   3.940   5.400
 7823SOL    HW224369   2.552   4.045   5.302
 7824SOL     OW24370   5.608   0.743   3.907
 7824SOL    HW124371   5.693   0.722   3.954
 7824SOL    HW224372   5.539   0.772   3.974
 7825SOL     OW24373   1.565   2.591   1.366
 7825SOL    HW124374   1.651   2.570   1.318
 7825SOL    HW224375   1.488   2.578   1.303
 7826SOL     OW24376   6.305   1.616   1.321
 7826SOL    HW124377   6.290   1.713   1.302
 7826SOL    HW224378   6.349   1.573   1.242
 7827SOL     OW24379   2.101   5.191   0.992
 7827SOL    HW124380   2.157   5.271   1.014
 7827SOL    HW224381   2.055   5.159   1.075
 7828SOL     OW24382   0.705   4.253   6.728
 7828SOL    HW124383   0.723   4.162   6.765
 7828SOL    HW224384   0.762   4.268   6.647
 7829SOL     OW24385   2.525   3.987   1.261
 7829SOL    HW124386   2.564   3.913   1.206
 7829SOL    HW224387   2.488   3.949   1.346
 7830SOL     OW24388   2.593   4.711   5.053
 7830SOL    HW124389   2.689   4.693   5.033
 7830SOL    HW224390   2.576   4.700   5.150
 7831SOL     OW24391   2.285   6.562   2.021
 7831SOL    HW124392   2.338   6.631   2.070
 7831SOL    HW224393   2.253   6.600   1.934
 7832SOL     OW24394   5.959   0.925   3.588
 7832SOL    HW124395   5.937   0.829   3.567
 7832SOL    HW224396   6.051   0.930   3.625
 7833SOL     OW24397   0.555   1.307   6.212
 7833SOL    HW124398   0.629   1.241   6.200
 7833SOL    HW224399   0.572   1.387   6.155
 7834SOL     OW24400   6.639   1.840   3.661
 7834SOL    HW124401   6.563   1.889   3.618
 7834SOL    HW224402   6.722   1.895   3.652
 7835SOL     OW24403   3.435   2.121   5.266
 7835SOL    HW124404   3.351   2.164   5.299
 7835SOL    HW224405   3.514   2.169   5.304
 7836SOL     OW24406   3.102   2.931   5.213
 7836SOL    HW124407   3.164   2.938   5.135
 7836SOL    HW224408   3.062   3.021   5.232
 7837SOL     OW24409   5.315   5.317   6.834
 7837SOL    HW124410   5.312   5.331   6.933
 7837SOL    HW224411   5.222   5.306   6.799
 7838SOL     OW24412   3.913   6.998   0.741
 7838SOL    HW124413   3.849   6.927   0.713
 7838SOL    HW224414   3.864   0.055   0.751
 7839SOL     OW24415   5.836   4.158   5.111
 7839SOL    HW124416   5.761   4.206   5.156
 7839SOL    HW224417   5.854   4.199   5.021
 7840SOL     OW24418   6.042   2.868   3.892
 7840SOL    HW124419   6.058   2.903   3.800
 7840SOL    HW224420   5.997   2.938   3.947
 7841SOL     OW24421   3.458   2.054   6.112
 7841SOL    HW124422   3.442   2.020   6.205
 7841SOL    HW224423   3.537   2.008   6.072
 7842SOL     OW24424   2.926   2.276   2.740
 7842SOL    HW124425   3.013   2.301   2.697
 7842SOL    HW224426   2.881   2.206   2.685
 7843SOL     OW24427   0.139   5.912   3.502
 7843SOL    HW124428   0.067   5.930   3.570
 7843SOL    HW224429   0.216   5.975   3.519
 7844SOL     OW24430   3.882   0.192   2.929
 7844SOL    HW124431   3.919   0.271   2.978
 7844SOL    HW224432   3.785   0.184   2.948
 7845SOL     OW24433   5.579   2.022   3.088
 7845SOL    HW124434   5.632   2.105   3.070
 7845SOL    HW224435   5.487   2.047   3.117
 7846SOL     OW24436   0.534   1.582   1.942
 7846SOL    HW124437   0.526   1.623   1.851
 7846SOL    HW224438   0.518   1.652   2.012
 7847SOL     OW24439   6.947   1.561   3.277
 7847SOL    HW124440   6.851   1.538   3.266
 7847SOL    HW224441   7.003   1.479   3.265
 7848SOL     OW24442   3.118   4.266   0.687
 7848SOL    HW124443   3.212   4.294   0.671
 7848SOL    HW224444   3.111   4.167   0.684
 7849SOL     OW24445   6.611   4.472   4.350
 7849SOL    HW124446   6.536   4.429   4.402
 7849SOL    HW224447   6.573   4.530   4.279
 7850SOL     OW24448   0.166   1.417   4.461
 7850SOL    HW124449   0.247   1.368   4.492
 7850SOL    HW224450   0.192   1.480   4.387
 7851SOL     OW24451   6.468   1.240   1.650
 7851SOL    HW124452   6.442   1.183   1.571
 7851SOL    HW224453   6.544   1.299   1.624
 7852SOL     OW24454   3.110   1.646   6.201
 7852SOL    HW124455   3.025   1.610   6.239
 7852SOL    HW224456   3.094   1.678   6.108
 7853SOL     OW24457   5.119   2.648   1.931
 7853SOL    HW124458   5.067   2.726   1.965
 7853SOL    HW224459   5.195   2.681   1.875
 7854SOL     OW24460   3.575   3.296   6.786
 7854SOL    HW124461   3.577   3.380   6.731
 7854SOL    HW224462   3.523   3.225   6.737
 7855SOL     OW24463   4.597   6.667   4.482
 7855SOL    HW124464   4.664   6.642   4.413
 7855SOL    HW224465   4.643   6.677   4.571
 7856SOL     OW24466   6.663   5.345   5.121
 7856SOL    HW124467   6.729   5.362   5.047
 7856SOL    HW224468   6.644   5.431   5.169
 7857SOL     OW24469   5.088   2.316   6.963
 7857SOL    HW124470   5.006   2.364   6.932
 7857SOL    HW224471   5.061   2.235   7.016
 7858SOL     OW24472   6.125   6.563   3.975
 7858SOL    HW124473   6.121   6.507   3.892
 7858SOL    HW224474   6.187   6.640   3.959
 7859SOL     OW24475   4.322   3.092   6.312
 7859SOL    HW124476   4.374   3.177   6.307
 7859SOL    HW224477   4.260   3.095   6.390
 7860SOL     OW24478   3.318   0.844   3.276
 7860SOL    HW124479   3.356   0.784   3.205
 7860SOL    HW224480   3.267   0.918   3.233
 7861SOL     OW24481   3.723   4.710   1.608
 7861SOL    HW124482   3.696   4.651   1.684
 7861SOL    HW224483   3.647   4.769   1.581
 7862SOL     OW24484   1.956   4.652   2.054
 7862SOL    HW124485   1.893   4.614   1.986
 7862SOL    HW224486   2.046   4.610   2.042
 7863SOL     OW24487   0.359   4.304   4.733
 7863SOL    HW124488   0.453   4.292   4.766
 7863SOL    HW224489   0.344   4.248   4.652
 7864SOL     OW24490   0.689   5.903   5.406
 7864SOL    HW124491   0.764   5.855   5.451
 7864SOL    HW224492   0.723   5.985   5.360
 7865SOL     OW24493   6.535   6.282   3.919
 7865SOL    HW124494   6.552   6.196   3.967
 7865SOL    HW224495   6.533   6.357   3.985
 7866SOL     OW24496   0.932   2.018   5.967
 7866SOL    HW124497   0.883   1.981   5.888
 7866SOL    HW224498   1.031   2.009   5.953
 7867SOL     OW24499   5.911   6.102   3.458
 7867SOL    HW124500   6.007   6.111   3.434
 7867SOL    HW224501   5.856   6.157   3.395
 7868SOL     OW24502   4.985   6.341   1.802
 7868SOL    HW124503   5.066   6.373   1.851
 7868SOL    HW224504   5.002   6.346   1.704
 7869SOL     OW24505   5.083   3.656   0.080
 7869SOL    HW124506   5.075   3.689   7.016
 7869SOL    HW224507   5.155   3.587   0.085
 7870SOL     OW24508   4.352   5.188   3.910
 7870SOL    HW124509   4.352   5.090   3.892
 7870SOL    HW224510   4.374   5.237   3.825
 7871SOL     OW24511   4.675   1.834   2.067
 7871SOL    HW124512   4.633   1.748   2.037
 7871SOL    HW224513   4.708   1.824   2.160
 7872SOL     OW24514   1.800   3.967   3.009
 7872SOL    HW124515   1.760   3.920   3.088
 7872SOL    HW224516   1.729   3.984   2.941
 7873SOL     OW24517   5.717   6.663   6.186
 7873SOL    HW124518   5.720   6.718   6.269
 7873SOL    HW224519   5.707   6.722   6.106
 7874SOL     OW24520   4.809   2.527   0.193
 7874SOL    HW124521   4.768   2.596   0.135
 7874SOL    HW224522   4.813   2.561   0.287
 7875SOL     OW24523   4.458   3.045   6.948
 7875SOL    HW124524   4.467   3.072   6.852
 7875SOL    HW224525   4.363   3.051   6.976
 7876SOL     OW24526   1.598   6.728   3.479
 7876SOL    HW124527   1.607   6.723   3.380
 7876SOL    HW224528   1.672   6.677   3.522
 7877SOL     OW24529   1.387   2.009   2.856
 7877SOL    HW124530   1.311   1.954   2.821
 7877SOL    HW224531   1.462   2.009   2.789
 7878SOL     OW24532   4.681   4.322   4.769
 7878SOL    HW124533   4.710   4.298   4.862
 7878SOL    HW224534   4.723   4.258   4.704
 7879SOL     OW24535   3.944   5.563   3.384
 7879SOL    HW124536   3.948   5.659   3.356
 7879SOL    HW224537   3.960   5.504   3.304
 7880SOL     OW24538   2.039   4.592   1.004
 7880SOL    HW124539   2.137   4.611   1.008
 7880SOL    HW224540   2.024   4.494   1.019
 7881SOL     OW24541   6.080   5.303   4.794
 7881SOL    HW124542   6.097   5.273   4.700
 7881SOL    HW224543   6.012   5.243   4.837
 7882SOL     OW24544   1.460   3.336   2.123
 7882SOL    HW124545   1.394   3.301   2.056
 7882SOL    HW224546   1.412   3.378   2.199
 7883SOL     OW24547   1.317   0.489   0.364
 7883SOL    HW124548   1.393   0.443   0.408
 7883SOL    HW224549   1.349   0.534   0.281
 7884SOL     OW24550   2.148   3.484   4.619
 7884SOL    HW124551   2.159   3.456   4.714
 7884SOL    HW224552   2.121   3.580   4.615
 7885SOL     OW24553   6.007   5.520   1.195
 7885SOL    HW124554   6.047   5.537   1.105
 7885SOL    HW224555   6.007   5.605   1.248
 7886SOL     OW24556   3.936   4.767   0.136
 7886SOL    HW124557   3.919   4.756   0.039
 7886SOL    HW224558   3.849   4.768   0.186
 7887SOL     OW24559   3.311   2.372   5.430
 7887SOL    HW124560   3.230   2.397   5.483
 7887SOL    HW224561   3.289   2.375   5.333
 7888SOL     OW24562   6.503   0.380   5.304
 7888SOL    HW124563   6.560   0.298   5.304
 7888SOL    HW224564   6.407   0.353   5.296
 7889SOL     OW24565   1.425   4.427   1.322
 7889SOL    HW124566   1.513   4.407   1.278
 7889SOL    HW224567   1.350   4.400   1.262
 7890SOL     OW24568   1.799   2.926   2.745
 7890SOL    HW124569   1.812   2.850   2.809
 7890SOL    HW224570   1.748   2.895   2.665
 7891SOL     OW24571   1.818   3.445   3.813
 7891SOL    HW124572   1.829   3.538   3.780
 7891SOL    HW224573   1.721   3.420   3.813
 7892SOL     OW24574   2.185   0.923   4.354
 7892SOL    HW124575   2.113   0.860   4.382
 7892SOL    HW224576   2.265   0.871   4.323
 7893SOL     OW24577   6.973   6.314   2.630
 7893SOL    HW124578   7.010   6.245   2.568
 7893SOL    HW224579   7.005   6.405   2.602
 7894SOL     OW24580   3.533   0.008   1.163
 7894SOL    HW124581   3.447   6.992   1.141
 7894SOL    HW224582   3.522   0.059   1.249
 7895SOL     OW24583   6.228   0.668   5.650
 7895SOL    HW124584   6.288   0.659   5.571
 7895SOL    HW224585   6.162   0.742   5.632
 7896SOL     OW24586   4.715   4.106   0.313
 7896SOL    HW124587   4.740   4.039   0.243
 7896SOL    HW224588   4.615   4.112   0.319
 7897SOL     OW24589   2.301   4.096   0.370
 7897SOL    HW124590   2.357   4.064   0.446
 7897SOL    HW224591   2.208   4.113   0.401
 7898SOL     OW24592   4.664   2.054   3.975
 7898SOL    HW124593   4.592   2.006   4.026
 7898SOL    HW224594   4.748   1.999   3.975
 7899SOL     OW24595   5.377   0.948   1.192
 7899SOL    HW124596   5.386   0.871   1.255
 7899SOL    HW224597   5.281   0.960   1.167
 7900SOL     OW24598   1.612   5.170   1.500
 7900SOL    HW124599   1.516   5.182   1.474
 7900SOL    HW224600   1.632   5.229   1.578
 7901SOL     OW24601   5.004   1.456   6.691
 7901SOL    HW124602   4.929   1.390   6.685
 7901SOL    HW224603   5.070   1.437   6.618
 7902SOL     OW24604   5.265   6.007   1.320
 7902SOL    HW124605   5.308   5.939   1.262
 7902SOL    HW224606   5.256   5.972   1.413
 7903SOL     OW24607   5.633   0.885   1.107
 7903SOL    HW124608   5.547   0.929   1.132
 7903SOL    HW224609   5.710   0.940   1.141
 7904SOL     OW24610   5.870   6.315   3.716
 7904SOL    HW124611   5.780   6.340   3.681
 7904SOL    HW224612   5.867   6.222   3.752
 7905SOL     OW24613   4.478   2.467   0.269
 7905SOL    HW124614   4.510   2.522   0.346
 7905SOL    HW224615   4.478   2.370   0.294
 7906SOL     OW24616   0.316   5.632   0.560
 7906SOL    HW124617   0.362   5.626   0.649
 7906SOL    HW224618   0.299   5.729   0.539
 7907SOL     OW24619   5.464   2.460   3.458
 7907SOL    HW124620   5.456   2.555   3.487
 7907SOL    HW224621   5.458   2.400   3.538
 7908SOL     OW24622   0.664   1.895   5.881
 7908SOL    HW124623   0.659   1.856   5.972
 7908SOL    HW224624   0.603   1.846   5.819
 7909SOL     OW24625   5.526   3.767   4.909
 7909SOL    HW124626   5.527   3.850   4.966
 7909SOL    HW224627   5.569   3.692   4.959
 7910SOL     OW24628   2.964   3.508   6.028
 7910SOL    HW124629   3.019   3.537   6.107
 7910SOL    HW224630   2.996   3.557   5.947
 7911SOL     OW24631   1.441   3.080   7.011
 7911SOL    HW124632   1.463   3.086   0.078
 7911SOL    HW224633   1.523   3.095   6.956
 7912SOL     OW24634   6.743   4.991   0.223
 7912SOL    HW124635   6.706   5.084   0.222
 7912SOL    HW224636   6.823   4.988   0.283
 7913SOL     OW24637   1.402   4.865   1.091
 7913SOL    HW124638   1.380   4.954   1.052
 7913SOL    HW224639   1.500   4.861   1.113
 7914SOL     OW24640   6.842   4.436   6.945
 7914SOL    HW124641   6.831   4.526   6.986
 7914SOL    HW224642   6.914   4.439   6.875
 7915SOL     OW24643   4.882   3.253   2.218
 7915SOL    HW124644   4.895   3.350   2.196
 7915SOL    HW224645   4.829   3.209   2.146
 7916SOL     OW24646   0.393   3.922   5.387
 7916SOL    HW124647   0.297   3.915   5.411
 7916SOL    HW224648   0.420   4.019   5.382
 7917SOL     OW24649   3.654   4.000   3.925
 7917SOL    HW124650   3.598   3.918   3.918
 7917SOL    HW224651   3.596   4.078   3.949
 7918SOL     OW24652   0.443   1.435   0.065
 7918SOL    HW124653   0.496   1.493   0.126
 7918SOL    HW224654   0.437   1.478   7.005
 7919SOL     OW24655   1.716   4.353   2.721
 7919SOL    HW124656   1.694   4.357   2.818
 7919SOL    HW224657   1.789   4.288   2.705
 7920SOL     OW24658   0.245   5.650   1.001
 7920SOL    HW124659   0.310   5.667   0.927
 7920SOL    HW224660   0.154   5.681   0.972
 7921SOL     OW24661   4.516   6.437   0.632
 7921SOL    HW124662   4.612   6.462   0.622
 7921SOL    HW224663   4.460   6.504   0.582
 7922SOL     OW24664   6.790   6.707   6.732
 7922SOL    HW124665   6.762   6.744   6.821
 7922SOL    HW224666   6.886   6.680   6.737
 7923SOL     OW24667   3.372   0.506   2.267
 7923SOL    HW124668   3.317   0.431   2.229
 7923SOL    HW224669   3.418   0.474   2.350
 7924SOL     OW24670   4.264   6.674   2.097
 7924SOL    HW124671   4.345   6.622   2.122
 7924SOL    HW224672   4.262   6.759   2.150
 7925SOL     OW24673   0.540   1.737   6.173
 7925SOL    HW124674   0.625   1.789   6.184
 7925SOL    HW224675   0.523   1.684   6.256
 7926SOL     OW24676   5.190   1.821   5.585
 7926SOL    HW124677   5.149   1.751   5.644
 7926SOL    HW224678   5.130   1.901   5.581
 7927SOL     OW24679   3.859   5.213   3.980
 7927SOL    HW124680   3.907   5.143   4.033
 7927SOL    HW224681   3.767   5.181   3.957
 7928SOL     OW24682   1.289   2.509   4.455
 7928SOL    HW124683   1.261   2.583   4.516
 7928SOL    HW224684   1.258   2.421   4.492
 7929SOL     OW24685   4.051   4.105   5.934
 7929SOL    HW124686   4.057   4.058   6.022
 7929SOL    HW224687   4.126   4.076   5.875
 7930SOL     OW24688   4.541   5.299   4.084
 7930SOL    HW124689   4.498   5.326   4.171
 7930SOL    HW224690   4.479   5.241   4.032
 7931SOL     OW24691   1.278   1.887   6.163
 7931SOL    HW124692   1.238   1.958   6.106
 7931SOL    HW224693   1.344   1.834   6.110
 7932SOL     OW24694   2.571   6.497   6.694
 7932SOL    HW124695   2.609   6.531   6.608
 7932SOL    HW224696   2.646   6.464   6.752
 7933SOL     OW24697   0.357   6.163   6.934
 7933SOL    HW124698   0.444   6.124   6.902
 7933SOL    HW224699   0.299   6.184   6.855
 7934SOL     OW24700   2.386   4.626   0.333
 7934SOL    HW124701   2.438   4.702   0.294
 7934SOL    HW224702   2.371   4.643   0.431
 7935SOL     OW24703   5.451   6.421   0.415
 7935SOL    HW124704   5.366   6.416   0.468
 7935SOL    HW224705   5.437   6.379   0.325
 7936SOL     OW24706   3.768   5.345   2.371
 7936SOL    HW124707   3.817   5.297   2.298
 7936SOL    HW224708   3.697   5.403   2.331
 7937SOL     OW24709   6.407   0.137   3.714
 7937SOL    HW124710   6.449   0.046   3.720
 7937SOL    HW224711   6.429   0.178   3.625
 7938SOL     OW24712   6.094   5.423   5.157
 7938SOL    HW124713   6.176   5.365   5.151
 7938SOL    HW224714   6.030   5.383   5.223
 7939SOL     OW24715   1.221   2.846   5.627
 7939SOL    HW124716   1.220   2.750   5.656
 7939SOL    HW224717   1.273   2.854   5.542
 7940SOL     OW24718   1.941   4.200   2.522
 7940SOL    HW124719   2.014   4.170   2.583
 7940SOL    HW224720   1.900   4.119   2.478
 7941SOL     OW24721   6.454   6.692   0.647
 7941SOL    HW124722   6.532   6.635   0.625
 7941SOL    HW224723   6.427   6.678   0.742
 7942SOL     OW24724   6.543   5.509   2.870
 7942SOL    HW124725   6.456   5.557   2.860
 7942SOL    HW224726   6.545   5.430   2.808
 7943SOL     OW24727   5.668   3.406   0.244
 7943SOL    HW124728   5.719   3.361   0.318
 7943SOL    HW224729   5.714   3.492   0.220
 7944SOL     OW24730   0.588   2.882   1.313
 7944SOL    HW124731   0.655   2.909   1.244
 7944SOL    HW224732   0.628   2.814   1.374
 7945SOL     OW24733   5.382   6.174   1.843
 7945SOL    HW124734   5.325   6.251   1.868
 7945SOL    HW224735   5.400   6.175   1.745
 7946SOL     OW24736   2.161   1.489   5.383
 7946SOL    HW124737   2.220   1.528   5.311
 7946SOL    HW224738   2.081   1.548   5.396
 7947SOL     OW24739   3.854   2.060   6.217
 7947SOL    HW124740   3.884   2.011   6.299
 7947SOL    HW224741   3.825   2.152   6.241
 7948SOL     OW24742   0.582   6.352   1.116
 7948SOL    HW124743   0.678   6.360   1.144
 7948SOL    HW224744   0.529   6.426   1.158
 7949SOL     OW24745   4.761   4.398   4.463
 7949SOL    HW124746   4.785   4.484   4.418
 7949SOL    HW224747   4.708   4.416   4.545
 7950SOL     OW24748   5.675   5.085   4.571
 7950SOL    HW124749   5.584   5.056   4.601
 7950SOL    HW224750   5.666   5.164   4.510
 7951SOL     OW24751   1.894   3.992   1.126
 7951SOL    HW124752   1.900   4.057   1.202
 7951SOL    HW224753   1.985   3.956   1.106
 7952SOL     OW24754   0.822   3.455   6.505
 7952SOL    HW124755   0.862   3.376   6.458
 7952SOL    HW224756   0.829   3.536   6.447
 7953SOL     OW24757   1.909   3.007   3.065
 7953SOL    HW124758   1.995   3.011   3.013
 7953SOL    HW224759   1.869   3.099   3.070
 7954SOL     OW24760   4.522   4.329   5.288
 7954SOL    HW124761   4.546   4.269   5.364
 7954SOL    HW224762   4.439   4.295   5.243
 7955SOL     OW24763   1.316   6.620   6.587
 7955SOL    HW124764   1.327   6.691   6.657
 7955SOL    HW224765   1.321   6.663   6.496
 7956SOL     OW24766   3.204   5.974   2.727
 7956SOL    HW124767   3.147   6.037   2.674
 7956SOL    HW224768   3.189   5.990   2.825
 7957SOL     OW24769   1.635   1.343   0.902
 7957SOL    HW124770   1.626   1.243   0.900
 7957SOL    HW224771   1.729   1.368   0.878
 7958SOL     OW24772   3.847   5.043   4.394
 7958SOL    HW124773   3.781   5.115   4.419
 7958SOL    HW224774   3.940   5.076   4.412
 7959SOL     OW24775   4.157   5.776   1.065
 7959SOL    HW124776   4.168   5.692   1.012
 7959SOL    HW224777   4.245   5.823   1.074
 7960SOL     OW24778   4.088   1.731   0.390
 7960SOL    HW124779   4.110   1.688   0.478
 7960SOL    HW224780   3.997   1.701   0.361
 7961SOL     OW24781   0.809   6.582   0.931
 7961SOL    HW124782   0.779   6.495   0.893
 7961SOL    HW224783   0.880   6.621   0.873
 7962SOL     OW24784   2.112   0.278   0.357
 7962SOL    HW124785   2.207   0.300   0.376
 7962SOL    HW224786   2.088   0.309   0.265
 7963SOL     OW24787   7.012   0.993   3.656
 7963SOL    HW124788   0.020   1.085   3.662
 7963SOL    HW224789   6.918   0.993   3.691
 7964SOL     OW24790   0.384   5.003   3.464
 7964SOL    HW124791   0.398   5.052   3.550
 7964SOL    HW224792   0.311   4.936   3.475
 7965SOL     OW24793   3.729   3.104   0.246
 7965SOL    HW124794   3.705   3.157   0.327
 7965SOL    HW224795   3.775   3.163   0.180
 7966SOL     OW24796   0.861   3.431   5.612
 7966SOL    HW124797   0.797   3.492   5.565
 7966SOL    HW224798   0.929   3.398   5.547
 7967SOL     OW24799   2.621   6.004   4.010
 7967SOL    HW124800   2.549   6.073   4.005
 7967SOL    HW224801   2.701   6.034   3.960
 7968SOL     OW24802   2.686   2.331   3.263
 7968SOL    HW124803   2.613   2.271   3.230
 7968SOL    HW224804   2.765   2.275   3.289
 7969SOL     OW24805   4.626   7.026   1.988
 7969SOL    HW124806   4.626   6.932   1.954
 7969SOL    HW224807   4.568   0.003   2.069
 7970SOL     OW24808   0.769   3.175   2.940
 7970SOL    HW124809   0.674   3.206   2.940
 7970SOL    HW224810   0.825   3.239   2.993
 7971SOL     OW24811   4.762   1.398   1.012
 7971SOL    HW124812   4.770   1.346   0.927
 7971SOL    HW224813   4.819   1.356   1.083
 7972SOL     OW24814   1.582   3.431   1.731
 7972SOL    HW124815   1.554   3.364   1.663
 7972SOL    HW224816   1.682   3.429   1.741
 7973SOL     OW24817   4.716   4.201   3.338
 7973SOL    HW124818   4.762   4.192   3.250
 7973SOL    HW224819   4.772   4.158   3.410
 7974SOL     OW24820   5.854   1.061   5.035
 7974SOL    HW124821   5.834   1.035   4.941
 7974SOL    HW224822   5.879   1.158   5.039
 7975SOL     OW24823   5.940   0.468   2.792
 7975SOL    HW124824   5.975   0.375   2.784
 7975SOL    HW224825   5.847   0.466   2.827
 7976SOL     OW24826   0.718   0.812   6.573
 7976SOL    HW124827   0.674   0.724   6.592
 7976SOL    HW224828   0.706   0.835   6.476
 7977SOL     OW24829   5.095   5.360   1.352
 7977SOL    HW124830   5.081   5.410   1.437
 7977SOL    HW224831   5.008   5.350   1.304
 7978SOL     OW24832   5.478   3.454   6.380
 7978SOL    HW124833   5.380   3.436   6.389
 7978SOL    HW224834   5.509   3.424   6.290
 7979SOL     OW24835   3.348   0.370   5.105
 7979SOL    HW124836   3.398   0.293   5.065
 7979SOL    HW224837   3.325   0.350   5.200
 7980SOL     OW24838   2.753   5.418   7.021
 7980SOL    HW124839   2.805   5.495   6.985
 7980SOL    HW224840   2.674   5.452   0.042
 7981SOL     OW24841   0.500   5.527   1.891
 7981SOL    HW124842   0.538   5.559   1.978
 7981SOL    HW224843   0.484   5.429   1.897
 7982SOL     OW24844   0.510   1.483   0.577
 7982SOL    HW124845   0.501   1.384   0.577
 7982SOL    HW224846   0.603   1.509   0.552
 7983SOL     OW24847   5.881   1.656   2.528
 7983SOL    HW124848   5.949   1.706   2.474
 7983SOL    HW224849   5.843   1.717   2.598
 7984SOL     OW24850   2.015   1.781   1.838
 7984SOL    HW124851   2.039   1.740   1.925
 7984SOL    HW224852   1.973   1.712   1.778
 7985SOL     OW24853   2.472   6.404   3.947
 7985SOL    HW124854   2.561   6.366   3.922
 7985SOL    HW224855   2.405   6.330   3.954
 7986SOL     OW24856   2.786   0.767   6.970
 7986SOL    HW124857   2.790   0.676   7.011
 7986SOL    HW224858   2.690   0.792   6.954
 7987SOL     OW24859   1.273   3.041   6.810
 7987SOL    HW124860   1.194   3.103   6.816
 7987SOL    HW224861   1.337   3.062   6.884
 7988SOL     OW24862   1.592   1.869   3.791
 7988SOL    HW124863   1.543   1.947   3.830
 7988SOL    HW224864   1.596   1.879   3.692
 7989SOL     OW24865   3.162   2.830   5.448
 7989SOL    HW124866   3.152   2.862   5.353
 7989SOL    HW224867   3.154   2.730   5.450
 7990SOL     OW24868   6.547   3.885   3.510
 7990SOL    HW124869   6.520   3.806   3.454
 7990SOL    HW224870   6.595   3.951   3.453
 7991SOL     OW24871   6.607   0.599   4.614
 7991SOL    HW124872   6.660   0.533   4.667
 7991SOL    HW224873   6.565   0.665   4.677
 7992SOL     OW24874   1.305   6.342   1.029
 7992SOL    HW124875   1.354   6.255   1.028
 7992SOL    HW224876   1.301   6.379   0.936
 7993SOL     OW24877   1.173   6.029   6.637
 7993SOL    HW124878   1.204   6.120   6.663
 7993SOL    HW224879   1.114   6.035   6.557
 7994SOL     OW24880   5.176   0.023   3.089
 7994SOL    HW124881   5.244   6.990   3.050
 7994SOL    HW224882   5.176   0.013   3.188
 7995SOL     OW24883   4.551   5.091   3.600
 7995SOL    HW124884   4.581   5.027   3.670
 7995SOL    HW224885   4.552   5.184   3.636
 7996SOL     OW24886   2.615   0.004   4.527
 7996SOL    HW124887   2.681   0.039   4.460
 7996SOL    HW224888   2.626   6.935   4.537
 7997SOL     OW24889   6.890   1.205   0.837
 7997SOL    HW124890   6.964   1.148   0.801
 7997SOL    HW224891   6.908   1.226   0.933
 7998SOL     OW24892   3.507   5.441   1.286
 7998SOL    HW124893   3.601   5.416   1.264
 7998SOL    HW224894   3.503   5.536   1.317
 7999SOL     OW24895   1.368   6.953   6.127
 7999SOL    HW124896   1.422   6.871   6.113
 7999SOL    HW224897   1.275   6.938   6.096
 8000SOL     OW24898   5.126   0.239   0.600
 8000SOL    HW124899   5.211   0.219   0.649
 8000SOL    HW224900   5.145   0.251   0.503
 8001SOL     OW24901   3.356   5.558   1.046
 8001SOL    HW124902   3.431   5.516   1.097
 8001SOL    HW224903   3.272   5.505   1.059
 8002SOL     OW24904   0.989   2.363   5.897
 8002SOL    HW124905   0.899   2.364   5.854
 8002SOL    HW224906   1.013   2.269   5.922
 8003SOL     OW24907   2.564   4.693   2.789
 8003SOL    HW124908   2.498   4.753   2.834
 8003SOL    HW224909   2.601   4.629   2.856
 8004SOL     OW24910   1.854   3.942   3.549
 8004SOL    HW124911   1.915   4.016   3.520
 8004SOL    HW224912   1.906   3.873   3.599
 8005SOL     OW24913   3.237   1.349   2.718
 8005SOL    HW124914   3.158   1.299   2.682
 8005SOL    HW224915   3.320   1.296   2.702
 8006SOL     OW24916   2.492   0.002   6.917
 8006SOL    HW124917   2.582   6.990   6.910
 8006SOL    HW224918   2.468   0.045   6.830
 8007SOL     OW24919   0.328   0.448   4.187
 8007SOL    HW124920   0.358   0.353   4.183
 8007SOL    HW224921   0.405   0.509   4.172
 8008SOL     OW24922   4.126   6.491   5.973
 8008SOL    HW124923   4.194   6.525   5.909
 8008SOL    HW224924   4.055   6.440   5.923
 8009SOL     OW24925   5.655   0.489   2.859
 8009SOL    HW124926   5.572   0.438   2.835
 8009SOL    HW224927   5.639   0.587   2.844
 8010SOL     OW24928   1.473   1.225   0.628
 8010SOL    HW124929   1.517   1.315   0.637
 8010SOL    HW224930   1.394   1.233   0.568
 8011SOL     OW24931   3.246   2.401   1.352
 8011SOL    HW124932   3.238   2.386   1.253
 8011SOL    HW224933   3.227   2.497   1.372
 8012SOL     OW24934   2.168   5.572   1.610
 8012SOL    HW124935   2.156   5.655   1.556
 8012SOL    HW224936   2.173   5.596   1.707
 8013SOL     OW24937   1.060   4.577   3.852
 8013SOL    HW124938   1.147   4.556   3.807
 8013SOL    HW224939   1.007   4.493   3.862
 8014SOL     OW24940   0.919   6.132   5.431
 8014SOL    HW124941   0.996   6.080   5.394
 8014SOL    HW224942   0.907   6.108   5.528
 8015SOL     OW24943   3.208   1.482   0.064
 8015SOL    HW124944   3.115   1.498   0.097
 8015SOL    HW224945   3.268   1.554   0.099
 8016SOL     OW24946   4.760   7.007   6.831
 8016SOL    HW124947   4.706   6.926   6.858
 8016SOL    HW224948   4.812   0.010   6.910
 8017SOL     OW24949   6.392   6.369   0.406
 8017SOL    HW124950   6.473   6.405   0.452
 8017SOL    HW224951   6.391   6.399   0.311
 8018SOL     OW24952   3.480   2.536   6.129
 8018SOL    HW124953   3.527   2.624   6.132
 8018SOL    HW224954   3.431   2.527   6.043
 8019SOL     OW24955   2.274   3.749   6.769
 8019SOL    HW124956   2.354   3.776   6.823
 8019SOL    HW224957   2.247   3.826   6.711
 8020SOL     OW24958   6.608   5.901   0.996
 8020SOL    HW124959   6.562   5.970   0.939
 8020SOL    HW224960   6.603   5.813   0.950
 8021SOL     OW24961   1.184   1.653   1.326
 8021SOL    HW124962   1.243   1.662   1.247
 8021SOL    HW224963   1.089   1.670   1.299
 8022SOL     OW24964   4.079   0.013   2.878
 8022SOL    HW124965   4.126   0.050   2.958
 8022SOL    HW224966   3.996   0.066   2.860
 8023SOL     OW24967   5.711   5.070   3.092
 8023SOL    HW124968   5.644   5.014   3.141
 8023SOL    HW224969   5.662   5.129   3.027
 8024SOL     OW24970   2.825   4.891   0.237
 8024SOL    HW124971   2.864   4.975   0.276
 8024SOL    HW224972   2.894   4.818   0.239
 8025SOL     OW24973   2.300   6.131   6.500
 8025SOL    HW124974   2.200   6.122   6.498
 8025SOL    HW224975   2.327   6.170   6.588
 8026SOL     OW24976   0.764   4.678   6.714
 8026SOL    HW124977   0.771   4.634   6.625
 8026SOL    HW224978   0.674   4.720   6.723
 8027SOL     OW24979   4.114   2.159   5.278
 8027SOL    HW124980   4.150   2.079   5.325
 8027SOL    HW224981   4.181   2.191   5.210
 8028SOL     OW24982   2.656   5.016   5.061
 8028SOL    HW124983   2.751   5.036   5.083
 8028SOL    HW224984   2.642   4.917   5.057
 8029SOL     OW24985   4.915   3.173   0.566
 8029SOL    HW124986   5.003   3.142   0.528
 8029SOL    HW224987   4.869   3.231   0.499
 8030SOL     OW24988   4.548   4.401   0.249
 8030SOL    HW124989   4.617   4.406   0.321
 8030SOL    HW224990   4.513   4.308   0.242
 8031SOL     OW24991   4.575   6.121   2.991
 8031SOL    HW124992   4.521   6.203   3.011
 8031SOL    HW224993   4.576   6.106   2.892
 8032SOL     OW24994   5.653   4.239   6.213
 8032SOL    HW124995   5.675   4.141   6.218
 8032SOL    HW224996   5.694   4.278   6.131
 8033SOL     OW24997   4.946   3.692   6.369
 8033SOL    HW124998   4.877   3.764   6.362
 8033SOL    HW224999   4.928   3.637   6.451
 8034SOL     OW25000   6.708   0.970   5.221
 8034SOL    HW125001   6.751   1.015   5.299
 8034SOL    HW225002   6.704   0.872   5.236
 8035SOL     OW25003   5.279   0.973   4.846
 8035SOL    HW125004   5.264   1.068   4.874
 8035SOL    HW225005   5.196   0.938   4.802
 8036SOL     OW25006   0.515   4.324   2.594
 8036SOL    HW125007   0.472   4.414   2.606
 8036SOL    HW225008   0.512   4.298   2.498
 8037SOL     OW25009   2.052   3.083   1.661
 8037SOL    HW125010   2.048   3.152   1.732
 8037SOL    HW225011   2.049   2.992   1.703
 8038SOL     OW25012   4.497   1.138   3.020
 8038SOL    HW125013   4.442   1.155   3.102
 8038SOL    HW225014   4.551   1.219   2.999
 8039SOL     OW25015   1.041   0.880   4.014
 8039SOL    HW125016   1.089   0.816   4.075
 8039SOL    HW225017   1.025   0.836   3.926
 8040SOL     OW25018   1.359   6.179   0.783
 8040SOL    HW125019   1.266   6.173   0.748
 8040SOL    HW225020   1.423   6.193   0.707
 8041SOL     OW25021   3.039   1.542   1.957
 8041SOL    HW125022   3.137   1.533   1.979
 8041SOL    HW225023   3.018   1.637   1.936
 8042SOL     OW25024   3.828   2.998   3.699
 8042SOL    HW125025   3.871   3.018   3.786
 8042SOL    HW225026   3.896   3.002   3.626
 8043SOL     OW25027   3.840   0.301   1.924
 8043SOL    HW125028   3.899   0.381   1.916
 8043SOL    HW225029   3.895   0.218   1.915
 8044SOL     OW25030   3.798   3.277   0.482
 8044SOL    HW125031   3.829   3.182   0.494
 8044SOL    HW225032   3.866   3.327   0.427
 8045SOL     OW25033   5.393   0.225   1.581
 8045SOL    HW125034   5.381   0.317   1.545
 8045SOL    HW225035   5.309   0.196   1.627
 8046SOL     OW25036   6.641   5.260   0.185
 8046SOL    HW125037   6.546   5.260   0.151
 8046SOL    HW225038   6.693   5.331   0.138
 8047SOL     OW25039   4.123   5.120   4.418
 8047SOL    HW125040   4.095   5.214   4.397
 8047SOL    HW225041   4.210   5.101   4.372
 8048SOL     OW25042   5.631   1.064   5.777
 8048SOL    HW125043   5.566   1.092   5.847
 8048SOL    HW225044   5.724   1.077   5.810
 8049SOL     OW25045   1.739   0.317   0.784
 8049SOL    HW125046   1.811   0.342   0.719
 8049SOL    HW225047   1.710   0.223   0.766
 8050SOL     OW25048   1.298   3.780   2.170
 8050SOL    HW125049   1.383   3.768   2.119
 8050SOL    HW225050   1.221   3.776   2.108
 8051SOL     OW25051   4.694   5.732   3.112
 8051SOL    HW125052   4.597   5.740   3.087
 8051SOL    HW225053   4.716   5.635   3.124
 8052SOL     OW25054   4.380   1.653   2.197
 8052SOL    HW125055   4.318   1.727   2.171
 8052SOL    HW225056   4.427   1.618   2.115
 8053SOL     OW25057   3.493   3.840   3.627
 8053SOL    HW125058   3.501   3.767   3.559
 8053SOL    HW225059   3.543   3.813   3.710
 8054SOL     OW25060   5.170   6.993   4.529
 8054SOL    HW125061   5.145   6.900   4.504
 8054SOL    HW225062   5.088   0.019   4.538
 8055SOL     OW25063   0.071   0.343   6.115
 8055SOL    HW125064   0.147   0.360   6.052
 8055SOL    HW225065   0.003   0.285   6.071
 8056SOL     OW25066   4.232   1.975   4.172
 8056SOL    HW125067   4.240   1.970   4.072
 8056SOL    HW225068   4.213   1.883   4.208
 8057SOL     OW25069   3.163   2.157   3.281
 8057SOL    HW125070   3.086   2.212   3.312
 8057SOL    HW225071   3.152   2.062   3.310
 8058SOL     OW25072   4.759   0.803   2.858
 8058SOL    HW125073   4.817   0.729   2.825
 8058SOL    HW225074   4.783   0.825   2.953
 8059SOL     OW25075   4.663   2.353   4.800
 8059SOL    HW125076   4.690   2.298   4.721
 8059SOL    HW225077   4.563   2.360   4.804
 8060SOL     OW25078   0.560   2.135   4.487
 8060SOL    HW125079   0.491   2.185   4.538
 8060SOL    HW225080   0.626   2.094   4.550
 8061SOL     OW25081   6.599   0.083   1.651
 8061SOL    HW125082   6.510   0.050   1.619
 8061SOL    HW225083   6.601   0.082   1.751
 8062SOL     OW25084   2.976   5.136   4.409
 8062SOL    HW125085   3.013   5.064   4.350
 8062SOL    HW225086   2.929   5.095   4.487
 8063SOL     OW25087   0.970   2.562   0.601
 8063SOL    HW125088   0.882   2.517   0.613
 8063SOL    HW225089   0.971   2.649   0.651
 8064SOL     OW25090   0.188   5.285   0.796
 8064SOL    HW125091   0.281   5.323   0.794
 8064SOL    HW225092   0.164   5.261   0.890
 8065SOL     OW25093   4.121   6.167   4.395
 8065SOL    HW125094   4.079   6.100   4.457
 8065SOL    HW225095   4.193   6.216   4.445
 8066SOL     OW25096   0.881   2.134   6.212
 8066SOL    HW125097   0.888   2.081   6.127
 8066SOL    HW225098   0.962   2.192   6.221
 8067SOL     OW25099   4.706   3.139   1.668
 8067SOL    HW125100   4.680   3.103   1.757
 8067SOL    HW225101   4.652   3.220   1.646
 8068SOL     OW25102   5.771   4.755   0.458
 8068SOL    HW125103   5.790   4.839   0.408
 8068SOL    HW225104   5.856   4.715   0.491
 8069SOL     OW25105   2.117   5.804   1.226
 8069SOL    HW125106   2.048   5.783   1.296
 8069SOL    HW225107   2.104   5.743   1.147
 8070SOL     OW25108   3.187   2.773   0.052
 8070SOL    HW125109   3.275   2.772   0.101
 8070SOL    HW225110   3.135   2.691   0.077
 8071SOL     OW25111   2.809   6.253   4.986
 8071SOL    HW125112   2.774   6.345   5.003
 8071SOL    HW225113   2.820   6.239   4.887
 8072SOL     OW25114   3.186   0.699   6.877
 8072SOL    HW125115   3.142   0.743   6.955
 8072SOL    HW225116   3.117   0.683   6.805
 8073SOL     OW25117   4.260   5.816   5.987
 8073SOL    HW125118   4.305   5.743   6.038
 8073SOL    HW225119   4.161   5.809   5.999
 8074SOL     OW25120   3.219   2.562   0.294
 8074SOL    HW125121   3.119   2.570   0.301
 8074SOL    HW225122   3.261   2.605   0.374
 8075SOL     OW25123   6.249   0.993   1.051
 8075SOL    HW125124   6.283   0.909   1.007
 8075SOL    HW225125   6.166   1.024   1.003
 8076SOL     OW25126   5.063   2.437   5.578
 8076SOL    HW125127   5.035   2.517   5.632
 8076SOL    HW225128   5.150   2.456   5.533
 8077SOL     OW25129   1.287   5.330   1.696
 8077SOL    HW125130   1.297   5.250   1.636
 8077SOL    HW225131   1.375   5.352   1.737
 8078SOL     OW25132   5.765   1.071   0.827
 8078SOL    HW125133   5.738   0.975   0.832
 8078SOL    HW225134   5.764   1.102   0.732
 8079SOL     OW25135   5.131   1.743   3.475
 8079SOL    HW125136   5.213   1.801   3.469
 8079SOL    HW225137   5.141   1.679   3.551
 8080SOL     OW25138   0.250   3.661   0.516
 8080SOL    HW125139   0.323   3.593   0.510
 8080SOL    HW225140   0.166   3.623   0.476
 8081SOL     OW25141   4.966   0.165   4.547
 8081SOL    HW125142   4.948   0.140   4.642
 8081SOL    HW225143   4.885   0.147   4.492
 8082SOL     OW25144   6.102   0.521   1.855
 8082SOL    HW125145   6.015   0.480   1.884
 8082SOL    HW225146   6.176   0.456   1.872
 8083SOL     OW25147   5.120   3.817   2.653
 8083SOL    HW125148   5.104   3.743   2.588
 8083SOL    HW225149   5.184   3.786   2.724
 8084SOL     OW25150   5.314   6.989   0.453
 8084SOL    HW125151   5.403   6.962   0.416
 8084SOL    HW225152   5.314   6.977   0.552
 8085SOL     OW25153   6.269   0.408   2.820
 8085SOL    HW125154   6.239   0.476   2.753
 8085SOL    HW225155   6.342   0.447   2.876
 8086SOL     OW25156   4.581   1.211   3.901
 8086SOL    HW125157   4.620   1.298   3.870
 8086SOL    HW225158   4.643   1.169   3.967
 8087SOL     OW25159   2.697   1.763   0.757
 8087SOL    HW125160   2.692   1.858   0.787
 8087SOL    HW225161   2.792   1.731   0.765
 8088SOL     OW25162   5.744   2.203   1.381
 8088SOL    HW125163   5.834   2.246   1.370
 8088SOL    HW225164   5.755   2.104   1.385
 8089SOL     OW25165   5.096   2.796   0.529
 8089SOL    HW125166   5.164   2.751   0.586
 8089SOL    HW225167   5.027   2.840   0.586
 8090SOL     OW25168   4.085   2.423   6.852
 8090SOL    HW125169   4.095   2.415   6.951
 8090SOL    HW225170   4.045   2.512   6.830
 8091SOL     OW25171   2.246   3.998   6.636
 8091SOL    HW125172   2.219   4.074   6.694
 8091SOL    HW225173   2.343   3.978   6.649
 8092SOL     OW25174   1.191   2.403   4.951
 8092SOL    HW125175   1.158   2.474   4.890
 8092SOL    HW225176   1.220   2.445   5.037
 8093SOL     OW25177   4.788   5.596   1.604
 8093SOL    HW125178   4.719   5.628   1.669
 8093SOL    HW225179   4.749   5.526   1.544
 8094SOL     OW25180   1.397   3.885   4.376
 8094SOL    HW125181   1.427   3.891   4.281
 8094SOL    HW225182   1.461   3.936   4.434
 8095SOL     OW25183   5.996   4.063   4.138
 8095SOL    HW125184   6.012   4.126   4.063
 8095SOL    HW225185   5.931   3.992   4.110
 8096SOL     OW25186   2.941   5.685   3.736
 8096SOL    HW125187   2.970   5.617   3.669
 8096SOL    HW225188   2.856   5.653   3.780
 8097SOL     OW25189   5.051   6.547   3.335
 8097SOL    HW125190   4.973   6.582   3.283
 8097SOL    HW225191   5.046   6.447   3.339
 8098SOL     OW25192   2.196   6.732   3.816
 8098SOL    HW125193   2.269   6.798   3.796
 8098SOL    HW225194   2.171   6.739   3.913
 8099SOL     OW25195   5.322   0.150   3.937
 8099SOL    HW125196   5.409   0.136   3.985
 8099SOL    HW225197   5.338   0.150   3.839
 8100SOL     OW25198   6.873   6.963   6.892
 8100SOL    HW125199   6.969   6.992   6.885
 8100SOL    HW225200   6.863   6.898   6.967
 8101SOL     OW25201   1.977   0.133   3.783
 8101SOL    HW125202   1.892   0.181   3.803
 8101SOL    HW225203   1.959   0.054   3.724
 8102SOL     OW25204   1.327   4.900   4.771
 8102SOL    HW125205   1.241   4.900   4.720
 8102SOL    HW225206   1.399   4.860   4.714
 8103SOL     OW25207   4.149   0.662   0.891
 8103SOL    HW125208   4.142   0.656   0.792
 8103SOL    HW225209   4.158   0.570   0.929
 8104SOL     OW25210   2.402   6.742   6.109
 8104SOL    HW125211   2.417   6.663   6.049
 8104SOL    HW225212   2.474   6.810   6.094
 8105SOL     OW25213   1.859   2.225   3.075
 8105SOL    HW125214   1.915   2.145   3.098
 8105SOL    HW225215   1.763   2.204   3.090
 8106SOL     OW25216   2.949   5.806   3.320
 8106SOL    HW125217   2.942   5.858   3.405
 8106SOL    HW225218   3.040   5.819   3.280
 8107SOL     OW25219   1.282   5.730   4.972
 8107SOL    HW125220   1.362   5.692   4.926
 8107SOL    HW225221   1.205   5.732   4.908
 8108SOL     OW25222   5.777   3.360   5.056
 8108SOL    HW125223   5.851   3.334   4.994
 8108SOL    HW225224   5.749   3.280   5.109
 8109SOL     OW25225   0.926   3.688   4.000
 8109SOL    HW125226   0.965   3.772   3.961
 8109SOL    HW225227   0.992   3.647   4.064
 8110SOL     OW25228   3.529   6.298   0.809
 8110SOL    HW125229   3.542   6.298   0.908
 8110SOL    HW225230   3.596   6.238   0.766
 8111SOL     OW25231   4.334   0.974   5.203
 8111SOL    HW125232   4.234   0.975   5.210
 8111SOL    HW225233   4.374   1.006   5.289
 8112SOL     OW25234   1.663   1.433   4.290
 8112SOL    HW125235   1.674   1.522   4.335
 8112SOL    HW225236   1.570   1.400   4.302
 8113SOL     OW25237   2.905   3.198   0.329
 8113SOL    HW125238   2.844   3.216   0.406
 8113SOL    HW225239   2.909   3.100   0.312
 8114SOL     OW25240   2.077   3.538   1.512
 8114SOL    HW125241   2.005   3.506   1.574
 8114SOL    HW225242   2.103   3.465   1.449
 8115SOL     OW25243   4.154   1.248   1.731
 8115SOL    HW125244   4.199   1.293   1.808
 8115SOL    HW225245   4.059   1.280   1.726
 8116SOL     OW25246   4.942   0.092   4.838
 8116SOL    HW125247   4.876   0.072   4.910
 8116SOL    HW225248   5.024   0.134   4.878
 8117SOL     OW25249   2.238   1.091   4.546
 8117SOL    HW125250   2.335   1.116   4.541
 8117SOL    HW225251   2.218   1.019   4.479
 8118SOL     OW25252   6.577   3.250   5.734
 8118SOL    HW125253   6.658   3.235   5.791
 8118SOL    HW225254   6.605   3.281   5.643
 8119SOL     OW25255   6.469   5.795   5.196
 8119SOL    HW125256   6.469   5.823   5.100
 8119SOL    HW225257   6.387   5.741   5.215
 8120SOL     OW25258   3.361   4.470   6.882
 8120SOL    HW125259   3.402   4.560   6.864
 8120SOL    HW225260   3.312   4.439   6.801
 8121SOL     OW25261   6.994   5.638   2.463
 8121SOL    HW125262   0.042   5.643   2.400
 8121SOL    HW225263   7.027   5.641   2.557
 8122SOL     OW25264   1.066   5.762   2.691
 8122SOL    HW125265   1.159   5.796   2.707
 8122SOL    HW225266   1.004   5.804   2.757
 8123SOL     OW25267   0.122   7.011   6.878
 8123SOL    HW125268   0.138   0.077   6.852
 8123SOL    HW225269   0.184   6.985   6.952
 8124SOL     OW25270   0.078   6.502   1.310
 8124SOL    HW125271   0.145   6.504   1.385
 8124SOL    HW225272   0.055   6.595   1.283
 8125SOL     OW25273   0.685   6.865   3.342
 8125SOL    HW125274   0.743   6.784   3.340
 8125SOL    HW225275   0.677   6.903   3.249
 8126SOL     OW25276   6.170   3.885   2.226
 8126SOL    HW125277   6.239   3.823   2.188
 8126SOL    HW225278   6.139   3.948   2.155
 8127SOL     OW25279   2.420   5.942   0.666
 8127SOL    HW125280   2.506   5.983   0.635
 8127SOL    HW225281   2.351   5.953   0.595
 8128SOL     OW25282   2.705   3.042   0.702
 8128SOL    HW125283   2.714   2.952   0.659
 8128SOL    HW225284   2.783   3.058   0.763
 8129SOL     OW25285   4.168   0.939   5.768
 8129SOL    HW125286   4.217   0.944   5.855
 8129SOL    HW225287   4.072   0.963   5.782
 8130SOL     OW25288   0.308   4.776   6.324
 8130SOL    HW125289   0.387   4.731   6.281
 8130SOL    HW225290   0.246   4.706   6.360
 8131SOL     OW25291   3.138   0.743   0.755
 8131SOL    HW125292   3.069   0.810   0.730
 8131SOL    HW225293   3.129   0.719   0.851
 8132SOL     OW25294   5.921   6.590   6.615
 8132SOL    HW125295   5.843   6.645   6.643
 8132SOL    HW225296   5.956   6.624   6.528
 8133SOL     OW25297   3.527   4.985   1.889
 8133SOL    HW125298   3.542   4.887   1.870
 8133SOL    HW225299   3.429   5.003   1.897
 8134SOL     OW25300   0.956   1.654   4.359
 8134SOL    HW125301   1.025   1.584   4.375
 8134SOL    HW225302   0.902   1.631   4.279
 8135SOL     OW25303   2.442   5.581   1.251
 8135SOL    HW125304   2.507   5.596   1.326
 8135SOL    HW225305   2.351   5.611   1.279
 8136SOL     OW25306   4.759   4.313   2.853
 8136SOL    HW125307   4.738   4.254   2.775
 8136SOL    HW225308   4.674   4.344   2.895
 8137SOL     OW25309   2.250   1.377   4.335
 8137SOL    HW125310   2.215   1.347   4.424
 8137SOL    HW225311   2.220   1.314   4.264
 8138SOL     OW25312   5.750   2.248   0.723
 8138SOL    HW125313   5.715   2.155   0.714
 8138SOL    HW225314   5.810   2.268   0.646
 8139SOL     OW25315   1.860   2.646   3.341
 8139SOL    HW125316   1.923   2.603   3.406
 8139SOL    HW225317   1.812   2.575   3.290
 8140SOL     OW25318   3.698   6.780   0.696
 8140SOL    HW125319   3.676   6.793   0.792
 8140SOL    HW225320   3.637   6.836   0.640
 8141SOL     OW25321   4.273   0.328   5.702
 8141SOL    HW125322   4.253   0.240   5.746
 8141SOL    HW225323   4.370   0.351   5.716
 8142SOL     OW25324   1.588   4.948   0.336
 8142SOL    HW125325   1.672   4.998   0.314
 8142SOL    HW225326   1.511   4.989   0.287
 8143SOL     OW25327   5.597   5.095   0.655
 8143SOL    HW125328   5.507   5.135   0.671
 8143SOL    HW225329   5.597   5.000   0.686
 8144SOL     OW25330   0.805   5.579   5.818
 8144SOL    HW125331   0.807   5.488   5.858
 8144SOL    HW225332   0.717   5.622   5.838
 8145SOL     OW25333   5.280   5.600   0.858
 8145SOL    HW125334   5.292   5.504   0.881
 8145SOL    HW225335   5.274   5.610   0.759
 8146SOL     OW25336   5.803   0.737   5.480
 8146SOL    HW125337   5.850   0.819   5.448
 8146SOL    HW225338   5.853   0.655   5.449
 8147SOL     OW25339   6.338   0.758   0.926
 8147SOL    HW125340   6.343   0.785   0.830
 8147SOL    HW225341   6.263   0.693   0.939
 8148SOL     OW25342   4.429   5.232   6.751
 8148SOL    HW125343   4.480   5.152   6.782
 8148SOL    HW225344   4.351   5.247   6.812
 8149SOL     OW25345   1.473   6.665   3.127
 8149SOL    HW125346   1.514   6.672   3.036
 8149SOL    HW225347   1.538   6.622   3.190
 8150SOL     OW25348   0.866   3.983   0.581
 8150SOL    HW125349   0.958   3.964   0.617
 8150SOL    HW225350   0.855   3.938   0.493
 8151SOL     OW25351   5.568   5.110   3.577
 8151SOL    HW125352   5.632   5.084   3.649
 8151SOL    HW225353   5.620   5.142   3.497
 8152SOL     OW25354   6.531   3.592   3.016
 8152SOL    HW125355   6.555   3.499   2.988
 8152SOL    HW225356   6.492   3.641   2.938
 8153SOL     OW25357   0.903   1.384   3.193
 8153SOL    HW125358   0.893   1.290   3.226
 8153SOL    HW225359   0.928   1.443   3.269
 8154SOL     OW25360   3.767   6.613   2.894
 8154SOL    HW125361   3.742   6.681   2.825
 8154SOL    HW225362   3.797   6.529   2.849
 8155SOL     OW25363   1.525   3.814   2.027
 8155SOL    HW125364   1.620   3.794   2.053
 8155SOL    HW225365   1.519   3.907   1.991
 8156SOL     OW25366   4.525   6.149   0.610
 8156SOL    HW125367   4.541   6.246   0.592
 8156SOL    HW225368   4.507   6.136   0.708
 8157SOL     OW25369   6.323   4.878   6.357
 8157SOL    HW125370   6.312   4.977   6.369
 8157SOL    HW225371   6.266   4.848   6.281
 8158SOL     OW25372   5.015   4.086   7.029
 8158SOL    HW125373   5.058   4.171   0.030
 8158SOL    HW225374   5.018   4.082   6.929
 8159SOL     OW25375   3.366   5.449   4.310
 8159SOL    HW125376   3.267   5.463   4.312
 8159SOL    HW225377   3.412   5.537   4.315
 8160SOL     OW25378   4.741   0.242   3.563
 8160SOL    HW125379   4.789   0.285   3.640
 8160SOL    HW225380   4.691   0.161   3.595
 8161SOL     OW25381   5.655   3.682   6.405
 8161SOL    HW125382   5.755   3.675   6.410
 8161SOL    HW225383   5.616   3.592   6.388
 8162SOL     OW25384   6.673   5.767   6.831
 8162SOL    HW125385   6.621   5.852   6.825
 8162SOL    HW225386   6.706   5.741   6.741
 8163SOL     OW25387   2.257   4.295   5.415
 8163SOL    HW125388   2.316   4.303   5.335
 8163SOL    HW225389   2.191   4.370   5.416
 8164SOL     OW25390   4.453   1.401   0.453
 8164SOL    HW125391   4.548   1.423   0.433
 8164SOL    HW225392   4.446   1.306   0.486
 8165SOL     OW25393   6.650   4.079   6.128
 8165SOL    HW125394   6.687   4.014   6.195
 8165SOL    HW225395   6.625   4.164   6.174
 8166SOL     OW25396   1.378   0.622   3.131
 8166SOL    HW125397   1.339   0.534   3.105
 8166SOL    HW225398   1.461   0.638   3.077
 8167SOL     OW25399   0.226   0.666   3.422
 8167SOL    HW125400   0.271   0.678   3.511
 8167SOL    HW225401   0.295   0.673   3.349
 8168SOL     OW25402   2.701   0.566   1.613
 8168SOL    HW125403   2.730   0.662   1.612
 8168SOL    HW225404   2.764   0.511   1.560
 8169SOL     OW25405   4.538   2.211   0.345
 8169SOL    HW125406   4.620   2.169   0.384
 8169SOL    HW225407   4.458   2.186   0.399
 8170SOL     OW25408   6.971   4.719   1.554
 8170SOL    HW125409   0.021   4.753   1.604
 8170SOL    HW225410   6.973   4.753   1.461
 8171SOL     OW25411   2.239   1.389   6.424
 8171SOL    HW125412   2.275   1.474   6.462
 8171SOL    HW225413   2.283   1.370   6.336
 8172SOL     OW25414   6.914   2.059   1.984
 8172SOL    HW125415   7.004   2.044   1.942
 8172SOL    HW225416   6.849   1.991   1.949
 8173SOL     OW25417   5.358   2.025   2.144
 8173SOL    HW125418   5.322   2.093   2.080
 8173SOL    HW225419   5.432   1.974   2.101
 8174SOL     OW25420   0.817   6.980   2.520
 8174SOL    HW125421   0.915   6.987   2.501
 8174SOL    HW225422   0.767   6.984   2.433
 8175SOL     OW25423   0.231   2.861   4.932
 8175SOL    HW125424   0.173   2.892   4.856
 8175SOL    HW225425   0.282   2.939   4.969
 8176SOL     OW25426   2.571   4.901   1.512
 8176SOL    HW125427   2.619   4.813   1.514
 8176SOL    HW225428   2.556   4.934   1.605
 8177SOL     OW25429   4.902   0.932   3.788
 8177SOL    HW125430   4.956   0.905   3.868
 8177SOL    HW225431   4.808   0.901   3.799
 8178SOL     OW25432   2.873   6.816   0.918
 8178SOL    HW125433   2.964   6.834   0.957
 8178SOL    HW225434   2.832   6.738   0.964
 8179SOL     OW25435   5.522   1.368   5.033
 8179SOL    HW125436   5.508   1.298   5.102
 8179SOL    HW225437   5.491   1.457   5.069
 8180SOL     OW25438   6.367   0.766   6.291
 8180SOL    HW125439   6.293   0.719   6.339
 8180SOL    HW225440   6.374   0.731   6.197
 8181SOL     OW25441   1.622   1.478   0.669
 8181SOL    HW125442   1.599   1.437   0.757
 8181SOL    HW225443   1.711   1.524   0.675
 8182SOL     OW25444   3.022   3.363   5.683
 8182SOL    HW125445   2.941   3.316   5.717
 8182SOL    HW225446   3.025   3.456   5.719
 8183SOL     OW25447   6.832   2.360   4.657
 8183SOL    HW125448   6.769   2.294   4.699
 8183SOL    HW225449   6.807   2.372   4.561
 8184SOL     OW25450   0.215   6.985   0.589
 8184SOL    HW125451   0.124   7.011   0.624
 8184SOL    HW225452   0.269   6.946   0.663
 8185SOL     OW25453   1.518   0.316   0.047
 8185SOL    HW125454   1.567   0.315   6.990
 8185SOL    HW225455   1.584   0.317   0.122
 8186SOL     OW25456   2.683   4.707   5.710
 8186SOL    HW125457   2.634   4.627   5.745
 8186SOL    HW225458   2.738   4.747   5.783
 8187SOL     OW25459   2.090   1.180   4.943
 8187SOL    HW125460   2.176   1.201   4.987
 8187SOL    HW225461   2.019   1.165   5.012
 8188SOL     OW25462   4.967   3.342   3.811
 8188SOL    HW125463   4.934   3.357   3.718
 8188SOL    HW225464   4.951   3.247   3.837
 8189SOL     OW25465   5.302   4.937   2.921
 8189SOL    HW125466   5.389   4.967   2.880
 8189SOL    HW225467   5.273   4.851   2.879
 8190SOL     OW25468   5.069   3.851   4.241
 8190SOL    HW125469   5.105   3.758   4.237
 8190SOL    HW225470   5.067   3.889   4.148
 8191SOL     OW25471   3.451   5.362   2.330
 8191SOL    HW125472   3.428   5.458   2.315
 8191SOL    HW225473   3.431   5.337   2.424
 8192SOL     OW25474   2.124   5.294   1.619
 8192SOL    HW125475   2.145   5.390   1.602
 8192SOL    HW225476   2.025   5.281   1.624
 8193SOL     OW25477   6.387   5.473   5.654
 8193SOL    HW125478   6.452   5.543   5.685
 8193SOL    HW225479   6.368   5.410   5.730
 8194SOL     OW25480   4.974   0.641   1.203
 8194SOL    HW125481   4.902   0.584   1.165
 8194SOL    HW225482   5.063   0.601   1.181
 8195SOL     OW25483   0.223   6.966   2.845
 8195SOL    HW125484   0.128   6.949   2.872
 8195SOL    HW225485   0.248   0.029   2.870
 8196SOL     OW25486   3.893   6.219   6.685
 8196SOL    HW125487   3.889   6.319   6.687
 8196SOL    HW225488   3.810   6.183   6.642
 8197SOL     OW25489   3.249   0.996   0.401
 8197SOL    HW125490   3.278   0.930   0.332
 8197SOL    HW225491   3.291   0.973   0.489
 8198SOL     OW25492   3.425   6.246   2.506
 8198SOL    HW125493   3.448   6.235   2.603
 8198SOL    HW225494   3.487   6.312   2.464
 8199SOL     OW25495   5.973   2.810   5.813
 8199SOL    HW125496   5.961   2.722   5.766
 8199SOL    HW225497   5.883   2.850   5.831
 8200SOL     OW25498   5.692   4.748   1.892
 8200SOL    HW125499   5.667   4.819   1.826
 8200SOL    HW225500   5.609   4.717   1.940
 8201SOL     OW25501   6.050   0.874   4.742
 8201SOL    HW125502   6.092   0.890   4.831
 8201SOL    HW225503   5.958   0.914   4.740
 8202SOL     OW25504   0.315   5.570   3.681
 8202SOL    HW125505   0.288   5.587   3.586
 8202SOL    HW225506   0.234   5.567   3.739
 8203SOL     OW25507   3.124   2.417   6.853
 8203SOL    HW125508   3.099   2.344   6.790
 8203SOL    HW225509   3.049   2.483   6.859
 8204SOL     OW25510   3.869   4.669   6.928
 8204SOL    HW125511   3.769   4.670   6.932
 8204SOL    HW225512   3.902   4.575   6.941
 8205SOL     OW25513   0.228   4.635   6.978
 8205SOL    HW125514   0.189   4.643   6.886
 8205SOL    HW225515   0.228   4.539   7.006
 8206SOL     OW25516   5.302   1.863   6.888
 8206SOL    HW125517   5.309   1.929   6.963
 8206SOL    HW225518   5.276   1.911   6.804
 8207SOL     OW25519   2.997   3.273   4.423
 8207SOL    HW125520   3.037   3.345   4.367
 8207SOL    HW225521   3.059   3.194   4.423
 8208SOL     OW25522   0.985   0.562   0.958
 8208SOL    HW125523   1.016   0.566   1.053
 8208SOL    HW225524   0.891   0.528   0.956
 8209SOL     OW25525   0.524   1.640   5.215
 8209SOL    HW125526   0.543   1.724   5.165
 8209SOL    HW225527   0.485   1.572   5.153
 8210SOL     OW25528   2.424   1.526   0.493
 8210SOL    HW125529   2.373   1.554   0.412
 8210SOL    HW225530   2.409   1.429   0.511
 8211SOL     OW25531   3.836   4.305   1.693
 8211SOL    HW125532   3.826   4.215   1.737
 8211SOL    HW225533   3.776   4.371   1.738
 8212SOL     OW25534   2.245   2.659   2.308
 8212SOL    HW125535   2.273   2.623   2.398
 8212SOL    HW225536   2.322   2.652   2.244
 8213SOL     OW25537   6.393   4.253   1.643
 8213SOL    HW125538   6.310   4.199   1.653
 8213SOL    HW225539   6.373   4.349   1.662
 8214SOL     OW25540   5.944   5.597   3.868
 8214SOL    HW125541   5.852   5.560   3.882
 8214SOL    HW225542   6.011   5.533   3.904
 8215SOL     OW25543   2.976   5.430   5.894
 8215SOL    HW125544   3.070   5.439   5.926
 8215SOL    HW225545   2.932   5.520   5.893
 8216SOL     OW25546   5.201   5.324   3.919
 8216SOL    HW125547   5.293   5.301   3.950
 8216SOL    HW225548   5.161   5.393   3.980
 8217SOL     OW25549   1.340   4.602   0.600
 8217SOL    HW125550   1.392   4.683   0.573
 8217SOL    HW225551   1.253   4.601   0.551
 8218SOL     OW25552   0.271   6.919   6.534
 8218SOL    HW125553   0.296   6.967   6.617
 8218SOL    HW225554   0.238   6.984   6.466
 8219SOL     OW25555   4.487   2.572   0.805
 8219SOL    HW125556   4.442   2.555   0.892
 8219SOL    HW225557   4.452   2.509   0.736
 8220SOL     OW25558   3.659   2.896   3.457
 8220SOL    HW125559   3.747   2.860   3.488
 8220SOL    HW225560   3.626   2.965   3.521
 8221SOL     OW25561   5.492   6.717   3.646
 8221SOL    HW125562   5.460   6.631   3.686
 8221SOL    HW225563   5.552   6.764   3.710
 8222SOL     OW25564   5.632   1.041   1.464
 8222SOL    HW125565   5.652   1.084   1.552
 8222SOL    HW225566   5.607   1.112   1.398
 8223SOL     OW25567   1.169   4.914   5.649
 8223SOL    HW125568   1.096   4.980   5.666
 8223SOL    HW225569   1.207   4.931   5.558
 8224SOL     OW25570   5.895   1.046   2.664
 8224SOL    HW125571   5.949   1.101   2.599
 8224SOL    HW225572   5.938   1.049   2.754
 8225SOL     OW25573   3.336   1.631   0.699
 8225SOL    HW125574   3.314   1.561   0.631
 8225SOL    HW225575   3.388   1.704   0.656
 8226SOL     OW25576   3.972   6.862   1.037
 8226SOL    HW125577   4.011   6.835   0.949
 8226SOL    HW225578   4.005   6.953   1.062
 8227SOL     OW25579   6.618   1.729   2.766
 8227SOL    HW125580   6.632   1.773   2.677
 8227SOL    HW225581   6.678   1.649   2.773
 8228SOL     OW25582   6.586   2.334   5.856
 8228SOL    HW125583   6.563   2.425   5.823
 8228SOL    HW225584   6.683   2.316   5.840
 8229SOL     OW25585   4.356   2.823   0.724
 8229SOL    HW125586   4.413   2.740   0.730
 8229SOL    HW225587   4.262   2.797   0.705
 8230SOL     OW25588   4.162   0.430   5.470
 8230SOL    HW125589   4.186   0.382   5.554
 8230SOL    HW225590   4.150   0.527   5.489
 8231SOL     OW25591   3.378   4.794   0.911
 8231SOL    HW125592   3.356   4.699   0.933
 8231SOL    HW225593   3.407   4.841   0.994
 8232SOL     OW25594   5.003   1.310   2.229
 8232SOL    HW125595   5.042   1.229   2.185
 8232SOL    HW225596   5.037   1.317   2.323
 8233SOL     OW25597   1.498   5.985   6.377
 8233SOL    HW125598   1.460   6.069   6.340
 8233SOL    HW225599   1.588   5.968   6.337
 8234SOL     OW25600   2.728   4.326   6.696
 8234SOL    HW125601   2.656   4.310   6.764
 8234SOL    HW225602   2.733   4.247   6.634
 8235SOL     OW25603   0.604   3.236   0.339
 8235SOL    HW125604   0.622   3.322   0.291
 8235SOL    HW225605   0.564   3.255   0.428
 8236SOL     OW25606   0.580   4.596   0.630
 8236SOL    HW125607   0.510   4.658   0.595
 8236SOL    HW225608   0.583   4.602   0.730
 8237SOL     OW25609   4.089   6.884   4.469
 8237SOL    HW125610   3.990   6.901   4.475
 8237SOL    HW225611   4.111   6.853   4.377
 8238SOL     OW25612   0.718   5.141   6.287
 8238SOL    HW125613   0.808   5.182   6.304
 8238SOL    HW225614   0.720   5.044   6.312
 8239SOL     OW25615   6.431   1.556   6.101
 8239SOL    HW125616   6.525   1.533   6.129
 8239SOL    HW225617   6.427   1.651   6.072
 8240SOL     OW25618   3.587   4.074   2.598
 8240SOL    HW125619   3.527   4.104   2.672
 8240SOL    HW225620   3.646   4.000   2.630
 8241SOL     OW25621   4.001   0.119   6.142
 8241SOL    HW125622   4.061   0.054   6.189
 8241SOL    HW225623   4.035   0.212   6.157
 8242SOL     OW25624   0.546   4.876   5.874
 8242SOL    HW125625   0.525   4.783   5.846
 8242SOL    HW225626   0.490   4.941   5.822
 8243SOL     OW25627   0.500   2.455   0.444
 8243SOL    HW125628   0.450   2.538   0.421
 8243SOL    HW225629   0.533   2.411   0.360
 8244SOL     OW25630   0.403   0.915   4.846
 8244SOL    HW125631   0.428   0.941   4.940
 8244SOL    HW225632   0.475   0.858   4.808
 8245SOL     OW25633   4.291   1.951   2.928
 8245SOL    HW125634   4.375   1.897   2.920
 8245SOL    HW225635   4.313   2.048   2.926
 8246SOL     OW25636   1.225   2.926   5.959
 8246SOL    HW125637   1.230   2.926   5.859
 8246SOL    HW225638   1.314   2.901   5.997
 8247SOL     OW25639   1.697   0.513   2.336
 8247SOL    HW125640   1.623   0.511   2.269
 8247SOL    HW225641   1.780   0.547   2.292
 8248SOL     OW25642   6.095   5.572   4.694
 8248SOL    HW125643   6.084   5.476   4.719
 8248SOL    HW225644   6.178   5.609   4.736
 8249SOL     OW25645   1.810   2.901   5.698
 8249SOL    HW125646   1.896   2.855   5.718
 8249SOL    HW225647   1.818   2.950   5.611
 8250SOL     OW25648   3.380   4.002   1.995
 8250SOL    HW125649   3.465   4.054   2.012
 8250SOL    HW225650   3.375   3.926   2.060
 8251SOL     OW25651   5.527   3.862   4.430
 8251SOL    HW125652   5.569   3.773   4.410
 8251SOL    HW225653   5.468   3.853   4.511
 8252SOL     OW25654   2.841   1.517   5.288
 8252SOL    HW125655   2.884   1.463   5.215
 8252SOL    HW225656   2.742   1.506   5.283
 8253SOL     OW25657   4.153   4.992   5.572
 8253SOL    HW125658   4.071   5.034   5.533
 8253SOL    HW225659   4.224   4.986   5.501
 8254SOL     OW25660   4.606   4.625   5.371
 8254SOL    HW125661   4.683   4.581   5.415
 8254SOL    HW225662   4.623   4.723   5.362
 8255SOL     OW25663   2.129   0.169   5.261
 8255SOL    HW125664   2.080   0.119   5.190
 8255SOL    HW225665   2.224   0.181   5.233
 8256SOL     OW25666   6.926   6.916   2.171
 8256SOL    HW125667   6.979   7.001   2.177
 8256SOL    HW225668   6.884   6.909   2.081
 8257SOL     OW25669   5.376   4.007   2.876
 8257SOL    HW125670   5.300   3.943   2.863
 8257SOL    HW225671   5.380   4.035   2.972
 8258SOL     OW25672   5.702   1.667   0.793
 8258SOL    HW125673   5.762   1.683   0.714
 8258SOL    HW225674   5.711   1.571   0.823
 8259SOL     OW25675   3.444   1.520   4.093
 8259SOL    HW125676   3.349   1.542   4.118
 8259SOL    HW225677   3.503   1.596   4.117
 8260SOL     OW25678   2.410   6.421   1.518
 8260SOL    HW125679   2.387   6.351   1.450
 8260SOL    HW225680   2.373   6.509   1.489
 8261SOL     OW25681   6.291   0.052   2.229
 8261SOL    HW125682   6.223   0.021   2.295
 8261SOL    HW225683   6.308   7.010   2.162
 8262SOL     OW25684   0.541   3.252   0.606
 8262SOL    HW125685   0.517   3.166   0.560
 8262SOL    HW225686   0.472   3.273   0.676
 8263SOL     OW25687   0.526   2.606   6.412
 8263SOL    HW125688   0.559   2.697   6.384
 8263SOL    HW225689   0.429   2.598   6.392
 8264SOL     OW25690   2.660   6.469   2.199
 8264SOL    HW125691   2.648   6.458   2.100
 8264SOL    HW225692   2.754   6.446   2.224
 8265SOL     OW25693   6.926   0.487   1.168
 8265SOL    HW125694   6.939   0.585   1.182
 8265SOL    HW225695   6.993   0.436   1.222
 8266SOL     OW25696   2.285   0.983   3.461
 8266SOL    HW125697   2.372   1.018   3.494
 8266SOL    HW225698   2.216   1.055   3.464
 8267SOL     OW25699   2.119   2.623   1.534
 8267SOL    HW125700   2.167   2.591   1.452
 8267SOL    HW225701   2.067   2.547   1.573
 8268SOL     OW25702   1.586   6.437   6.127
 8268SOL    HW125703   1.666   6.495   6.111
 8268SOL    HW225704   1.526   6.440   6.047
 8269SOL     OW25705   4.330   1.329   2.395
 8269SOL    HW125706   4.395   1.399   2.425
 8269SOL    HW225707   4.343   1.311   2.298
 8270SOL     OW25708   2.711   6.504   5.085
 8270SOL    HW125709   2.637   6.467   5.141
 8270SOL    HW225710   2.770   6.562   5.142
 8271SOL     OW25711   0.457   0.373   3.370
 8271SOL    HW125712   0.499   0.283   3.360
 8271SOL    HW225713   0.417   0.382   3.462
 8272SOL     OW25714   5.904   2.190   2.455
 8272SOL    HW125715   5.843   2.117   2.426
 8272SOL    HW225716   5.910   2.259   2.383
 8273SOL     OW25717   2.530   0.812   6.637
 8273SOL    HW125718   2.526   0.838   6.734
 8273SOL    HW225719   2.622   0.779   6.616
 8274SOL     OW25720   5.391   4.655   4.437
 8274SOL    HW125721   5.373   4.659   4.339
 8274SOL    HW225722   5.351   4.571   4.474
 8275SOL     OW25723   5.622   1.410   5.935
 8275SOL    HW125724   5.704   1.437   5.883
 8275SOL    HW225725   5.630   1.442   6.029
 8276SOL     OW25726   0.745   2.844   3.312
 8276SOL    HW125727   0.679   2.813   3.243
 8276SOL    HW225728   0.838   2.831   3.278
 8277SOL     OW25729   0.199   6.005   6.090
 8277SOL    HW125730   0.225   6.098   6.066
 8277SOL    HW225731   0.213   5.991   6.188
 8278SOL     OW25732   2.991   1.730   5.957
 8278SOL    HW125733   3.020   1.794   5.885
 8278SOL    HW225734   2.898   1.699   5.938
 8279SOL     OW25735   1.173   6.726   4.258
 8279SOL    HW125736   1.262   6.759   4.289
 8279SOL    HW225737   1.101   6.777   4.304
 8280SOL     OW25738   2.356   3.269   0.790
 8280SOL    HW125739   2.316   3.320   0.713
 8280SOL    HW225740   2.350   3.171   0.771
 8281SOL     OW25741   3.143   4.199   1.712
 8281SOL    HW125742   3.171   4.120   1.767
 8281SOL    HW225743   3.091   4.262   1.769
 8282SOL     OW25744   4.895   3.435   7.029
 8282SOL    HW125745   4.942   3.401   0.081
 8282SOL    HW225746   4.935   3.392   6.948
 8283SOL     OW25747   1.888   5.280   5.798
 8283SOL    HW125748   1.801   5.255   5.842
 8283SOL    HW225749   1.952   5.204   5.805
 8284SOL     OW25750   1.066   3.626   0.932
 8284SOL    HW125751   1.160   3.629   0.967
 8284SOL    HW225752   1.035   3.531   0.930
 8285SOL     OW25753   3.094   3.977   5.147
 8285SOL    HW125754   3.148   3.895   5.164
 8285SOL    HW225755   2.997   3.954   5.150
 8286SOL     OW25756   5.742   2.180   6.345
 8286SOL    HW125757   5.837   2.204   6.367
 8286SOL    HW225758   5.684   2.260   6.359
 8287SOL     OW25759   1.608   5.834   4.190
 8287SOL    HW125760   1.703   5.805   4.201
 8287SOL    HW225761   1.553   5.756   4.161
 8288SOL     OW25762   3.135   2.015   2.007
 8288SOL    HW125763   3.193   2.090   2.039
 8288SOL    HW225764   3.069   2.050   1.941
 8289SOL     OW25765   0.589   6.010   0.631
 8289SOL    HW125766   0.566   6.088   0.689
 8289SOL    HW225767   0.593   6.038   0.535
 8290SOL     OW25768   5.602   1.402   1.535
 8290SOL    HW125769   5.637   1.340   1.606
 8290SOL    HW225770   5.527   1.456   1.573
 8291SOL     OW25771   5.193   6.273   4.628
 8291SOL    HW125772   5.105   6.318   4.615
 8291SOL    HW225773   5.246   6.323   4.698
 8292SOL     OW25774   2.740   6.908   6.933
 8292SOL    HW125775   2.704   6.818   6.955
 8292SOL    HW225776   2.838   6.911   6.954
 8293SOL     OW25777   2.827   5.372   0.618
 8293SOL    HW125778   2.840   5.433   0.540
 8293SOL    HW225779   2.916   5.348   0.657
 8294SOL     OW25780   5.946   3.509   5.235
 8294SOL    HW125781   5.846   3.503   5.244
 8294SOL    HW225782   5.982   3.566   5.309
 8295SOL     OW25783   5.073   5.781   2.114
 8295SOL    HW125784   5.162   5.734   2.114
 8295SOL    HW225785   5.046   5.799   2.019
 8296SOL     OW25786   1.068   4.342   6.658
 8296SOL    HW125787   1.141   4.337   6.590
 8296SOL    HW225788   1.087   4.416   6.723
 8297SOL     OW25789   6.875   2.877   2.778
 8297SOL    HW125790   6.944   2.934   2.823
 8297SOL    HW225791   6.885   2.782   2.809
 8298SOL     OW25792   6.298   1.375   1.805
 8298SOL    HW125793   6.327   1.470   1.800
 8298SOL    HW225794   6.342   1.322   1.732
 8299SOL     OW25795   6.734   2.269   1.991
 8299SOL    HW125796   6.797   2.193   1.979
 8299SOL    HW225797   6.761   2.345   1.932
 8300SOL     OW25798   0.535   5.896   4.799
 8300SOL    HW125799   0.554   5.799   4.817
 8300SOL    HW225800   0.584   5.925   4.717
 8301SOL     OW25801   3.634   1.887   1.076
 8301SOL    HW125802   3.616   1.944   1.156
 8301SOL    HW225803   3.630   1.791   1.101
 8302SOL     OW25804   5.595   0.244   6.930
 8302SOL    HW125805   5.621   0.164   6.875
 8302SOL    HW225806   5.574   0.214   7.023
 8303SOL     OW25807   6.636   1.070   3.576
 8303SOL    HW125808   6.543   1.063   3.542
 8303SOL    HW225809   6.694   1.113   3.507
 8304SOL     OW25810   6.998   3.189   0.972
 8304SOL    HW125811   0.041   3.185   0.903
 8304SOL    HW225812   6.986   3.283   1.002
 8305SOL     OW25813   4.996   5.084   4.076
 8305SOL    HW125814   5.079   5.040   4.041
 8305SOL    HW225815   4.962   5.148   4.007
 8306SOL     OW25816   5.808   2.157   5.678
 8306SOL    HW125817   5.761   2.090   5.735
 8306SOL    HW225818   5.895   2.182   5.720
 8307SOL     OW25819   3.507   5.708   1.383
 8307SOL    HW125820   3.603   5.721   1.359
 8307SOL    HW225821   3.499   5.690   1.481
 8308SOL     OW25822   3.333   5.591   1.717
 8308SOL    HW125823   3.327   5.591   1.817
 8308SOL    HW225824   3.428   5.602   1.689
 8309SOL     OW25825   6.595   5.245   3.641
 8309SOL    HW125826   6.524   5.306   3.677
 8309SOL    HW225827   6.666   5.232   3.710
 8310SOL     OW25828   6.978   5.325   0.653
 8310SOL    HW125829   0.004   5.311   0.735
 8310SOL    HW225830   6.944   5.237   0.620
 8311SOL     OW25831   0.904   1.783   4.608
 8311SOL    HW125832   0.933   1.878   4.597
 8311SOL    HW225833   0.924   1.732   4.525
 8312SOL     OW25834   4.786   0.290   0.161
 8312SOL    HW125835   4.809   0.386   0.147
 8312SOL    HW225836   4.836   0.254   0.240
 8313SOL     OW25837   5.257   0.080   0.915
 8313SOL    HW125838   5.289   0.165   0.872
 8313SOL    HW225839   5.196   0.102   0.991
 8314SOL     OW25840   5.174   0.637   0.402
 8314SOL    HW125841   5.084   0.611   0.436
 8314SOL    HW225842   5.245   0.598   0.461
 8315SOL     OW25843   4.187   2.891   1.612
 8315SOL    HW125844   4.278   2.923   1.637
 8315SOL    HW225845   4.181   2.792   1.623
 8316SOL     OW25846   1.521   2.291   1.293
 8316SOL    HW125847   1.509   2.193   1.309
 8316SOL    HW225848   1.612   2.318   1.323
 8317SOL     OW25849   1.805   2.944   2.417
 8317SOL    HW125850   1.769   2.953   2.324
 8317SOL    HW225851   1.888   2.888   2.417
 8318SOL     OW25852   4.611   1.668   5.230
 8318SOL    HW125853   4.587   1.572   5.244
 8318SOL    HW225854   4.709   1.680   5.243
 8319SOL     OW25855   1.943   1.921   0.547
 8319SOL    HW125856   2.033   1.879   0.559
 8319SOL    HW225857   1.953   2.007   0.495
 8320SOL     OW25858   3.365   3.623   2.364
 8320SOL    HW125859   3.379   3.525   2.381
 8320SOL    HW225860   3.358   3.670   2.452
 8321SOL     OW25861   6.594   7.022   6.305
 8321SOL    HW125862   6.648   7.024   6.221
 8321SOL    HW225863   6.627   0.063   6.368
 8322SOL     OW25864   6.419   6.939   1.010
 8322SOL    HW125865   6.433   6.982   1.099
 8322SOL    HW225866   6.346   6.987   0.961
 8323SOL     OW25867   4.969   5.436   2.287
 8323SOL    HW125868   4.874   5.458   2.263
 8323SOL    HW225869   5.015   5.520   2.317
 8324SOL     OW25870   5.546   6.729   1.321
 8324SOL    HW125871   5.553   6.710   1.222
 8324SOL    HW225872   5.510   6.648   1.367
 8325SOL     OW25873   2.692   3.648   5.688
 8325SOL    HW125874   2.645   3.653   5.776
 8325SOL    HW225875   2.765   3.717   5.685
 8326SOL     OW25876   5.365   3.677   5.670
 8326SOL    HW125877   5.282   3.729   5.691
 8326SOL    HW225878   5.340   3.582   5.649
 8327SOL     OW25879   6.164   1.155   6.306
 8327SOL    HW125880   6.067   1.176   6.318
 8327SOL    HW225881   6.207   1.142   6.395
 8328SOL     OW25882   2.848   6.093   5.874
 8328SOL    HW125883   2.808   6.003   5.855
 8328SOL    HW225884   2.862   6.103   5.973
 8329SOL     OW25885   1.285   3.365   5.824
 8329SOL    HW125886   1.295   3.280   5.772
 8329SOL    HW225887   1.207   3.357   5.887
 8330SOL     OW25888   2.539   1.181   6.858
 8330SOL    HW125889   2.493   1.123   6.925
 8330SOL    HW225890   2.635   1.194   6.885
 8331SOL     OW25891   3.158   1.039   1.088
 8331SOL    HW125892   3.213   1.074   1.012
 8331SOL    HW225893   3.126   1.116   1.144
 8332SOL     OW25894   4.491   5.227   2.353
 8332SOL    HW125895   4.458   5.242   2.260
 8332SOL    HW225896   4.487   5.130   2.375
 8333SOL     OW25897   0.354   6.241   6.149
 8333SOL    HW125898   0.341   6.295   6.065
 8333SOL    HW225899   0.289   6.272   6.218
 8334SOL     OW25900   4.033   1.114   3.649
 8334SOL    HW125901   3.947   1.135   3.697
 8334SOL    HW225902   4.104   1.178   3.678
 8335SOL     OW25903   5.113   6.760   0.027
 8335SOL    HW125904   5.113   6.808   6.969
 8335SOL    HW225905   5.208   6.742   0.055
 8336SOL     OW25906   6.745   4.918   3.298
 8336SOL    HW125907   6.749   4.847   3.227
 8336SOL    HW225908   6.807   4.992   3.273
 8337SOL     OW25909   2.438   6.067   2.667
 8337SOL    HW125910   2.431   6.157   2.624
 8337SOL    HW225911   2.473   6.002   2.600
 8338SOL     OW25912   3.753   5.339   1.974
 8338SOL    HW125913   3.783   5.408   1.907
 8338SOL    HW225914   3.754   5.249   1.931
 8339SOL     OW25915   6.104   0.209   1.338
 8339SOL    HW125916   6.095   0.289   1.396
 8339SOL    HW225917   6.173   0.226   1.268
 8340SOL     OW25918   4.886   2.834   1.264
 8340SOL    HW125919   4.899   2.906   1.196
 8340SOL    HW225920   4.806   2.779   1.240
 8341SOL     OW25921   2.894   6.407   0.129
 8341SOL    HW125922   2.839   6.325   0.143
 8341SOL    HW225923   2.924   6.443   0.217
 8342SOL     OW25924   4.244   6.094   1.221
 8342SOL    HW125925   4.200   6.178   1.189
 8342SOL    HW225926   4.214   6.075   1.315
 8343SOL     OW25927   1.731   5.961   5.557
 8343SOL    HW125928   1.815   5.919   5.521
 8343SOL    HW225929   1.754   6.031   5.624
 8344SOL     OW25930   4.370   6.365   4.604
 8344SOL    HW125931   4.362   6.424   4.524
 8344SOL    HW225932   4.445   6.396   4.661
 8345SOL     OW25933   4.437   1.890   2.583
 8345SOL    HW125934   4.445   1.793   2.558
 8345SOL    HW225935   4.445   1.898   2.683
 8346SOL     OW25936   3.196   4.973   0.809
 8346SOL    HW125937   3.244   4.893   0.844
 8346SOL    HW225938   3.216   5.052   0.868
 8347SOL     OW25939   3.426   5.208   4.228
 8347SOL    HW125940   3.402   5.291   4.277
 8347SOL    HW225941   3.424   5.225   4.129
 8348SOL     OW25942   2.557   0.312   2.353
 8348SOL    HW125943   2.548   0.369   2.271
 8348SOL    HW225944   2.564   0.371   2.434
 8349SOL     OW25945   5.999   6.338   1.635
 8349SOL    HW125946   5.977   6.268   1.567
 8349SOL    HW225947   5.914   6.378   1.670
 8350SOL     OW25948   3.899   6.834   5.683
 8350SOL    HW125949   3.903   6.934   5.689
 8350SOL    HW225950   3.858   6.797   5.766
 8351SOL     OW25951   4.922   5.094   4.495
 8351SOL    HW125952   4.873   5.013   4.465
 8351SOL    HW225953   4.993   5.068   4.560
 8352SOL     OW25954   0.893   0.449   3.088
 8352SOL    HW125955   0.837   0.530   3.101
 8352SOL    HW225956   0.842   0.381   3.036
 8353SOL     OW25957   6.882   3.088   1.664
 8353SOL    HW125958   6.847   3.108   1.573
 8353SOL    HW225959   6.924   3.170   1.703
 8354SOL     OW25960   4.118   6.920   6.287
 8354SOL    HW125961   4.200   6.863   6.289
 8354SOL    HW225962   4.085   6.934   6.380
 8355SOL     OW25963   2.678   0.822   6.151
 8355SOL    HW125964   2.597   0.857   6.199
 8355SOL    HW225965   2.738   0.777   6.217
 8356SOL     OW25966   0.845   6.310   1.135
 8356SOL    HW125967   0.927   6.341   1.183
 8356SOL    HW225968   0.870   6.239   1.069
 8357SOL     OW25969   4.165   7.004   4.837
 8357SOL    HW125970   4.208   7.022   4.749
 8357SOL    HW225971   4.227   7.029   4.911
 8358SOL     OW25972   1.480   4.486   5.215
 8358SOL    HW125973   1.481   4.519   5.121
 8358SOL    HW225974   1.470   4.386   5.216
 8359SOL     OW25975   2.996   0.651   5.112
 8359SOL    HW125976   3.036   0.561   5.130
 8359SOL    HW225977   2.898   0.647   5.127
 8360SOL     OW25978   3.551   6.207   1.166
 8360SOL    HW125979   3.497   6.130   1.132
 8360SOL    HW225980   3.491   6.268   1.219
 8361SOL     OW25981   3.572   0.550   2.646
 8361SOL    HW125982   3.571   0.587   2.739
 8361SOL    HW225983   3.612   0.617   2.584
 8362SOL     OW25984   4.074   2.120   0.545
 8362SOL    HW125985   4.013   2.199   0.558
 8362SOL    HW225986   4.083   2.070   0.631
 8363SOL     OW25987   6.920   2.727   6.498
 8363SOL    HW125988   6.833   2.699   6.538
 8363SOL    HW225989   6.977   2.771   6.567
 8364SOL     OW25990   1.261   2.930   2.780
 8364SOL    HW125991   1.165   2.916   2.805
 8364SOL    HW225992   1.285   3.026   2.791
 8365SOL     OW25993   2.104   3.883   1.977
 8365SOL    HW125994   2.026   3.820   1.976
 8365SOL    HW225995   2.120   3.918   1.885
 8366SOL     OW25996   1.776   5.853   2.071
 8366SOL    HW125997   1.736   5.857   2.163
 8366SOL    HW225998   1.873   5.877   2.077
 8367SOL     OW25999   3.983   6.140   3.803
 8367SOL    HW126000   4.030   6.228   3.808
 8367SOL    HW226001   4.046   6.066   3.828
 8368SOL     OW26002   2.051   6.050   6.247
 8368SOL    HW126003   2.081   5.972   6.192
 8368SOL    HW226004   2.017   6.017   6.335
 8369SOL     OW26005   1.668   6.522   6.778
 8369SOL    HW126006   1.684   6.621   6.776
 8369SOL    HW226007   1.596   6.501   6.844
 8370SOL     OW26008   2.763   1.872   5.646
 8370SOL    HW126009   2.814   1.786   5.645
 8370SOL    HW226010   2.705   1.875   5.727
 8371SOL     OW26011   2.068   4.084   0.816
 8371SOL    HW126012   2.026   4.127   0.736
 8371SOL    HW226013   2.066   3.985   0.806
 8372SOL     OW26014   0.866   5.485   2.208
 8372SOL    HW126015   0.833   5.564   2.156
 8372SOL    HW226016   0.935   5.436   2.155
 8373SOL     OW26017   1.692   6.995   3.648
 8373SOL    HW126018   1.627   6.932   3.607
 8373SOL    HW226019   1.781   6.949   3.659
 8374SOL     OW26020   0.146   0.799   5.646
 8374SOL    HW126021   0.165   0.861   5.570
 8374SOL    HW226022   0.048   0.799   5.665
 8375SOL     OW26023   3.374   6.594   4.951
 8375SOL    HW126024   3.469   6.562   4.961
 8375SOL    HW226025   3.324   6.531   4.892
 8376SOL     OW26026   1.258   0.704   4.144
 8376SOL    HW126027   1.352   0.707   4.109
 8376SOL    HW226028   1.259   0.676   4.240
 8377SOL     OW26029   4.801   6.174   1.246
 8377SOL    HW126030   4.701   6.178   1.245
 8377SOL    HW226031   4.836   6.172   1.152
 8378SOL     OW26032   4.441   4.988   2.755
 8378SOL    HW126033   4.495   4.979   2.838
 8378SOL    HW226034   4.345   5.005   2.779
 8379SOL     OW26035   6.182   2.479   1.367
 8379SOL    HW126036   6.196   2.455   1.463
 8379SOL    HW226037   6.113   2.551   1.360
 8380SOL     OW26038   7.025   0.530   2.401
 8380SOL    HW126039   6.974   0.616   2.406
 8380SOL    HW226040   7.014   0.489   2.311
 8381SOL     OW26041   7.023   2.862   5.107
 8381SOL    HW126042   0.006   2.955   5.143
 8381SOL    HW226043   0.079   2.833   5.063
 8382SOL     OW26044   2.635   1.005   2.991
 8382SOL    HW126045   2.635   0.908   3.018
 8382SOL    HW226046   2.568   1.054   3.046
 8383SOL     OW26047   2.250   0.174   5.836
 8383SOL    HW126048   2.160   0.133   5.850
 8383SOL    HW226049   2.252   0.218   5.746
 8384SOL     OW26050   6.595   0.838   1.056
 8384SOL    HW126051   6.500   0.805   1.060
 8384SOL    HW226052   6.642   0.794   0.979
 8385SOL     OW26053   6.444   1.502   1.124
 8385SOL    HW126054   6.430   1.444   1.043
 8385SOL    HW226055   6.542   1.513   1.141
 8386SOL     OW26056   1.143   5.060   2.068
 8386SOL    HW126057   1.184   4.986   2.121
 8386SOL    HW226058   1.056   5.029   2.030
 8387SOL     OW26059   1.526   1.262   2.561
 8387SOL    HW126060   1.608   1.299   2.518
 8387SOL    HW226061   1.454   1.252   2.492
 8388SOL     OW26062   2.575   6.263   0.399
 8388SOL    HW126063   2.644   6.290   0.466
 8388SOL    HW226064   2.620   6.234   0.315
 8389SOL     OW26065   0.048   3.033   2.855
 8389SOL    HW126066   0.055   3.128   2.825
 8389SOL    HW226067   0.053   3.030   2.955
 8390SOL     OW26068   4.707   1.208   6.361
 8390SOL    HW126069   4.656   1.140   6.307
 8390SOL    HW226070   4.654   1.293   6.366
 8391SOL     OW26071   6.418   4.899   0.879
 8391SOL    HW126072   6.331   4.868   0.916
 8391SOL    HW226073   6.457   4.828   0.820
 8392SOL     OW26074   6.305   3.726   4.685
 8392SOL    HW126075   6.234   3.792   4.659
 8392SOL    HW226076   6.273   3.672   4.763
 8393SOL     OW26077   0.435   0.061   3.070
 8393SOL    HW126078   0.409   6.995   3.056
 8393SOL    HW226079   0.367   0.121   3.027
 8394SOL     OW26080   6.068   2.065   1.481
 8394SOL    HW126081   5.980   2.018   1.493
 8394SOL    HW226082   6.138   2.020   1.537
 8395SOL     OW26083   2.847   6.913   5.430
 8395SOL    HW126084   2.830   6.872   5.340
 8395SOL    HW226085   2.916   6.984   5.422
 8396SOL     OW26086   4.924   5.477   2.622
 8396SOL    HW126087   4.840   5.427   2.638
 8396SOL    HW226088   4.916   5.530   2.537
 8397SOL     OW26089   1.549   0.795   2.569
 8397SOL    HW126090   1.555   0.816   2.666
 8397SOL    HW226091   1.548   0.696   2.556
 8398SOL     OW26092   4.555   1.807   6.180
 8398SOL    HW126093   4.571   1.865   6.100
 8398SOL    HW226094   4.504   1.725   6.152
 8399SOL     OW26095   5.480   6.967   6.900
 8399SOL    HW126096   5.548   6.989   6.830
 8399SOL    HW226097   5.526   6.953   6.988
 8400SOL     OW26098   1.788   1.015   4.455
 8400SOL    HW126099   1.691   0.998   4.468
 8400SOL    HW226100   1.811   1.002   4.358
 8401SOL     OW26101   2.018   0.992   5.244
 8401SOL    HW126102   2.022   1.090   5.258
 8401SOL    HW226103   2.107   0.958   5.213
 8402SOL     OW26104   4.794   1.756   6.059
 8402SOL    HW126105   4.728   1.730   6.129
 8402SOL    HW226106   4.855   1.679   6.040
 8403SOL     OW26107   0.009   3.414   4.455
 8403SOL    HW126108   0.004   3.481   4.529
 8403SOL    HW226109   0.082   3.348   4.475
 8404SOL     OW26110   3.625   6.875   5.936
 8404SOL    HW126111   3.667   6.964   5.917
 8404SOL    HW226112   3.693   6.803   5.922
 8405SOL     OW26113   1.870   1.488   5.462
 8405SOL    HW126114   1.895   1.567   5.406
 8405SOL    HW226115   1.833   1.519   5.550
 8406SOL     OW26116   4.195   0.698   0.616
 8406SOL    HW126117   4.251   0.647   0.551
 8406SOL    HW226118   4.135   0.761   0.566
 8407SOL     OW26119   3.432   6.567   3.182
 8407SOL    HW126120   3.376   6.645   3.154
 8407SOL    HW226121   3.393   6.524   3.264
 8408SOL     OW26122   5.697   3.863   1.354
 8408SOL    HW126123   5.703   3.796   1.428
 8408SOL    HW226124   5.784   3.911   1.346
 8409SOL     OW26125   5.200   1.740   2.686
 8409SOL    HW126126   5.195   1.753   2.587
 8409SOL    HW226127   5.229   1.646   2.705
 8410SOL     OW26128   5.685   0.440   1.571
 8410SOL    HW126129   5.635   0.504   1.630
 8410SOL    HW226130   5.620   0.389   1.515
 8411SOL     OW26131   0.895   5.159   0.202
 8411SOL    HW126132   0.844   5.141   0.286
 8411SOL    HW226133   0.989   5.185   0.224
 8412SOL     OW26134   3.646   2.100   1.574
 8412SOL    HW126135   3.690   2.022   1.529
 8412SOL    HW226136   3.716   2.168   1.597
 8413SOL     OW26137   4.194   5.838   6.865
 8413SOL    HW126138   4.279   5.793   6.892
 8413SOL    HW226139   4.145   5.869   6.946
 8414SOL     OW26140   4.052   6.529   4.161
 8414SOL    HW126141   4.070   6.546   4.258
 8414SOL    HW226142   3.955   6.507   4.148
 8415SOL     OW26143   0.518   6.150   3.839
 8415SOL    HW126144   0.455   6.075   3.820
 8415SOL    HW226145   0.489   6.199   3.922
 8416SOL     OW26146   6.306   3.212   2.830
 8416SOL    HW126147   6.338   3.283   2.767
 8416SOL    HW226148   6.354   3.127   2.812
 8417SOL     OW26149   1.618   3.642   5.609
 8417SOL    HW126150   1.574   3.732   5.610
 8417SOL    HW226151   1.604   3.598   5.698
 8418SOL     OW26152   5.606   5.364   0.962
 8418SOL    HW126153   5.666   5.284   0.956
 8418SOL    HW226154   5.643   5.428   1.030
 8419SOL     OW26155   5.601   0.090   1.581
 8419SOL    HW126156   5.690   0.114   1.620
 8419SOL    HW226157   5.531   0.149   1.620
 8420SOL     OW26158   4.395   6.701   0.487
 8420SOL    HW126159   4.335   6.620   0.489
 8420SOL    HW226160   4.351   6.774   0.435
 8421SOL     OW26161   3.197   5.873   6.752
 8421SOL    HW126162   3.193   5.774   6.737
 8421SOL    HW226163   3.149   5.896   6.836
 8422SOL     OW26164   4.258   1.373   1.941
 8422SOL    HW126165   4.190   1.442   1.965
 8422SOL    HW226166   4.317   1.355   2.020
 8423SOL     OW26167   3.233   5.141   6.014
 8423SOL    HW126168   3.309   5.106   5.960
 8423SOL    HW226169   3.177   5.202   5.959
 8424SOL     OW26170   2.223   2.286   2.328
 8424SOL    HW126171   2.199   2.196   2.363
 8424SOL    HW226172   2.217   2.353   2.402
 8425SOL     OW26173   4.421   4.710   6.007
 8425SOL    HW126174   4.384   4.617   6.010
 8425SOL    HW226175   4.480   4.719   5.926
 8426SOL     OW26176   3.652   3.201   3.218
 8426SOL    HW126177   3.654   3.112   3.173
 8426SOL    HW226178   3.574   3.205   3.280
 8427SOL     OW26179   3.923   3.989   4.062
 8427SOL    HW126180   3.851   3.977   3.994
 8427SOL    HW226181   3.883   4.029   4.145
 8428SOL     OW26182   0.335   6.178   1.371
 8428SOL    HW126183   0.366   6.165   1.465
 8428SOL    HW226184   0.402   6.137   1.309
 8429SOL     OW26185   1.423   6.299   4.603
 8429SOL    HW126186   1.355   6.230   4.628
 8429SOL    HW226187   1.384   6.362   4.536
 8430SOL     OW26188   3.848   5.275   3.376
 8430SOL    HW126189   3.859   5.367   3.339
 8430SOL    HW226190   3.934   5.225   3.367
 8431SOL     OW26191   3.712   3.697   1.166
 8431SOL    HW126192   3.704   3.760   1.089
 8431SOL    HW226193   3.773   3.622   1.141
 8432SOL     OW26194   5.630   6.448   5.832
 8432SOL    HW126195   5.638   6.543   5.861
 8432SOL    HW226196   5.534   6.428   5.810
 8433SOL     OW26197   4.755   2.639   0.823
 8433SOL    HW126198   4.665   2.609   0.789
 8433SOL    HW226199   4.745   2.728   0.868
 8434SOL     OW26200   2.908   0.081   4.738
 8434SOL    HW126201   2.909   0.159   4.675
 8434SOL    HW226202   2.990   0.083   4.794
 8435SOL     OW26203   6.271   0.665   1.306
 8435SOL    HW126204   6.181   0.634   1.273
 8435SOL    HW226205   6.340   0.596   1.283
 8436SOL     OW26206   3.178   6.285   3.138
 8436SOL    HW126207   3.141   6.372   3.172
 8436SOL    HW226208   3.109   6.240   3.081
 8437SOL     OW26209   2.221   1.197   3.841
 8437SOL    HW126210   2.192   1.103   3.858
 8437SOL    HW226211   2.142   1.252   3.812
 8438SOL     OW26212   2.194   4.718   2.818
 8438SOL    HW126213   2.149   4.803   2.844
 8438SOL    HW226214   2.257   4.690   2.891
 8439SOL     OW26215   5.546   5.299   2.883
 8439SOL    HW126216   5.514   5.386   2.920
 8439SOL    HW226217   5.639   5.310   2.848
 8440SOL     OW26218   2.437   1.597   3.816
 8440SOL    HW126219   2.403   1.675   3.869
 8440SOL    HW226220   2.467   1.629   3.726
 8441SOL     OW26221   5.206   0.182   0.336
 8441SOL    HW126222   5.254   0.103   0.375
 8441SOL    HW226223   5.254   0.214   0.254
 8442SOL     OW26224   3.515   2.555   5.337
 8442SOL    HW126225   3.423   2.556   5.376
 8442SOL    HW226226   3.549   2.461   5.332
 8443SOL     OW26227   2.604   4.809   3.705
 8443SOL    HW126228   2.662   4.763   3.772
 8443SOL    HW226229   2.508   4.786   3.723
 8444SOL     OW26230   3.127   6.412   4.368
 8444SOL    HW126231   3.195   6.427   4.440
 8444SOL    HW226232   3.049   6.363   4.407
 8445SOL     OW26233   3.169   0.167   1.325
 8445SOL    HW126234   3.210   0.249   1.365
 8445SOL    HW226235   3.145   0.103   1.397
 8446SOL     OW26236   5.589   5.681   6.500
 8446SOL    HW126237   5.561   5.687   6.404
 8446SOL    HW226238   5.558   5.594   6.539
 8447SOL     OW26239   4.988   1.837   2.215
 8447SOL    HW126240   4.913   1.880   2.266
 8447SOL    HW226241   5.032   1.768   2.273
 8448SOL     OW26242   4.106   5.988   4.191
 8448SOL    HW126243   4.102   6.079   4.234
 8448SOL    HW226244   4.148   5.923   4.255
 8449SOL     OW26245   0.245   3.189   3.396
 8449SOL    HW126246   0.150   3.163   3.382
 8449SOL    HW226247   0.304   3.130   3.340
 8450SOL     OW26248   0.781   0.092   0.757
 8450SOL    HW126249   0.862   0.045   0.724
 8450SOL    HW226250   0.803   0.188   0.775
 8451SOL     OW26251   3.622   1.487   0.136
 8451SOL    HW126252   3.666   1.397   0.130
 8451SOL    HW226253   3.674   1.544   0.200
 8452SOL     OW26254   6.156   2.024   3.320
 8452SOL    HW126255   6.208   1.964   3.259
 8452SOL    HW226256   6.075   1.975   3.354
 8453SOL     OW26257   0.464   4.771   6.758
 8453SOL    HW126258   0.401   4.702   6.793
 8453SOL    HW226259   0.430   4.862   6.781
 8454SOL     OW26260   6.975   6.166   1.835
 8454SOL    HW126261   6.877   6.159   1.820
 8454SOL    HW226262   7.012   6.076   1.856
 8455SOL     OW26263   6.598   1.510   1.741
 8455SOL    HW126264   6.697   1.522   1.752
 8455SOL    HW226265   6.563   1.578   1.677
 8456SOL     OW26266   3.889   5.883   3.552
 8456SOL    HW126267   3.943   5.856   3.473
 8456SOL    HW226268   3.882   5.983   3.555
 8457SOL     OW26269   0.267   7.011   4.643
 8457SOL    HW126270   0.208   6.984   4.567
 8457SOL    HW226271   0.228   0.062   4.688
 8458SOL     OW26272   2.832   0.470   0.427
 8458SOL    HW126273   2.916   0.522   0.408
 8458SOL    HW226274   2.757   0.533   0.446
 8459SOL     OW26275   2.865   5.683   2.170
 8459SOL    HW126276   2.899   5.769   2.131
 8459SOL    HW226277   2.765   5.689   2.180
 8460SOL     OW26278   4.074   4.280   5.277
 8460SOL    HW126279   4.140   4.321   5.213
 8460SOL    HW226280   4.092   4.182   5.284
 8461SOL     OW26281   1.348   3.951   5.225
 8461SOL    HW126282   1.372   3.981   5.132
 8461SOL    HW226283   1.249   3.941   5.231
 8462SOL     OW26284   2.502   2.356   6.478
 8462SOL    HW126285   2.568   2.396   6.414
 8462SOL    HW226286   2.477   2.424   6.546
 8463SOL     OW26287   0.139   0.144   1.280
 8463SOL    HW126288   0.170   0.239   1.270
 8463SOL    HW226289   0.108   0.110   1.191
 8464SOL     OW26290   5.986   4.223   3.921
 8464SOL    HW126291   5.899   4.255   3.884
 8464SOL    HW226292   6.053   4.297   3.920
 8465SOL     OW26293   0.787   3.077   0.480
 8465SOL    HW126294   0.841   3.035   0.407
 8465SOL    HW226295   0.724   3.144   0.441
 8466SOL     OW26296   0.765   6.796   4.184
 8466SOL    HW126297   0.672   6.827   4.166
 8466SOL    HW226298   0.816   6.868   4.231
 8467SOL     OW26299   3.428   6.524   0.104
 8467SOL    HW126300   3.375   6.494   0.025
 8467SOL    HW226301   3.429   6.452   0.174
 8468SOL     OW26302   4.126   1.588   6.843
 8468SOL    HW126303   4.112   1.672   6.896
 8468SOL    HW226304   4.157   1.611   6.751
 8469SOL     OW26305   3.666   1.917   6.478
 8469SOL    HW126306   3.663   1.985   6.551
 8469SOL    HW226307   3.762   1.900   6.453
 8470SOL     OW26308   0.910   3.431   6.772
 8470SOL    HW126309   0.888   3.434   6.674
 8470SOL    HW226310   0.836   3.475   6.824
 8471SOL     OW26311   2.965   0.990   3.565
 8471SOL    HW126312   2.971   1.044   3.650
 8471SOL    HW226313   3.033   0.917   3.568
 8472SOL     OW26314   0.087   0.373   5.040
 8472SOL    HW126315   0.138   0.422   5.111
 8472SOL    HW226316   0.108   0.413   4.950
 8473SOL     OW26317   6.392   5.387   6.534
 8473SOL    HW126318   6.414   5.318   6.603
 8473SOL    HW226319   6.306   5.363   6.489
 8474SOL     OW26320   3.062   3.225   2.455
 8474SOL    HW126321   3.042   3.264   2.545
 8474SOL    HW226322   3.094   3.131   2.466
 8475SOL     OW26323   0.679   2.064   3.065
 8475SOL    HW126324   0.705   1.983   3.118
 8475SOL    HW226325   0.621   2.036   2.988
 8476SOL     OW26326   6.735   1.511   1.151
 8476SOL    HW126327   6.732   1.556   1.061
 8476SOL    HW226328   6.784   1.424   1.143
 8477SOL     OW26329   4.492   6.504   2.151
 8477SOL    HW126330   4.559   6.569   2.186
 8477SOL    HW226331   4.531   6.454   2.074
 8478SOL     OW26332   1.336   0.615   6.248
 8478SOL    HW126333   1.408   0.628   6.180
 8478SOL    HW226334   1.307   0.520   6.249
 8479SOL     OW26335   6.460   2.230   1.355
 8479SOL    HW126336   6.385   2.215   1.291
 8479SOL    HW226337   6.469   2.328   1.374
 8480SOL     OW26338   4.522   1.367   0.006
 8480SOL    HW126339   4.621   1.357   7.024
 8480SOL    HW226340   4.504   1.420   0.088
 8481SOL     OW26341   4.964   2.368   3.653
 8481SOL    HW126342   4.947   2.332   3.745
 8481SOL    HW226343   4.897   2.329   3.589
 8482SOL     OW26344   4.293   6.623   2.929
 8482SOL    HW126345   4.371   6.568   2.899
 8482SOL    HW226346   4.323   6.717   2.945
 8483SOL     OW26347   3.887   5.894   2.191
 8483SOL    HW126348   3.890   5.841   2.106
 8483SOL    HW226349   3.977   5.933   2.209
 8484SOL     OW26350   0.751   5.484   2.788
 8484SOL    HW126351   0.801   5.399   2.805
 8484SOL    HW226352   0.754   5.506   2.691
 8485SOL     OW26353   3.300   3.122   6.879
 8485SOL    HW126354   3.297   3.050   6.810
 8485SOL    HW226355   3.281   3.082   6.969
 8486SOL     OW26356   4.834   1.208   2.749
 8486SOL    HW126357   4.832   1.112   2.720
 8486SOL    HW226358   4.749   1.229   2.798
 8487SOL     OW26359   5.660   1.208   6.526
 8487SOL    HW126360   5.562   1.190   6.539
 8487SOL    HW226361   5.713   1.152   6.589
 8488SOL     OW26362   5.721   4.704   5.443
 8488SOL    HW126363   5.752   4.781   5.387
 8488SOL    HW226364   5.734   4.724   5.539
 8489SOL     OW26365   6.016   0.817   0.929
 8489SOL    HW126366   5.969   0.780   0.849
 8489SOL    HW226367   6.012   0.917   0.926
 8490SOL     OW26368   4.042   6.511   4.884
 8490SOL    HW126369   4.118   6.530   4.822
 8490SOL    HW226370   3.982   6.591   4.888
 8491SOL     OW26371   2.120   7.015   0.783
 8491SOL    HW126372   2.064   0.057   0.741
 8491SOL    HW226373   2.134   0.007   0.880
 8492SOL     OW26374   4.420   4.262   6.683
 8492SOL    HW126375   4.464   4.205   6.613
 8492SOL    HW226376   4.453   4.356   6.675
 8493SOL     OW26377   2.699   1.959   6.374
 8493SOL    HW126378   2.634   2.032   6.357
 8493SOL    HW226379   2.735   1.967   6.467
 8494SOL     OW26380   3.008   4.851   1.017
 8494SOL    HW126381   2.952   4.778   1.057
 8494SOL    HW226382   3.098   4.815   0.994
 8495SOL     OW26383   6.403   4.290   0.954
 8495SOL    HW126384   6.399   4.217   0.886
 8495SOL    HW226385   6.393   4.251   1.045
 8496SOL     OW26386   0.616   1.664   1.681
 8496SOL    HW126387   0.591   1.660   1.584
 8496SOL    HW226388   0.708   1.626   1.693
 8497SOL     OW26389   6.561   1.188   3.812
 8497SOL    HW126390   6.647   1.150   3.847
 8497SOL    HW226391   6.548   1.157   3.717
 8498SOL     OW26392   0.308   6.165   2.780
 8498SOL    HW126393   0.302   6.077   2.827
 8498SOL    HW226394   0.285   6.238   2.844
 8499SOL     OW26395   2.419   5.110   6.784
 8499SOL    HW126396   2.451   5.165   6.861
 8499SOL    HW226397   2.494   5.095   6.720
 8500SOL     OW26398   2.294   6.835   5.807
 8500SOL    HW126399   2.297   6.847   5.708
 8500SOL    HW226400   2.199   6.824   5.836
 8501SOL     OW26401   0.486   2.452   6.757
 8501SOL    HW126402   0.473   2.550   6.745
 8501SOL    HW226403   0.427   2.403   6.693
 8502SOL     OW26404   1.251   4.711   1.647
 8502SOL    HW126405   1.321   4.641   1.631
 8502SOL    HW226406   1.206   4.692   1.735
 8503SOL     OW26407   1.371   6.476   3.406
 8503SOL    HW126408   1.300   6.520   3.352
 8503SOL    HW226409   1.446   6.540   3.422
 8504SOL     OW26410   2.239   5.474   3.136
 8504SOL    HW126411   2.321   5.525   3.109
 8504SOL    HW226412   2.250   5.378   3.111
 8505SOL     OW26413   4.823   3.935   3.875
 8505SOL    HW126414   4.762   3.948   3.953
 8505SOL    HW226415   4.918   3.948   3.905
 8506SOL     OW26416   6.273   0.894   6.982
 8506SOL    HW126417   6.324   0.851   6.907
 8506SOL    HW226418   6.298   0.991   6.988
 8507SOL     OW26419   3.877   0.944   5.623
 8507SOL    HW126420   3.808   0.896   5.570
 8507SOL    HW226421   3.963   0.946   5.572
 8508SOL     OW26422   6.765   2.571   4.884
 8508SOL    HW126423   6.853   2.565   4.836
 8508SOL    HW226424   6.712   2.648   4.848
 8509SOL     OW26425   4.912   2.033   3.687
 8509SOL    HW126426   4.825   1.998   3.653
 8509SOL    HW226427   4.897   2.121   3.732
 8510SOL     OW26428   5.230   4.267   3.676
 8510SOL    HW126429   5.185   4.243   3.590
 8510SOL    HW226430   5.301   4.335   3.658
 8511SOL     OW26431   5.868   4.187   1.852
 8511SOL    HW126432   5.827   4.181   1.943
 8511SOL    HW226433   5.803   4.152   1.784
 8512SOL     OW26434   3.535   2.250   0.974
 8512SOL    HW126435   3.533   2.172   0.912
 8512SOL    HW226436   3.630   2.274   0.994
 8513SOL     OW26437   4.970   3.959   1.612
 8513SOL    HW126438   4.918   3.917   1.687
 8513SOL    HW226439   5.066   3.934   1.620
 8514SOL     OW26440   2.850   2.229   3.877
 8514SOL    HW126441   2.784   2.231   3.951
 8514SOL    HW226442   2.942   2.217   3.914
 8515SOL     OW26443   5.994   1.525   0.030
 8515SOL    HW126444   5.934   1.598   7.025
 8515SOL    HW226445   5.948   1.478   0.106
 8516SOL     OW26446   6.705   1.374   1.415
 8516SOL    HW126447   6.638   1.447   1.426
 8516SOL    HW226448   6.701   1.339   1.322
 8517SOL     OW26449   1.718   3.064   6.908
 8517SOL    HW126450   1.700   3.161   6.925
 8517SOL    HW226451   1.736   3.049   6.811
 8518SOL     OW26452   4.671   4.483   6.449
 8518SOL    HW126453   4.588   4.507   6.499
 8518SOL    HW226454   4.715   4.567   6.415
 8519SOL     OW26455   1.355   4.044   1.741
 8519SOL    HW126456   1.425   4.113   1.723
 8519SOL    HW226457   1.294   4.076   1.813
 8520SOL     OW26458   3.667   3.476   0.200
 8520SOL    HW126459   3.609   3.409   0.153
 8520SOL    HW226460   3.631   3.493   0.292
 8521SOL     OW26461   2.477   5.031   5.762
 8521SOL    HW126462   2.461   5.030   5.663
 8521SOL    HW226463   2.571   5.003   5.781
 8522SOL     OW26464   1.495   6.076   0.993
 8522SOL    HW126465   1.468   6.006   1.058
 8522SOL    HW226466   1.429   6.079   0.918
 8523SOL     OW26467   2.196   6.505   6.871
 8523SOL    HW126468   2.118   6.567   6.884
 8523SOL    HW226469   2.276   6.558   6.841
 8524SOL     OW26470   0.590   3.071   5.627
 8524SOL    HW126471   0.641   3.153   5.653
 8524SOL    HW226472   0.595   3.003   5.700
 8525SOL     OW26473   6.042   4.545   1.754
 8525SOL    HW126474   5.990   4.492   1.821
 8525SOL    HW226475   6.005   4.638   1.749
 8526SOL     OW26476   4.106   6.454   6.843
 8526SOL    HW126477   4.184   6.516   6.841
 8526SOL    HW226478   4.107   6.401   6.928
 8527SOL     OW26479   2.676   1.186   6.378
 8527SOL    HW126480   2.711   1.161   6.288
 8527SOL    HW226481   2.582   1.152   6.388
 8528SOL     OW26482   3.947   1.008   7.003
 8528SOL    HW126483   4.005   0.928   7.013
 8528SOL    HW226484   4.003   1.090   6.997
 8529SOL     OW26485   1.397   6.976   0.630
 8529SOL    HW126486   1.365   6.966   0.725
 8529SOL    HW226487   1.395   6.887   0.585
 8530SOL     OW26488   3.633   4.419   5.436
 8530SOL    HW126489   3.695   4.381   5.368
 8530SOL    HW226490   3.633   4.362   5.518
 8531SOL     OW26491   6.451   4.964   2.324
 8531SOL    HW126492   6.479   4.929   2.413
 8531SOL    HW226493   6.407   5.053   2.334
 8532SOL     OW26494   4.187   4.975   4.671
 8532SOL    HW126495   4.140   4.968   4.759
 8532SOL    HW226496   4.137   5.039   4.611
 8533SOL     OW26497   1.730   6.967   0.217
 8533SOL    HW126498   1.759   6.873   0.239
 8533SOL    HW226499   1.646   6.964   0.163
 8534SOL     OW26500   6.224   2.654   4.166
 8534SOL    HW126501   6.245   2.689   4.075
 8534SOL    HW226502   6.210   2.730   4.229
 8535SOL     OW26503   6.220   0.893   3.672
 8535SOL    HW126504   6.192   0.801   3.700
 8535SOL    HW226505   6.268   0.938   3.748
 8536SOL     OW26506   7.008   2.522   4.755
 8536SOL    HW126507   6.932   2.467   4.720
 8536SOL    HW226508   7.021   2.602   4.696
 8537SOL     OW26509   5.521   0.766   3.062
 8537SOL    HW126510   5.618   0.772   3.084
 8537SOL    HW226511   5.467   0.781   3.145
 8538SOL     OW26512   0.864   1.052   0.015
 8538SOL    HW126513   0.799   0.997   6.992
 8538SOL    HW226514   0.893   1.000   0.095
 8539SOL     OW26515   5.886   0.716   2.889
 8539SOL    HW126516   5.962   0.652   2.882
 8539SOL    HW226517   5.862   0.728   2.985
 8540SOL     OW26518   4.982   0.412   6.242
 8540SOL    HW126519   5.009   0.381   6.333
 8540SOL    HW226520   5.050   0.477   6.208
 8541SOL     OW26521   2.554   1.279   4.272
 8541SOL    HW126522   2.475   1.276   4.333
 8541SOL    HW226523   2.638   1.270   4.326
 8542SOL     OW26524   3.812   4.935   6.665
 8542SOL    HW126525   3.829   5.031   6.645
 8542SOL    HW226526   3.789   4.925   6.762
 8543SOL     OW26527   2.640   1.456   1.100
 8543SOL    HW126528   2.585   1.404   1.035
 8543SOL    HW226529   2.631   1.554   1.081
 8544SOL     OW26530   5.681   2.847   4.114
 8544SOL    HW126531   5.721   2.775   4.171
 8544SOL    HW226532   5.618   2.902   4.169
 8545SOL     OW26533   4.897   0.112   5.254
 8545SOL    HW126534   4.805   0.085   5.284
 8545SOL    HW226535   4.924   0.196   5.301
 8546SOL     OW26536   6.473   2.296   4.079
 8546SOL    HW126537   6.454   2.201   4.105
 8546SOL    HW226538   6.434   2.314   3.989
 8547SOL     OW26539   1.802   6.829   6.414
 8547SOL    HW126540   1.850   6.894   6.472
 8547SOL    HW226541   1.704   6.836   6.430
 8548SOL     OW26542   5.777   2.337   5.472
 8548SOL    HW126543   5.779   2.290   5.560
 8548SOL    HW226544   5.739   2.276   5.403
 8549SOL     OW26545   1.365   3.051   3.648
 8549SOL    HW126546   1.364   3.107   3.566
 8549SOL    HW226547   1.348   3.108   3.728
 8550SOL     OW26548   1.829   4.377   0.078
 8550SOL    HW126549   1.788   4.426   0.155
 8550SOL    HW226550   1.832   4.279   0.098
 8551SOL     OW26551   3.524   3.872   6.728
 8551SOL    HW126552   3.459   3.798   6.709
 8551SOL    HW226553   3.587   3.882   6.651
 8552SOL     OW26554   2.268   0.092   3.924
 8552SOL    HW126555   2.269   0.186   3.889
 8552SOL    HW226556   2.175   0.067   3.951
 8553SOL     OW26557   4.243   4.875   6.715
 8553SOL    HW126558   4.197   4.786   6.719
 8553SOL    HW226559   4.208   4.926   6.637
 8554SOL     OW26560   1.008   4.830   0.508
 8554SOL    HW126561   0.947   4.885   0.565
 8554SOL    HW226562   1.099   4.873   0.507
 8555SOL     OW26563   1.618   1.036   2.163
 8555SOL    HW126564   1.597   1.123   2.118
 8555SOL    HW226565   1.538   1.005   2.215
 8556SOL     OW26566   1.097   6.672   5.486
 8556SOL    HW126567   1.101   6.575   5.462
 8556SOL    HW226568   1.167   6.722   5.436
 8557SOL     OW26569   5.688   0.391   3.122
 8557SOL    HW126570   5.664   0.404   3.025
 8557SOL    HW226571   5.749   0.312   3.130
 8558SOL     OW26572   2.997   5.153   3.257
 8558SOL    HW126573   3.032   5.062   3.281
 8558SOL    HW226574   2.909   5.143   3.211
 8559SOL     OW26575   6.639   0.474   2.205
 8559SOL    HW126576   6.660   0.421   2.287
 8559SOL    HW226577   6.711   0.542   2.190
 8560SOL     OW26578   6.669   6.162   2.399
 8560SOL    HW126579   6.572   6.173   2.421
 8560SOL    HW226580   6.718   6.246   2.423
 8561SOL     OW26581   3.303   0.511   1.700
 8561SOL    HW126582   3.295   0.484   1.796
 8561SOL    HW226583   3.384   0.570   1.689
 8562SOL     OW26584   3.465   5.691   5.219
 8562SOL    HW126585   3.496   5.612   5.165
 8562SOL    HW226586   3.366   5.699   5.213
 8563SOL     OW26587   2.250   4.198   6.821
 8563SOL    HW126588   2.341   4.210   6.860
 8563SOL    HW226589   2.181   4.228   6.888
 8564SOL     OW26590   3.294   1.240   4.346
 8564SOL    HW126591   3.322   1.246   4.442
 8564SOL    HW226592   3.294   1.332   4.306
 8565SOL     OW26593   4.225   5.519   0.930
 8565SOL    HW126594   4.134   5.488   0.958
 8565SOL    HW226595   4.295   5.473   0.985
 8566SOL     OW26596   1.387   0.429   1.201
 8566SOL    HW126597   1.290   0.412   1.219
 8566SOL    HW226598   1.425   0.487   1.273
 8567SOL     OW26599   0.039   2.019   2.545
 8567SOL    HW126600   0.122   2.010   2.601
 8567SOL    HW226601   0.061   1.998   2.450
 8568SOL     OW26602   5.586   1.237   6.261
 8568SOL    HW126603   5.581   1.144   6.225
 8568SOL    HW226604   5.609   1.234   6.358
 8569SOL     OW26605   5.120   1.623   5.911
 8569SOL    HW126606   5.054   1.585   5.848
 8569SOL    HW226607   5.105   1.585   6.003
 8570SOL     OW26608   1.373   2.808   5.387
 8570SOL    HW126609   1.288   2.789   5.339
 8570SOL    HW226610   1.439   2.735   5.369
 8571SOL     OW26611   1.638   5.102   5.434
 8571SOL    HW126612   1.546   5.138   5.420
 8571SOL    HW226613   1.653   5.086   5.532
 8572SOL     OW26614   3.246   5.200   6.952
 8572SOL    HW126615   3.286   5.266   7.016
 8572SOL    HW226616   3.148   5.217   6.943
 8573SOL     OW26617   3.506   6.346   5.845
 8573SOL    HW126618   3.458   6.396   5.917
 8573SOL    HW226619   3.440   6.313   5.777
 8574SOL     OW26620   6.812   5.556   5.380
 8574SOL    HW126621   6.886   5.598   5.328
 8574SOL    HW226622   6.732   5.617   5.379
 8575SOL     OW26623   2.798   2.579   5.323
 8575SOL    HW126624   2.720   2.562   5.263
 8575SOL    HW226625   2.783   2.663   5.374
 8576SOL     OW26626   1.824   5.939   0.194
 8576SOL    HW126627   1.888   5.970   0.124
 8576SOL    HW226628   1.795   5.845   0.173
 8577SOL     OW26629   0.109   6.159   4.216
 8577SOL    HW126630   0.124   6.067   4.179
 8577SOL    HW226631   0.094   6.152   4.315
 8578SOL     OW26632   5.542   0.921   4.833
 8578SOL    HW126633   5.573   0.849   4.771
 8578SOL    HW226634   5.442   0.928   4.830
 8579SOL     OW26635   1.223   0.251   2.702
 8579SOL    HW126636   1.317   0.219   2.689
 8579SOL    HW226637   1.218   0.310   2.783
 8580SOL     OW26638   2.663   6.262   2.831
 8580SOL    HW126639   2.737   6.321   2.865
 8580SOL    HW226640   2.578   6.284   2.879
 8581SOL     OW26641   3.253   3.269   1.974
 8581SOL    HW126642   3.194   3.246   2.052
 8581SOL    HW226643   3.210   3.343   1.922
 8582SOL     OW26644   4.509   4.444   2.463
 8582SOL    HW126645   4.477   4.523   2.411
 8582SOL    HW226646   4.433   4.407   2.517
 8583SOL     OW26647   5.522   0.439   4.701
 8583SOL    HW126648   5.531   0.487   4.789
 8583SOL    HW226649   5.467   0.495   4.639
 8584SOL     OW26650   0.565   3.835   5.888
 8584SOL    HW126651   0.531   3.826   5.794
 8584SOL    HW226652   0.618   3.919   5.896
 8585SOL     OW26653   0.617   5.966   5.998
 8585SOL    HW126654   0.525   5.927   5.997
 8585SOL    HW226655   0.676   5.913   5.937
 8586SOL     OW26656   3.311   0.101   3.214
 8586SOL    HW126657   3.265   0.064   3.134
 8586SOL    HW226658   3.390   0.043   3.237
 8587SOL     OW26659   2.014   0.200   2.907
 8587SOL    HW126660   2.097   0.207   2.853
 8587SOL    HW226661   2.009   0.109   2.949
 8588SOL     OW26662   2.366   0.624   6.893
 8588SOL    HW126663   2.321   0.603   6.979
 8588SOL    HW226664   2.425   0.547   6.867
 8589SOL     OW26665   5.356   2.551   4.514
 8589SOL    HW126666   5.448   2.514   4.529
 8589SOL    HW226667   5.292   2.476   4.497
 8590SOL     OW26668   0.007   6.353   4.063
 8590SOL    HW126669   0.022   6.270   4.116
 8590SOL    HW226670   6.947   6.391   4.086
 8591SOL     OW26671   7.017   4.724   6.534
 8591SOL    HW126672   6.974   4.743   6.445
 8591SOL    HW226673   6.965   4.652   6.581
 8592SOL     OW26674   0.057   3.115   6.615
 8592SOL    HW126675   0.111   3.041   6.576
 8592SOL    HW226676   7.025   3.079   6.685
 8593SOL     OW26677   2.351   0.265   1.733
 8593SOL    HW126678   2.415   0.331   1.772
 8593SOL    HW226679   2.270   0.313   1.699
 8594SOL     OW26680   3.448   3.071   5.258
 8594SOL    HW126681   3.461   3.029   5.348
 8594SOL    HW226682   3.379   3.019   5.207
 8595SOL     OW26683   1.811   2.447   2.816
 8595SOL    HW126684   1.766   2.358   2.819
 8595SOL    HW226685   1.835   2.475   2.909
 8596SOL     OW26686   6.331   5.339   3.723
 8596SOL    HW126687   6.324   5.436   3.701
 8596SOL    HW226688   6.241   5.304   3.748
 8597SOL     OW26689   4.765   0.978   0.702
 8597SOL    HW126690   4.834   1.048   0.683
 8597SOL    HW226691   4.710   1.005   0.780
 8598SOL     OW26692   6.745   6.395   0.804
 8598SOL    HW126693   6.767   6.320   0.742
 8598SOL    HW226694   6.769   6.368   0.897
 8599SOL     OW26695   1.105   2.338   3.948
 8599SOL    HW126696   1.158   2.421   3.930
 8599SOL    HW226697   1.035   2.357   4.016
 8600SOL     OW26698   5.221   5.024   5.691
 8600SOL    HW126699   5.165   5.100   5.724
 8600SOL    HW226700   5.318   5.051   5.691
 8601SOL     OW26701   0.489   0.532   5.071
 8601SOL    HW126702   0.414   0.550   5.135
 8601SOL    HW226703   0.455   0.537   4.977
 8602SOL     OW26704   3.331   5.609   3.210
 8602SOL    HW126705   3.341   5.654   3.299
 8602SOL    HW226706   3.367   5.516   3.216
 8603SOL     OW26707   3.955   5.184   0.458
 8603SOL    HW126708   3.885   5.129   0.413
 8603SOL    HW226709   3.997   5.130   0.532
 8604SOL     OW26710   1.076   3.352   3.626
 8604SOL    HW126711   1.048   3.323   3.717
 8604SOL    HW226712   0.998   3.392   3.578
 8605SOL     OW26713   3.371   5.495   4.654
 8605SOL    HW126714   3.353   5.582   4.700
 8605SOL    HW226715   3.285   5.454   4.625
 8606SOL     OW26716   1.499   3.385   6.233
 8606SOL    HW126717   1.542   3.457   6.179
 8606SOL    HW226718   1.431   3.337   6.177
 8607SOL     OW26719   3.300   5.836   0.788
 8607SOL    HW126720   3.352   5.753   0.804
 8607SOL    HW226721   3.328   5.877   0.701
 8608SOL     OW26722   4.600   4.647   3.131
 8608SOL    HW126723   4.625   4.735   3.091
 8608SOL    HW226724   4.505   4.651   3.164
 8609SOL     OW26725   5.600   0.921   3.371
 8609SOL    HW126726   5.611   0.971   3.457
 8609SOL    HW226727   5.657   0.963   3.301
 8610SOL     OW26728   2.110   2.032   2.431
 8610SOL    HW126729   2.161   1.978   2.498
 8610SOL    HW226730   2.020   2.056   2.469
 8611SOL     OW26731   1.979   2.174   4.418
 8611SOL    HW126732   2.022   2.142   4.334
 8611SOL    HW226733   1.928   2.099   4.460
 8612SOL     OW26734   3.560   3.113   0.701
 8612SOL    HW126735   3.490   3.111   0.773
 8612SOL    HW226736   3.583   3.019   0.674
 8613SOL     OW26737   2.294   1.920   0.986
 8613SOL    HW126738   2.342   2.001   0.952
 8613SOL    HW226739   2.357   1.843   0.988
 8614SOL     OW26740   1.009   3.721   2.281
 8614SOL    HW126741   1.020   3.744   2.184
 8614SOL    HW226742   0.958   3.794   2.326
 8615SOL     OW26743   5.234   2.163   5.353
 8615SOL    HW126744   5.136   2.184   5.356
 8615SOL    HW226745   5.275   2.181   5.443
 8616SOL     OW26746   2.959   4.812   1.549
 8616SOL    HW126747   3.010   4.892   1.516
 8616SOL    HW226748   3.015   4.762   1.615
 8617SOL     OW26749   6.727   0.940   6.264
 8617SOL    HW126750   6.722   0.969   6.169
 8617SOL    HW226751   6.666   0.996   6.320
 8618SOL     OW26752   6.154   6.124   1.260
 8618SOL    HW126753   6.070   6.143   1.209
 8618SOL    HW226754   6.166   6.025   1.269
 8619SOL     OW26755   3.865   4.851   1.930
 8619SOL    HW126756   3.771   4.817   1.938
 8619SOL    HW226757   3.865   4.951   1.938
 8620SOL     OW26758   0.766   0.395   3.585
 8620SOL    HW126759   0.708   0.349   3.652
 8620SOL    HW226760   0.849   0.341   3.569
 8621SOL     OW26761   6.224   1.468   2.998
 8621SOL    HW126762   6.132   1.498   2.974
 8621SOL    HW226763   6.284   1.479   2.918
 8622SOL     OW26764   4.786   2.967   0.202
 8622SOL    HW126765   4.758   3.048   0.253
 8622SOL    HW226766   4.862   2.923   0.249
 8623SOL     OW26767   0.704   4.022   3.231
 8623SOL    HW126768   0.703   4.101   3.293
 8623SOL    HW226769   0.782   4.029   3.169
 8624SOL     OW26770   1.129   4.053   4.758
 8624SOL    HW126771   1.156   4.098   4.673
 8624SOL    HW226772   1.030   4.062   4.770
 8625SOL     OW26773   4.624   7.000   5.235
 8625SOL    HW126774   4.629   6.903   5.260
 8625SOL    HW226775   4.557   0.016   5.294
 8626SOL     OW26776   3.795   3.043   5.274
 8626SOL    HW126777   3.718   2.979   5.284
 8626SOL    HW226778   3.820   3.078   5.364
 8627SOL     OW26779   0.643   1.252   3.270
 8627SOL    HW126780   0.694   1.332   3.238
 8627SOL    HW226781   0.553   1.281   3.303
 8628SOL     OW26782   6.237   6.783   1.563
 8628SOL    HW126783   6.283   6.784   1.652
 8628SOL    HW226784   6.148   6.738   1.572
 8629SOL     OW26785   1.394   5.178   5.353
 8629SOL    HW126786   1.350   5.158   5.266
 8629SOL    HW226787   1.327   5.216   5.416
 8630SOL     OW26788   5.386   4.489   3.596
 8630SOL    HW126789   5.415   4.497   3.500
 8630SOL    HW226790   5.315   4.557   3.615
 8631SOL     OW26791   2.533   5.787   6.075
 8631SOL    HW126792   2.513   5.806   5.979
 8631SOL    HW226793   2.543   5.689   6.089
 8632SOL     OW26794   3.574   6.588   3.899
 8632SOL    HW126795   3.552   6.497   3.865
 8632SOL    HW226796   3.505   6.617   3.966
 8633SOL     OW26797   5.807   1.676   4.635
 8633SOL    HW126798   5.837   1.670   4.730
 8633SOL    HW226799   5.710   1.653   4.629
 8634SOL     OW26800   5.456   3.260   0.183
 8634SOL    HW126801   5.410   3.233   0.268
 8634SOL    HW226802   5.539   3.311   0.205
 8635SOL     OW26803   5.985   4.460   6.300
 8635SOL    HW126804   5.903   4.512   6.274
 8635SOL    HW226805   5.971   4.363   6.281
 8636SOL     OW26806   5.263   6.158   0.719
 8636SOL    HW126807   5.192   6.174   0.787
 8636SOL    HW226808   5.283   6.060   0.713
 8637SOL     OW26809   2.234   0.985   6.981
 8637SOL    HW126810   2.268   1.029   6.898
 8637SOL    HW226811   2.154   0.930   6.960
 8638SOL     OW26812   3.339   2.896   6.718
 8638SOL    HW126813   3.290   2.814   6.748
 8638SOL    HW226814   3.438   2.880   6.727
 8639SOL     OW26815   5.420   2.244   1.640
 8639SOL    HW126816   5.516   2.220   1.622
 8639SOL    HW226817   5.404   2.338   1.610
 8640SOL     OW26818   4.683   3.904   0.723
 8640SOL    HW126819   4.730   3.930   0.638
 8640SOL    HW226820   4.723   3.819   0.757
 8641SOL     OW26821   6.130   4.974   3.870
 8641SOL    HW126822   6.060   4.903   3.863
 8641SOL    HW226823   6.090   5.062   3.845
 8642SOL     OW26824   2.931   0.828   3.031
 8642SOL    HW126825   2.982   0.902   2.986
 8642SOL    HW226826   2.896   0.861   3.119
 8643SOL     OW26827   3.369   0.824   6.627
 8643SOL    HW126828   3.363   0.843   6.530
 8643SOL    HW226829   3.301   0.878   6.677
 8644SOL     OW26830   4.781   2.551   5.684
 8644SOL    HW126831   4.707   2.487   5.661
 8644SOL    HW226832   4.780   2.627   5.619
 8645SOL     OW26833   4.511   4.421   1.007
 8645SOL    HW126834   4.528   4.431   1.105
 8645SOL    HW226835   4.516   4.511   0.963
 8646SOL     OW26836   6.222   0.924   2.295
 8646SOL    HW126837   6.151   0.962   2.236
 8646SOL    HW226838   6.200   0.942   2.391
 8647SOL     OW26839   2.503   5.251   5.996
 8647SOL    HW126840   2.587   5.283   5.953
 8647SOL    HW226841   2.526   5.199   6.078
 8648SOL     OW26842   6.441   0.547   3.581
 8648SOL    HW126843   6.493   0.467   3.611
 8648SOL    HW226844   6.489   0.590   3.504
 8649SOL     OW26845   5.459   4.599   6.106
 8649SOL    HW126846   5.387   4.664   6.083
 8649SOL    HW226847   5.418   4.511   6.130
 8650SOL     OW26848   1.935   4.577   6.365
 8650SOL    HW126849   2.012   4.522   6.397
 8650SOL    HW226850   1.965   4.635   6.289
 8651SOL     OW26851   3.344   0.885   0.629
 8651SOL    HW126852   3.430   0.834   0.635
 8651SOL    HW226853   3.270   0.831   0.667
 8652SOL     OW26854   1.889   3.865   3.941
 8652SOL    HW126855   1.927   3.811   3.866
 8652SOL    HW226856   1.955   3.935   3.969
 8653SOL     OW26857   6.130   1.113   6.577
 8653SOL    HW126858   6.112   1.022   6.615
 8653SOL    HW226859   6.074   1.180   6.626
 8654SOL     OW26860   0.910   5.170   1.056
 8654SOL    HW126861   0.878   5.227   0.980
 8654SOL    HW226862   0.943   5.083   1.021
 8655SOL     OW26863   6.442   1.404   3.922
 8655SOL    HW126864   6.494   1.334   3.873
 8655SOL    HW226865   6.485   1.422   4.011
 8656SOL     OW26866   6.215   0.858   0.685
 8656SOL    HW126867   6.128   0.902   0.663
 8656SOL    HW226868   6.257   0.822   0.602
 8657SOL     OW26869   5.035   4.819   0.519
 8657SOL    HW126870   5.081   4.743   0.475
 8657SOL    HW226871   5.101   4.873   0.571
 8658SOL     OW26872   3.845   6.562   0.153
 8658SOL    HW126873   3.797   6.633   0.100
 8658SOL    HW226874   3.822   6.472   0.117
 8659SOL     OW26875   4.652   1.756   3.188
 8659SOL    HW126876   4.720   1.804   3.133
 8659SOL    HW226877   4.688   1.667   3.216
 8660SOL     OW26878   5.661   3.693   0.618
 8660SOL    HW126879   5.747   3.646   0.638
 8660SOL    HW226880   5.628   3.738   0.701
 8661SOL     OW26881   5.798   3.990   0.920
 8661SOL    HW126882   5.725   3.924   0.937
 8661SOL    HW226883   5.790   4.026   0.827
 8662SOL     OW26884   4.682   5.984   1.037
 8662SOL    HW126885   4.673   5.885   1.045
 8662SOL    HW226886   4.778   6.009   1.048
 8663SOL     OW26887   2.791   5.546   1.632
 8663SOL    HW126888   2.742   5.471   1.587
 8663SOL    HW226889   2.845   5.509   1.708
 8664SOL     OW26890   2.933   6.156   1.361
 8664SOL    HW126891   2.931   6.068   1.410
 8664SOL    HW226892   3.014   6.159   1.303
 8665SOL     OW26893   5.545   6.146   4.842
 8665SOL    HW126894   5.572   6.088   4.765
 8665SOL    HW226895   5.453   6.120   4.872
 8666SOL     OW26896   4.676   1.588   3.848
 8666SOL    HW126897   4.713   1.631   3.765
 8666SOL    HW226898   4.578   1.608   3.854
 8667SOL     OW26899   5.081   2.731   3.094
 8667SOL    HW126900   5.003   2.749   3.034
 8667SOL    HW226901   5.047   2.705   3.185
 8668SOL     OW26902   5.507   3.902   3.219
 8668SOL    HW126903   5.455   3.866   3.297
 8668SOL    HW226904   5.454   3.972   3.173
 8669SOL     OW26905   2.295   6.206   0.420
 8669SOL    HW126906   2.392   6.223   0.398
 8669SOL    HW226907   2.276   6.109   0.411
 8670SOL     OW26908   3.491   4.616   5.361
 8670SOL    HW126909   3.548   4.536   5.378
 8670SOL    HW226910   3.400   4.602   5.400
 8671SOL     OW26911   5.359   1.951   3.450
 8671SOL    HW126912   5.414   2.012   3.393
 8671SOL    HW226913   5.262   1.961   3.425
 8672SOL     OW26914   2.035   4.892   3.912
 8672SOL    HW126915   2.078   4.982   3.902
 8672SOL    HW226916   1.974   4.893   3.991
 8673SOL     OW26917   6.410   2.581   0.232
 8673SOL    HW126918   6.330   2.633   0.263
 8673SOL    HW226919   6.390   2.539   0.144
 8674SOL     OW26920   5.380   5.347   3.233
 8674SOL    HW126921   5.363   5.260   3.186
 8674SOL    HW226922   5.331   5.348   3.320
 8675SOL     OW26923   3.029   2.072   4.167
 8675SOL    HW126924   2.952   2.137   4.164
 8675SOL    HW226925   3.039   2.036   4.259
 8676SOL     OW26926   4.251   0.680   2.624
 8676SOL    HW126927   4.295   0.654   2.711
 8676SOL    HW226928   4.152   0.687   2.638
 8677SOL     OW26929   2.309   5.864   5.682
 8677SOL    HW126930   2.366   5.797   5.729
 8677SOL    HW226931   2.344   5.879   5.589
 8678SOL     OW26932   6.597   0.489   1.073
 8678SOL    HW126933   6.524   0.516   1.136
 8678SOL    HW226934   6.602   0.389   1.069
 8679SOL     OW26935   0.051   2.357   3.434
 8679SOL    HW126936   0.100   2.396   3.511
 8679SOL    HW226937   6.987   2.390   3.434
 8680SOL     OW26938   1.206   3.908   1.410
 8680SOL    HW126939   1.305   3.902   1.421
 8680SOL    HW226940   1.161   3.877   1.494
 8681SOL     OW26941   4.837   5.472   0.020
 8681SOL    HW126942   4.856   5.544   0.087
 8681SOL    HW226943   4.841   5.511   6.958
 8682SOL     OW26944   4.947   6.862   1.095
 8682SOL    HW126945   4.897   6.946   1.076
 8682SOL    HW226946   4.934   6.836   1.191
 8683SOL     OW26947   1.932   2.399   2.573
 8683SOL    HW126948   1.900   2.404   2.667
 8683SOL    HW226949   1.858   2.427   2.511
 8684SOL     OW26950   0.823   2.607   4.913
 8684SOL    HW126951   0.788   2.641   5.000
 8684SOL    HW226952   0.796   2.511   4.902
 8685SOL     OW26953   0.278   2.113   5.915
 8685SOL    HW126954   0.279   2.032   5.974
 8685SOL    HW226955   0.361   2.114   5.858
 8686SOL     OW26956   6.741   0.994   1.473
 8686SOL    HW126957   6.733   0.948   1.562
 8686SOL    HW226958   6.805   1.070   1.481
 8687SOL     OW26959   4.216   5.418   2.154
 8687SOL    HW126960   4.117   5.431   2.144
 8687SOL    HW226961   4.264   5.486   2.099
 8688SOL     OW26962   2.992   5.947   6.935
 8688SOL    HW126963   3.003   5.977   0.000
 8688SOL    HW226964   2.895   5.928   6.917
 8689SOL     OW26965   3.559   3.863   1.576
 8689SOL    HW126966   3.589   3.803   1.651
 8689SOL    HW226967   3.467   3.836   1.547
 8690SOL     OW26968   1.533   3.048   3.097
 8690SOL    HW126969   1.435   3.032   3.090
 8690SOL    HW226970   1.564   3.101   3.018
 8691SOL     OW26971   3.430   1.954   6.360
 8691SOL    HW126972   3.413   2.050   6.382
 8691SOL    HW226973   3.519   1.926   6.396
 8692SOL     OW26974   1.578   1.327   3.758
 8692SOL    HW126975   1.621   1.249   3.804
 8692SOL    HW226976   1.586   1.408   3.816
 8693SOL     OW26977   6.828   1.162   6.810
 8693SOL    HW126978   6.775   1.087   6.769
 8693SOL    HW226979   6.859   1.136   6.901
 8694SOL     OW26980   4.343   1.288   5.018
 8694SOL    HW126981   4.308   1.197   5.040
 8694SOL    HW226982   4.269   1.354   5.023
 8695SOL     OW26983   3.788   2.552   6.046
 8695SOL    HW126984   3.728   2.546   5.966
 8695SOL    HW226985   3.737   2.594   6.122
 8696SOL     OW26986   2.207   5.551   0.571
 8696SOL    HW126987   2.273   5.500   0.517
 8696SOL    HW226988   2.124   5.566   0.518
 8697SOL     OW26989   6.600   2.789   0.343
 8697SOL    HW126990   6.627   2.748   0.430
 8697SOL    HW226991   6.552   2.721   0.287
 8698SOL     OW26992   5.583   5.998   4.605
 8698SOL    HW126993   5.513   5.929   4.589
 8698SOL    HW226994   5.672   5.954   4.618
 8699SOL     OW26995   2.354   2.461   5.566
 8699SOL    HW126996   2.410   2.539   5.539
 8699SOL    HW226997   2.342   2.400   5.487
 8700SOL     OW26998   0.808   0.742   4.216
 8700SOL    HW126999   0.819   0.646   4.242
 8700SOL    HW227000   0.798   0.749   4.117
 8701SOL     OW27001   1.254   0.856   0.546
 8701SOL    HW127002   1.189   0.915   0.594
 8701SOL    HW227003   1.211   0.767   0.529
 8702SOL     OW27004   5.230   4.817   1.172
 8702SOL    HW127005   5.305   4.764   1.213
 8702SOL    HW227006   5.268   4.889   1.114
 8703SOL     OW27007   3.363   5.221   0.377
 8703SOL    HW127008   3.363   5.265   0.467
 8703SOL    HW227009   3.308   5.138   0.382
 8704SOL     OW27010   6.976   3.583   2.741
 8704SOL    HW127011   6.890   3.596   2.691
 8704SOL    HW227012   0.017   3.642   2.703
 8705SOL     OW27013   4.953   1.035   6.789
 8705SOL    HW127014   4.892   0.991   6.855
 8705SOL    HW227015   4.904   1.110   6.744
 8706SOL     OW27016   4.479   2.434   6.232
 8706SOL    HW127017   4.442   2.525   6.253
 8706SOL    HW227018   4.558   2.443   6.172
 8707SOL     OW27019   6.967   2.692   0.139
 8707SOL    HW127020   6.962   2.611   0.198
 8707SOL    HW227021   6.879   2.704   0.092
 8708SOL     OW27022   4.854   2.148   2.176
 8708SOL    HW127023   4.872   2.220   2.109
 8708SOL    HW227024   4.908   2.164   2.258
 8709SOL     OW27025   6.816   5.832   0.274
 8709SOL    HW127026   6.764   5.806   0.192
 8709SOL    HW227027   6.786   5.922   0.305
 8710SOL     OW27028   2.072   3.229   4.133
 8710SOL    HW127029   2.046   3.290   4.208
 8710SOL    HW227030   2.105   3.142   4.170
 8711SOL     OW27031   1.036   6.355   3.224
 8711SOL    HW127032   1.043   6.289   3.149
 8711SOL    HW227033   0.939   6.370   3.245
 8712SOL     OW27034   3.819   2.105   5.053
 8712SOL    HW127035   3.894   2.044   5.028
 8712SOL    HW227036   3.852   2.177   5.113
 8713SOL     OW27037   0.633   3.684   3.983
 8713SOL    HW127038   0.721   3.651   3.948
 8713SOL    HW227039   0.633   3.681   4.083
 8714SOL     OW27040   1.108   1.093   5.858
 8714SOL    HW127041   1.024   1.145   5.870
 8714SOL    HW227042   1.133   1.049   5.944
 8715SOL     OW27043   4.026   0.634   1.266
 8715SOL    HW127044   4.100   0.651   1.331
 8715SOL    HW227045   4.004   0.719   1.218
 8716SOL     OW27046   0.485   0.336   0.882
 8716SOL    HW127047   0.441   0.339   0.792
 8716SOL    HW227048   0.486   0.242   0.915
 8717SOL     OW27049   3.240   3.585   3.627
 8717SOL    HW127050   3.305   3.588   3.551
 8717SOL    HW227051   3.158   3.536   3.599
 8718SOL     OW27052   0.938   3.824   4.598
 8718SOL    HW127053   0.875   3.818   4.675
 8718SOL    HW227054   0.965   3.731   4.569
 8719SOL     OW27055   3.020   0.971   6.326
 8719SOL    HW127056   3.050   0.982   6.231
 8719SOL    HW227057   2.973   0.884   6.336
 8720SOL     OW27058   6.389   5.152   5.872
 8720SOL    HW127059   6.300   5.111   5.851
 8720SOL    HW227060   6.454   5.132   5.798
 8721SOL     OW27061   0.303   2.345   2.260
 8721SOL    HW127062   0.363   2.424   2.275
 8721SOL    HW227063   0.213   2.363   2.299
 8722SOL     OW27064   4.097   1.450   0.101
 8722SOL    HW127065   4.126   1.355   0.107
 8722SOL    HW227066   4.109   1.483   0.008
 8723SOL     OW27067   4.624   5.470   0.891
 8723SOL    HW127068   4.639   5.548   0.831
 8723SOL    HW227069   4.693   5.400   0.874
 8724SOL     OW27070   5.621   0.391   5.878
 8724SOL    HW127071   5.544   0.395   5.942
 8724SOL    HW227072   5.647   0.483   5.851
 8725SOL     OW27073   2.027   0.005   6.745
 8725SOL    HW127074   1.941   0.035   6.703
 8725SOL    HW227075   2.066   0.080   6.799
 8726SOL     OW27076   6.420   0.104   1.922
 8726SOL    HW127077   6.408   0.007   1.947
 8726SOL    HW227078   6.468   0.151   1.997
 8727SOL     OW27079   0.339   6.357   2.269
 8727SOL    HW127080   0.372   6.270   2.306
 8727SOL    HW227081   0.327   6.422   2.344
 8728SOL     OW27082   4.822   0.178   3.975
 8728SOL    HW127083   4.824   0.208   3.880
 8728SOL    HW227084   4.915   0.162   4.008
 8729SOL     OW27085   4.633   6.228   4.197
 8729SOL    HW127086   4.546   6.193   4.161
 8729SOL    HW227087   4.685   6.152   4.237
 8730SOL     OW27088   6.357   3.984   2.415
 8730SOL    HW127089   6.277   3.950   2.366
 8730SOL    HW227090   6.439   3.970   2.358
 8731SOL     OW27091   2.388   2.716   2.589
 8731SOL    HW127092   2.473   2.669   2.612
 8731SOL    HW227093   2.329   2.719   2.670
 8732SOL     OW27094   5.310   4.530   1.821
 8732SOL    HW127095   5.244   4.455   1.814
 8732SOL    HW227096   5.329   4.567   1.730
 8733SOL     OW27097   1.713   5.753   1.193
 8733SOL    HW127098   1.757   5.757   1.283
 8733SOL    HW227099   1.701   5.657   1.166
 8734SOL     OW27100   1.552   4.875   2.327
 8734SOL    HW127101   1.604   4.846   2.246
 8734SOL    HW227102   1.574   4.815   2.404
 8735SOL     OW27103   1.030   2.094   0.588
 8735SOL    HW127104   1.087   2.099   0.506
 8735SOL    HW227105   1.067   2.154   0.659
 8736SOL     OW27106   0.869   5.908   6.158
 8736SOL    HW127107   0.849   5.915   6.060
 8736SOL    HW227108   0.804   5.845   6.200
 8737SOL     OW27109   2.183   6.887   6.139
 8737SOL    HW127110   2.190   6.986   6.134
 8737SOL    HW227111   2.274   6.847   6.137
 8738SOL     OW27112   2.217   5.432   4.336
 8738SOL    HW127113   2.154   5.377   4.281
 8738SOL    HW227114   2.308   5.391   4.333
 8739SOL     OW27115   6.033   5.591   6.131
 8739SOL    HW127116   5.936   5.615   6.136
 8739SOL    HW227117   6.050   5.535   6.050
 8740SOL     OW27118   5.235   0.983   5.359
 8740SOL    HW127119   5.266   0.930   5.280
 8740SOL    HW227120   5.231   0.923   5.439
 8741SOL     OW27121   2.805   1.561   1.605
 8741SOL    HW127122   2.900   1.590   1.618
 8741SOL    HW227123   2.797   1.513   1.517
 8742SOL     OW27124   5.791   6.498   1.377
 8742SOL    HW127125   5.859   6.568   1.399
 8742SOL    HW227126   5.816   6.454   1.290
 8743SOL     OW27127   1.496   0.566   2.128
 8743SOL    HW127128   1.401   0.595   2.115
 8743SOL    HW227129   1.556   0.645   2.119
 8744SOL     OW27130   3.442   2.524   6.581
 8744SOL    HW127131   3.376   2.541   6.508
 8744SOL    HW227132   3.421   2.436   6.625
 8745SOL     OW27133   6.017   2.946   6.164
 8745SOL    HW127134   6.005   2.920   6.259
 8745SOL    HW227135   6.114   2.944   6.140
 8746SOL     OW27136   5.228   3.825   4.858
 8746SOL    HW127137   5.326   3.829   4.875
 8746SOL    HW227138   5.181   3.891   4.917
 8747SOL     OW27139   0.811   2.585   2.490
 8747SOL    HW127140   0.878   2.511   2.495
 8747SOL    HW227141   0.801   2.615   2.395
 8748SOL     OW27142   6.942   1.696   5.125
 8748SOL    HW127143   6.965   1.745   5.041
 8748SOL    HW227144   6.988   1.740   5.203
 8749SOL     OW27145   2.559   0.445   6.357
 8749SOL    HW127146   2.584   0.383   6.432
 8749SOL    HW227147   2.630   0.442   6.286
 8750SOL     OW27148   3.443   3.417   5.708
 8750SOL    HW127149   3.482   3.329   5.682
 8750SOL    HW227150   3.511   3.489   5.692
 8751SOL     OW27151   6.068   1.065   2.892
 8751SOL    HW127152   6.075   1.143   2.954
 8751SOL    HW227153   6.142   1.001   2.912
 8752SOL     OW27154   2.386   3.903   0.612
 8752SOL    HW127155   2.423   3.839   0.680
 8752SOL    HW227156   2.391   3.996   0.648
 8753SOL     OW27157   4.508   2.109   5.250
 8753SOL    HW127158   4.452   2.136   5.172
 8753SOL    HW227159   4.561   2.028   5.226
 8754SOL     OW27160   1.427   3.245   5.263
 8754SOL    HW127161   1.446   3.338   5.296
 8754SOL    HW227162   1.498   3.183   5.295
 8755SOL     OW27163   2.718   0.447   0.750
 8755SOL    HW127164   2.782   0.369   0.749
 8755SOL    HW227165   2.636   0.423   0.698
 8756SOL     OW27166   1.550   3.001   3.386
 8756SOL    HW127167   1.572   2.997   3.289
 8756SOL    HW227168   1.605   2.933   3.435
 8757SOL     OW27169   4.154   6.188   5.969
 8757SOL    HW127170   4.171   6.270   6.025
 8757SOL    HW227171   4.231   6.124   5.981
 8758SOL     OW27172   4.865   6.383   2.689
 8758SOL    HW127173   4.826   6.368   2.780
 8758SOL    HW227174   4.865   6.481   2.669
 8759SOL     OW27175   4.350   2.047   0.572
 8759SOL    HW127176   4.353   1.950   0.597
 8759SOL    HW227177   4.263   2.067   0.527
 8760SOL     OW27178   1.352   1.238   4.921
 8760SOL    HW127179   1.275   1.302   4.929
 8760SOL    HW227180   1.434   1.287   4.895
 8761SOL     OW27181   5.397   2.334   2.442
 8761SOL    HW127182   5.360   2.241   2.445
 8761SOL    HW227183   5.483   2.334   2.391
 8762SOL     OW27184   0.735   4.302   2.001
 8762SOL    HW127185   0.666   4.362   1.961
 8762SOL    HW227186   0.722   4.298   2.100
 8763SOL     OW27187   6.478   6.296   6.057
 8763SOL    HW127188   6.447   6.390   6.070
 8763SOL    HW227189   6.405   6.243   6.012
 8764SOL     OW27190   4.688   1.192   4.963
 8764SOL    HW127191   4.788   1.190   4.960
 8764SOL    HW227192   4.653   1.098   4.957
 8765SOL     OW27193   5.711   0.234   5.347
 8765SOL    HW127194   5.628   0.187   5.319
 8765SOL    HW227195   5.706   0.256   5.444
 8766SOL     OW27196   4.566   4.450   3.951
 8766SOL    HW127197   4.516   4.476   3.869
 8766SOL    HW227198   4.509   4.466   4.031
 8767SOL     OW27199   4.548   6.713   3.201
 8767SOL    HW127200   4.488   6.677   3.131
 8767SOL    HW227201   4.590   6.637   3.252
 8768SOL     OW27202   1.192   3.173   0.439
 8768SOL    HW127203   1.183   3.078   0.472
 8768SOL    HW227204   1.113   3.226   0.470
 8769SOL     OW27205   0.825   0.476   4.226
 8769SOL    HW127206   0.923   0.461   4.210
 8769SOL    HW227207   0.772   0.414   4.168
 8770SOL     OW27208   5.290   4.117   2.403
 8770SOL    HW127209   5.243   4.133   2.490
 8770SOL    HW227210   5.289   4.201   2.349
 8771SOL     OW27211   1.302   0.293   6.594
 8771SOL    HW127212   1.208   0.326   6.605
 8771SOL    HW227213   1.311   0.203   6.636
 8772SOL     OW27214   4.654   6.768   6.918
 8772SOL    HW127215   4.579   6.773   6.983
 8772SOL    HW227216   4.714   6.692   6.941
 8773SOL     OW27217   4.614   2.577   3.710
 8773SOL    HW127218   4.654   2.583   3.801
 8773SOL    HW227219   4.612   2.481   3.681
 8774SOL     OW27220   1.648   1.590   6.659
 8774SOL    HW127221   1.602   1.525   6.720
 8774SOL    HW227222   1.590   1.607   6.580
 8775SOL     OW27223   6.212   0.017   5.604
 8775SOL    HW127224   6.278   6.974   5.585
 8775SOL    HW227225   6.126   7.027   5.556
 8776SOL     OW27226   3.896   3.817   5.809
 8776SOL    HW127227   3.888   3.910   5.774
 8776SOL    HW227228   3.882   3.817   5.908
 8777SOL     OW27229   6.874   3.936   1.606
 8777SOL    HW127230   6.783   3.973   1.588
 8777SOL    HW227231   6.899   3.872   1.533
 8778SOL     OW27232   6.543   2.786   4.870
 8778SOL    HW127233   6.509   2.810   4.961
 8778SOL    HW227234   6.467   2.783   4.806
 8779SOL     OW27235   2.949   5.253   2.371
 8779SOL    HW127236   2.929   5.196   2.292
 8779SOL    HW227237   3.046   5.245   2.394
 8780SOL     OW27238   0.842   5.829   2.834
 8780SOL    HW127239   0.795   5.914   2.810
 8780SOL    HW227240   0.800   5.790   2.916
 8781SOL     OW27241   6.332   1.636   3.355
 8781SOL    HW127242   6.379   1.674   3.435
 8781SOL    HW227243   6.286   1.552   3.381
 8782SOL     OW27244   5.189   6.774   1.830
 8782SOL    HW127245   5.110   6.780   1.770
 8782SOL    HW227246   5.235   6.863   1.833
 8783SOL     OW27247   6.776   3.803   3.687
 8783SOL    HW127248   6.696   3.846   3.646
 8783SOL    HW227249   6.820   3.868   3.749
 8784SOL     OW27250   5.641   4.365   6.527
 8784SOL    HW127251   5.596   4.286   6.569
 8784SOL    HW227252   5.738   4.365   6.551
 8785SOL     OW27253   6.344   3.736   6.856
 8785SOL    HW127254   6.434   3.745   6.813
 8785SOL    HW227255   6.355   3.731   6.956
 8786SOL     OW27256   1.864   0.175   0.233
 8786SOL    HW127257   1.805   0.103   0.195
 8786SOL    HW227258   1.911   0.140   0.314
 8787SOL     OW27259   3.016   2.662   1.749
 8787SOL    HW127260   3.113   2.641   1.733
 8787SOL    HW227261   2.967   2.578   1.772
 8788SOL     OW27262   0.229   2.320   6.106
 8788SOL    HW127263   0.232   2.263   6.024
 8788SOL    HW227264   0.176   2.403   6.087
 8789SOL     OW27265   6.019   0.033   5.396
 8789SOL    HW127266   5.937   0.057   5.447
 8789SOL    HW227267   6.012   6.968   5.364
 8790SOL     OW27268   0.200   0.900   6.967
 8790SOL    HW127269   0.183   0.850   6.881
 8790SOL    HW227270   0.197   0.836   0.014
 8791SOL     OW27271   5.974   6.826   5.291
 8791SOL    HW127272   5.900   6.817   5.225
 8791SOL    HW227273   6.052   6.772   5.262
 8792SOL     OW27274   3.722   6.629   3.175
 8792SOL    HW127275   3.625   6.615   3.195
 8792SOL    HW227276   3.736   6.633   3.076
 8793SOL     OW27277   1.769   4.926   3.175
 8793SOL    HW127278   1.674   4.924   3.206
 8793SOL    HW227279   1.776   4.883   3.085
 8794SOL     OW27280   4.368   6.382   1.672
 8794SOL    HW127281   4.330   6.416   1.758
 8794SOL    HW227282   4.467   6.372   1.681
 8795SOL     OW27283   1.464   5.987   5.552
 8795SOL    HW127284   1.444   6.066   5.495
 8795SOL    HW227285   1.562   5.969   5.551
 8796SOL     OW27286   4.536   2.048   4.257
 8796SOL    HW127287   4.464   2.116   4.240
 8796SOL    HW227288   4.616   2.093   4.296
 8797SOL     OW27289   0.915   6.707   5.715
 8797SOL    HW127290   0.875   6.624   5.756
 8797SOL    HW227291   0.971   6.681   5.637
 8798SOL     OW27292   5.357   5.869   5.936
 8798SOL    HW127293   5.366   5.895   6.032
 8798SOL    HW227294   5.306   5.940   5.887
 8799SOL     OW27295   2.073   4.610   3.903
 8799SOL    HW127296   2.047   4.707   3.898
 8799SOL    HW227297   2.152   4.600   3.964
 8800SOL     OW27298   5.883   4.060   5.450
 8800SOL    HW127299   5.975   4.021   5.450
 8800SOL    HW227300   5.853   4.077   5.356
 8801SOL     OW27301   0.827   2.173   5.082
 8801SOL    HW127302   0.880   2.101   5.038
 8801SOL    HW227303   0.773   2.222   5.013
 8802SOL     OW27304   2.093   0.087   1.037
 8802SOL    HW127305   2.127   0.137   1.117
 8802SOL    HW227306   2.015   0.030   1.064
 8803SOL     OW27307   7.006   5.551   6.245
 8803SOL    HW127308   0.009   5.583   6.334
 8803SOL    HW227309   0.054   5.532   6.186
 8804SOL     OW27310   3.187   0.322   2.220
 8804SOL    HW127311   3.100   0.363   2.245
 8804SOL    HW227312   3.188   0.226   2.246
 8805SOL     OW27313   2.733   0.006   4.076
 8805SOL    HW127314   2.690   6.956   4.034
 8805SOL    HW227315   2.833   7.023   4.078
 8806SOL     OW27316   2.666   4.970   2.215
 8806SOL    HW127317   2.681   4.974   2.314
 8806SOL    HW227318   2.671   4.875   2.185
 8807SOL     OW27319   5.299   0.247   0.073
 8807SOL    HW127320   5.269   0.169   0.018
 8807SOL    HW227321   5.393   0.231   0.104
 8808SOL     OW27322   5.774   2.382   6.714
 8808SOL    HW127323   5.826   2.418   6.636
 8808SOL    HW227324   5.686   2.348   6.681
 8809SOL     OW27325   4.351   5.472   3.807
 8809SOL    HW127326   4.253   5.491   3.806
 8809SOL    HW227327   4.396   5.528   3.876
 8810SOL     OW27328   4.994   0.676   5.781
 8810SOL    HW127329   4.912   0.645   5.829
 8810SOL    HW227330   5.055   0.721   5.846
 8811SOL     OW27331   2.822   1.573   4.069
 8811SOL    HW127332   2.799   1.598   3.975
 8811SOL    HW227333   2.738   1.562   4.122
 8812SOL     OW27334   2.291   7.001   1.251
 8812SOL    HW127335   2.245   6.921   1.290
 8812SOL    HW227336   2.337   0.021   1.324
 8813SOL     OW27337   1.118   4.720   1.918
 8813SOL    HW127338   1.066   4.804   1.930
 8813SOL    HW227339   1.066   4.643   1.954
 8814SOL     OW27340   5.625   6.876   0.984
 8814SOL    HW127341   5.548   6.911   1.038
 8814SOL    HW227342   5.711   6.905   1.025
 8815SOL     OW27343   6.601   6.435   0.554
 8815SOL    HW127344   6.663   6.410   0.629
 8815SOL    HW227345   6.652   6.477   0.480
 8816SOL     OW27346   1.334   0.532   0.026
 8816SOL    HW127347   1.369   0.438   0.026
 8816SOL    HW227348   1.394   0.590   0.080
 8817SOL     OW27349   0.986   5.885   4.640
 8817SOL    HW127350   0.977   5.947   4.717
 8817SOL    HW227351   0.919   5.811   4.648
 8818SOL     OW27352   0.269   3.636   4.785
 8818SOL    HW127353   0.365   3.658   4.800
 8818SOL    HW227354   0.211   3.698   4.838
 8819SOL     OW27355   5.556   4.912   5.038
 8819SOL    HW127356   5.555   5.004   5.078
 8819SOL    HW227357   5.648   4.874   5.045
 8820SOL     OW27358   1.933   0.558   5.152
 8820SOL    HW127359   1.998   0.562   5.228
 8820SOL    HW227360   1.899   0.650   5.132
 8821SOL     OW27361   3.052   6.053   0.153
 8821SOL    HW127362   3.147   6.086   0.154
 8821SOL    HW227363   2.990   6.130   0.169
 8822SOL     OW27364   0.529   0.040   4.648
 8822SOL    HW127365   0.436   0.002   4.655
 8822SOL    HW227366   0.573   0.035   4.738
 8823SOL     OW27367   2.533   0.588   1.143
 8823SOL    HW127368   2.468   0.588   1.219
 8823SOL    HW227369   2.599   0.661   1.156
 8824SOL     OW27370   0.878   3.117   1.054
 8824SOL    HW127371   0.825   3.192   1.094
 8824SOL    HW227372   0.817   3.060   0.998
 8825SOL     OW27373   1.817   0.619   2.632
 8825SOL    HW127374   1.774   0.550   2.691
 8825SOL    HW227375   1.798   0.596   2.536
 8826SOL     OW27376   6.409   3.537   1.016
 8826SOL    HW127377   6.339   3.606   0.998
 8826SOL    HW227378   6.498   3.582   1.027
 8827SOL     OW27379   3.691   1.464   3.333
 8827SOL    HW127380   3.602   1.455   3.289
 8827SOL    HW227381   3.703   1.558   3.365
 8828SOL     OW27382   4.654   5.318   5.724
 8828SOL    HW127383   4.588   5.391   5.711
 8828SOL    HW227384   4.726   5.326   5.655
 8829SOL     OW27385   6.258   2.456   0.557
 8829SOL    HW127386   6.255   2.453   0.657
 8829SOL    HW227387   6.294   2.369   0.523
 8830SOL     OW27388   1.208   1.781   2.074
 8830SOL    HW127389   1.282   1.725   2.112
 8830SOL    HW227390   1.203   1.768   1.975
 8831SOL     OW27391   4.814   1.796   4.025
 8831SOL    HW127392   4.787   1.724   3.961
 8831SOL    HW227393   4.750   1.798   4.102
 8832SOL     OW27394   6.946   5.812   3.121
 8832SOL    HW127395   6.950   5.896   3.067
 8832SOL    HW227396   6.892   5.743   3.071
 8833SOL     OW27397   2.198   6.045   5.886
 8833SOL    HW127398   2.264   6.061   5.960
 8833SOL    HW227399   2.236   5.980   5.821
 8834SOL     OW27400   5.145   3.546   4.730
 8834SOL    HW127401   5.182   3.610   4.798
 8834SOL    HW227402   5.087   3.479   4.777
 8835SOL     OW27403   5.559   0.997   6.132
 8835SOL    HW127404   5.518   1.050   6.058
 8835SOL    HW227405   5.489   0.941   6.176
 8836SOL     OW27406   4.888   2.507   6.912
 8836SOL    HW127407   4.812   2.549   6.960
 8836SOL    HW227408   4.872   2.513   6.813
 8837SOL     OW27409   0.003   5.565   3.273
 8837SOL    HW127410   0.007   5.663   3.253
 8837SOL    HW227411   6.943   5.542   3.311
 8838SOL     OW27412   2.344   4.971   2.916
 8838SOL    HW127413   2.305   5.042   2.858
 8838SOL    HW227414   2.272   4.932   2.973
 8839SOL     OW27415   5.035   4.848   3.343
 8839SOL    HW127416   5.015   4.855   3.245
 8839SOL    HW227417   5.077   4.933   3.374
 8840SOL     OW27418   6.468   1.905   2.164
 8840SOL    HW127419   6.380   1.926   2.207
 8840SOL    HW227420   6.527   1.985   2.168
 8841SOL     OW27421   0.396   0.883   5.331
 8841SOL    HW127422   0.321   0.931   5.375
 8841SOL    HW227423   0.466   0.861   5.399
 8842SOL     OW27424   3.455   3.139   2.341
 8842SOL    HW127425   3.539   3.131   2.396
 8842SOL    HW227426   3.415   3.048   2.328
 8843SOL     OW27427   1.931   3.227   5.614
 8843SOL    HW127428   1.944   3.186   5.523
 8843SOL    HW227429   1.878   3.311   5.605
 8844SOL     OW27430   6.747   2.580   0.000
 8844SOL    HW127431   6.700   2.529   0.072
 8844SOL    HW227432   6.686   2.649   6.992
 8845SOL     OW27433   3.640   3.682   0.033
 8845SOL    HW127434   3.672   3.597   0.074
 8845SOL    HW227435   3.540   3.683   0.031
 8846SOL     OW27436   3.164   6.038   3.648
 8846SOL    HW127437   3.253   6.078   3.626
 8846SOL    HW227438   3.177   5.948   3.691
 8847SOL     OW27439   2.783   1.451   3.792
 8847SOL    HW127440   2.742   1.383   3.853
 8847SOL    HW227441   2.746   1.440   3.700
 8848SOL     OW27442   2.320   0.636   1.338
 8848SOL    HW127443   2.233   0.596   1.311
 8848SOL    HW227444   2.308   0.734   1.356
 8849SOL     OW27445   3.399   6.542   3.521
 8849SOL    HW127446   3.365   6.472   3.458
 8849SOL    HW227447   3.489   6.515   3.556
 8850SOL     OW27448   0.941   2.261   0.057
 8850SOL    HW127449   0.941   2.361   0.045
 8850SOL    HW227450   0.966   2.217   7.001
 8851SOL     OW27451   1.145   4.228   3.645
 8851SOL    HW127452   1.204   4.228   3.564
 8851SOL    HW227453   1.050   4.225   3.616
 8852SOL     OW27454   0.355   2.845   5.263
 8852SOL    HW127455   0.351   2.904   5.182
 8852SOL    HW227456   0.385   2.754   5.236
 8853SOL     OW27457   2.909   0.765   1.605
 8853SOL    HW127458   2.903   0.856   1.646
 8853SOL    HW227459   3.004   0.747   1.578
 8854SOL     OW27460   2.358   2.460   5.839
 8854SOL    HW127461   2.333   2.485   5.745
 8854SOL    HW227462   2.429   2.390   5.837
 8855SOL     OW27463   6.420   5.135   1.325
 8855SOL    HW127464   6.362   5.067   1.370
 8855SOL    HW227465   6.463   5.095   1.245
 8856SOL     OW27466   1.131   6.255   6.491
 8856SOL    HW127467   1.217   6.307   6.488
 8856SOL    HW227468   1.058   6.315   6.525
 8857SOL     OW27469   6.887   1.939   4.708
 8857SOL    HW127470   6.864   1.883   4.628
 8857SOL    HW227471   6.941   2.018   4.679
 8858SOL     OW27472   7.028   4.102   4.627
 8858SOL    HW127473   6.955   4.120   4.562
 8858SOL    HW227474   0.010   4.182   4.686
 8859SOL     OW27475   1.450   1.529   3.533
 8859SOL    HW127476   1.523   1.461   3.526
 8859SOL    HW227477   1.479   1.613   3.488
 8860SOL     OW27478   6.936   2.147   1.632
 8860SOL    HW127479   6.961   2.241   1.654
 8860SOL    HW227480   6.995   2.084   1.684
 8861SOL     OW27481   4.313   1.035   6.015
 8861SOL    HW127482   4.409   1.013   6.001
 8861SOL    HW227483   4.302   1.134   6.019
 8862SOL     OW27484   5.851   6.957   3.807
 8862SOL    HW127485   5.805   0.001   3.758
 8862SOL    HW227486   5.946   6.951   3.778
 8863SOL     OW27487   2.801   4.863   3.293
 8863SOL    HW127488   2.712   4.828   3.265
 8863SOL    HW227489   2.867   4.850   3.219
 8864SOL     OW27490   3.136   5.082   6.444
 8864SOL    HW127491   3.175   5.156   6.389
 8864SOL    HW227492   3.196   5.002   6.439
 8865SOL     OW27493   3.125   0.764   4.369
 8865SOL    HW127494   3.171   0.850   4.344
 8865SOL    HW227495   3.137   0.698   4.295
 8866SOL     OW27496   5.456   0.183   3.216
 8866SOL    HW127497   5.410   0.271   3.203
 8866SOL    HW227498   5.507   0.160   3.133
 8867SOL     OW27499   5.951   4.247   3.545
 8867SOL    HW127500   5.879   4.180   3.562
 8867SOL    HW227501   5.910   4.336   3.527
 8868SOL     OW27502   0.317   2.963   1.374
 8868SOL    HW127503   0.307   3.060   1.350
 8868SOL    HW227504   0.414   2.942   1.386
 8869SOL     OW27505   3.777   5.912   5.390
 8869SOL    HW127506   3.682   5.917   5.358
 8869SOL    HW227507   3.804   6.000   5.428
 8870SOL     OW27508   2.491   6.547   1.762
 8870SOL    HW127509   2.468   6.508   1.673
 8870SOL    HW227510   2.420   6.611   1.790
 8871SOL     OW27511   1.807   0.311   3.482
 8871SOL    HW127512   1.811   0.294   3.580
 8871SOL    HW227513   1.766   0.401   3.466
 8872SOL     OW27514   1.776   4.961   5.665
 8872SOL    HW127515   1.867   4.990   5.694
 8872SOL    HW227516   1.769   4.862   5.669
 8873SOL     OW27517   1.669   7.012   2.120
 8873SOL    HW127518   1.680   6.915   2.143
 8873SOL    HW227519   1.749   0.014   2.069
 8874SOL     OW27520   2.088   5.253   2.357
 8874SOL    HW127521   2.108   5.346   2.386
 8874SOL    HW227522   2.003   5.223   2.400
 8875SOL     OW27523   6.780   3.675   4.501
 8875SOL    HW127524   6.747   3.612   4.431
 8875SOL    HW227525   6.849   3.630   4.557
 8876SOL     OW27526   2.281   0.251   5.555
 8876SOL    HW127527   2.296   0.346   5.581
 8876SOL    HW227528   2.211   0.246   5.483
 8877SOL     OW27529   2.370   2.129   4.262
 8877SOL    HW127530   2.438   2.062   4.231
 8877SOL    HW227531   2.339   2.105   4.354
 8878SOL     OW27532   4.603   4.984   0.723
 8878SOL    HW127533   4.701   4.992   0.702
 8878SOL    HW227534   4.591   4.976   0.821
 8879SOL     OW27535   4.526   4.677   2.274
 8879SOL    HW127536   4.558   4.606   2.211
 8879SOL    HW227537   4.514   4.763   2.224
 8880SOL     OW27538   4.594   6.402   5.043
 8880SOL    HW127539   4.661   6.429   5.111
 8880SOL    HW227540   4.528   6.339   5.084
 8881SOL     OW27541   5.330   6.244   3.876
 8881SOL    HW127542   5.300   6.149   3.873
 8881SOL    HW227543   5.430   6.248   3.872
 8882SOL     OW27544   4.845   1.185   1.424
 8882SOL    HW127545   4.758   1.147   1.457
 8882SOL    HW227546   4.895   1.114   1.375
 8883SOL     OW27547   2.166   6.304   6.229
 8883SOL    HW127548   2.140   6.209   6.210
 8883SOL    HW227549   2.092   6.349   6.280
 8884SOL     OW27550   6.125   3.044   5.858
 8884SOL    HW127551   6.204   3.038   5.797
 8884SOL    HW227552   6.061   2.970   5.838
 8885SOL     OW27553   5.265   4.526   0.729
 8885SOL    HW127554   5.281   4.454   0.797
 8885SOL    HW227555   5.327   4.512   0.652
 8886SOL     OW27556   2.915   5.900   5.263
 8886SOL    HW127557   2.844   5.969   5.271
 8886SOL    HW227558   2.992   5.924   5.322
 8887SOL     OW27559   3.935   1.224   0.860
 8887SOL    HW127560   3.951   1.133   0.898
 8887SOL    HW227561   3.945   1.293   0.932
 8888SOL     OW27562   1.982   1.673   5.280
 8888SOL    HW127563   1.945   1.765   5.290
 8888SOL    HW227564   1.993   1.651   5.183
 8889SOL     OW27565   6.302   6.873   0.066
 8889SOL    HW127566   6.332   6.891   7.002
 8889SOL    HW227567   6.214   6.825   0.065
 8890SOL     OW27568   0.264   5.791   5.736
 8890SOL    HW127569   0.173   5.831   5.720
 8890SOL    HW227570   0.315   5.789   5.650
 8891SOL     OW27571   3.866   4.062   0.263
 8891SOL    HW127572   3.894   4.144   0.213
 8891SOL    HW227573   3.904   4.066   0.356
 8892SOL     OW27574   3.798   4.946   3.131
 8892SOL    HW127575   3.726   4.936   3.200
 8892SOL    HW227576   3.867   5.009   3.163
 8893SOL     OW27577   1.380   5.000   4.394
 8893SOL    HW127578   1.384   5.038   4.487
 8893SOL    HW227579   1.407   4.904   4.396
 8894SOL     OW27580   3.198   1.822   6.400
 8894SOL    HW127581   3.184   1.773   6.314
 8894SOL    HW227582   3.293   1.854   6.405
 8895SOL     OW27583   0.140   2.080   1.911
 8895SOL    HW127584   0.184   2.168   1.926
 8895SOL    HW227585   0.203   2.019   1.863
 8896SOL     OW27586   2.239   3.080   4.805
 8896SOL    HW127587   2.296   3.047   4.881
 8896SOL    HW227588   2.158   3.127   4.842
 8897SOL     OW27589   2.547   2.478   3.448
 8897SOL    HW127590   2.583   2.411   3.383
 8897SOL    HW227591   2.516   2.560   3.398
 8898SOL     OW27592   4.902   3.498   2.673
 8898SOL    HW127593   4.932   3.524   2.581
 8898SOL    HW227594   4.978   3.457   2.723
 8899SOL     OW27595   1.340   4.511   0.961
 8899SOL    HW127596   1.412   4.539   0.897
 8899SOL    HW227597   1.365   4.423   1.002
 8900SOL     OW27598   5.097   3.128   3.295
 8900SOL    HW127599   5.130   3.081   3.377
 8900SOL    HW227600   5.165   3.195   3.266
 8901SOL     OW27601   0.918   1.232   5.066
 8901SOL    HW127602   0.982   1.306   5.048
 8901SOL    HW227603   0.936   1.156   5.003
 8902SOL     OW27604   0.888   5.631   0.290
 8902SOL    HW127605   0.867   5.704   0.224
 8902SOL    HW227606   0.982   5.600   0.276
 8903SOL     OW27607   0.665   1.774   4.188
 8903SOL    HW127608   0.747   1.724   4.159
 8903SOL    HW227609   0.689   1.837   4.262
 8904SOL     OW27610   0.571   0.733   4.746
 8904SOL    HW127611   0.629   0.653   4.760
 8904SOL    HW227612   0.509   0.716   4.669
 8905SOL     OW27613   2.196   3.148   3.270
 8905SOL    HW127614   2.116   3.163   3.329
 8905SOL    HW227615   2.263   3.091   3.317
 8906SOL     OW27616   0.348   6.331   0.918
 8906SOL    HW127617   0.282   6.257   0.911
 8906SOL    HW227618   0.407   6.317   0.997
 8907SOL     OW27619   3.573   2.746   5.679
 8907SOL    HW127620   3.623   2.685   5.618
 8907SOL    HW227621   3.623   2.756   5.765
 8908SOL     OW27622   1.501   5.931   0.320
 8908SOL    HW127623   1.582   5.966   0.274
 8908SOL    HW227624   1.524   5.906   0.414
 8909SOL     OW27625   2.357   1.465   5.797
 8909SOL    HW127626   2.330   1.417   5.714
 8909SOL    HW227627   2.412   1.404   5.855
 8910SOL     OW27628   0.993   3.147   5.403
 8910SOL    HW127629   1.073   3.097   5.372
 8910SOL    HW227630   1.011   3.245   5.399
 8911SOL     OW27631   4.880   3.229   4.468
 8911SOL    HW127632   4.968   3.194   4.499
 8911SOL    HW227633   4.872   3.326   4.494
 8912SOL     OW27634   2.923   3.842   6.891
 8912SOL    HW127635   2.882   3.760   6.850
 8912SOL    HW227636   2.851   3.907   6.915
 8913SOL     OW27637   4.064   5.431   6.347
 8913SOL    HW127638   3.972   5.417   6.384
 8913SOL    HW227639   4.062   5.422   6.248
 8914SOL     OW27640   4.614   0.301   4.841
 8914SOL    HW127641   4.560   0.276   4.761
 8914SOL    HW227642   4.681   0.230   4.860
 8915SOL     OW27643   1.704   2.170   3.794
 8915SOL    HW127644   1.718   2.263   3.827
 8915SOL    HW227645   1.792   2.125   3.781
 8916SOL     OW27646   6.540   3.409   0.498
 8916SOL    HW127647   6.501   3.490   0.454
 8916SOL    HW227648   6.638   3.406   0.482
 8917SOL     OW27649   5.588   2.881   0.572
 8917SOL    HW127650   5.656   2.880   0.499
 8917SOL    HW227651   5.551   2.788   0.584
 8918SOL     OW27652   0.566   4.588   0.890
 8918SOL    HW127653   0.666   4.584   0.888
 8918SOL    HW227654   0.537   4.651   0.962
 8919SOL     OW27655   4.806   3.941   0.124
 8919SOL    HW127656   4.833   3.847   0.143
 8919SOL    HW227657   4.881   3.988   0.076
 8920SOL     OW27658   0.138   1.698   6.840
 8920SOL    HW127659   0.141   1.739   6.748
 8920SOL    HW227660   0.205   1.625   6.846
 8921SOL     OW27661   1.881   3.415   1.731
 8921SOL    HW127662   1.860   3.341   1.795
 8921SOL    HW227663   1.925   3.490   1.780
 8922SOL     OW27664   4.217   5.040   2.336
 8922SOL    HW127665   4.157   4.968   2.299
 8922SOL    HW227666   4.262   5.005   2.419
 8923SOL     OW27667   1.762   1.835   6.583
 8923SOL    HW127668   1.712   1.750   6.570
 8923SOL    HW227669   1.702   1.902   6.626
 8924SOL     OW27670   4.510   5.603   5.344
 8924SOL    HW127671   4.563   5.685   5.364
 8924SOL    HW227672   4.466   5.612   5.255
 8925SOL     OW27673   0.865   0.707   3.296
 8925SOL    HW127674   0.780   0.690   3.345
 8925SOL    HW227675   0.845   0.739   3.204
 8926SOL     OW27676   6.498   3.235   6.444
 8926SOL    HW127677   6.409   3.277   6.430
 8926SOL    HW227678   6.539   3.270   6.528
 8927SOL     OW27679   6.853   1.122   4.431
 8927SOL    HW127680   6.945   1.094   4.460
 8927SOL    HW227681   6.791   1.121   4.510
 8928SOL     OW27682   1.365   0.354   6.178
 8928SOL    HW127683   1.463   0.332   6.179
 8928SOL    HW227684   1.330   0.341   6.085
 8929SOL     OW27685   5.748   2.033   4.786
 8929SOL    HW127686   5.821   2.007   4.723
 8929SOL    HW227687   5.788   2.059   4.874
 8930SOL     OW27688   1.173   2.851   3.657
 8930SOL    HW127689   1.248   2.913   3.678
 8930SOL    HW227690   1.209   2.767   3.616
 8931SOL     OW27691   3.328   3.687   0.944
 8931SOL    HW127692   3.278   3.677   1.030
 8931SOL    HW227693   3.266   3.676   0.867
 8932SOL     OW27694   6.248   2.201   1.919
 8932SOL    HW127695   6.343   2.173   1.913
 8932SOL    HW227696   6.218   2.238   1.831
 8933SOL     OW27697   2.873   2.769   6.081
 8933SOL    HW127698   2.815   2.824   6.140
 8933SOL    HW227699   2.905   2.824   6.004
 8934SOL     OW27700   2.480   5.381   4.410
 8934SOL    HW127701   2.478   5.477   4.438
 8934SOL    HW227702   2.489   5.322   4.491
 8935SOL     OW27703   0.422   4.787   0.181
 8935SOL    HW127704   0.491   4.816   0.114
 8935SOL    HW227705   0.337   4.764   0.134
 8936SOL     OW27706   1.097   4.345   2.160
 8936SOL    HW127707   1.107   4.246   2.165
 8936SOL    HW227708   1.177   4.389   2.201
 8937SOL     OW27709   0.525   0.006   5.663
 8937SOL    HW127710   0.598   6.993   5.717
 8937SOL    HW227711   0.511   0.100   5.695
 8938SOL     OW27712   0.598   6.200   0.822
 8938SOL    HW127713   0.680   6.177   0.874
 8938SOL    HW227714   0.600   6.297   0.798
 8939SOL     OW27715   5.090   2.972   4.243
 8939SOL    HW127716   5.162   2.952   4.177
 8939SOL    HW227717   5.122   2.951   4.335
 8940SOL     OW27718   0.456   1.406   2.301
 8940SOL    HW127719   0.472   1.441   2.394
 8940SOL    HW227720   0.542   1.406   2.250
 8941SOL     OW27721   6.511   2.567   5.778
 8941SOL    HW127722   6.563   2.649   5.804
 8941SOL    HW227723   6.449   2.590   5.703
 8942SOL     OW27724   6.351   4.838   4.734
 8942SOL    HW127725   6.319   4.925   4.696
 8942SOL    HW227726   6.365   4.773   4.660
 8943SOL     OW27727   3.446   5.056   5.843
 8943SOL    HW127728   3.426   4.985   5.776
 8943SOL    HW227729   3.501   5.018   5.917
 8944SOL     OW27730   5.311   4.646   5.488
 8944SOL    HW127731   5.396   4.692   5.512
 8944SOL    HW227732   5.324   4.592   5.405
 8945SOL     OW27733   0.966   0.961   2.893
 8945SOL    HW127734   1.009   1.040   2.849
 8945SOL    HW227735   1.037   0.904   2.936
 8946SOL     OW27736   3.293   1.504   5.160
 8946SOL    HW127737   3.383   1.461   5.167
 8946SOL    HW227738   3.225   1.444   5.203
 8947SOL     OW27739   2.205   3.417   5.623
 8947SOL    HW127740   2.163   3.358   5.555
 8947SOL    HW227741   2.304   3.420   5.608
 8948SOL     OW27742   6.242   6.409   4.532
 8948SOL    HW127743   6.221   6.313   4.551
 8948SOL    HW227744   6.335   6.429   4.564
 8949SOL     OW27745   2.458   0.020   0.804
 8949SOL    HW127746   2.407   6.969   0.774
 8949SOL    HW227747   2.550   7.023   0.831
 8950SOL     OW27748   4.838   4.316   5.974
 8950SOL    HW127749   4.738   4.323   5.966
 8950SOL    HW227750   4.862   4.288   6.066
 8951SOL     OW27751   1.461   2.124   5.212
 8951SOL    HW127752   1.401   2.204   5.218
 8951SOL    HW227753   1.404   2.042   5.203
 8952SOL     OW27754   1.608   6.997   2.668
 8952SOL    HW127755   1.696   6.964   2.634
 8952SOL    HW227756   1.599   0.065   2.648
 8953SOL     OW27757   1.404   4.195   6.757
 8953SOL    HW127758   1.441   4.180   6.849
 8953SOL    HW227759   1.452   4.273   6.715
 8954SOL     OW27760   0.771   0.091   5.332
 8954SOL    HW127761   0.857   0.056   5.368
 8954SOL    HW227762   0.703   0.018   5.332
 8955SOL     OW27763   0.041   5.008   2.224
 8955SOL    HW127764   6.984   5.057   2.230
 8955SOL    HW227765   0.034   4.922   2.274
 8956SOL     OW27766   0.924   1.564   6.756
 8956SOL    HW127767   1.018   1.581   6.784
 8956SOL    HW227768   0.867   1.548   6.836
 8957SOL     OW27769   2.731   4.431   1.639
 8957SOL    HW127770   2.689   4.343   1.660
 8957SOL    HW227771   2.783   4.463   1.718
 8958SOL     OW27772   0.488   1.415   5.005
 8958SOL    HW127773   0.516   1.335   5.058
 8958SOL    HW227774   0.399   1.397   4.963
 8959SOL     OW27775   1.356   4.382   1.700
 8959SOL    HW127776   1.377   4.437   1.620
 8959SOL    HW227777   1.441   4.352   1.744
 8960SOL     OW27778   4.321   4.573   2.672
 8960SOL    HW127779   4.259   4.629   2.728
 8960SOL    HW227780   4.408   4.562   2.719
 8961SOL     OW27781   2.525   1.119   4.617
 8961SOL    HW127782   2.560   1.132   4.709
 8961SOL    HW227783   2.602   1.112   4.553
 8962SOL     OW27784   5.955   6.002   2.303
 8962SOL    HW127785   5.953   5.991   2.402
 8962SOL    HW227786   5.931   6.095   2.278
 8963SOL     OW27787   4.286   6.360   4.174
 8963SOL    HW127788   4.373   6.403   4.149
 8963SOL    HW227789   4.214   6.429   4.173
 8964SOL     OW27790   4.839   3.060   3.259
 8964SOL    HW127791   4.830   3.027   3.353
 8964SOL    HW227792   4.930   3.099   3.246
 8965SOL     OW27793   2.319   4.814   0.800
 8965SOL    HW127794   2.386   4.880   0.766
 8965SOL    HW227795   2.276   4.849   0.883
 8966SOL     OW27796   6.768   4.002   6.937
 8966SOL    HW127797   6.730   3.932   6.876
 8966SOL    HW227798   6.789   4.084   6.885
 8967SOL     OW27799   4.038   0.010   1.961
 8967SOL    HW127800   4.108   7.013   1.894
 8967SOL    HW227801   4.080   0.063   2.034
 8968SOL     OW27802   5.053   4.830   3.041
 8968SOL    HW127803   5.109   4.892   2.986
 8968SOL    HW227804   5.108   4.751   3.069
 8969SOL     OW27805   7.020   1.378   4.668
 8969SOL    HW127806   0.021   1.416   4.755
 8969SOL    HW227807   0.066   1.378   4.603
 8970SOL     OW27808   2.446   3.380   0.427
 8970SOL    HW127809   2.395   3.414   0.506
 8970SOL    HW227810   2.384   3.333   0.364
 8971SOL     OW27811   4.904   5.594   1.887
 8971SOL    HW127812   4.959   5.531   1.942
 8971SOL    HW227813   4.807   5.574   1.901
 8972SOL     OW27814   5.282   4.785   6.248
 8972SOL    HW127815   5.209   4.719   6.266
 8972SOL    HW227816   5.258   4.840   6.168
 8973SOL     OW27817   1.238   3.251   2.365
 8973SOL    HW127818   1.328   3.210   2.375
 8973SOL    HW227819   1.168   3.185   2.393
 8974SOL     OW27820   1.380   4.616   5.751
 8974SOL    HW127821   1.323   4.694   5.775
 8974SOL    HW227822   1.393   4.613   5.652
 8975SOL     OW27823   1.871   0.101   6.096
 8975SOL    HW127824   1.962   0.078   6.132
 8975SOL    HW227825   1.870   0.196   6.066
 8976SOL     OW27826   0.399   4.636   5.012
 8976SOL    HW127827   0.449   4.693   4.947
 8976SOL    HW227828   0.448   4.634   5.100
 8977SOL     OW27829   5.736   2.855   0.336
 8977SOL    HW127830   5.801   2.930   0.322
 8977SOL    HW227831   5.768   2.773   0.289
 8978SOL     OW27832   5.724   0.295   4.985
 8978SOL    HW127833   5.661   0.330   5.055
 8978SOL    HW227834   5.761   0.207   5.015
 8979SOL     OW27835   1.227   3.421   4.407
 8979SOL    HW127836   1.207   3.514   4.439
 8979SOL    HW227837   1.164   3.396   4.334
 8980SOL     OW27838   2.795   2.941   5.860
 8980SOL    HW127839   2.733   2.944   5.938
 8980SOL    HW227840   2.750   2.893   5.784
 8981SOL     OW27841   4.626   2.071   5.483
 8981SOL    HW127842   4.564   2.009   5.531
 8981SOL    HW227843   4.581   2.105   5.400
 8982SOL     OW27844   0.996   2.283   1.047
 8982SOL    HW127845   0.914   2.324   1.085
 8982SOL    HW227846   1.026   2.207   1.105
 8983SOL     OW27847   1.953   6.267   0.189
 8983SOL    HW127848   1.882   6.298   0.126
 8983SOL    HW227849   2.016   6.342   0.208
 8984SOL     OW27850   7.004   0.729   4.443
 8984SOL    HW127851   0.055   0.675   4.467
 8984SOL    HW227852   6.967   0.695   4.356
 8985SOL     OW27853   2.433   3.075   0.521
 8985SOL    HW127854   2.452   3.165   0.481
 8985SOL    HW227855   2.516   3.038   0.561
 8986SOL     OW27856   4.989   5.183   2.436
 8986SOL    HW127857   4.970   5.257   2.371
 8986SOL    HW227858   4.943   5.100   2.406
 8987SOL     OW27859   4.342   6.708   1.668
 8987SOL    HW127860   4.412   6.767   1.628
 8987SOL    HW227861   4.338   6.622   1.618
 8988SOL     OW27862   1.865   3.486   5.564
 8988SOL    HW127863   1.951   3.527   5.594
 8988SOL    HW227864   1.790   3.551   5.576
 8989SOL     OW27865   5.258   3.827   1.159
 8989SOL    HW127866   5.277   3.733   1.188
 8989SOL    HW227867   5.204   3.873   1.229
 8990SOL     OW27868   2.039   6.117   3.236
 8990SOL    HW127869   1.995   6.065   3.309
 8990SOL    HW227870   1.983   6.113   3.154
 8991SOL     OW27871   1.446   2.369   6.640
 8991SOL    HW127872   1.452   2.390   6.737
 8991SOL    HW227873   1.467   2.273   6.625
 8992SOL     OW27874   5.512   1.502   0.336
 8992SOL    HW127875   5.454   1.558   0.276
 8992SOL    HW227876   5.605   1.501   0.301
 8993SOL     OW27877   5.373   2.390   2.139
 8993SOL    HW127878   5.338   2.451   2.210
 8993SOL    HW227879   5.300   2.368   2.075
 8994SOL     OW27880   1.393   4.406   4.624
 8994SOL    HW127881   1.415   4.330   4.563
 8994SOL    HW227882   1.476   4.459   4.643
 8995SOL     OW27883   0.812   3.004   0.072
 8995SOL    HW127884   0.718   3.025   0.098
 8995SOL    HW227885   0.818   2.995   7.002
 8996SOL     OW27886   5.344   5.144   0.705
 8996SOL    HW127887   5.279   5.164   0.631
 8996SOL    HW227888   5.326   5.204   0.782
 8997SOL     OW27889   5.004   1.151   5.924
 8997SOL    HW127890   4.935   1.106   5.980
 8997SOL    HW227891   4.967   1.167   5.832
 8998SOL     OW27892   6.443   4.042   4.523
 8998SOL    HW127893   6.509   3.968   4.515
 8998SOL    HW227894   6.360   4.008   4.568
 8999SOL     OW27895   4.847   6.443   6.649
 8999SOL    HW127896   4.809   6.535   6.660
 8999SOL    HW227897   4.913   6.426   6.722
 9000SOL     OW27898   1.688   4.009   0.910
 9000SOL    HW127899   1.774   4.022   0.958
 9000SOL    HW227900   1.660   3.913   0.916
 9001SOL     OW27901   1.325   5.743   2.375
 9001SOL    HW127902   1.227   5.729   2.362
 9001SOL    HW227903   1.371   5.655   2.386
 9002SOL     OW27904   0.566   4.718   4.802
 9002SOL    HW127905   0.562   4.634   4.747
 9002SOL    HW227906   0.579   4.796   4.741
 9003SOL     OW27907   5.522   3.236   1.819
 9003SOL    HW127908   5.438   3.191   1.788
 9003SOL    HW227909   5.566   3.180   1.889
 9004SOL     OW27910   4.086   6.686   1.599
 9004SOL    HW127911   4.176   6.711   1.635
 9004SOL    HW227912   4.027   6.766   1.599
 9005SOL     OW27913   5.847   2.645   4.237
 9005SOL    HW127914   5.753   2.611   4.234
 9005SOL    HW227915   5.910   2.569   4.253
 9006SOL     OW27916   2.579   6.049   1.339
 9006SOL    HW127917   2.679   6.050   1.338
 9006SOL    HW227918   2.545   5.996   1.261
 9007SOL     OW27919   3.473   1.175   3.869
 9007SOL    HW127920   3.524   1.108   3.815
 9007SOL    HW227921   3.443   1.133   3.954
 9008SOL     OW27922   1.255   5.779   3.702
 9008SOL    HW127923   1.355   5.774   3.712
 9008SOL    HW227924   1.227   5.725   3.623
 9009SOL     OW27925   3.248   6.979   1.027
 9009SOL    HW127926   3.202   0.036   1.007
 9009SOL    HW227927   3.289   6.944   0.943
 9010SOL     OW27928   1.435   6.673   3.703
 9010SOL    HW127929   1.390   6.748   3.753
 9010SOL    HW227930   1.474   6.709   3.618
 9011SOL     OW27931   5.851   1.892   2.285
 9011SOL    HW127932   5.930   1.878   2.345
 9011SOL    HW227933   5.789   1.959   2.327
 9012SOL     OW27934   2.044   3.818   0.705
 9012SOL    HW127935   2.032   3.720   0.722
 9012SOL    HW227936   2.109   3.831   0.631
 9013SOL     OW27937   6.832   6.552   5.162
 9013SOL    HW127938   6.814   6.616   5.236
 9013SOL    HW227939   6.854   6.603   5.078
 9014SOL     OW27940   6.065   1.888   0.241
 9014SOL    HW127941   6.095   1.892   0.145
 9014SOL    HW227942   5.981   1.835   0.248
 9015SOL     OW27943   4.692   1.361   2.119
 9015SOL    HW127944   4.734   1.313   2.042
 9015SOL    HW227945   4.741   1.337   2.203
 9016SOL     OW27946   0.375   6.611   6.624
 9016SOL    HW127947   0.331   6.630   6.536
 9016SOL    HW227948   0.398   6.698   6.669
 9017SOL     OW27949   4.375   2.154   3.517
 9017SOL    HW127950   4.338   2.246   3.502
 9017SOL    HW227951   4.387   2.108   3.428
 9018SOL     OW27952   3.903   2.243   6.535
 9018SOL    HW127953   3.813   2.225   6.494
 9018SOL    HW227954   3.913   2.341   6.552
 9019SOL     OW27955   1.410   6.467   2.049
 9019SOL    HW127956   1.454   6.403   2.112
 9019SOL    HW227957   1.328   6.505   2.091
 9020SOL     OW27958   0.064   3.921   1.189
 9020SOL    HW127959   0.095   4.014   1.206
 9020SOL    HW227960   0.001   3.920   1.111
 9021SOL     OW27961   6.569   0.027   3.218
 9021SOL    HW127962   6.625   6.977   3.197
 9021SOL    HW227963   6.628   0.103   3.246
 9022SOL     OW27964   3.161   1.839   6.836
 9022SOL    HW127965   3.151   1.759   6.777
 9022SOL    HW227966   3.258   1.859   6.847
 9023SOL     OW27967   3.663   3.131   2.520
 9023SOL    HW127968   3.734   3.073   2.561
 9023SOL    HW227969   3.705   3.209   2.475
 9024SOL     OW27970   0.931   4.565   4.930
 9024SOL    HW127971   1.028   4.579   4.907
 9024SOL    HW227972   0.910   4.467   4.928
 9025SOL     OW27973   0.690   5.198   0.435
 9025SOL    HW127974   0.712   5.292   0.410
 9025SOL    HW227975   0.640   5.155   0.360
 9026SOL     OW27976   4.450   3.089   0.681
 9026SOL    HW127977   4.387   3.163   0.704
 9026SOL    HW227978   4.403   3.001   0.688
 9027SOL     OW27979   1.336   2.264   3.366
 9027SOL    HW127980   1.245   2.244   3.328
 9027SOL    HW227981   1.403   2.200   3.327
 9028SOL     OW27982   2.858   3.854   5.716
 9028SOL    HW127983   2.897   3.923   5.656
 9028SOL    HW227984   2.793   3.898   5.779
 9029SOL     OW27985   3.892   6.451   5.337
 9029SOL    HW127986   3.952   6.447   5.258
 9029SOL    HW227987   3.916   6.530   5.394
 9030SOL     OW27988   2.567   1.638   3.537
 9030SOL    HW127989   2.645   1.681   3.491
 9030SOL    HW227990   2.556   1.544   3.504
 9031SOL     OW27991   4.205   5.768   4.440
 9031SOL    HW127992   4.289   5.721   4.412
 9031SOL    HW227993   4.126   5.711   4.417
 9032SOL     OW27994   3.716   3.735   0.522
 9032SOL    HW127995   3.808   3.698   0.537
 9032SOL    HW227996   3.719   3.803   0.448
 9033SOL     OW27997   0.487   4.027   3.013
 9033SOL    HW127998   0.526   4.069   3.094
 9033SOL    HW227999   0.388   4.025   3.020
 9034SOL     OW28000   3.316   0.288   5.366
 9034SOL    HW128001   3.394   0.301   5.427
 9034SOL    HW228002   3.274   0.199   5.385
 9035SOL     OW28003   1.930   5.214   6.647
 9035SOL    HW128004   1.952   5.208   6.549
 9035SOL    HW228005   2.015   5.220   6.699
 9036SOL     OW28006   1.419   1.614   5.481
 9036SOL    HW128007   1.493   1.549   5.463
 9036SOL    HW228008   1.334   1.565   5.499
 9037SOL     OW28009   1.331   4.086   4.973
 9037SOL    HW128010   1.414   4.127   4.935
 9037SOL    HW228011   1.267   4.066   4.898
 9038SOL     OW28012   4.114   0.375   6.162
 9038SOL    HW128013   4.202   0.410   6.193
 9038SOL    HW228014   4.104   0.391   6.064
 9039SOL     OW28015   2.848   5.633   5.311
 9039SOL    HW128016   2.825   5.616   5.407
 9039SOL    HW228017   2.861   5.731   5.296
 9040SOL     OW28018   3.402   2.067   2.585
 9040SOL    HW128019   3.359   2.064   2.495
 9040SOL    HW228020   3.335   2.097   2.653
 9041SOL     OW28021   1.082   2.237   1.380
 9041SOL    HW128022   0.993   2.282   1.381
 9041SOL    HW228023   1.069   2.139   1.360
 9042SOL     OW28024   3.373   0.536   4.348
 9042SOL    HW128025   3.450   0.475   4.327
 9042SOL    HW228026   3.311   0.492   4.412
 9043SOL     OW28027   1.451   0.989   0.165
 9043SOL    HW128028   1.503   0.942   0.094
 9043SOL    HW228029   1.358   0.953   0.168
 9044SOL     OW28030   6.157   0.539   0.240
 9044SOL    HW128031   6.182   0.634   0.224
 9044SOL    HW228032   6.230   0.479   0.209
 9045SOL     OW28033   2.692   1.607   2.415
 9045SOL    HW128034   2.605   1.561   2.435
 9045SOL    HW228035   2.753   1.598   2.493
 9046SOL     OW28036   3.392   3.594   3.133
 9046SOL    HW128037   3.354   3.502   3.144
 9046SOL    HW228038   3.490   3.593   3.155
 9047SOL     OW28039   2.202   3.885   5.618
 9047SOL    HW128040   2.275   3.869   5.551
 9047SOL    HW228041   2.155   3.971   5.595
 9048SOL     OW28042   5.213   3.403   6.429
 9048SOL    HW128043   5.128   3.373   6.472
 9048SOL    HW228044   5.228   3.352   6.344
 9049SOL     OW28045   3.522   0.021   5.535
 9049SOL    HW128046   3.535   6.954   5.514
 9049SOL    HW228047   3.461   0.030   5.614
 9050SOL     OW28048   0.187   3.150   0.815
 9050SOL    HW128049   0.239   3.065   0.819
 9050SOL    HW228050   0.249   3.227   0.799
 9051SOL     OW28051   3.690   6.873   0.949
 9051SOL    HW128052   3.624   6.942   0.981
 9051SOL    HW228053   3.730   6.827   1.028
 9052SOL     OW28054   2.668   2.423   4.259
 9052SOL    HW128055   2.639   2.488   4.329
 9052SOL    HW228056   2.625   2.446   4.171
 9053SOL     OW28057   2.013   0.802   2.698
 9053SOL    HW128058   2.031   0.860   2.618
 9053SOL    HW228059   1.960   0.722   2.670
 9054SOL     OW28060   2.942   5.926   3.560
 9054SOL    HW128061   3.020   5.988   3.566
 9054SOL    HW228062   2.959   5.845   3.616
 9055SOL     OW28063   6.174   2.851   4.341
 9055SOL    HW128064   6.150   2.937   4.295
 9055SOL    HW228065   6.123   2.844   4.427
 9056SOL     OW28066   0.682   1.448   2.142
 9056SOL    HW128067   0.631   1.497   2.071
 9056SOL    HW228068   0.778   1.478   2.140
 9057SOL     OW28069   4.990   4.039   6.372
 9057SOL    HW128070   4.974   4.098   6.451
 9057SOL    HW228071   4.991   3.944   6.401
 9058SOL     OW28072   1.925   1.512   1.720
 9058SOL    HW128073   1.836   1.487   1.756
 9058SOL    HW228074   1.995   1.452   1.758
 9059SOL     OW28075   1.396   2.027   3.933
 9059SOL    HW128076   1.445   2.093   3.989
 9059SOL    HW228077   1.317   2.070   3.891
 9060SOL     OW28078   6.350   2.508   3.472
 9060SOL    HW128079   6.370   2.482   3.377
 9060SOL    HW228080   6.346   2.608   3.478
 9061SOL     OW28081   2.079   5.044   1.968
 9061SOL    HW128082   2.032   4.960   1.994
 9061SOL    HW228083   2.173   5.023   1.942
 9062SOL     OW28084   1.884   6.363   2.000
 9062SOL    HW128085   1.864   6.359   1.902
 9062SOL    HW228086   1.848   6.281   2.044
 9063SOL     OW28087   3.189   6.975   2.969
 9063SOL    HW128088   3.228   6.910   2.904
 9063SOL    HW228089   3.193   0.037   2.930
 9064SOL     OW28090   6.352   2.453   5.382
 9064SOL    HW128091   6.267   2.407   5.408
 9064SOL    HW228092   6.354   2.464   5.282
 9065SOL     OW28093   3.629   0.563   5.160
 9065SOL    HW128094   3.641   0.464   5.164
 9065SOL    HW228095   3.538   0.587   5.194
 9066SOL     OW28096   4.171   6.076   0.861
 9066SOL    HW128097   4.231   6.046   0.935
 9066SOL    HW228098   4.131   6.164   0.884
 9067SOL     OW28099   0.288   0.423   4.568
 9067SOL    HW128100   0.229   0.439   4.489
 9067SOL    HW228101   0.369   0.371   4.538
 9068SOL     OW28102   2.682   6.772   4.537
 9068SOL    HW128103   2.725   6.695   4.489
 9068SOL    HW228104   2.583   6.760   4.536
 9069SOL     OW28105   1.500   3.395   1.313
 9069SOL    HW128106   1.439   3.463   1.271
 9069SOL    HW228107   1.459   3.362   1.398
 9070SOL     OW28108   1.371   3.359   4.777
 9070SOL    HW128109   1.293   3.356   4.839
 9070SOL    HW228110   1.394   3.265   4.748
 9071SOL     OW28111   5.996   6.625   1.627
 9071SOL    HW128112   6.008   6.528   1.606
 9071SOL    HW228113   5.909   6.657   1.589
 9072SOL     OW28114   0.034   1.994   1.359
 9072SOL    HW128115   0.092   2.061   1.313
 9072SOL    HW228116   6.999   2.041   1.419
 9073SOL     OW28117   3.108   7.012   2.607
 9073SOL    HW128118   3.177   7.020   2.678
 9073SOL    HW228119   3.051   0.064   2.606
 9074SOL     OW28120   1.671   1.763   2.072
 9074SOL    HW128121   1.635   1.853   2.045
 9074SOL    HW228122   1.749   1.776   2.133
 9075SOL     OW28123   0.499   1.393   1.570
 9075SOL    HW128124   0.549   1.322   1.520
 9075SOL    HW228125   0.498   1.371   1.667
 9076SOL     OW28126   6.901   2.696   5.646
 9076SOL    HW128127   6.969   2.728   5.712
 9076SOL    HW228128   6.935   2.615   5.598
 9077SOL     OW28129   4.350   0.495   0.032
 9077SOL    HW128130   4.435   0.522   0.077
 9077SOL    HW228131   4.326   0.563   6.992
 9078SOL     OW28132   4.019   3.360   6.202
 9078SOL    HW128133   4.041   3.295   6.275
 9078SOL    HW228134   4.099   3.371   6.143
 9079SOL     OW28135   3.426   6.966   4.307
 9079SOL    HW128136   3.382   0.026   4.302
 9079SOL    HW228137   3.409   6.916   4.223
 9080SOL     OW28138   4.414   2.724   6.439
 9080SOL    HW128139   4.400   2.625   6.444
 9080SOL    HW228140   4.344   2.765   6.381
 9081SOL     OW28141   4.325   0.233   2.371
 9081SOL    HW128142   4.294   0.327   2.381
 9081SOL    HW228143   4.259   0.172   2.416
 9082SOL     OW28144   2.417   0.467   5.304
 9082SOL    HW128145   2.402   0.374   5.269
 9082SOL    HW228146   2.501   0.468   5.359
 9083SOL     OW28147   3.238   5.244   6.255
 9083SOL    HW128148   3.270   5.336   6.233
 9083SOL    HW228149   3.217   5.195   6.170
 9084SOL     OW28150   3.441   4.164   4.005
 9084SOL    HW128151   3.371   4.166   3.933
 9084SOL    HW228152   3.444   4.251   4.052
 9085SOL     OW28153   2.100   0.455   1.723
 9085SOL    HW128154   2.015   0.415   1.688
 9085SOL    HW228155   2.112   0.427   1.819
 9086SOL     OW28156   0.704   4.522   0.086
 9086SOL    HW128157   0.640   4.536   0.161
 9086SOL    HW228158   0.653   4.496   0.003
 9087SOL     OW28159   4.333   2.151   1.140
 9087SOL    HW128160   4.418   2.203   1.138
 9087SOL    HW228161   4.290   2.160   1.230
 9088SOL     OW28162   6.862   6.732   1.590
 9088SOL    HW128163   6.952   6.694   1.612
 9088SOL    HW228164   6.870   6.792   1.511
 9089SOL     OW28165   5.680   5.727   5.688
 9089SOL    HW128166   5.596   5.675   5.671
 9089SOL    HW228167   5.753   5.663   5.715
 9090SOL     OW28168   6.833   1.145   4.700
 9090SOL    HW128169   6.908   1.210   4.690
 9090SOL    HW228170   6.859   1.072   4.763
 9091SOL     OW28171   2.550   4.177   0.546
 9091SOL    HW128172   2.644   4.183   0.579
 9091SOL    HW228173   2.542   4.226   0.459
 9092SOL     OW28174   6.395   0.769   6.754
 9092SOL    HW128175   6.355   0.740   6.668
 9092SOL    HW228176   6.432   0.861   6.745
 9093SOL     OW28177   0.916   5.781   5.472
 9093SOL    HW128178   0.917   5.697   5.527
 9093SOL    HW228179   1.010   5.810   5.456
 9094SOL     OW28180   6.412   4.740   2.743
 9094SOL    HW128181   6.402   4.662   2.805
 9094SOL    HW228182   6.335   4.743   2.679
 9095SOL     OW28183   5.057   4.780   5.865
 9095SOL    HW128184   4.976   4.797   5.809
 9095SOL    HW228185   5.078   4.862   5.919
 9096SOL     OW28186   6.701   5.156   2.453
 9096SOL    HW128187   6.624   5.159   2.389
 9096SOL    HW228188   6.784   5.185   2.407
 9097SOL     OW28189   2.080   1.567   0.634
 9097SOL    HW128190   2.171   1.601   0.660
 9097SOL    HW228191   2.012   1.606   0.695
 9098SOL     OW28192   3.089   2.149   4.804
 9098SOL    HW128193   2.997   2.184   4.787
 9098SOL    HW228194   3.136   2.209   4.869
 9099SOL     OW28195   3.286   3.264   6.284
 9099SOL    HW128196   3.249   3.234   6.196
 9099SOL    HW228197   3.290   3.187   6.347
 9100SOL     OW28198   0.233   3.598   3.583
 9100SOL    HW128199   0.139   3.591   3.615
 9100SOL    HW228200   0.291   3.634   3.656
 9101SOL     OW28201   2.690   2.493   1.805
 9101SOL    HW128202   2.780   2.480   1.846
 9101SOL    HW228203   2.624   2.433   1.851
 9102SOL     OW28204   3.613   6.721   2.287
 9102SOL    HW128205   3.556   6.763   2.216
 9102SOL    HW228206   3.705   6.707   2.252
 9103SOL     OW28207   5.538   1.840   6.722
 9103SOL    HW128208   5.594   1.802   6.796
 9103SOL    HW228209   5.441   1.825   6.744
 9104SOL     OW28210   6.953   6.421   1.640
 9104SOL    HW128211   7.021   6.357   1.678
 9104SOL    HW228212   6.973   6.437   1.544
 9105SOL     OW28213   0.593   0.452   5.602
 9105SOL    HW128214   0.666   0.452   5.670
 9105SOL    HW228215   0.538   0.535   5.612
 9106SOL     OW28216   6.045   3.053   1.205
 9106SOL    HW128217   6.142   3.076   1.199
 9106SOL    HW228218   6.017   3.052   1.301
 9107SOL     OW28219   2.380   0.587   6.534
 9107SOL    HW128220   2.428   0.657   6.587
 9107SOL    HW228221   2.446   0.535   6.480
 9108SOL     OW28222   5.028   4.501   5.349
 9108SOL    HW128223   5.031   4.570   5.277
 9108SOL    HW228224   5.121   4.485   5.383
 9109SOL     OW28225   5.285   3.693   2.833
 9109SOL    HW128226   5.311   3.708   2.928
 9109SOL    HW228227   5.242   3.603   2.825
 9110SOL     OW28228   1.688   5.418   4.598
 9110SOL    HW128229   1.759   5.413   4.668
 9110SOL    HW228230   1.636   5.503   4.608
 9111SOL     OW28231   4.576   2.871   0.066
 9111SOL    HW128232   4.648   2.921   0.114
 9111SOL    HW228233   4.532   2.931   7.029
 9112SOL     OW28234   1.530   5.110   2.449
 9112SOL    HW128235   1.545   5.035   2.383
 9112SOL    HW228236   1.495   5.072   2.534
 9113SOL     OW28237   5.417   2.788   2.820
 9113SOL    HW128238   5.327   2.823   2.846
 9113SOL    HW228239   5.453   2.732   2.895
 9114SOL     OW28240   0.100   5.304   3.604
 9114SOL    HW128241   0.033   5.252   3.550
 9114SOL    HW228242   0.180   5.322   3.548
 9115SOL     OW28243   5.895   5.570   5.041
 9115SOL    HW128244   5.843   5.506   4.985
 9115SOL    HW228245   5.963   5.521   5.095
 9116SOL     OW28246   0.697   6.974   2.953
 9116SOL    HW128247   0.724   6.928   2.868
 9116SOL    HW228248   0.606   7.014   2.941
 9117SOL     OW28249   3.716   2.479   6.525
 9117SOL    HW128250   3.625   2.485   6.566
 9117SOL    HW228251   3.709   2.480   6.426
 9118SOL     OW28252   6.320   3.235   0.320
 9118SOL    HW128253   6.358   3.310   0.374
 9118SOL    HW228254   6.394   3.185   0.274
 9119SOL     OW28255   3.878   1.205   1.695
 9119SOL    HW128256   3.884   1.112   1.733
 9119SOL    HW228257   3.782   1.227   1.678
 9120SOL     OW28258   6.860   2.367   5.833
 9120SOL    HW128259   6.926   2.322   5.894
 9120SOL    HW228260   6.815   2.442   5.881
 9121SOL     OW28261   3.514   5.939   5.315
 9121SOL    HW128262   3.478   5.992   5.238
 9121SOL    HW228263   3.494   5.842   5.301
 9122SOL     OW28264   2.412   4.463   2.193
 9122SOL    HW128265   2.468   4.536   2.232
 9122SOL    HW228266   2.396   4.392   2.261
 9123SOL     OW28267   1.321   0.705   4.441
 9123SOL    HW128268   1.278   0.778   4.495
 9123SOL    HW228269   1.385   0.654   4.499
 9124SOL     OW28270   3.647   5.341   1.621
 9124SOL    HW128271   3.590   5.290   1.556
 9124SOL    HW228272   3.705   5.277   1.672
 9125SOL     OW28273   4.105   4.187   1.063
 9125SOL    HW128274   4.099   4.142   1.152
 9125SOL    HW228275   4.013   4.195   1.024
 9126SOL     OW28276   4.662   4.127   1.253
 9126SOL    HW128277   4.667   4.114   1.352
 9126SOL    HW228278   4.574   4.094   1.219
 9127SOL     OW28279   6.899   2.647   5.227
 9127SOL    HW128280   6.927   2.732   5.182
 9127SOL    HW228281   6.944   2.641   5.316
 9128SOL     OW28282   5.889   2.371   5.041
 9128SOL    HW128283   5.841   2.286   5.061
 9128SOL    HW228284   5.959   2.354   4.972
 9129SOL     OW28285   6.677   1.660   0.433
 9129SOL    HW128286   6.630   1.664   0.345
 9129SOL    HW228287   6.614   1.626   0.503
 9130SOL     OW28288   1.297   4.880   5.880
 9130SOL    HW128289   1.233   4.898   5.805
 9130SOL    HW228290   1.250   4.831   5.953
 9131SOL     OW28291   5.059   3.302   6.845
 9131SOL    HW128292   5.092   3.270   6.756
 9131SOL    HW228293   5.030   3.223   6.899
 9132SOL     OW28294   0.939   4.725   4.558
 9132SOL    HW128295   0.982   4.638   4.536
 9132SOL    HW228296   0.886   4.757   4.479
 9133SOL     OW28297   3.670   0.717   1.046
 9133SOL    HW128298   3.690   0.654   1.121
 9133SOL    HW228299   3.625   0.799   1.082
 9134SOL     OW28300   4.665   5.373   1.485
 9134SOL    HW128301   4.568   5.350   1.478
 9134SOL    HW228302   4.720   5.292   1.464
 9135SOL     OW28303   1.220   6.562   2.201
 9135SOL    HW128304   1.227   6.661   2.208
 9135SOL    HW228305   1.124   6.534   2.205
 9136SOL     OW28306   4.453   5.899   5.488
 9136SOL    HW128307   4.396   5.822   5.516
 9136SOL    HW228308   4.417   5.939   5.404
 9137SOL     OW28309   3.961   0.273   6.984
 9137SOL    HW128310   4.043   0.235   6.942
 9137SOL    HW228311   3.967   0.266   0.054
 9138SOL     OW28312   1.308   3.732   6.793
 9138SOL    HW128313   1.300   3.830   6.779
 9138SOL    HW228314   1.404   3.704   6.783
 9139SOL     OW28315   1.073   1.238   1.991
 9139SOL    HW128316   1.067   1.155   2.046
 9139SOL    HW228317   1.083   1.214   1.895
 9140SOL     OW28318   0.382   4.929   2.463
 9140SOL    HW128319   0.433   4.967   2.540
 9140SOL    HW228320   0.426   4.956   2.377
 9141SOL     OW28321   0.254   6.106   6.489
 9141SOL    HW128322   0.207   6.181   6.442
 9141SOL    HW228323   0.241   6.021   6.438
 9142SOL     OW28324   0.494   3.206   1.978
 9142SOL    HW128325   0.456   3.295   1.952
 9142SOL    HW228326   0.426   3.154   2.029
 9143SOL     OW28327   0.341   4.123   1.374
 9143SOL    HW128328   0.270   4.192   1.385
 9143SOL    HW228329   0.419   4.162   1.327
 9144SOL     OW28330   3.120   4.868   4.722
 9144SOL    HW128331   3.166   4.954   4.701
 9144SOL    HW228332   3.165   4.824   4.800
 9145SOL     OW28333   1.762   6.360   7.011
 9145SOL    HW128334   1.773   6.433   6.943
 9145SOL    HW228335   1.735   6.276   6.965
 9146SOL     OW28336   4.933   3.298   2.959
 9146SOL    HW128337   4.849   3.323   3.006
 9146SOL    HW228338   4.913   3.233   2.886
 9147SOL     OW28339   6.777   0.653   4.966
 9147SOL    HW128340   6.714   0.636   5.042
 9147SOL    HW228341   6.751   0.597   4.888
 9148SOL     OW28342   5.568   0.055   1.888
 9148SOL    HW128343   5.643   0.032   1.826
 9148SOL    HW228344   5.581   0.006   1.974
 9149SOL     OW28345   5.582   3.417   2.113
 9149SOL    HW128346   5.637   3.360   2.052
 9149SOL    HW228347   5.488   3.383   2.116
 9150SOL     OW28348   3.225   4.114   0.463
 9150SOL    HW128349   3.159   4.121   0.388
 9150SOL    HW228350   3.258   4.205   0.488
 9151SOL     OW28351   2.178   3.905   4.058
 9151SOL    HW128352   2.198   3.997   4.025
 9151SOL    HW228353   2.162   3.907   4.157
 9152SOL     OW28354   1.578   4.251   4.416
 9152SOL    HW128355   1.639   4.175   4.393
 9152SOL    HW228356   1.616   4.301   4.493
 9153SOL     OW28357   0.231   3.214   6.891
 9153SOL    HW128358   0.173   3.294   6.874
 9153SOL    HW228359   0.262   3.214   6.986
 9154SOL     OW28360   4.894   4.542   3.774
 9154SOL    HW128361   4.904   4.501   3.684
 9154SOL    HW228362   4.944   4.488   3.841
 9155SOL     OW28363   2.039   4.398   2.947
 9155SOL    HW128364   2.020   4.326   2.880
 9155SOL    HW228365   2.073   4.357   3.031
 9156SOL     OW28366   6.675   2.873   1.285
 9156SOL    HW128367   6.647   2.948   1.345
 9156SOL    HW228368   6.769   2.888   1.255
 9157SOL     OW28369   2.941   4.527   6.807
 9157SOL    HW128370   3.012   4.574   6.754
 9157SOL    HW228371   2.894   4.461   6.749
 9158SOL     OW28372   6.813   4.398   3.925
 9158SOL    HW128373   6.814   4.413   4.024
 9158SOL    HW228374   6.722   4.368   3.897
 9159SOL     OW28375   2.008   0.177   3.349
 9159SOL    HW128376   1.927   0.214   3.395
 9159SOL    HW228377   1.986   0.087   3.310
 9160SOL     OW28378   0.409   5.079   5.739
 9160SOL    HW128379   0.409   5.096   5.640
 9160SOL    HW228380   0.454   5.155   5.786
 9161SOL     OW28381   6.002   4.963   3.175
 9161SOL    HW128382   5.969   5.055   3.195
 9161SOL    HW228383   5.926   4.906   3.144
 9162SOL     OW28384   3.676   0.536   3.040
 9162SOL    HW128385   3.719   0.619   3.077
 9162SOL    HW228386   3.619   0.494   3.111
 9163SOL     OW28387   6.999   3.390   2.080
 9163SOL    HW128388   0.064   3.364   2.100
 9163SOL    HW228389   6.944   3.382   2.162
 9164SOL     OW28390   1.664   1.125   6.761
 9164SOL    HW128391   1.647   1.144   6.857
 9164SOL    HW228392   1.577   1.125   6.711
 9165SOL     OW28393   4.955   2.045   5.747
 9165SOL    HW128394   4.925   2.140   5.743
 9165SOL    HW228395   4.909   1.993   5.675
 9166SOL     OW28396   3.999   5.356   1.092
 9166SOL    HW128397   3.959   5.304   1.017
 9166SOL    HW228398   3.947   5.441   1.104
 9167SOL     OW28399   1.281   2.338   6.043
 9167SOL    HW128400   1.368   2.320   6.090
 9167SOL    HW228401   1.279   2.433   6.012
 9168SOL     OW28402   6.633   5.805   6.423
 9168SOL    HW128403   6.658   5.849   6.337
 9168SOL    HW228404   6.541   5.834   6.450
 9169SOL     OW28405   6.740   5.963   6.018
 9169SOL    HW128406   6.837   5.960   5.993
 9169SOL    HW228407   6.696   5.879   5.986
 9170SOL     OW28408   1.915   1.556   6.445
 9170SOL    HW128409   1.953   1.647   6.464
 9170SOL    HW228410   1.913   1.541   6.346
 9171SOL     OW28411   2.538   5.674   0.707
 9171SOL    HW128412   2.474   5.744   0.676
 9171SOL    HW228413   2.562   5.692   0.803
 9172SOL     OW28414   4.368   1.938   4.434
 9172SOL    HW128415   4.299   1.894   4.376
 9172SOL    HW228416   4.448   1.961   4.379
 9173SOL     OW28417   6.141   2.701   4.943
 9173SOL    HW128418   6.179   2.763   4.875
 9173SOL    HW228419   6.081   2.635   4.898
 9174SOL     OW28420   0.616   6.019   0.111
 9174SOL    HW128421   0.595   5.926   0.140
 9174SOL    HW228422   0.652   6.018   0.018
 9175SOL     OW28423   1.545   6.392   0.454
 9175SOL    HW128424   1.450   6.391   0.423
 9175SOL    HW228425   1.597   6.461   0.402
 9176SOL     OW28426   2.503   6.940   1.944
 9176SOL    HW128427   2.526   7.029   1.983
 9176SOL    HW228428   2.544   6.867   1.999
 9177SOL     OW28429   1.743   2.476   3.729
 9177SOL    HW128430   1.833   2.485   3.772
 9177SOL    HW228431   1.676   2.530   3.779
 9178SOL     OW28432   2.467   5.399   6.451
 9178SOL    HW128433   2.526   5.453   6.511
 9178SOL    HW228434   2.493   5.302   6.458
 9179SOL     OW28435   2.482   5.981   4.804
 9179SOL    HW128436   2.385   5.959   4.799
 9179SOL    HW228437   2.497   6.046   4.879
 9180SOL     OW28438   6.944   2.075   3.946
 9180SOL    HW128439   6.867   2.108   4.001
 9180SOL    HW228440   6.940   2.119   3.856
 9181SOL     OW28441   4.974   2.771   3.338
 9181SOL    HW128442   4.975   2.861   3.380
 9181SOL    HW228443   4.994   2.701   3.407
 9182SOL     OW28444   3.244   1.252   2.995
 9182SOL    HW128445   3.272   1.335   3.042
 9182SOL    HW228446   3.258   1.264   2.896
 9183SOL     OW28447   4.756   3.688   5.976
 9183SOL    HW128448   4.720   3.648   5.891
 9183SOL    HW228449   4.797   3.616   6.031
 9184SOL     OW28450   3.719   2.108   0.609
 9184SOL    HW128451   3.774   2.043   0.557
 9184SOL    HW228452   3.662   2.059   0.674
 9185SOL     OW28453   0.676   6.758   6.817
 9185SOL    HW128454   0.681   6.722   6.724
 9185SOL    HW228455   0.584   6.793   6.835
 9186SOL     OW28456   4.705   0.509   5.512
 9186SOL    HW128457   4.770   0.531   5.440
 9186SOL    HW228458   4.751   0.459   5.584
 9187SOL     OW28459   4.616   2.172   6.684
 9187SOL    HW128460   4.570   2.261   6.689
 9187SOL    HW228461   4.632   2.136   6.776
 9188SOL     OW28462   1.835   0.783   1.418
 9188SOL    HW128463   1.752   0.793   1.364
 9188SOL    HW228464   1.894   0.862   1.404
 9189SOL     OW28465   3.166   1.008   3.948
 9189SOL    HW128466   3.182   0.933   3.884
 9189SOL    HW228467   3.070   1.007   3.976
 9190SOL     OW28468   6.401   3.847   5.537
 9190SOL    HW128469   6.486   3.886   5.503
 9190SOL    HW228470   6.417   3.752   5.566
 9191SOL     OW28471   4.784   6.526   7.022
 9191SOL    HW128472   4.836   6.473   6.954
 9191SOL    HW228473   4.827   6.516   0.082
 9192SOL     OW28474   6.248   4.050   6.185
 9192SOL    HW128475   6.293   3.961   6.174
 9192SOL    HW228476   6.226   4.088   6.095
 9193SOL     OW28477   3.273   3.686   3.880
 9193SOL    HW128478   3.367   3.719   3.888
 9193SOL    HW228479   3.251   3.667   3.785
 9194SOL     OW28480   3.599   5.765   1.901
 9194SOL    HW128481   3.577   5.840   1.838
 9194SOL    HW228482   3.542   5.773   1.983
 9195SOL     OW28483   2.053   2.869   3.297
 9195SOL    HW128484   2.006   2.785   3.325
 9195SOL    HW228485   1.998   2.917   3.229
 9196SOL     OW28486   5.223   0.617   4.029
 9196SOL    HW128487   5.154   0.572   3.972
 9196SOL    HW228488   5.312   0.574   4.013
 9197SOL     OW28489   3.514   3.871   0.919
 9197SOL    HW128490   3.441   3.807   0.944
 9197SOL    HW228491   3.494   3.961   0.957
 9198SOL     OW28492   5.649   3.949   6.280
 9198SOL    HW128493   5.669   4.003   6.362
 9198SOL    HW228494   5.670   3.853   6.297
 9199SOL     OW28495   0.884   3.394   6.091
 9199SOL    HW128496   0.957   3.428   6.032
 9199SOL    HW228497   0.796   3.406   6.045
 9200SOL     OW28498   1.364   6.239   6.761
 9200SOL    HW128499   1.381   6.152   6.715
 9200SOL    HW228500   1.379   6.228   6.859
 9201SOL     OW28501   0.722   3.907   1.309
 9201SOL    HW128502   0.788   3.873   1.243
 9201SOL    HW228503   0.737   3.864   1.398
 9202SOL     OW28504   2.080   5.690   4.368
 9202SOL    HW128505   2.135   5.751   4.425
 9202SOL    HW228506   2.126   5.602   4.357
 9203SOL     OW28507   5.008   2.374   6.546
 9203SOL    HW128508   5.055   2.435   6.482
 9203SOL    HW228509   4.921   2.414   6.574
 9204SOL     OW28510   5.328   3.944   3.457
 9204SOL    HW128511   5.379   3.861   3.480
 9204SOL    HW228512   5.232   3.922   3.443
 9205SOL     OW28513   5.290   3.269   2.088
 9205SOL    HW128514   5.256   3.294   1.997
 9205SOL    HW228515   5.232   3.311   2.157
 9206SOL     OW28516   3.236   0.412   4.557
 9206SOL    HW128517   3.197   0.497   4.592
 9206SOL    HW228518   3.182   0.334   4.592
 9207SOL     OW28519   3.755   6.443   5.884
 9207SOL    HW128520   3.658   6.426   5.870
 9207SOL    HW228521   3.800   6.360   5.915
 9208SOL     OW28522   5.160   3.556   2.072
 9208SOL    HW128523   5.104   3.550   1.989
 9208SOL    HW228524   5.238   3.616   2.056
 9209SOL     OW28525   4.045   0.801   1.933
 9209SOL    HW128526   4.142   0.778   1.925
 9209SOL    HW228527   4.009   0.766   2.020
 9210SOL     OW28528   1.811   0.219   1.071
 9210SOL    HW128529   1.840   0.124   1.061
 9210SOL    HW228530   1.768   0.251   0.986
 9211SOL     OW28531   5.178   2.216   6.346
 9211SOL    HW128532   5.172   2.161   6.262
 9211SOL    HW228533   5.239   2.172   6.411
 9212SOL     OW28534   4.733   4.331   5.047
 9212SOL    HW128535   4.701   4.423   5.024
 9212SOL    HW228536   4.702   4.308   5.140
 9213SOL     OW28537   5.585   6.626   4.235
 9213SOL    HW128538   5.608   6.717   4.200
 9213SOL    HW228539   5.531   6.635   4.318
 9214SOL     OW28540   0.879   2.444   5.229
 9214SOL    HW128541   0.838   2.440   5.138
 9214SOL    HW228542   0.874   2.538   5.263
 9215SOL     OW28543   0.214   3.828   2.382
 9215SOL    HW128544   0.288   3.817   2.316
 9215SOL    HW228545   0.223   3.915   2.429
 9216SOL     OW28546   2.408   6.544   4.754
 9216SOL    HW128547   2.411   6.444   4.760
 9216SOL    HW228548   2.421   6.572   4.659
 9217SOL     OW28549   5.608   1.582   6.792
 9217SOL    HW128550   5.603   1.508   6.859
 9217SOL    HW228551   5.535   1.570   6.724
 9218SOL     OW28552   4.179   0.387   6.715
 9218SOL    HW128553   4.121   0.316   6.756
 9218SOL    HW228554   4.139   0.416   6.629
 9219SOL     OW28555   4.142   3.011   5.447
 9219SOL    HW128556   4.178   3.101   5.474
 9219SOL    HW228557   4.089   3.021   5.362
 9220SOL     OW28558   2.006   5.971   2.168
 9220SOL    HW128559   2.067   5.945   2.243
 9220SOL    HW228560   2.059   6.015   2.095
 9221SOL     OW28561   2.544   0.559   5.681
 9221SOL    HW128562   2.523   0.479   5.737
 9221SOL    HW228563   2.591   0.627   5.737
 9222SOL     OW28564   2.227   4.529   4.347
 9222SOL    HW128565   2.158   4.465   4.382
 9222SOL    HW228566   2.190   4.622   4.347
 9223SOL     OW28567   0.767   3.212   3.668
 9223SOL    HW128568   0.805   3.303   3.653
 9223SOL    HW228569   0.671   3.220   3.697
 9224SOL     OW28570   1.554   3.381   3.841
 9224SOL    HW128571   1.532   3.391   3.938
 9224SOL    HW228572   1.562   3.284   3.818
 9225SOL     OW28573   3.768   6.994   6.331
 9225SOL    HW128574   3.838   0.004   6.391
 9225SOL    HW228575   3.795   6.902   6.305
 9226SOL     OW28576   1.267   0.028   1.853
 9226SOL    HW128577   1.321   0.013   1.936
 9226SOL    HW228578   1.296   6.993   1.783
 9227SOL     OW28579   1.766   4.835   1.661
 9227SOL    HW128580   1.719   4.811   1.576
 9227SOL    HW228581   1.861   4.857   1.641
 9228SOL     OW28582   2.260   2.805   6.084
 9228SOL    HW128583   2.340   2.747   6.069
 9228SOL    HW228584   2.270   2.889   6.030
 9229SOL     OW28585   1.406   5.134   6.753
 9229SOL    HW128586   1.344   5.057   6.748
 9229SOL    HW228587   1.444   5.153   6.663
 9230SOL     OW28588   5.107   2.925   3.760
 9230SOL    HW128589   5.206   2.930   3.776
 9230SOL    HW228590   5.063   2.877   3.836
 9231SOL     OW28591   1.011   5.126   5.962
 9231SOL    HW128592   1.106   5.126   5.994
 9231SOL    HW228593   0.964   5.046   5.998
 9232SOL     OW28594   1.750   5.169   1.279
 9232SOL    HW128595   1.753   5.260   1.238
 9232SOL    HW228596   1.709   5.175   1.370
 9233SOL     OW28597   1.031   6.958   0.764
 9233SOL    HW128598   1.082   6.873   0.779
 9233SOL    HW228599   1.071   0.000   0.820
 9234SOL     OW28600   2.443   5.416   0.763
 9234SOL    HW128601   2.496   5.409   0.847
 9234SOL    HW228602   2.460   5.504   0.719
 9235SOL     OW28603   2.485   2.287   3.610
 9235SOL    HW128604   2.533   2.370   3.580
 9235SOL    HW228605   2.398   2.279   3.561
 9236SOL     OW28606   2.464   3.504   6.706
 9236SOL    HW128607   2.365   3.514   6.703
 9236SOL    HW228608   2.489   3.444   6.782
 9237SOL     OW28609   0.242   5.957   2.948
 9237SOL    HW128610   0.151   5.924   2.924
 9237SOL    HW228611   0.301   5.880   2.970
 9238SOL     OW28612   3.151   2.463   5.963
 9238SOL    HW128613   3.069   2.519   5.963
 9238SOL    HW228614   3.232   2.522   5.954
 9239SOL     OW28615   6.837   4.365   6.256
 9239SOL    HW128616   6.744   4.337   6.281
 9239SOL    HW228617   6.836   4.460   6.226
 9240SOL     OW28618   5.199   3.448   2.763
 9240SOL    HW128619   5.240   3.366   2.801
 9240SOL    HW228620   5.177   3.433   2.667
 9241SOL     OW28621   6.656   5.708   0.480
 9241SOL    HW128622   6.708   5.628   0.508
 9241SOL    HW228623   6.695   5.745   0.396
 9242SOL     OW28624   1.805   2.163   1.633
 9242SOL    HW128625   1.797   2.210   1.721
 9242SOL    HW228626   1.752   2.213   1.564
 9243SOL     OW28627   1.092   0.526   1.873
 9243SOL    HW128628   1.125   0.432   1.864
 9243SOL    HW228629   1.151   0.587   1.819
 9244SOL     OW28630   2.588   6.397   6.256
 9244SOL    HW128631   2.511   6.366   6.200
 9244SOL    HW228632   2.564   6.483   6.300
 9245SOL     OW28633   0.604   4.148   3.644
 9245SOL    HW128634   0.578   4.051   3.644
 9245SOL    HW228635   0.577   4.189   3.557
 9246SOL     OW28636   5.995   0.214   4.106
 9246SOL    HW128637   6.063   0.151   4.068
 9246SOL    HW228638   5.958   0.176   4.191
 9247SOL     OW28639   3.917   5.434   3.136
 9247SOL    HW128640   3.854   5.369   3.094
 9247SOL    HW228641   3.978   5.471   3.066
 9248SOL     OW28642   2.818   1.947   5.390
 9248SOL    HW128643   2.792   1.909   5.479
 9248SOL    HW228644   2.901   1.903   5.357
 9249SOL     OW28645   3.843   4.970   1.515
 9249SOL    HW128646   3.935   4.974   1.475
 9249SOL    HW228647   3.817   4.875   1.529
 9250SOL     OW28648   6.837   3.277   3.994
 9250SOL    HW128649   6.875   3.242   4.080
 9250SOL    HW228650   6.835   3.203   3.927
 9251SOL     OW28651   4.114   2.308   1.824
 9251SOL    HW128652   4.061   2.225   1.808
 9251SOL    HW228653   4.146   2.310   1.919
 9252SOL     OW28654   5.264   0.854   5.116
 9252SOL    HW128655   5.257   0.911   5.034
 9252SOL    HW228656   5.357   0.819   5.124
 9253SOL     OW28657   5.490   5.137   5.636
 9253SOL    HW128658   5.528   5.144   5.728
 9253SOL    HW228659   5.529   5.209   5.579
 9254SOL     OW28660   5.152   4.694   2.432
 9254SOL    HW128661   5.229   4.717   2.491
 9254SOL    HW228662   5.127   4.774   2.377
 9255SOL     OW28663   5.768   3.058   6.782
 9255SOL    HW128664   5.689   3.092   6.833
 9255SOL    HW228665   5.772   2.958   6.791
 9256SOL     OW28666   2.313   6.770   1.804
 9256SOL    HW128667   2.379   6.831   1.848
 9256SOL    HW228668   2.294   6.803   1.712
 9257SOL     OW28669   6.008   5.968   3.092
 9257SOL    HW128670   6.028   5.940   2.998
 9257SOL    HW228671   6.082   6.026   3.126
 9258SOL     OW28672   3.709   3.510   0.710
 9258SOL    HW128673   3.686   3.586   0.650
 9258SOL    HW228674   3.738   3.545   0.799
 9259SOL     OW28675   1.717   1.396   6.883
 9259SOL    HW128676   1.794   1.457   6.868
 9259SOL    HW228677   1.741   1.328   6.952
 9260SOL     OW28678   7.028   2.535   6.319
 9260SOL    HW128679   6.971   2.613   6.347
 9260SOL    HW228680   6.996   2.453   6.365
 9261SOL     OW28681   5.078   1.063   6.503
 9261SOL    HW128682   5.087   1.085   6.600
 9261SOL    HW228683   5.064   0.964   6.492
 9262SOL     OW28684   0.842   6.759   5.039
 9262SOL    HW128685   0.877   6.830   4.976
 9262SOL    HW228686   0.743   6.768   5.046
 9263SOL     OW28687   3.399   5.323   3.232
 9263SOL    HW128688   3.384   5.317   3.133
 9263SOL    HW228689   3.482   5.273   3.256
 9264SOL     OW28690   4.626   3.349   0.004
 9264SOL    HW128691   4.708   3.343   0.062
 9264SOL    HW228692   4.651   3.323   6.940
 9265SOL     OW28693   4.165   2.232   6.494
 9265SOL    HW128694   4.069   2.258   6.488
 9265SOL    HW228695   4.196   2.199   6.405
 9266SOL     OW28696   0.019   5.536   1.161
 9266SOL    HW128697   7.000   5.512   1.077
 9266SOL    HW228698   0.000   5.632   1.185
 9267SOL     OW28699   1.118   1.900   4.337
 9267SOL    HW128700   1.078   1.811   4.355
 9267SOL    HW228701   1.061   1.951   4.274
 9268SOL     OW28702   0.964   6.495   2.631
 9268SOL    HW128703   0.938   6.566   2.565
 9268SOL    HW228704   0.944   6.527   2.724
 9269SOL     OW28705   4.014   6.991   6.532
 9269SOL    HW128706   4.009   0.056   6.499
 9269SOL    HW228707   4.048   6.991   6.626
 9270SOL     OW28708   3.702   0.760   5.497
 9270SOL    HW128709   3.770   0.712   5.442
 9270SOL    HW228710   3.625   0.699   5.516
 9271SOL     OW28711   0.111   0.195   0.806
 9271SOL    HW128712   0.040   0.139   0.763
 9271SOL    HW228713   0.191   0.198   0.747
 9272SOL     OW28714   1.063   6.623   0.142
 9272SOL    HW128715   0.988   6.557   0.146
 9272SOL    HW228716   1.037   6.705   0.193
 9273SOL     OW28717   5.328   6.128   3.151
 9273SOL    HW128718   5.315   6.145   3.054
 9273SOL    HW228719   5.247   6.158   3.201
 9274SOL     OW28720   6.720   2.019   0.202
 9274SOL    HW128721   6.671   2.098   0.238
 9274SOL    HW228722   6.811   2.013   0.245
 9275SOL     OW28723   0.044   6.751   0.032
 9275SOL    HW128724   6.999   6.797   0.079
 9275SOL    HW228725   0.062   6.663   0.076
 9276SOL     OW28726   2.578   4.734   6.995
 9276SOL    HW128727   2.593   4.784   6.909
 9276SOL    HW228728   2.662   4.689   7.023
 9277SOL     OW28729   4.030   5.076   3.200
 9277SOL    HW128730   4.078   4.990   3.216
 9277SOL    HW228731   4.095   5.152   3.207
 9278SOL     OW28732   0.827   0.668   5.518
 9278SOL    HW128733   0.785   0.608   5.586
 9278SOL    HW228734   0.844   0.617   5.434
 9279SOL     OW28735   3.205   6.448   1.568
 9279SOL    HW128736   3.214   6.521   1.501
 9279SOL    HW228737   3.295   6.428   1.607
 9280SOL     OW28738   2.396   2.063   2.529
 9280SOL    HW128739   2.493   2.057   2.502
 9280SOL    HW228740   2.368   2.159   2.530
 9281SOL     OW28741   3.676   3.868   6.519
 9281SOL    HW128742   3.764   3.822   6.527
 9281SOL    HW228743   3.629   3.837   6.436
 9282SOL     OW28744   4.554   1.216   4.384
 9282SOL    HW128745   4.474   1.170   4.346
 9282SOL    HW228746   4.563   1.192   4.481
 9283SOL     OW28747   5.509   0.512   5.354
 9283SOL    HW128748   5.424   0.466   5.328
 9283SOL    HW228749   5.510   0.526   5.453
 9284SOL     OW28750   2.990   3.177   5.242
 9284SOL    HW128751   3.022   3.233   5.319
 9284SOL    HW228752   2.890   3.171   5.245
 9285SOL     OW28753   5.085   2.930   0.934
 9285SOL    HW128754   5.105   2.842   0.977
 9285SOL    HW228755   5.045   2.914   0.844
 9286SOL     OW28756   4.904   5.678   0.169
 9286SOL    HW128757   4.971   5.673   0.244
 9286SOL    HW228758   4.867   5.770   0.164
 9287SOL     OW28759   3.137   4.558   5.663
 9287SOL    HW128760   3.071   4.630   5.684
 9287SOL    HW228761   3.176   4.573   5.572
 9288SOL     OW28762   4.517   1.973   3.277
 9288SOL    HW128763   4.595   2.034   3.263
 9288SOL    HW228764   4.540   1.882   3.244
 9289SOL     OW28765   4.446   0.529   6.721
 9289SOL    HW128766   4.529   0.510   6.772
 9289SOL    HW228767   4.378   0.457   6.740
 9290SOL     OW28768   6.151   0.768   4.187
 9290SOL    HW128769   6.137   0.671   4.165
 9290SOL    HW228770   6.227   0.804   4.133
 9291SOL     OW28771   1.441   6.224   6.224
 9291SOL    HW128772   1.427   6.274   6.310
 9291SOL    HW228773   1.500   6.277   6.164
 9292SOL     OW28774   1.130   1.197   6.535
 9292SOL    HW128775   1.152   1.253   6.615
 9292SOL    HW228776   1.211   1.146   6.507
 9293SOL     OW28777   4.962   2.906   6.735
 9293SOL    HW128778   4.999   2.846   6.665
 9293SOL    HW228779   4.926   2.989   6.693
 9294SOL     OW28780   4.931   0.719   6.929
 9294SOL    HW128781   4.898   0.737   6.836
 9294SOL    HW228782   5.027   0.745   6.935
 9295SOL     OW28783   0.018   0.822   5.374
 9295SOL    HW128784   7.004   0.862   5.455
 9295SOL    HW228785   7.016   0.728   5.362
 9296SOL     OW28786   2.344   4.638   0.995
 9296SOL    HW128787   2.347   4.712   0.927
 9296SOL    HW228788   2.355   4.550   0.948
 9297SOL     OW28789   0.547   6.618   3.224
 9297SOL    HW128790   0.510   6.559   3.153
 9297SOL    HW228791   0.516   6.585   3.314
 9298SOL     OW28792   1.031   6.554   6.210
 9298SOL    HW128793   0.972   6.620   6.163
 9298SOL    HW228794   1.012   6.557   6.308
 9299SOL     OW28795   0.905   1.335   3.957
 9299SOL    HW128796   0.987   1.385   3.930
 9299SOL    HW228797   0.924   1.284   4.042
 9300SOL     OW28798   0.439   5.396   5.322
 9300SOL    HW128799   0.525   5.420   5.279
 9300SOL    HW228800   0.363   5.436   5.271
 9301SOL     OW28801   0.169   4.450   5.150
 9301SOL    HW128802   0.228   4.506   5.093
 9301SOL    HW228803   0.099   4.508   5.193
 9302SOL     OW28804   2.217   3.017   4.539
 9302SOL    HW128805   2.223   3.030   4.638
 9302SOL    HW228806   2.218   3.106   4.493
 9303SOL     OW28807   3.082   4.544   0.730
 9303SOL    HW128808   3.079   4.445   0.728
 9303SOL    HW228809   2.999   4.580   0.772
 9304SOL     OW28810   4.241   5.286   0.574
 9304SOL    HW128811   4.238   5.372   0.626
 9304SOL    HW228812   4.298   5.299   0.492
 9305SOL     OW28813   3.631   1.285   0.436
 9305SOL    HW128814   3.636   1.198   0.486
 9305SOL    HW228815   3.674   1.275   0.346
 9306SOL     OW28816   0.429   3.655   5.172
 9306SOL    HW128817   0.510   3.662   5.114
 9306SOL    HW228818   0.430   3.729   5.239
 9307SOL     OW28819   1.309   4.227   0.697
 9307SOL    HW128820   1.372   4.305   0.702
 9307SOL    HW228821   1.361   4.144   0.674
 9308SOL     OW28822   0.703   4.729   1.661
 9308SOL    HW128823   0.607   4.718   1.635
 9308SOL    HW228824   0.761   4.704   1.584
 9309SOL     OW28825   4.153   0.012   5.917
 9309SOL    HW128826   4.215   6.970   5.949
 9309SOL    HW228827   4.087   0.034   5.989
 9310SOL     OW28828   5.183   6.074   5.860
 9310SOL    HW128829   5.182   6.163   5.907
 9310SOL    HW228830   5.164   6.087   5.763
 9311SOL     OW28831   5.127   4.099   1.226
 9311SOL    HW128832   5.047   4.043   1.246
 9311SOL    HW228833   5.098   4.190   1.197
 9312SOL     OW28834   1.915   2.132   1.070
 9312SOL    HW128835   1.899   2.078   1.152
 9312SOL    HW228836   1.880   2.083   0.990
 9313SOL     OW28837   0.927   0.793   1.386
 9313SOL    HW128838   0.998   0.788   1.456
 9313SOL    HW228839   0.855   0.726   1.406
 9314SOL     OW28840   5.944   3.500   0.909
 9314SOL    HW128841   5.915   3.588   0.947
 9314SOL    HW228842   5.907   3.425   0.964
 9315SOL     OW28843   5.967   0.734   5.921
 9315SOL    HW128844   5.982   0.796   5.998
 9315SOL    HW228845   6.047   0.675   5.910
 9316SOL     OW28846   6.077   6.997   4.988
 9316SOL    HW128847   6.024   6.916   5.014
 9316SOL    HW228848   6.085   7.002   4.889
 9317SOL     OW28849   3.908   5.001   3.510
 9317SOL    HW128850   3.923   4.942   3.590
 9317SOL    HW228851   3.888   5.094   3.541
 9318SOL     OW28852   4.310   6.436   0.181
 9318SOL    HW128853   4.228   6.489   0.159
 9318SOL    HW228854   4.288   6.370   0.253
 9319SOL     OW28855   2.189   2.926   0.719
 9319SOL    HW128856   2.186   2.848   0.656
 9319SOL    HW228857   2.277   2.928   0.766
 9320SOL     OW28858   4.731   0.542   6.236
 9320SOL    HW128859   4.804   0.488   6.278
 9320SOL    HW228860   4.732   0.635   6.273
 9321SOL     OW28861   1.020   2.171   5.547
 9321SOL    HW128862   1.087   2.099   5.567
 9321SOL    HW228863   0.930   2.143   5.580
 9322SOL     OW28864   6.548   4.737   6.235
 9322SOL    HW128865   6.466   4.771   6.279
 9322SOL    HW228866   6.548   4.765   6.139
 9323SOL     OW28867   2.111   1.973   4.739
 9323SOL    HW128868   2.199   2.005   4.776
 9323SOL    HW228869   2.037   2.026   4.780
 9324SOL     OW28870   1.975   3.610   1.218
 9324SOL    HW128871   1.888   3.573   1.250
 9324SOL    HW228872   2.049   3.545   1.238
 9325SOL     OW28873   0.939   6.478   1.872
 9325SOL    HW128874   0.868   6.433   1.818
 9325SOL    HW228875   1.022   6.488   1.818
 9326SOL     OW28876   3.236   5.608   6.775
 9326SOL    HW128877   3.197   5.605   6.867
 9326SOL    HW228878   3.276   5.519   6.753
 9327SOL     OW28879   4.441   0.121   3.079
 9327SOL    HW128880   4.351   0.118   3.122
 9327SOL    HW228881   4.507   0.069   3.134
 9328SOL     OW28882   2.029   6.825   4.948
 9328SOL    HW128883   1.974   6.761   4.895
 9328SOL    HW228884   2.123   6.824   4.913
 9329SOL     OW28885   6.727   5.464   0.567
 9329SOL    HW128886   6.647   5.422   0.522
 9329SOL    HW228887   6.789   5.392   0.597
 9330SOL     OW28888   0.380   0.065   6.742
 9330SOL    HW128889   0.434   0.116   6.675
 9330SOL    HW228890   0.291   0.109   6.753
 9331SOL     OW28891   1.943   2.523   5.796
 9331SOL    HW128892   1.964   2.492   5.889
 9331SOL    HW228893   1.851   2.562   5.794
 9332SOL     OW28894   3.964   5.249   0.182
 9332SOL    HW128895   3.962   5.342   0.143
 9332SOL    HW228896   3.985   5.254   0.279
 9333SOL     OW28897   3.957   5.660   0.346
 9333SOL    HW128898   3.988   5.619   0.260
 9333SOL    HW228899   3.900   5.594   0.396
 9334SOL     OW28900   5.046   0.582   4.253
 9334SOL    HW128901   5.078   0.529   4.331
 9334SOL    HW228902   5.113   0.575   4.179
 9335SOL     OW28903   1.920   2.157   0.415
 9335SOL    HW128904   1.823   2.164   0.437
 9335SOL    HW228905   1.931   2.146   0.316
 9336SOL     OW28906   5.568   6.911   4.590
 9336SOL    HW128907   5.631   6.879   4.519
 9336SOL    HW228908   5.500   6.841   4.609
 9337SOL     OW28909   4.834   0.733   6.681
 9337SOL    HW128910   4.877   0.656   6.634
 9337SOL    HW228911   4.822   0.809   6.617
 9338SOL     OW28912   6.553   5.707   0.748
 9338SOL    HW128913   6.563   5.610   0.772
 9338SOL    HW228914   6.601   5.725   0.662
 9339SOL     OW28915   5.501   5.586   0.543
 9339SOL    HW128916   5.555   5.529   0.605
 9339SOL    HW228917   5.544   5.676   0.534
 9340SOL     OW28918   4.080   4.930   2.622
 9340SOL    HW128919   4.006   4.882   2.575
 9340SOL    HW228920   4.043   5.013   2.666
 9341SOL     OW28921   6.604   4.376   6.775
 9341SOL    HW128922   6.663   4.406   6.850
 9341SOL    HW228923   6.515   4.350   6.811
 9342SOL     OW28924   2.902   0.287   4.550
 9342SOL    HW128925   2.879   0.376   4.588
 9342SOL    HW228926   2.823   0.249   4.502
 9343SOL     OW28927   4.971   3.529   1.880
 9343SOL    HW128928   4.872   3.531   1.865
 9343SOL    HW228929   5.017   3.570   1.802
 9344SOL     OW28930   5.221   5.770   6.475
 9344SOL    HW128931   5.123   5.774   6.496
 9344SOL    HW228932   5.235   5.712   6.394
 9345SOL     OW28933   6.012   4.943   7.027
 9345SOL    HW128934   6.039   5.029   0.041
 9345SOL    HW228935   5.921   4.916   0.031
 9346SOL     OW28936   4.728   6.153   2.571
 9346SOL    HW128937   4.773   6.237   2.601
 9346SOL    HW228938   4.744   6.139   2.474
 9347SOL     OW28939   3.555   5.921   0.633
 9347SOL    HW128940   3.555   5.825   0.661
 9347SOL    HW228941   3.638   5.965   0.668
 9348SOL     OW28942   3.051   5.153   2.891
 9348SOL    HW128943   3.083   5.181   2.800
 9348SOL    HW228944   3.028   5.234   2.944
 9349SOL     OW28945   6.199   5.902   2.268
 9349SOL    HW128946   6.113   5.952   2.278
 9349SOL    HW228947   6.184   5.806   2.289
 9350SOL     OW28948   0.262   1.582   4.252
 9350SOL    HW128949   0.357   1.577   4.220
 9350SOL    HW228950   0.202   1.542   4.182
 9351SOL     OW28951   2.584   0.130   6.087
 9351SOL    HW128952   2.546   0.074   6.013
 9351SOL    HW228953   2.512   0.183   6.130
 9352SOL     OW28954   2.161   3.410   6.043
 9352SOL    HW128955   2.129   3.325   6.003
 9352SOL    HW228956   2.085   3.458   6.086
 9353SOL     OW28957   1.606   4.294   2.132
 9353SOL    HW128958   1.687   4.260   2.180
 9353SOL    HW228959   1.628   4.379   2.086
 9354SOL     OW28960   5.962   1.521   1.035
 9354SOL    HW128961   5.920   1.433   1.013
 9354SOL    HW228962   6.041   1.537   0.977
 9355SOL     OW28963   6.397   1.044   4.327
 9355SOL    HW128964   6.301   1.035   4.351
 9355SOL    HW228965   6.405   1.092   4.240
 9356SOL     OW28966   4.743   5.264   2.022
 9356SOL    HW128967   4.710   5.326   2.094
 9356SOL    HW228968   4.673   5.256   1.951
 9357SOL     OW28969   1.933   4.107   0.007
 9357SOL    HW128970   1.967   4.052   0.084
 9357SOL    HW228971   1.901   4.046   6.965
 9358SOL     OW28972   5.979   3.454   1.773
 9358SOL    HW128973   6.038   3.470   1.852
 9358SOL    HW228974   6.035   3.451   1.690
 9359SOL     OW28975   0.551   3.803   5.607
 9359SOL    HW128976   0.513   3.844   5.523
 9359SOL    HW228977   0.643   3.839   5.622
 9360SOL     OW28978   0.946   0.129   5.772
 9360SOL    HW128979   0.973   0.055   5.711
 9360SOL    HW228980   0.874   0.096   5.833
 9361SOL     OW28981   2.680   6.379   3.464
 9361SOL    HW128982   2.716   6.296   3.506
 9361SOL    HW228983   2.642   6.439   3.535
 9362SOL     OW28984   1.709   1.112   1.749
 9362SOL    HW128985   1.665   1.150   1.830
 9362SOL    HW228986   1.640   1.076   1.687
 9363SOL     OW28987   4.320   5.152   2.127
 9363SOL    HW128988   4.290   5.248   2.127
 9363SOL    HW228989   4.271   5.102   2.198
 9364SOL     OW28990   4.239   3.448   6.066
 9364SOL    HW128991   4.238   3.388   5.986
 9364SOL    HW228992   4.273   3.538   6.040
 9365SOL     OW28993   2.614   1.833   5.250
 9365SOL    HW128994   2.577   1.875   5.166
 9365SOL    HW228995   2.684   1.892   5.289
 9366SOL     OW28996   3.333   1.420   6.680
 9366SOL    HW128997   3.285   1.507   6.693
 9366SOL    HW228998   3.283   1.347   6.726
 9367SOL     OW28999   6.987   5.962   3.683
 9367SOL    HW129000   6.899   5.953   3.636
 9367SOL    HW229001   6.988   6.045   3.738
 9368SOL     OW29002   3.071   1.958   3.768
 9368SOL    HW129003   3.024   1.931   3.851
 9368SOL    HW229004   3.154   2.009   3.791
 9369SOL     OW29005   0.621   0.466   6.468
 9369SOL    HW129006   0.578   0.533   6.407
 9369SOL    HW229007   0.714   0.448   6.436
 9370SOL     OW29008   5.013   0.310   2.608
 9370SOL    HW129009   4.945   0.240   2.631
 9370SOL    HW229010   4.975   0.371   2.538
 9371SOL     OW29011   1.939   4.708   0.275
 9371SOL    HW129012   2.023   4.759   0.297
 9371SOL    HW229013   1.889   4.689   0.359
 9372SOL     OW29014   5.338   5.858   3.144
 9372SOL    HW129015   5.367   5.953   3.156
 9372SOL    HW229016   5.370   5.825   3.056
 9373SOL     OW29017   5.009   2.202   2.388
 9373SOL    HW129018   5.103   2.170   2.381
 9373SOL    HW229019   4.967   2.164   2.471
 9374SOL     OW29020   6.529   3.118   0.175
 9374SOL    HW129021   6.612   3.080   0.216
 9374SOL    HW229022   6.469   3.044   0.146
 9375SOL     OW29023   6.866   2.233   2.983
 9375SOL    HW129024   6.915   2.183   3.054
 9375SOL    HW229025   6.891   2.195   2.893
 9376SOL     OW29026   2.591   3.775   1.096
 9376SOL    HW129027   2.493   3.758   1.111
 9376SOL    HW229028   2.638   3.689   1.083
 9377SOL     OW29029   1.565   5.823   3.667
 9377SOL    HW129030   1.599   5.828   3.761
 9377SOL    HW229031   1.497   5.894   3.652
 9378SOL     OW29032   0.397   0.189   5.321
 9378SOL    HW129033   0.347   0.163   5.238
 9378SOL    HW229034   0.489   0.218   5.297
 9379SOL     OW29035   4.689   4.877   5.407
 9379SOL    HW129036   4.684   4.962   5.355
 9379SOL    HW229037   4.769   4.879   5.468
 9380SOL     OW29038   5.911   4.640   4.762
 9380SOL    HW129039   5.995   4.677   4.802
 9380SOL    HW229040   5.893   4.549   4.801
 9381SOL     OW29041   1.893   3.486   6.193
 9381SOL    HW129042   1.939   3.498   6.281
 9381SOL    HW229043   1.828   3.562   6.179
 9382SOL     OW29044   3.583   1.559   3.607
 9382SOL    HW129045   3.588   1.517   3.698
 9382SOL    HW229046   3.562   1.656   3.616
 9383SOL     OW29047   2.494   6.332   4.558
 9383SOL    HW129048   2.518   6.255   4.499
 9383SOL    HW229049   2.453   6.405   4.504
 9384SOL     OW29050   3.341   5.882   1.279
 9384SOL    HW129051   3.416   5.818   1.290
 9384SOL    HW229052   3.337   5.943   1.358
 9385SOL     OW29053   4.629   1.352   2.905
 9385SOL    HW129054   4.704   1.386   2.961
 9385SOL    HW229055   4.596   1.426   2.846
 9386SOL     OW29056   2.025   6.407   5.066
 9386SOL    HW129057   2.017   6.496   5.110
 9386SOL    HW229058   2.043   6.337   5.136
 9387SOL     OW29059   2.923   1.203   6.720
 9387SOL    HW129060   2.930   1.275   6.651
 9387SOL    HW229061   2.886   1.120   6.679
 9388SOL     OW29062   2.381   5.471   2.620
 9388SOL    HW129063   2.285   5.447   2.604
 9388SOL    HW229064   2.425   5.399   2.674
 9389SOL     OW29065   1.984   0.000   5.092
 9389SOL    HW129066   1.914   7.002   5.158
 9389SOL    HW229067   2.011   6.951   5.036
 9390SOL     OW29068   3.979   5.417   4.896
 9390SOL    HW129069   4.027   5.500   4.868
 9390SOL    HW229070   3.961   5.360   4.816
 9391SOL     OW29071   2.451   0.667   5.088
 9391SOL    HW129072   2.410   0.665   4.997
 9391SOL    HW229073   2.424   0.586   5.139
 9392SOL     OW29074   0.180   0.430   5.462
 9392SOL    HW129075   0.184   0.438   5.562
 9392SOL    HW229076   0.237   0.352   5.433
 9393SOL     OW29077   2.726   0.208   5.340
 9393SOL    HW129078   2.705   0.297   5.380
 9393SOL    HW229079   2.741   0.141   5.412
 9394SOL     OW29080   0.132   1.712   2.201
 9394SOL    HW129081   0.048   1.658   2.189
 9394SOL    HW229082   0.194   1.695   2.124
 9395SOL     OW29083   2.623   2.006   0.201
 9395SOL    HW129084   2.621   1.906   0.208
 9395SOL    HW229085   2.575   2.035   0.118
 9396SOL     OW29086   1.052   5.452   3.578
 9396SOL    HW129087   1.142   5.482   3.548
 9396SOL    HW229088   1.027   5.498   3.663
 9397SOL     OW29089   3.011   0.159   0.353
 9397SOL    HW129090   2.957   0.188   0.273
 9397SOL    HW229091   2.965   0.189   0.437
 9398SOL     OW29092   1.355   0.297   5.619
 9398SOL    HW129093   1.353   0.197   5.609
 9398SOL    HW229094   1.289   0.338   5.556
 9399SOL     OW29095   0.416   1.568   6.845
 9399SOL    HW129096   0.475   1.648   6.842
 9399SOL    HW229097   0.365   1.560   6.759
 9400SOL     OW29098   4.417   2.450   1.720
 9400SOL    HW129099   4.454   2.374   1.666
 9400SOL    HW229100   4.457   2.448   1.812
 9401SOL     OW29101   4.637   6.998   3.193
 9401SOL    HW129102   4.600   6.908   3.219
 9401SOL    HW229103   4.735   6.989   3.175
 9402SOL     OW29104   0.972   5.181   4.014
 9402SOL    HW129105   1.009   5.146   4.100
 9402SOL    HW229106   0.918   5.263   4.032
 9403SOL     OW29107   5.857   1.209   3.258
 9403SOL    HW129108   5.817   1.260   3.334
 9403SOL    HW229109   5.791   1.202   3.183
 9404SOL     OW29110   0.597   3.053   5.950
 9404SOL    HW129111   0.597   3.153   5.938
 9404SOL    HW229112   0.689   3.018   5.934
 9405SOL     OW29113   0.279   6.064   2.235
 9405SOL    HW129114   0.296   5.968   2.214
 9405SOL    HW229115   0.338   6.094   2.310
 9406SOL     OW29116   6.895   2.899   6.284
 9406SOL    HW129117   6.909   2.832   6.357
 9406SOL    HW229118   6.855   2.982   6.322
 9407SOL     OW29119   2.726   5.189   3.203
 9407SOL    HW129120   2.708   5.274   3.254
 9407SOL    HW229121   2.647   5.129   3.210
 9408SOL     OW29122   4.015   1.662   6.249
 9408SOL    HW129123   3.962   1.587   6.288
 9408SOL    HW229124   3.985   1.678   6.155
 9409SOL     OW29125   5.694   4.542   6.284
 9409SOL    HW129126   5.669   4.471   6.349
 9409SOL    HW229127   5.618   4.558   6.221
 9410SOL     OW29128   2.866   6.280   1.952
 9410SOL    HW129129   2.890   6.222   1.875
 9410SOL    HW229130   2.943   6.342   1.972
 9411SOL     OW29131   4.401   3.690   1.670
 9411SOL    HW129132   4.469   3.627   1.708
 9411SOL    HW229133   4.312   3.645   1.666
 9412SOL     OW29134   0.374   2.987   1.700
 9412SOL    HW129135   0.335   2.910   1.650
 9412SOL    HW229136   0.325   2.999   1.786
 9413SOL     OW29137   3.535   6.124   4.311
 9413SOL    HW129138   3.508   6.119   4.408
 9413SOL    HW229139   3.634   6.115   4.303
 9414SOL     OW29140   3.155   0.787   3.740
 9414SOL    HW129141   3.147   0.790   3.641
 9414SOL    HW229142   3.082   0.729   3.777
 9415SOL     OW29143   2.568   0.129   2.096
 9415SOL    HW129144   2.548   0.223   2.069
 9415SOL    HW229145   2.667   0.117   2.104
 9416SOL     OW29146   0.773   1.723   1.030
 9416SOL    HW129147   0.714   1.643   1.047
 9416SOL    HW229148   0.742   1.768   0.946
 9417SOL     OW29149   3.690   6.571   5.612
 9417SOL    HW129150   3.714   6.526   5.698
 9417SOL    HW229151   3.761   6.555   5.544
 9418SOL     OW29152   3.367   6.036   1.492
 9418SOL    HW129153   3.402   6.124   1.459
 9418SOL    HW229154   3.277   6.050   1.533
 9419SOL     OW29155   3.169   5.007   5.643
 9419SOL    HW129156   3.113   4.926   5.626
 9419SOL    HW229157   3.110   5.087   5.657
 9420SOL     OW29158   0.663   2.699   4.686
 9420SOL    HW129159   0.722   2.682   4.765
 9420SOL    HW229160   0.580   2.643   4.694
 9421SOL     OW29161   1.910   6.168   4.966
 9421SOL    HW129162   1.924   6.118   4.880
 9421SOL    HW229163   1.960   6.255   4.962
 9422SOL     OW29164   4.803   6.359   2.958
 9422SOL    HW129165   4.748   6.279   2.985
 9422SOL    HW229166   4.900   6.337   2.968
 9423SOL     OW29167   4.269   0.781   3.177
 9423SOL    HW129168   4.309   0.795   3.268
 9423SOL    HW229169   4.311   0.846   3.113
 9424SOL     OW29170   4.462   0.931   4.967
 9424SOL    HW129171   4.395   0.922   4.893
 9424SOL    HW229172   4.415   0.961   5.050
 9425SOL     OW29173   6.881   3.484   6.439
 9425SOL    HW129174   6.952   3.553   6.455
 9425SOL    HW229175   6.911   3.422   6.366
 9426SOL     OW29176   2.820   2.105   7.022
 9426SOL    HW129177   2.778   2.147   6.942
 9426SOL    HW229178   2.748   2.077   0.056
 9427SOL     OW29179   2.763   5.495   4.506
 9427SOL    HW129180   2.800   5.461   4.592
 9427SOL    HW229181   2.737   5.417   4.448
 9428SOL     OW29182   5.190   0.567   1.040
 9428SOL    HW129183   5.277   0.517   1.041
 9428SOL    HW229184   5.157   0.576   0.946
 9429SOL     OW29185   1.839   4.036   2.151
 9429SOL    HW129186   1.916   3.972   2.160
 9429SOL    HW229187   1.813   4.044   2.055
 9430SOL     OW29188   6.933   4.187   1.877
 9430SOL    HW129189   6.961   4.283   1.884
 9430SOL    HW229190   7.000   4.137   1.822
 9431SOL     OW29191   5.640   3.788   1.039
 9431SOL    HW129192   5.545   3.806   1.013
 9431SOL    HW229193   5.653   3.812   1.135
 9432SOL     OW29194   5.450   1.046   2.739
 9432SOL    HW129195   5.463   1.094   2.652
 9432SOL    HW229196   5.540   1.024   2.778
 9433SOL     OW29197   3.906   4.855   3.751
 9433SOL    HW129198   3.870   4.874   3.842
 9433SOL    HW229199   3.993   4.902   3.739
 9434SOL     OW29200   5.093   5.187   2.954
 9434SOL    HW129201   5.009   5.198   3.007
 9434SOL    HW229202   5.166   5.152   3.013
 9435SOL     OW29203   0.482   2.221   4.831
 9435SOL    HW129204   0.435   2.190   4.748
 9435SOL    HW229205   0.444   2.173   4.910
 9436SOL     OW29206   1.191   3.503   1.919
 9436SOL    HW129207   1.184   3.502   2.018
 9436SOL    HW229208   1.279   3.541   1.891
 9437SOL     OW29209   2.156   6.591   3.239
 9437SOL    HW129210   2.234   6.631   3.287
 9437SOL    HW229211   2.107   6.529   3.300
 9438SOL     OW29212   0.302   6.929   2.066
 9438SOL    HW129213   0.327   7.017   2.025
 9438SOL    HW229214   0.223   6.891   2.019
 9439SOL     OW29215   0.915   2.468   2.052
 9439SOL    HW129216   0.902   2.516   1.966
 9439SOL    HW229217   0.853   2.390   2.057
 9440SOL     OW29218   4.148   5.325   4.029
 9440SOL    HW129219   4.214   5.314   3.955
 9440SOL    HW229220   4.078   5.254   4.022
 9441SOL     OW29221   1.593   3.449   4.903
 9441SOL    HW129222   1.501   3.428   4.872
 9441SOL    HW229223   1.660   3.403   4.845
 9442SOL     OW29224   4.451   3.265   0.175
 9442SOL    HW129225   4.514   3.293   0.102
 9442SOL    HW229226   4.361   3.305   0.159
 9443SOL     OW29227   2.247   5.213   1.385
 9443SOL    HW129228   2.181   5.183   1.315
 9443SOL    HW229229   2.198   5.250   1.463
 9444SOL     OW29230   1.181   3.798   6.471
 9444SOL    HW129231   1.270   3.759   6.452
 9444SOL    HW229232   1.189   3.865   6.545
 9445SOL     OW29233   5.656   3.779   2.615
 9445SOL    HW129234   5.661   3.826   2.703
 9445SOL    HW229235   5.591   3.825   2.555
 9446SOL     OW29236   6.799   6.493   4.125
 9446SOL    HW129237   6.784   6.530   4.033
 9446SOL    HW229238   6.712   6.488   4.174
 9447SOL     OW29239   6.085   3.608   3.364
 9447SOL    HW129240   6.043   3.687   3.319
 9447SOL    HW229241   6.184   3.611   3.352
 9448SOL     OW29242   6.523   6.647   6.289
 9448SOL    HW129243   6.455   6.719   6.279
 9448SOL    HW229244   6.596   6.678   6.351
 9449SOL     OW29245   0.044   5.927   6.912
 9449SOL    HW129246   0.092   5.991   6.852
 9449SOL    HW229247   6.982   5.961   6.931
 9450SOL     OW29248   3.306   5.342   5.119
 9450SOL    HW129249   3.265   5.264   5.072
 9450SOL    HW229250   3.239   5.383   5.181
 9451SOL     OW29251   3.780   6.299   6.220
 9451SOL    HW129252   3.711   6.372   6.224
 9451SOL    HW229253   3.784   6.262   6.127
 9452SOL     OW29254   1.232   3.858   0.318
 9452SOL    HW129255   1.303   3.843   0.387
 9452SOL    HW229256   1.203   3.954   0.320
 9453SOL     OW29257   2.512   5.157   3.531
 9453SOL    HW129258   2.413   5.150   3.532
 9453SOL    HW229259   2.547   5.153   3.625
 9454SOL     OW29260   2.002   3.753   6.815
 9454SOL    HW129261   2.102   3.748   6.806
 9454SOL    HW229262   1.962   3.664   6.797
 9455SOL     OW29263   4.139   1.669   2.839
 9455SOL    HW129264   4.186   1.687   2.925
 9455SOL    HW229265   4.147   1.749   2.779
 9456SOL     OW29266   0.819   3.691   0.726
 9456SOL    HW129267   0.858   3.663   0.813
 9456SOL    HW229268   0.745   3.756   0.742
 9457SOL     OW29269   2.415   4.293   5.211
 9457SOL    HW129270   2.389   4.357   5.139
 9457SOL    HW229271   2.366   4.207   5.198
 9458SOL     OW29272   1.150   2.851   6.602
 9458SOL    HW129273   1.162   2.943   6.640
 9458SOL    HW229274   1.238   2.817   6.569
 9459SOL     OW29275   5.383   4.780   2.578
 9459SOL    HW129276   5.435   4.727   2.511
 9459SOL    HW229277   5.358   4.721   2.655
 9460SOL     OW29278   0.052   2.420   4.232
 9460SOL    HW129279   7.013   2.398   4.164
 9460SOL    HW229280   0.083   2.336   4.277
 9461SOL     OW29281   6.719   1.656   2.500
 9461SOL    HW129282   6.713   1.754   2.481
 9461SOL    HW229283   6.815   1.632   2.517
 9462SOL     OW29284   2.129   3.637   3.150
 9462SOL    HW129285   2.159   3.676   3.237
 9462SOL    HW229286   2.102   3.710   3.088
 9463SOL     OW29287   0.170   0.779   1.433
 9463SOL    HW129288   0.219   0.862   1.460
 9463SOL    HW229289   0.232   0.720   1.381
 9464SOL     OW29290   6.145   6.777   1.117
 9464SOL    HW129291   6.208   6.746   1.188
 9464SOL    HW229292   6.129   6.875   1.128
 9465SOL     OW29293   0.718   6.391   3.523
 9465SOL    HW129294   0.799   6.427   3.569
 9465SOL    HW229295   0.639   6.446   3.547
 9466SOL     OW29296   4.157   4.486   5.437
 9466SOL    HW129297   4.180   4.443   5.524
 9466SOL    HW229298   4.157   4.416   5.365
 9467SOL     OW29299   1.314   2.415   1.419
 9467SOL    HW129300   1.230   2.370   1.390
 9467SOL    HW229301   1.393   2.357   1.397
 9468SOL     OW29302   6.100   2.324   6.133
 9468SOL    HW129303   6.134   2.247   6.188
 9468SOL    HW229304   6.001   2.316   6.122
 9469SOL     OW29305   5.772   6.148   1.474
 9469SOL    HW129306   5.789   6.234   1.523
 9469SOL    HW229307   5.706   6.164   1.401
 9470SOL     OW29308   4.676   4.248   5.520
 9470SOL    HW129309   4.697   4.170   5.579
 9470SOL    HW229310   4.719   4.331   5.559
 9471SOL     OW29311   6.277   1.508   4.365
 9471SOL    HW129312   6.253   1.468   4.277
 9471SOL    HW229313   6.317   1.438   4.425
 9472SOL     OW29314   5.880   3.165   4.567
 9472SOL    HW129315   5.910   3.165   4.472
 9472SOL    HW229316   5.790   3.207   4.574
 9473SOL     OW29317   2.838   5.276   5.503
 9473SOL    HW129318   2.838   5.284   5.403
 9473SOL    HW229319   2.796   5.190   5.530
 9474SOL     OW29320   6.814   3.398   0.518
 9474SOL    HW129321   6.838   3.404   0.615
 9474SOL    HW229322   6.896   3.387   0.463
 9475SOL     OW29323   2.805   3.596   0.207
 9475SOL    HW129324   2.785   3.617   0.303
 9475SOL    HW229325   2.882   3.533   0.202
 9476SOL     OW29326   3.108   3.372   5.428
 9476SOL    HW129327   3.068   3.362   5.519
 9476SOL    HW229328   3.204   3.398   5.436
 9477SOL     OW29329   0.156   3.732   2.663
 9477SOL    HW129330   0.250   3.751   2.693
 9477SOL    HW229331   0.156   3.711   2.566
 9478SOL     OW29332   5.467   3.146   5.996
 9478SOL    HW129333   5.517   3.142   5.909
 9478SOL    HW229334   5.519   3.097   6.066
 9479SOL     OW29335   4.540   6.410   0.023
 9479SOL    HW129336   4.627   6.455   0.000
 9479SOL    HW229337   4.491   6.465   0.090
 9480SOL     OW29338   4.793   3.705   0.844
 9480SOL    HW129339   4.852   3.729   0.922
 9480SOL    HW229340   4.846   3.654   0.776
 9481SOL     OW29341   5.723   3.562   1.758
 9481SOL    HW129342   5.670   3.485   1.793
 9481SOL    HW229343   5.820   3.536   1.752
 9482SOL     OW29344   6.736   0.711   3.216
 9482SOL    HW129345   6.757   0.729   3.120
 9482SOL    HW229346   6.702   0.794   3.259
 9483SOL     OW29347   1.605   1.416   1.224
 9483SOL    HW129348   1.628   1.506   1.263
 9483SOL    HW229349   1.591   1.426   1.125
 9484SOL     OW29350   4.335   1.558   3.054
 9484SOL    HW129351   4.400   1.509   3.111
 9484SOL    HW229352   4.278   1.492   3.004
 9485SOL     OW29353   0.791   0.471   2.402
 9485SOL    HW129354   0.818   0.383   2.442
 9485SOL    HW229355   0.825   0.476   2.308
 9486SOL     OW29356   2.483   5.410   1.718
 9486SOL    HW129357   2.559   5.397   1.782
 9486SOL    HW229358   2.431   5.325   1.709
 9487SOL     OW29359   2.898   3.357   3.215
 9487SOL    HW129360   2.947   3.441   3.190
 9487SOL    HW229361   2.816   3.350   3.159
 9488SOL     OW29362   1.732   6.310   1.203
 9488SOL    HW129363   1.717   6.352   1.113
 9488SOL    HW229364   1.651   6.325   1.260
 9489SOL     OW29365   3.947   4.047   1.528
 9489SOL    HW129366   3.933   3.971   1.592
 9489SOL    HW229367   3.993   4.013   1.446
 9490SOL     OW29368   6.418   5.411   0.633
 9490SOL    HW129369   6.376   5.491   0.590
 9490SOL    HW229370   6.467   5.357   0.564
 9491SOL     OW29371   6.570   4.292   3.877
 9491SOL    HW129372   6.538   4.216   3.821
 9491SOL    HW229373   6.514   4.373   3.859
 9492SOL     OW29374   3.474   2.884   2.858
 9492SOL    HW129375   3.429   2.835   2.933
 9492SOL    HW229376   3.551   2.937   2.894
 9493SOL     OW29377   4.068   5.497   3.828
 9493SOL    HW129378   3.981   5.503   3.779
 9493SOL    HW229379   4.062   5.427   3.898
 9494SOL     OW29380   4.457   4.876   1.199
 9494SOL    HW129381   4.455   4.776   1.197
 9494SOL    HW229382   4.463   4.907   1.294
 9495SOL     OW29383   6.144   1.721   4.033
 9495SOL    HW129384   6.237   1.752   4.015
 9495SOL    HW229385   6.147   1.632   4.079
 9496SOL     OW29386   5.782   4.694   0.947
 9496SOL    HW129387   5.854   4.705   0.879
 9496SOL    HW229388   5.695   4.678   0.901
 9497SOL     OW29389   6.397   5.202   6.748
 9497SOL    HW129390   6.433   5.120   6.793
 9497SOL    HW229391   6.309   5.180   6.704
 9498SOL     OW29392   5.255   0.384   4.900
 9498SOL    HW129393   5.309   0.464   4.872
 9498SOL    HW229394   5.206   0.404   4.985
 9499SOL     OW29395   2.487   5.123   6.290
 9499SOL    HW129396   2.500   5.028   6.263
 9499SOL    HW229397   2.392   5.137   6.318
 9500SOL     OW29398   4.470   0.253   1.482
 9500SOL    HW129399   4.540   0.311   1.441
 9500SOL    HW229400   4.380   0.278   1.447
 9501SOL     OW29401   2.612   1.596   4.805
 9501SOL    HW129402   2.545   1.525   4.783
 9501SOL    HW229403   2.564   1.679   4.836
 9502SOL     OW29404   0.325   2.148   5.074
 9502SOL    HW129405   0.299   2.163   5.170
 9502SOL    HW229406   0.294   2.057   5.046
 9503SOL     OW29407   0.630   1.484   1.095
 9503SOL    HW129408   0.702   1.436   1.147
 9503SOL    HW229409   0.606   1.430   1.014
 9504SOL     OW29410   0.093   1.717   0.575
 9504SOL    HW129411   0.158   1.653   0.534
 9504SOL    HW229412   0.142   1.798   0.607
 9505SOL     OW29413   5.576   4.303   3.664
 9505SOL    HW129414   5.533   4.384   3.626
 9505SOL    HW229415   5.584   4.313   3.763
 9506SOL     OW29416   0.278   2.977   6.786
 9506SOL    HW129417   0.267   3.059   6.843
 9506SOL    HW229418   0.203   2.913   6.805
 9507SOL     OW29419   1.223   1.413   3.419
 9507SOL    HW129420   1.309   1.452   3.452
 9507SOL    HW229421   1.162   1.486   3.390
 9508SOL     OW29422   6.373   3.853   0.835
 9508SOL    HW129423   6.440   3.779   0.826
 9508SOL    HW229424   6.287   3.815   0.870
 9509SOL     OW29425   0.803   0.553   5.277
 9509SOL    HW129426   0.771   0.458   5.284
 9509SOL    HW229427   0.744   0.603   5.214
 9510SOL     OW29428   1.035   4.019   2.222
 9510SOL    HW129429   1.128   4.006   2.257
 9510SOL    HW229430   0.970   4.014   2.298
 9511SOL     OW29431   0.729   1.548   6.929
 9511SOL    HW129432   0.729   1.622   6.996
 9511SOL    HW229433   0.678   1.577   6.848
 9512SOL     OW29434   5.992   1.173   1.708
 9512SOL    HW129435   6.040   1.134   1.630
 9512SOL    HW229436   6.042   1.254   1.741
 9513SOL     OW29437   1.943   3.210   5.337
 9513SOL    HW129438   1.869   3.273   5.312
 9513SOL    HW229439   2.031   3.248   5.306
 9514SOL     OW29440   2.132   4.287   0.017
 9514SOL    HW129441   2.087   4.374   7.024
 9514SOL    HW229442   2.063   4.215   0.024
 9515SOL     OW29443   1.233   5.764   0.631
 9515SOL    HW129444   1.210   5.809   0.545
 9515SOL    HW229445   1.314   5.807   0.671
 9516SOL     OW29446   5.993   3.634   4.971
 9516SOL    HW129447   5.963   3.608   5.063
 9516SOL    HW229448   5.959   3.725   4.949
 9517SOL     OW29449   1.193   4.737   0.804
 9517SOL    HW129450   1.273   4.694   0.762
 9517SOL    HW229451   1.117   4.671   0.806
 9518SOL     OW29452   1.523   2.141   0.087
 9518SOL    HW129453   1.450   2.169   0.026
 9518SOL    HW229454   1.559   2.221   0.136
 9519SOL     OW29455   3.786   3.954   4.321
 9519SOL    HW129456   3.865   3.968   4.381
 9519SOL    HW229457   3.707   3.925   4.376
 9520SOL     OW29458   0.366   1.328   2.904
 9520SOL    HW129459   0.370   1.265   2.826
 9520SOL    HW229460   0.420   1.409   2.884
 9521SOL     OW29461   3.649   4.366   1.190
 9521SOL    HW129462   3.690   4.302   1.256
 9521SOL    HW229463   3.656   4.328   1.098
 9522SOL     OW29464   4.328   5.675   1.628
 9522SOL    HW129465   4.258   5.718   1.687
 9522SOL    HW229466   4.326   5.718   1.538
 9523SOL     OW29467   2.666   5.065   4.786
 9523SOL    HW129468   2.656   5.083   4.883
 9523SOL    HW229469   2.764   5.059   4.763
 9524SOL     OW29470   2.280   2.866   0.406
 9524SOL    HW129471   2.320   2.940   0.461
 9524SOL    HW229472   2.237   2.799   0.467
 9525SOL     OW29473   2.645   2.150   5.414
 9525SOL    HW129474   2.682   2.061   5.386
 9525SOL    HW229475   2.714   2.221   5.398
 9526SOL     OW29476   5.964   4.170   1.125
 9526SOL    HW129477   5.983   4.143   1.030
 9526SOL    HW229478   5.967   4.270   1.132
 9527SOL     OW29479   1.012   0.418   4.633
 9527SOL    HW129480   1.047   0.435   4.542
 9527SOL    HW229481   1.038   0.326   4.662
 9528SOL     OW29482   6.983   1.277   0.463
 9528SOL    HW129483   6.977   1.366   0.418
 9528SOL    HW229484   6.949   1.284   0.557
 9529SOL     OW29485   6.322   3.446   6.225
 9529SOL    HW129486   6.294   3.371   6.166
 9529SOL    HW229487   6.382   3.508   6.174
 9530SOL     OW29488   1.673   3.253   3.418
 9530SOL    HW129489   1.625   3.340   3.418
 9530SOL    HW229490   1.607   3.178   3.415
 9531SOL     OW29491   4.967   4.340   2.360
 9531SOL    HW129492   4.997   4.371   2.450
 9531SOL    HW229493   4.872   4.311   2.365
 9532SOL     OW29494   0.185   6.133   0.960
 9532SOL    HW129495   0.099   6.087   0.936
 9532SOL    HW229496   0.176   6.176   1.050
 9533SOL     OW29497   0.466   6.094   4.969
 9533SOL    HW129498   0.488   6.009   4.921
 9533SOL    HW229499   0.375   6.125   4.942
 9534SOL     OW29500   6.519   4.216   5.257
 9534SOL    HW129501   6.540   4.164   5.175
 9534SOL    HW229502   6.574   4.182   5.334
 9535SOL     OW29503   1.874   0.560   5.874
 9535SOL    HW129504   1.905   0.473   5.912
 9535SOL    HW229505   1.941   0.596   5.810
 9536SOL     OW29506   3.268   4.156   5.293
 9536SOL    HW129507   3.214   4.075   5.268
 9536SOL    HW229508   3.210   4.237   5.288
 9537SOL     OW29509   2.462   0.101   4.122
 9537SOL    HW129510   2.407   0.089   4.040
 9537SOL    HW229511   2.557   0.074   4.103
 9538SOL     OW29512   5.445   1.002   4.071
 9538SOL    HW129513   5.416   1.067   4.000
 9538SOL    HW229514   5.402   1.027   4.158
 9539SOL     OW29515   3.222   3.749   4.606
 9539SOL    HW129516   3.301   3.692   4.584
 9539SOL    HW229517   3.183   3.720   4.693
 9540SOL     OW29518   5.930   4.906   4.201
 9540SOL    HW129519   5.996   4.837   4.229
 9540SOL    HW229520   5.850   4.902   4.261
 9541SOL     OW29521   3.376   0.257   6.149
 9541SOL    HW129522   3.294   0.256   6.206
 9541SOL    HW229523   3.433   0.335   6.175
 9542SOL     OW29524   4.996   4.688   5.114
 9542SOL    HW129525   4.917   4.721   5.061
 9542SOL    HW229526   5.078   4.738   5.086
 9543SOL     OW29527   3.605   0.526   5.740
 9543SOL    HW129528   3.561   0.566   5.820
 9543SOL    HW229529   3.704   0.526   5.753
 9544SOL     OW29530   6.262   2.693   3.860
 9544SOL    HW129531   6.180   2.750   3.864
 9544SOL    HW229532   6.245   2.613   3.803
 9545SOL     OW29533   5.706   5.510   3.931
 9545SOL    HW129534   5.639   5.437   3.926
 9545SOL    HW229535   5.660   5.596   3.956
 9546SOL     OW29536   4.069   2.209   5.584
 9546SOL    HW129537   4.068   2.200   5.484
 9546SOL    HW229538   3.976   2.203   5.619
 9547SOL     OW29539   2.521   4.903   4.217
 9547SOL    HW129540   2.576   4.959   4.156
 9547SOL    HW229541   2.520   4.944   4.309
 9548SOL     OW29542   6.670   4.913   5.390
 9548SOL    HW129543   6.709   4.998   5.355
 9548SOL    HW229544   6.595   4.884   5.331
 9549SOL     OW29545   3.041   2.248   1.496
 9549SOL    HW129546   3.117   2.291   1.446
 9549SOL    HW229547   3.066   2.239   1.593
 9550SOL     OW29548   6.704   1.100   0.640
 9550SOL    HW129549   6.761   1.103   0.558
 9550SOL    HW229550   6.752   1.144   0.716
 9551SOL     OW29551   5.826   2.313   6.076
 9551SOL    HW129552   5.731   2.281   6.085
 9551SOL    HW229553   5.827   2.411   6.057
 9552SOL     OW29554   1.700   6.433   4.377
 9552SOL    HW129555   1.710   6.511   4.438
 9552SOL    HW229556   1.610   6.436   4.334
 9553SOL     OW29557   5.953   2.187   6.760
 9553SOL    HW129558   6.035   2.241   6.776
 9553SOL    HW229559   5.872   2.244   6.771
 9554SOL     OW29560   2.505   0.010   2.348
 9554SOL    HW129561   2.525   0.001   2.251
 9554SOL    HW229562   2.551   0.090   2.385
 9555SOL     OW29563   1.148   1.134   2.586
 9555SOL    HW129564   1.132   1.038   2.565
 9555SOL    HW229565   1.194   1.142   2.675
 9556SOL     OW29566   2.075   4.092   1.546
 9556SOL    HW129567   2.153   4.031   1.551
 9556SOL    HW229568   1.997   4.042   1.508
 9557SOL     OW29569   6.485   6.232   2.060
 9557SOL    HW129570   6.487   6.274   1.969
 9557SOL    HW229571   6.489   6.133   2.052
 9558SOL     OW29572   5.948   6.250   5.503
 9558SOL    HW129573   5.932   6.152   5.488
 9558SOL    HW229574   5.975   6.292   5.416
 9559SOL     OW29575   0.190   4.882   0.861
 9559SOL    HW129576   0.185   4.923   0.770
 9559SOL    HW229577   0.274   4.912   0.906
 9560SOL     OW29578   2.305   1.403   3.523
 9560SOL    HW129579   2.370   1.337   3.561
 9560SOL    HW229580   2.354   1.472   3.469
 9561SOL     OW29581   2.271   0.682   0.221
 9561SOL    HW129582   2.202   0.721   0.282
 9561SOL    HW229583   2.228   0.611   0.165
 9562SOL     OW29584   2.488   0.075   5.489
 9562SOL    HW129585   2.578   0.093   5.529
 9562SOL    HW229586   2.426   0.151   5.509
 9563SOL     OW29587   0.011   6.464   0.461
 9563SOL    HW129588   0.053   6.486   0.549
 9563SOL    HW229589   7.020   6.549   0.412
 9564SOL     OW29590   2.684   0.944   0.935
 9564SOL    HW129591   2.711   0.873   0.870
 9564SOL    HW229592   2.700   1.034   0.895
 9565SOL     OW29593   3.882   0.889   4.428
 9565SOL    HW129594   3.915   0.799   4.399
 9565SOL    HW229595   3.816   0.878   4.502
 9566SOL     OW29596   2.525   4.839   0.209
 9566SOL    HW129597   2.516   4.825   0.111
 9566SOL    HW229598   2.622   4.846   0.233
 9567SOL     OW29599   4.768   5.168   0.568
 9567SOL    HW129600   4.689   5.147   0.510
 9567SOL    HW229601   4.841   5.208   0.511
 9568SOL     OW29602   4.209   2.846   6.298
 9568SOL    HW129603   4.114   2.830   6.271
 9568SOL    HW229604   4.240   2.933   6.261
 9569SOL     OW29605   6.994   1.124   2.252
 9569SOL    HW129606   6.913   1.168   2.289
 9569SOL    HW229607   0.046   1.172   2.285
 9570SOL     OW29608   0.655   3.237   1.634
 9570SOL    HW129609   0.689   3.197   1.719
 9570SOL    HW229610   0.726   3.230   1.563
 9571SOL     OW29611   3.507   4.064   6.111
 9571SOL    HW129612   3.432   4.014   6.068
 9571SOL    HW229613   3.560   4.002   6.168
 9572SOL     OW29614   2.369   4.734   1.951
 9572SOL    HW129615   2.340   4.640   1.968
 9572SOL    HW229616   2.466   4.736   1.927
 9573SOL     OW29617   0.791   3.011   6.439
 9573SOL    HW129618   0.857   2.997   6.513
 9573SOL    HW229619   0.834   3.062   6.366
 9574SOL     OW29620   4.009   3.599   3.154
 9574SOL    HW129621   3.996   3.670   3.224
 9574SOL    HW229622   3.980   3.511   3.191
 9575SOL     OW29623   0.429   0.996   1.212
 9575SOL    HW129624   0.452   1.045   1.296
 9575SOL    HW229625   0.499   0.927   1.193
 9576SOL     OW29626   1.963   1.011   1.423
 9576SOL    HW129627   1.997   1.095   1.379
 9576SOL    HW229628   1.948   1.028   1.520
 9577SOL     OW29629   1.171   0.832   6.331
 9577SOL    HW129630   1.089   0.808   6.383
 9577SOL    HW229631   1.218   0.749   6.303
 9578SOL     OW29632   0.456   3.595   3.209
 9578SOL    HW129633   0.394   3.644   3.148
 9578SOL    HW229634   0.412   3.513   3.244
 9579SOL     OW29635   1.646   5.099   2.887
 9579SOL    HW129636   1.678   5.010   2.853
 9579SOL    HW229637   1.550   5.093   2.912
 9580SOL     OW29638   4.861   4.144   0.753
 9580SOL    HW129639   4.850   4.098   0.841
 9580SOL    HW229640   4.809   4.095   0.683
 9581SOL     OW29641   0.231   5.511   5.774
 9581SOL    HW129642   0.318   5.480   5.736
 9581SOL    HW229643   0.208   5.600   5.737
 9582SOL     OW29644   5.091   5.468   6.103
 9582SOL    HW129645   5.050   5.479   6.193
 9582SOL    HW229646   5.165   5.535   6.091
 9583SOL     OW29647   3.722   4.192   1.396
 9583SOL    HW129648   3.747   4.219   1.489
 9583SOL    HW229649   3.750   4.097   1.380
 9584SOL     OW29650   0.049   5.438   6.830
 9584SOL    HW129651   7.013   5.512   6.845
 9584SOL    HW229652   0.092   5.449   6.741
 9585SOL     OW29653   6.902   0.286   5.170
 9585SOL    HW129654   6.832   0.260   5.104
 9585SOL    HW229655   6.980   0.325   5.122
 9586SOL     OW29656   5.531   4.717   2.354
 9586SOL    HW129657   5.475   4.739   2.274
 9586SOL    HW229658   5.626   4.704   2.325
 9587SOL     OW29659   0.495   0.778   1.714
 9587SOL    HW129660   0.543   0.731   1.641
 9587SOL    HW229661   0.561   0.821   1.775
 9588SOL     OW29662   6.490   1.132   1.408
 9588SOL    HW129663   6.580   1.088   1.411
 9588SOL    HW229664   6.423   1.068   1.371
 9589SOL     OW29665   2.339   5.026   0.265
 9589SOL    HW129666   2.302   5.063   0.180
 9589SOL    HW229667   2.406   4.955   0.245
 9590SOL     OW29668   6.662   2.853   2.012
 9590SOL    HW129669   6.670   2.906   2.097
 9590SOL    HW229670   6.575   2.804   2.012
 9591SOL     OW29671   3.029   6.244   5.769
 9591SOL    HW129672   3.007   6.341   5.759
 9591SOL    HW229673   2.946   6.192   5.788
 9592SOL     OW29674   4.135   4.571   1.003
 9592SOL    HW129675   4.046   4.600   0.967
 9592SOL    HW229676   4.173   4.498   0.946
 9593SOL     OW29677   0.187   0.653   5.889
 9593SOL    HW129678   0.095   0.644   5.927
 9593SOL    HW229679   0.186   0.723   5.817
 9594SOL     OW29680   1.162   5.294   2.384
 9594SOL    HW129681   1.136   5.359   2.455
 9594SOL    HW229682   1.257   5.308   2.358
 9595SOL     OW29683   0.815   4.078   5.245
 9595SOL    HW129684   0.738   4.031   5.203
 9595SOL    HW229685   0.786   4.168   5.278
 9596SOL     OW29686   6.746   5.442   6.308
 9596SOL    HW129687   6.838   5.480   6.301
 9596SOL    HW229688   6.721   5.436   6.405
 9597SOL     OW29689   0.691   4.240   1.604
 9597SOL    HW129690   0.605   4.240   1.657
 9597SOL    HW229691   0.672   4.207   1.512
 9598SOL     OW29692   1.693   3.701   4.131
 9598SOL    HW129693   1.782   3.658   4.116
 9598SOL    HW229694   1.680   3.774   4.064
 9599SOL     OW29695   3.744   0.303   4.839
 9599SOL    HW129696   3.754   0.401   4.854
 9599SOL    HW229697   3.794   0.276   4.757
 9600SOL     OW29698   2.129   6.909   6.508
 9600SOL    HW129699   2.105   6.934   6.602
 9600SOL    HW229700   2.162   6.815   6.506
 9601SOL     OW29701   5.412   4.030   1.028
 9601SOL    HW129702   5.362   3.950   1.061
 9601SOL    HW229703   5.432   4.091   1.105
 9602SOL     OW29704   6.768   5.142   6.208
 9602SOL    HW129705   6.684   5.140   6.155
 9602SOL    HW229706   6.752   5.189   6.295
 9603SOL     OW29707   3.812   1.378   3.848
 9603SOL    HW129708   3.723   1.422   3.847
 9603SOL    HW229709   3.866   1.412   3.770
 9604SOL     OW29710   4.174   0.137   6.880
 9604SOL    HW129711   4.163   0.039   6.862
 9604SOL    HW229712   4.262   0.152   6.925
 9605SOL     OW29713   0.655   5.412   3.447
 9605SOL    HW129714   0.579   5.472   3.425
 9605SOL    HW229715   0.677   5.354   3.369
 9606SOL     OW29716   1.803   6.398   6.556
 9606SOL    HW129717   1.758   6.455   6.625
 9606SOL    HW229718   1.750   6.314   6.543
 9607SOL     OW29719   2.029   1.860   6.952
 9607SOL    HW129720   1.960   1.795   6.919
 9607SOL    HW229721   2.062   1.831   0.012
 9608SOL     OW29722   6.809   5.845   2.407
 9608SOL    HW129723   6.827   5.903   2.328
 9608SOL    HW229724   6.880   5.775   2.414
 9609SOL     OW29725   2.321   4.332   6.600
 9609SOL    HW129726   2.359   4.422   6.623
 9609SOL    HW229727   2.299   4.283   6.685
 9610SOL     OW29728   1.422   5.437   4.414
 9610SOL    HW129729   1.363   5.404   4.488
 9610SOL    HW229730   1.489   5.367   4.391
 9611SOL     OW29731   0.420   6.501   6.923
 9611SOL    HW129732   0.355   6.460   6.986
 9611SOL    HW229733   0.382   6.500   6.831
 9612SOL     OW29734   0.503   4.149   2.098
 9612SOL    HW129735   0.570   4.171   2.027
 9612SOL    HW229736   0.422   4.109   2.056
 9613SOL     OW29737   4.996   6.295   3.336
 9613SOL    HW129738   5.043   6.208   3.351
 9613SOL    HW229739   4.909   6.296   3.385
 9614SOL     OW29740   3.347   2.275   0.364
 9614SOL    HW129741   3.377   2.340   0.294
 9614SOL    HW229742   3.247   2.267   0.361
 9615SOL     OW29743   1.320   0.193   0.522
 9615SOL    HW129744   1.382   0.272   0.521
 9615SOL    HW229745   1.349   0.130   0.594
 9616SOL     OW29746   4.412   3.951   1.275
 9616SOL    HW129747   4.449   3.859   1.285
 9616SOL    HW229748   4.391   3.969   1.179
 9617SOL     OW29749   2.285   2.916   3.415
 9617SOL    HW129750   2.284   2.909   3.515
 9617SOL    HW229751   2.193   2.899   3.380
 9618SOL     OW29752   3.933   6.676   5.459
 9618SOL    HW129753   3.987   6.735   5.400
 9618SOL    HW229754   3.925   6.717   5.550
 9619SOL     OW29755   1.060   6.647   0.496
 9619SOL    HW129756   1.045   6.551   0.471
 9619SOL    HW229757   1.007   6.706   0.435
 9620SOL     OW29758   4.353   2.182   6.973
 9620SOL    HW129759   4.307   2.199   6.886
 9620SOL    HW229760   4.289   2.137   0.006
 9621SOL     OW29761   0.518   1.061   2.359
 9621SOL    HW129762   0.468   1.014   2.286
 9621SOL    HW229763   0.482   1.034   2.448
 9622SOL     OW29764   6.372   0.841   0.462
 9622SOL    HW129765   6.363   0.786   0.379
 9622SOL    HW229766   6.424   0.924   0.440
 9623SOL     OW29767   3.137   4.871   5.977
 9623SOL    HW129768   3.184   4.959   5.988
 9623SOL    HW229769   3.192   4.811   5.919
 9624SOL     OW29770   6.821   4.597   2.211
 9624SOL    HW129771   6.895   4.564   2.270
 9624SOL    HW229772   6.742   4.536   2.219
 9625SOL     OW29773   5.258   5.883   0.082
 9625SOL    HW129774   5.288   5.789   0.098
 9625SOL    HW229775   5.312   5.945   0.139
 9626SOL     OW29776   3.145   6.264   6.628
 9626SOL    HW129777   3.088   6.346   6.631
 9626SOL    HW229778   3.169   6.236   6.721
 9627SOL     OW29779   6.964   5.096   3.254
 9627SOL    HW129780   6.915   5.126   3.336
 9627SOL    HW229781   0.029   5.128   3.258
 9628SOL     OW29782   5.722   5.317   6.614
 9628SOL    HW129783   5.742   5.221   6.593
 9628SOL    HW229784   5.624   5.327   6.634
 9629SOL     OW29785   0.501   6.436   3.022
 9629SOL    HW129786   0.539   6.491   2.948
 9629SOL    HW229787   0.551   6.349   3.028
 9630SOL     OW29788   6.546   6.221   5.641
 9630SOL    HW129789   6.480   6.162   5.687
 9630SOL    HW229790   6.638   6.186   5.657
 9631SOL     OW29791   5.882   0.208   0.400
 9631SOL    HW129792   5.897   0.141   0.328
 9631SOL    HW229793   5.788   0.241   0.395
 9632SOL     OW29794   2.456   5.337   2.869
 9632SOL    HW129795   2.543   5.363   2.910
 9632SOL    HW229796   2.417   5.260   2.919
 9633SOL     OW29797   5.003   5.011   6.997
 9633SOL    HW129798   5.090   4.962   7.001
 9633SOL    HW229799   4.931   4.956   0.011
 9634SOL     OW29800   0.718   0.274   4.094
 9634SOL    HW129801   0.754   0.183   4.115
 9634SOL    HW229802   0.626   0.266   4.055
 9635SOL     OW29803   1.485   5.020   5.750
 9635SOL    HW129804   1.557   4.962   5.711
 9635SOL    HW229805   1.406   4.963   5.772
 9636SOL     OW29806   4.055   1.961   5.978
 9636SOL    HW129807   4.092   2.052   5.962
 9636SOL    HW229808   3.960   1.968   6.010
 9637SOL     OW29809   2.835   1.659   6.689
 9637SOL    HW129810   2.865   1.703   6.604
 9637SOL    HW229811   2.790   1.572   6.667
 9638SOL     OW29812   6.832   3.679   0.199
 9638SOL    HW129813   6.791   3.770   0.186
 9638SOL    HW229814   6.762   3.615   0.229
 9639SOL     OW29815   3.796   1.327   2.080
 9639SOL    HW129816   3.847   1.380   2.012
 9639SOL    HW229817   3.816   1.363   2.171
 9640SOL     OW29818   3.330   1.768   2.963
 9640SOL    HW129819   3.336   1.816   3.051
 9640SOL    HW229820   3.370   1.825   2.892
 9641SOL     OW29821   5.306   6.422   1.164
 9641SOL    HW129822   5.369   6.424   1.086
 9641SOL    HW229823   5.249   6.504   1.163
 9642SOL     OW29824   2.904   5.954   4.915
 9642SOL    HW129825   2.982   6.016   4.909
 9642SOL    HW229826   2.821   6.001   4.883
 9643SOL     OW29827   6.087   4.420   4.238
 9643SOL    HW129828   6.157   4.411   4.167
 9643SOL    HW229829   6.086   4.514   4.273
 9644SOL     OW29830   1.222   5.148   4.894
 9644SOL    HW129831   1.204   5.154   4.992
 9644SOL    HW229832   1.273   5.065   4.874
 9645SOL     OW29833   3.804   4.839   3.989
 9645SOL    HW129834   3.817   4.753   4.038
 9645SOL    HW229835   3.755   4.903   4.047
 9646SOL     OW29836   2.983   4.852   1.938
 9646SOL    HW129837   2.936   4.768   1.966
 9646SOL    HW229838   2.942   4.930   1.986
 9647SOL     OW29839   6.819   5.313   1.195
 9647SOL    HW129840   6.775   5.402   1.201
 9647SOL    HW229841   6.856   5.287   1.284
 9648SOL     OW29842   3.855   1.927   6.966
 9648SOL    HW129843   3.782   1.869   6.929
 9648SOL    HW229844   3.895   1.981   6.892
 9649SOL     OW29845   3.087   5.582   6.998
 9649SOL    HW129846   3.106   5.565   0.065
 9649SOL    HW229847   2.996   5.624   6.990
 9650SOL     OW29848   5.204   4.447   3.319
 9650SOL    HW129849   5.137   4.498   3.265
 9650SOL    HW229850   5.157   4.387   3.383
 9651SOL     OW29851   6.700   0.968   6.662
 9651SOL    HW129852   6.640   0.962   6.582
 9651SOL    HW229853   6.771   0.898   6.656
 9652SOL     OW29854   2.083   4.462   0.594
 9652SOL    HW129855   2.126   4.547   0.626
 9652SOL    HW229856   2.131   4.430   0.512
 9653SOL     OW29857   4.354   5.594   5.133
 9653SOL    HW129858   4.297   5.667   5.095
 9653SOL    HW229859   4.330   5.507   5.091
 9654SOL     OW29860   3.903   3.356   2.073
 9654SOL    HW129861   3.994   3.368   2.113
 9654SOL    HW229862   3.864   3.269   2.104
 9655SOL     OW29863   0.215   1.002   0.267
 9655SOL    HW129864   0.149   0.932   0.239
 9655SOL    HW229865   0.206   1.081   0.207
 9656SOL     OW29866   3.801   2.260   0.869
 9656SOL    HW129867   3.809   2.209   0.783
 9656SOL    HW229868   3.826   2.201   0.945
 9657SOL     OW29869   6.275   1.814   3.172
 9657SOL    HW129870   6.302   1.756   3.248
 9657SOL    HW229871   6.343   1.810   3.100
 9658SOL     OW29872   6.001   1.441   2.676
 9658SOL    HW129873   6.006   1.468   2.772
 9658SOL    HW229874   5.955   1.512   2.623
 9659SOL     OW29875   6.933   3.647   0.708
 9659SOL    HW129876   6.972   3.672   0.620
 9659SOL    HW229877   6.899   3.729   0.754
 9660SOL     OW29878   0.066   5.907   1.457
 9660SOL    HW129879   0.109   5.865   1.377
 9660SOL    HW229880   0.126   5.898   1.536
 9661SOL     OW29881   3.513   6.256   2.057
 9661SOL    HW129882   3.474   6.315   2.127
 9661SOL    HW229883   3.594   6.211   2.092
 9662SOL     OW29884   4.833   2.561   4.820
 9662SOL    HW129885   4.901   2.555   4.747
 9662SOL    HW229886   4.773   2.482   4.817
 9663SOL     OW29887   0.544   6.301   4.100
 9663SOL    HW129888   0.621   6.360   4.123
 9663SOL    HW229889   0.472   6.311   4.169
 9664SOL     OW29890   5.707   6.546   3.978
 9664SOL    HW129891   5.744   6.587   4.061
 9664SOL    HW229892   5.781   6.506   3.924
 9665SOL     OW29893   4.991   6.261   0.095
 9665SOL    HW129894   4.989   6.189   0.025
 9665SOL    HW229895   4.899   6.272   0.133
 9666SOL     OW29896   5.931   3.880   1.613
 9666SOL    HW129897   5.998   3.819   1.655
 9666SOL    HW229898   5.945   3.882   1.514
 9667SOL     OW29899   4.069   3.351   5.391
 9667SOL    HW129900   4.090   3.352   5.294
 9667SOL    HW229901   3.977   3.316   5.406
 9668SOL     OW29902   6.553   1.064   6.005
 9668SOL    HW129903   6.468   1.017   6.029
 9668SOL    HW229904   6.545   1.104   5.914
 9669SOL     OW29905   1.562   0.142   1.876
 9669SOL    HW129906   1.578   0.240   1.883
 9669SOL    HW229907   1.509   0.111   1.956
 9670SOL     OW29908   5.842   4.780   6.275
 9670SOL    HW129909   5.790   4.695   6.282
 9670SOL    HW229910   5.882   4.803   6.364
 9671SOL     OW29911   6.059   5.337   6.888
 9671SOL    HW129912   6.113   5.273   6.834
 9671SOL    HW229913   6.119   5.389   6.949
 9672SOL     OW29914   1.620   6.116   4.118
 9672SOL    HW129915   1.595   6.153   4.207
 9672SOL    HW229916   1.634   6.017   4.126
 9673SOL     OW29917   5.245   3.829   0.341
 9673SOL    HW129918   5.306   3.854   0.266
 9673SOL    HW229919   5.279   3.745   0.384
 9674SOL     OW29920   2.843   5.951   3.025
 9674SOL    HW129921   2.772   5.960   2.955
 9674SOL    HW229922   2.817   5.880   3.091
 9675SOL     OW29923   5.966   2.297   0.550
 9675SOL    HW129924   6.012   2.381   0.580
 9675SOL    HW229925   6.035   2.230   0.524
 9676SOL     OW29926   1.258   3.514   5.605
 9676SOL    HW129927   1.252   3.480   5.699
 9676SOL    HW229928   1.229   3.609   5.602
 9677SOL     OW29929   1.556   5.285   4.923
 9677SOL    HW129930   1.513   5.210   4.872
 9677SOL    HW229931   1.596   5.249   5.007
 9678SOL     OW29932   3.239   3.371   3.240
 9678SOL    HW129933   3.164   3.324   3.287
 9678SOL    HW229934   3.201   3.442   3.180
 9679SOL     OW29935   2.449   1.044   2.282
 9679SOL    HW129936   2.392   1.095   2.217
 9679SOL    HW229937   2.391   0.982   2.335
 9680SOL     OW29938   5.398   0.733   3.319
 9680SOL    HW129939   5.306   0.768   3.338
 9680SOL    HW229940   5.466   0.801   3.345
 9681SOL     OW29941   3.218   1.218   0.054
 9681SOL    HW129942   3.301   1.163   0.052
 9681SOL    HW229943   3.242   1.315   0.045
 9682SOL     OW29944   4.937   4.892   4.255
 9682SOL    HW129945   4.856   4.851   4.214
 9682SOL    HW229946   4.955   4.980   4.213
 9683SOL     OW29947   2.493   5.330   1.034
 9683SOL    HW129948   2.523   5.237   1.053
 9683SOL    HW229949   2.571   5.392   1.040
 9684SOL     OW29950   0.576   2.965   5.350
 9684SOL    HW129951   0.567   3.010   5.439
 9684SOL    HW229952   0.485   2.937   5.318
 9685SOL     OW29953   2.410   4.328   1.554
 9685SOL    HW129954   2.329   4.283   1.517
 9685SOL    HW229955   2.483   4.327   1.487
 9686SOL     OW29956   6.952   1.284   0.039
 9686SOL    HW129957   6.958   1.184   0.045
 9686SOL    HW229958   6.856   1.310   0.027
 9687SOL     OW29959   1.695   0.593   4.012
 9687SOL    HW129960   1.716   0.582   4.109
 9687SOL    HW229961   1.684   0.504   3.969
 9688SOL     OW29962   0.299   2.271   2.555
 9688SOL    HW129963   0.205   2.286   2.524
 9688SOL    HW229964   0.354   2.235   2.479
 9689SOL     OW29965   1.450   6.101   7.017
 9689SOL    HW129966   1.422   6.143   0.073
 9689SOL    HW229967   1.547   6.120   6.999
 9690SOL     OW29968   5.992   6.077   6.537
 9690SOL    HW129969   5.972   6.038   6.628
 9690SOL    HW229970   6.089   6.065   6.517
 9691SOL     OW29971   2.737   5.141   1.511
 9691SOL    HW129972   2.667   5.074   1.487
 9691SOL    HW229973   2.732   5.219   1.448
 9692SOL     OW29974   3.577   5.390   2.797
 9692SOL    HW129975   3.587   5.330   2.877
 9692SOL    HW229976   3.661   5.443   2.785
 9693SOL     OW29977   6.277   5.315   1.579
 9693SOL    HW129978   6.323   5.383   1.522
 9693SOL    HW229979   6.247   5.239   1.523
 9694SOL     OW29980   2.202   1.025   0.213
 9694SOL    HW129981   2.274   1.091   0.234
 9694SOL    HW229982   2.206   1.002   0.115
 9695SOL     OW29983   0.194   3.704   1.874
 9695SOL    HW129984   0.263   3.680   1.943
 9695SOL    HW229985   0.125   3.763   1.917
 9696SOL     OW29986   5.051   3.397   0.729
 9696SOL    HW129987   4.972   3.342   0.755
 9696SOL    HW229988   5.133   3.339   0.728
 9697SOL     OW29989   0.587   6.130   6.242
 9697SOL    HW129990   0.497   6.168   6.219
 9697SOL    HW229991   0.618   6.069   6.169
 9698SOL     OW29992   4.690   1.585   5.754
 9698SOL    HW129993   4.682   1.505   5.814
 9698SOL    HW229994   4.622   1.653   5.781
 9699SOL     OW29995   0.029   5.148   6.847
 9699SOL    HW129996   6.967   5.143   6.888
 9699SOL    HW229997   0.054   5.244   6.834
 9700SOL     OW29998   4.291   5.040   4.971
 9700SOL    HW129999   4.340   4.987   4.903
 9700SOL    HW230000   4.192   5.024   4.960
 9701SOL     OW30001   4.039   5.227   5.135
 9701SOL    HW130002   4.020   5.309   5.081
 9701SOL    HW230003   4.013   5.146   5.081
 9702SOL     OW30004   4.846   0.340   6.877
 9702SOL    HW130005   4.757   0.371   6.910
 9702SOL    HW230006   4.916   0.406   6.904
 9703SOL     OW30007   4.522   4.514   4.204
 9703SOL    HW130008   4.499   4.519   4.301
 9703SOL    HW230009   4.517   4.606   4.165
 9704SOL     OW30010   2.845   0.833   3.280
 9704SOL    HW130011   2.880   0.848   3.372
 9704SOL    HW230012   2.762   0.778   3.285
 9705SOL     OW30013   5.622   4.810   6.077
 9705SOL    HW130014   5.562   4.731   6.090
 9705SOL    HW230015   5.696   4.806   6.144
 9706SOL     OW30016   0.547   2.806   0.969
 9706SOL    HW130017   0.466   2.798   1.027
 9706SOL    HW230018   0.589   2.716   0.957
 9707SOL     OW30019   6.148   4.592   1.419
 9707SOL    HW130020   6.217   4.662   1.397
 9707SOL    HW230021   6.167   4.554   1.509
 9708SOL     OW30022   1.774   2.100   2.381
 9708SOL    HW130023   1.817   2.072   2.467
 9708SOL    HW230024   1.688   2.147   2.401
 9709SOL     OW30025   5.889   6.208   2.944
 9709SOL    HW130026   5.924   6.115   2.956
 9709SOL    HW230027   5.945   6.271   2.996
 9710SOL     OW30028   0.054   1.545   1.851
 9710SOL    HW130029   7.022   1.537   1.930
 9710SOL    HW230030   0.061   1.457   1.805
 9711SOL     OW30031   2.364   4.608   6.184
 9711SOL    HW130032   2.307   4.672   6.133
 9711SOL    HW230033   2.306   4.544   6.234
 9712SOL     OW30034   6.054   4.829   6.099
 9712SOL    HW130035   6.016   4.785   6.017
 9712SOL    HW230036   5.989   4.818   6.174
 9713SOL     OW30037   1.271   5.132   3.511
 9713SOL    HW130038   1.311   5.223   3.515
 9713SOL    HW230039   1.171   5.139   3.509
 9714SOL     OW30040   2.791   1.232   0.974
 9714SOL    HW130041   2.762   1.200   1.065
 9714SOL    HW230042   2.720   1.291   0.936
 9715SOL     OW30043   5.367   3.914   6.167
 9715SOL    HW130044   5.467   3.918   6.161
 9715SOL    HW230045   5.340   3.827   6.210
 9716SOL     OW30046   4.070   3.071   6.849
 9716SOL    HW130047   4.125   3.046   6.930
 9716SOL    HW230048   3.993   3.127   6.877
 9717SOL     OW30049   5.358   5.954   6.229
 9717SOL    HW130050   5.275   6.006   6.247
 9717SOL    HW230051   5.435   5.993   6.280
 9718SOL     OW30052   5.109   2.626   1.032
 9718SOL    HW130053   5.138   2.663   1.120
 9718SOL    HW230054   5.189   2.598   0.979
 9719SOL     OW30055   0.128   1.776   6.558
 9719SOL    HW130056   0.151   1.873   6.557
 9719SOL    HW230057   0.210   1.722   6.544
 9720SOL     OW30058   0.068   5.602   2.112
 9720SOL    HW130059   0.137   5.581   2.181
 9720SOL    HW230060   0.022   5.687   2.136
 9721SOL     OW30061   0.429   2.322   1.679
 9721SOL    HW130062   0.416   2.306   1.777
 9721SOL    HW230063   0.441   2.234   1.632
 9722SOL     OW30064   6.704   0.241   4.334
 9722SOL    HW130065   6.645   0.283   4.266
 9722SOL    HW230066   6.647   0.199   4.405
 9723SOL     OW30067   2.048   6.172   2.834
 9723SOL    HW130068   2.141   6.145   2.861
 9723SOL    HW230069   2.047   6.269   2.810
 9724SOL     OW30070   1.606   3.937   0.510
 9724SOL    HW130071   1.664   3.861   0.540
 9724SOL    HW230072   1.628   4.019   0.563
 9725SOL     OW30073   3.304   4.803   6.437
 9725SOL    HW130074   3.281   4.789   6.340
 9725SOL    HW230075   3.404   4.801   6.447
 9726SOL     OW30076   4.900   0.804   4.201
 9726SOL    HW130077   4.902   0.711   4.238
 9726SOL    HW230078   4.873   0.869   4.272
 9727SOL     OW30079   0.351   3.653   5.725
 9727SOL    HW130080   0.394   3.691   5.644
 9727SOL    HW230081   0.406   3.578   5.761
 9728SOL     OW30082   0.502   0.205   6.541
 9728SOL    HW130083   0.521   0.303   6.551
 9728SOL    HW230084   0.465   0.188   6.449
 9729SOL     OW30085   0.832   4.259   3.303
 9729SOL    HW130086   0.866   4.286   3.393
 9729SOL    HW230087   0.909   4.248   3.241
 9730SOL     OW30088   0.924   3.390   3.063
 9730SOL    HW130089   0.991   3.410   2.991
 9730SOL    HW230090   0.962   3.322   3.126
 9731SOL     OW30091   4.357   4.182   0.945
 9731SOL    HW130092   4.265   4.204   0.978
 9731SOL    HW230093   4.413   4.266   0.944
 9732SOL     OW30094   5.861   5.778   2.849
 9732SOL    HW130095   5.951   5.817   2.828
 9732SOL    HW230096   5.791   5.848   2.839
 9733SOL     OW30097   5.770   5.162   0.884
 9733SOL    HW130098   5.720   5.140   0.800
 9733SOL    HW230099   5.866   5.135   0.874
 9734SOL     OW30100   6.079   1.214   2.536
 9734SOL    HW130101   6.110   1.263   2.455
 9734SOL    HW230102   6.050   1.279   2.606
 9735SOL     OW30103   2.578   4.535   3.217
 9735SOL    HW130104   2.580   4.598   3.294
 9735SOL    HW230105   2.642   4.565   3.147
 9736SOL     OW30106   6.174   1.932   6.473
 9736SOL    HW130107   6.191   1.858   6.538
 9736SOL    HW230108   6.077   1.956   6.475
 9737SOL     OW30109   6.283   3.232   4.604
 9737SOL    HW130110   6.257   3.247   4.700
 9737SOL    HW230111   6.260   3.314   4.551
 9738SOL     OW30112   2.066   6.768   1.560
 9738SOL    HW130113   2.035   6.861   1.578
 9738SOL    HW230114   1.990   6.713   1.525
 9739SOL     OW30115   5.950   5.286   2.280
 9739SOL    HW130116   5.974   5.340   2.361
 9739SOL    HW230117   5.914   5.198   2.308
 9740SOL     OW30118   6.334   2.191   2.583
 9740SOL    HW130119   6.354   2.093   2.581
 9740SOL    HW230120   6.412   2.241   2.618
 9741SOL     OW30121   5.067   2.147   2.844
 9741SOL    HW130122   5.107   2.058   2.867
 9741SOL    HW230123   5.113   2.218   2.897
 9742SOL     OW30124   3.918   0.150   1.669
 9742SOL    HW130125   3.933   0.191   1.578
 9742SOL    HW230126   4.006   0.124   1.708
 9743SOL     OW30127   0.941   2.118   4.270
 9743SOL    HW130128   0.876   2.117   4.193
 9743SOL    HW230129   0.970   2.212   4.287
 9744SOL     OW30130   0.459   0.461   2.723
 9744SOL    HW130131   0.510   0.380   2.750
 9744SOL    HW230132   0.390   0.437   2.656
 9745SOL     OW30133   6.478   2.834   6.284
 9745SOL    HW130134   6.424   2.891   6.222
 9745SOL    HW230135   6.503   2.749   6.239
 9746SOL     OW30136   6.758   0.802   5.830
 9746SOL    HW130137   6.745   0.716   5.780
 9746SOL    HW230138   6.674   0.825   5.879
 9747SOL     OW30139   2.092   0.287   1.390
 9747SOL    HW130140   2.192   0.280   1.388
 9747SOL    HW230141   2.065   0.381   1.368
 9748SOL     OW30142   0.623   1.790   3.628
 9748SOL    HW130143   0.567   1.770   3.548
 9748SOL    HW230144   0.638   1.888   3.636
 9749SOL     OW30145   2.180   1.473   4.914
 9749SOL    HW130146   2.219   1.488   4.823
 9749SOL    HW230147   2.141   1.381   4.919
 9750SOL     OW30148   5.821   4.466   3.451
 9750SOL    HW130149   5.827   4.566   3.444
 9750SOL    HW230150   5.783   4.429   3.366
 9751SOL     OW30151   1.589   0.957   0.617
 9751SOL    HW130152   1.579   1.056   0.602
 9751SOL    HW230153   1.519   0.926   0.680
 9752SOL     OW30154   5.402   2.191   6.503
 9752SOL    HW130155   5.447   2.271   6.463
 9752SOL    HW230156   5.454   2.109   6.481
 9753SOL     OW30157   6.158   6.150   5.696
 9753SOL    HW130158   6.082   6.085   5.701
 9753SOL    HW230159   6.154   6.199   5.609
 9754SOL     OW30160   0.807   1.782   6.660
 9754SOL    HW130161   0.834   1.780   6.563
 9754SOL    HW230162   0.858   1.712   6.709
 9755SOL     OW30163   4.339   4.011   5.400
 9755SOL    HW130164   4.249   3.995   5.438
 9755SOL    HW230165   4.369   3.930   5.350
 9756SOL     OW30166   5.839   3.394   0.476
 9756SOL    HW130167   5.867   3.484   0.510
 9756SOL    HW230168   5.905   3.361   0.409
 9757SOL     OW30169   5.644   3.666   3.156
 9757SOL    HW130170   5.742   3.652   3.171
 9757SOL    HW230171   5.620   3.762   3.175
 9758SOL     OW30172   2.323   6.895   0.064
 9758SOL    HW130173   2.364   6.806   0.087
 9758SOL    HW230174   2.372   6.934   7.016
 9759SOL     OW30175   2.417   6.663   6.846
 9759SOL    HW130176   2.460   6.613   6.770
 9759SOL    HW230177   2.483   6.674   6.920
 9760SOL     OW30178   4.821   3.268   5.195
 9760SOL    HW130179   4.761   3.347   5.177
 9760SOL    HW230180   4.913   3.301   5.217
 9761SOL     OW30181   5.973   0.354   2.432
 9761SOL    HW130182   5.995   0.452   2.426
 9761SOL    HW230183   5.984   0.312   2.342
 9762SOL     OW30184   3.078   1.992   4.401
 9762SOL    HW130185   3.036   1.930   4.468
 9762SOL    HW230186   3.176   1.973   4.395
 9763SOL     OW30187   5.222   1.774   1.726
 9763SOL    HW130188   5.196   1.855   1.675
 9763SOL    HW230189   5.172   1.771   1.813
 9764SOL     OW30190   0.515   2.740   2.789
 9764SOL    HW130191   0.539   2.697   2.877
 9764SOL    HW230192   0.591   2.797   2.758
 9765SOL     OW30193   6.782   1.251   2.789
 9765SOL    HW130194   6.794   1.152   2.785
 9765SOL    HW230195   6.684   1.272   2.796
 9766SOL     OW30196   2.565   0.364   3.409
 9766SOL    HW130197   2.490   0.422   3.440
 9766SOL    HW230198   2.542   0.268   3.425
 9767SOL     OW30199   5.238   2.038   5.781
 9767SOL    HW130200   5.140   2.020   5.779
 9767SOL    HW230201   5.285   1.963   5.828
 9768SOL     OW30202   5.171   1.677   2.411
 9768SOL    HW130203   5.084   1.631   2.396
 9768SOL    HW230204   5.241   1.638   2.350
 9769SOL     OW30205   2.578   0.537   2.608
 9769SOL    HW130206   2.589   0.534   2.708
 9769SOL    HW230207   2.493   0.584   2.585
 9770SOL     OW30208   5.424   0.541   7.016
 9770SOL    HW130209   5.403   0.538   6.918
 9770SOL    HW230210   5.410   0.451   0.026
 9771SOL     OW30211   2.719   5.409   1.326
 9771SOL    HW130212   2.635   5.356   1.329
 9771SOL    HW230213   2.726   5.456   1.238
 9772SOL     OW30214   1.250   6.482   2.939
 9772SOL    HW130215   1.315   6.421   2.894
 9772SOL    HW230216   1.166   6.433   2.959
 9773SOL     OW30217   5.354   6.547   4.076
 9773SOL    HW130218   5.344   6.626   4.014
 9773SOL    HW230219   5.443   6.552   4.121
 9774SOL     OW30220   6.243   4.964   1.462
 9774SOL    HW130221   6.216   4.991   1.554
 9774SOL    HW230222   6.271   4.869   1.462
 9775SOL     OW30223   2.310   0.780   3.618
 9775SOL    HW130224   2.384   0.812   3.678
 9775SOL    HW230225   2.296   0.846   3.544
 9776SOL     OW30226   0.260   5.412   4.601
 9776SOL    HW130227   0.181   5.356   4.575
 9776SOL    HW230228   0.332   5.354   4.638
 9777SOL     OW30229   5.402   4.337   6.185
 9777SOL    HW130230   5.489   4.289   6.194
 9777SOL    HW230231   5.352   4.303   6.106
 9778SOL     OW30232   0.627   0.877   3.351
 9778SOL    HW130233   0.598   0.941   3.280
 9778SOL    HW230234   0.655   0.929   3.432
 9779SOL     OW30235   2.043   0.511   4.893
 9779SOL    HW130236   2.053   0.411   4.886
 9779SOL    HW230237   1.981   0.533   4.968
 9780SOL     OW30238   2.423   1.729   0.656
 9780SOL    HW130239   2.520   1.742   0.679
 9780SOL    HW230240   2.415   1.657   0.587
 9781SOL     OW30241   1.036   4.124   4.172
 9781SOL    HW130242   1.071   4.135   4.079
 9781SOL    HW230243   1.112   4.125   4.237
 9782SOL     OW30244   6.524   0.794   1.943
 9782SOL    HW130245   6.596   0.725   1.933
 9782SOL    HW230246   6.442   0.763   1.894
 9783SOL     OW30247   5.176   2.343   3.020
 9783SOL    HW130248   5.175   2.360   3.118
 9783SOL    HW230249   5.238   2.408   2.976
 9784SOL     OW30250   3.854   1.722   4.232
 9784SOL    HW130251   3.758   1.744   4.214
 9784SOL    HW230252   3.879   1.640   4.181
 9785SOL     OW30253   6.631   4.027   5.620
 9785SOL    HW130254   6.566   4.078   5.676
 9785SOL    HW230255   6.668   3.951   5.673
 9786SOL     OW30256   2.312   4.827   6.689
 9786SOL    HW130257   2.275   4.901   6.746
 9786SOL    HW230258   2.245   4.800   6.621
 9787SOL     OW30259   4.563   3.432   1.620
 9787SOL    HW130260   4.474   3.405   1.657
 9787SOL    HW230261   4.567   3.411   1.523
 9788SOL     OW30262   0.378   0.395   3.888
 9788SOL    HW130263   0.454   0.459   3.881
 9788SOL    HW230264   0.332   0.387   3.799
 9789SOL     OW30265   1.233   5.828   0.380
 9789SOL    HW130266   1.308   5.888   0.353
 9789SOL    HW230267   1.223   5.755   0.313
 9790SOL     OW30268   5.704   4.075   5.777
 9790SOL    HW130269   5.631   4.134   5.743
 9790SOL    HW230270   5.687   4.052   5.872
 9791SOL     OW30271   0.235   1.636   2.773
 9791SOL    HW130272   0.165   1.604   2.837
 9791SOL    HW230273   0.202   1.624   2.679
 9792SOL     OW30274   5.674   5.535   2.065
 9792SOL    HW130275   5.771   5.553   2.046
 9792SOL    HW230276   5.664   5.503   2.159
 9793SOL     OW30277   5.510   4.832   3.617
 9793SOL    HW130278   5.454   4.829   3.534
 9793SOL    HW230279   5.534   4.926   3.637
 9794SOL     OW30280   6.345   4.619   6.728
 9794SOL    HW130281   6.261   4.661   6.763
 9794SOL    HW230282   6.328   4.580   6.638
 9795SOL     OW30283   1.543   2.066   4.212
 9795SOL    HW130284   1.519   1.969   4.213
 9795SOL    HW230285   1.550   2.100   4.306
 9796SOL     OW30286   3.916   2.579   1.198
 9796SOL    HW130287   3.887   2.672   1.177
 9796SOL    HW230288   3.957   2.537   1.117
 9797SOL     OW30289   3.386   5.359   6.734
 9797SOL    HW130290   3.342   5.295   6.797
 9797SOL    HW230291   3.454   5.413   6.784
 9798SOL     OW30292   2.854   0.375   1.080
 9798SOL    HW130293   2.907   0.392   1.163
 9798SOL    HW230294   2.823   0.461   1.042
 9799SOL     OW30295   3.363   3.673   3.403
 9799SOL    HW130296   3.396   3.655   3.310
 9799SOL    HW230297   3.279   3.727   3.398
 9800SOL     OW30298   3.098   6.458   5.158
 9800SOL    HW130299   3.186   6.438   5.201
 9800SOL    HW230300   3.030   6.477   5.228
 9801SOL     OW30301   4.761   4.347   0.451
 9801SOL    HW130302   4.762   4.260   0.403
 9801SOL    HW230303   4.855   4.372   0.477
 9802SOL     OW30304   0.858   2.628   1.819
 9802SOL    HW130305   0.928   2.616   1.748
 9802SOL    HW230306   0.874   2.715   1.866
 9803SOL     OW30307   6.245   1.615   0.417
 9803SOL    HW130308   6.163   1.602   0.473
 9803SOL    HW230309   6.323   1.572   0.462
 9804SOL     OW30310   0.886   6.497   2.929
 9804SOL    HW130311   0.883   6.401   2.954
 9804SOL    HW230312   0.912   6.552   3.009
 9805SOL     OW30313   1.143   5.946   5.414
 9805SOL    HW130314   1.207   5.971   5.341
 9805SOL    HW230315   1.191   5.897   5.486
 9806SOL     OW30316   1.456   1.924   0.243
 9806SOL    HW130317   1.473   2.012   0.199
 9806SOL    HW230318   1.522   1.910   0.317
 9807SOL     OW30319   1.970   2.969   6.946
 9807SOL    HW130320   1.962   2.870   6.962
 9807SOL    HW230321   1.879   3.009   6.941
 9808SOL     OW30322   5.851   1.462   5.810
 9808SOL    HW130323   5.949   1.442   5.817
 9808SOL    HW230324   5.839   1.554   5.773
 9809SOL     OW30325   0.974   2.006   6.688
 9809SOL    HW130326   1.039   1.977   6.618
 9809SOL    HW230327   0.904   1.935   6.700
 9810SOL     OW30328   2.402   2.551   4.149
 9810SOL    HW130329   2.353   2.488   4.209
 9810SOL    HW230330   2.392   2.644   4.182
 9811SOL     OW30331   5.463   5.519   4.188
 9811SOL    HW130332   5.364   5.506   4.186
 9811SOL    HW230333   5.486   5.606   4.145
 9812SOL     OW30334   2.884   2.477   5.872
 9812SOL    HW130335   2.849   2.391   5.835
 9812SOL    HW230336   2.899   2.542   5.797
 9813SOL     OW30337   5.974   0.545   0.025
 9813SOL    HW130338   6.049   0.525   0.088
 9813SOL    HW230339   5.989   0.633   7.011
 9814SOL     OW30340   0.574   1.229   6.935
 9814SOL    HW130341   0.530   1.299   6.991
 9814SOL    HW230342   0.584   1.263   6.841
 9815SOL     OW30343   5.873   3.724   2.449
 9815SOL    HW130344   5.789   3.759   2.491
 9815SOL    HW230345   5.853   3.639   2.400
 9816SOL     OW30346   6.929   1.704   6.332
 9816SOL    HW130347   7.008   1.655   6.370
 9816SOL    HW230348   6.891   1.764   6.402
 9817SOL     OW30349   2.489   5.615   2.421
 9817SOL    HW130350   2.589   5.618   2.428
 9817SOL    HW230351   2.452   5.556   2.493
 9818SOL     OW30352   1.800   0.970   3.944
 9818SOL    HW130353   1.703   0.978   3.922
 9818SOL    HW230354   1.813   0.978   4.042
 9819SOL     OW30355   5.189   3.042   5.088
 9819SOL    HW130356   5.236   3.128   5.067
 9819SOL    HW230357   5.094   3.060   5.113
 9820SOL     OW30358   3.813   3.230   6.590
 9820SOL    HW130359   3.762   3.152   6.625
 9820SOL    HW230360   3.750   3.300   6.557
 9821SOL     OW30361   4.692   0.739   0.515
 9821SOL    HW130362   4.707   0.833   0.546
 9821SOL    HW230363   4.616   0.737   0.450
 9822SOL     OW30364   3.339   5.318   3.577
 9822SOL    HW130365   3.332   5.415   3.602
 9822SOL    HW230366   3.269   5.296   3.510
 9823SOL     OW30367   2.056   6.972   1.864
 9823SOL    HW130368   2.034   6.876   1.844
 9823SOL    HW230369   2.043   7.027   1.782
 9824SOL     OW30370   2.009   5.702   4.748
 9824SOL    HW130371   2.105   5.718   4.768
 9824SOL    HW230372   1.982   5.756   4.669
 9825SOL     OW30373   5.547   6.463   4.980
 9825SOL    HW130374   5.484   6.515   5.038
 9825SOL    HW230375   5.609   6.411   5.038
 9826SOL     OW30376   3.584   6.299   5.512
 9826SOL    HW130377   3.619   6.392   5.513
 9826SOL    HW230378   3.605   6.255   5.599
 9827SOL     OW30379   2.169   4.002   3.661
 9827SOL    HW130380   2.140   4.057   3.740
 9827SOL    HW230381   2.222   3.923   3.693
 9828SOL     OW30382   2.937   2.190   5.116
 9828SOL    HW130383   2.924   2.203   5.215
 9828SOL    HW230384   3.023   2.232   5.088
 9829SOL     OW30385   4.504   6.039   6.487
 9829SOL    HW130386   4.458   5.988   6.560
 9829SOL    HW230387   4.561   5.976   6.434
 9830SOL     OW30388   4.940   2.028   1.663
 9830SOL    HW130389   5.040   2.023   1.659
 9830SOL    HW230390   4.910   2.014   1.758
 9831SOL     OW30391   0.569   4.580   2.391
 9831SOL    HW130392   0.486   4.524   2.385
 9831SOL    HW230393   0.579   4.634   2.308
 9832SOL     OW30394   4.392   5.620   2.756
 9832SOL    HW130395   4.486   5.645   2.733
 9832SOL    HW230396   4.371   5.531   2.716
 9833SOL     OW30397   3.445   3.247   3.384
 9833SOL    HW130398   3.375   3.295   3.331
 9833SOL    HW230399   3.402   3.178   3.442
 9834SOL     OW30400   2.124   4.696   5.719
 9834SOL    HW130401   2.110   4.650   5.631
 9834SOL    HW230402   2.095   4.792   5.711
 9835SOL     OW30403   3.729   3.281   4.347
 9835SOL    HW130404   3.630   3.286   4.342
 9835SOL    HW230405   3.759   3.294   4.442
 9836SOL     OW30406   0.527   4.309   4.390
 9836SOL    HW130407   0.438   4.298   4.433
 9836SOL    HW230408   0.553   4.225   4.342
 9837SOL     OW30409   5.571   0.411   2.334
 9837SOL    HW130410   5.532   0.498   2.363
 9837SOL    HW230411   5.508   0.364   2.272
 9838SOL     OW30412   1.511   6.494   0.762
 9838SOL    HW130413   1.579   6.544   0.709
 9838SOL    HW230414   1.428   6.482   0.708
 9839SOL     OW30415   4.560   6.408   3.248
 9839SOL    HW130416   4.508   6.393   3.164
 9839SOL    HW230417   4.503   6.383   3.326
 9840SOL     OW30418   5.050   1.756   0.536
 9840SOL    HW130419   4.958   1.718   0.532
 9840SOL    HW230420   5.056   1.818   0.615
 9841SOL     OW30421   1.122   5.155   3.782
 9841SOL    HW130422   1.081   5.190   3.698
 9841SOL    HW230423   1.071   5.189   3.861
 9842SOL     OW30424   3.372   3.152   0.895
 9842SOL    HW130425   3.290   3.208   0.891
 9842SOL    HW230426   3.383   3.116   0.988
 9843SOL     OW30427   0.118   0.127   1.764
 9843SOL    HW130428   0.101   0.030   1.748
 9843SOL    HW230429   0.034   0.170   1.797
 9844SOL     OW30430   5.966   1.287   4.018
 9844SOL    HW130431   5.944   1.192   3.995
 9844SOL    HW230432   5.883   1.342   4.014
 9845SOL     OW30433   1.486   2.538   2.463
 9845SOL    HW130434   1.482   2.571   2.557
 9845SOL    HW230435   1.421   2.589   2.407
 9846SOL     OW30436   4.483   1.409   1.105
 9846SOL    HW130437   4.568   1.378   1.062
 9846SOL    HW230438   4.501   1.492   1.158
 9847SOL     OW30439   3.866   2.930   2.384
 9847SOL    HW130440   3.932   2.967   2.449
 9847SOL    HW230441   3.862   2.830   2.392
 9848SOL     OW30442   4.099   4.733   5.986
 9848SOL    HW130443   4.162   4.778   5.922
 9848SOL    HW230444   4.008   4.729   5.945
 9849SOL     OW30445   0.937   6.831   6.877
 9849SOL    HW130446   0.943   6.896   6.953
 9849SOL    HW230447   0.840   6.818   6.852
 9850SOL     OW30448   0.179   0.824   3.795
 9850SOL    HW130449   0.097   0.872   3.764
 9850SOL    HW230450   0.154   0.757   3.865
 9851SOL     OW30451   2.389   6.533   4.415
 9851SOL    HW130452   2.353   6.558   4.326
 9851SOL    HW230453   2.409   6.615   4.468
 9852SOL     OW30454   1.876   1.396   4.848
 9852SOL    HW130455   1.838   1.403   4.756
 9852SOL    HW230456   1.823   1.330   4.901
 9853SOL     OW30457   6.452   3.587   5.593
 9853SOL    HW130458   6.498   3.576   5.682
 9853SOL    HW230459   6.422   3.498   5.560
 9854SOL     OW30460   0.547   5.625   4.848
 9854SOL    HW130461   0.496   5.589   4.769
 9854SOL    HW230462   0.611   5.556   4.880
 9855SOL     OW30463   1.302   3.343   1.040
 9855SOL    HW130464   1.209   3.315   1.015
 9855SOL    HW230465   1.361   3.262   1.044
 9856SOL     OW30466   5.630   4.676   4.174
 9856SOL    HW130467   5.602   4.744   4.241
 9856SOL    HW230468   5.715   4.633   4.204
 9857SOL     OW30469   5.639   2.933   2.924
 9857SOL    HW130470   5.684   3.017   2.893
 9857SOL    HW230471   5.600   2.885   2.846
 9858SOL     OW30472   0.612   6.976   1.458
 9858SOL    HW130473   0.687   6.910   1.465
 9858SOL    HW230474   0.610   0.003   1.541
 9859SOL     OW30475   6.828   4.413   4.211
 9859SOL    HW130476   6.743   4.436   4.257
 9859SOL    HW230477   6.852   4.318   4.231
 9860SOL     OW30478   1.615   2.093   4.749
 9860SOL    HW130479   1.562   2.009   4.739
 9860SOL    HW230480   1.590   2.156   4.675
 9861SOL     OW30481   3.137   0.474   3.495
 9861SOL    HW130482   3.080   0.469   3.414
 9861SOL    HW230483   3.195   0.393   3.501
 9862SOL     OW30484   2.607   3.432   0.822
 9862SOL    HW130485   2.581   3.519   0.781
 9862SOL    HW230486   2.534   3.365   0.806
 9863SOL     OW30487   3.056   5.494   1.144
 9863SOL    HW130488   3.077   5.591   1.155
 9863SOL    HW230489   3.081   5.445   1.227
 9864SOL     OW30490   3.405   0.608   5.312
 9864SOL    HW130491   3.329   0.673   5.300
 9864SOL    HW230492   3.374   0.516   5.287
 9865SOL     OW30493   0.876   6.357   4.854
 9865SOL    HW130494   0.826   6.275   4.881
 9865SOL    HW230495   0.922   6.342   4.767
 9866SOL     OW30496   5.851   4.400   4.880
 9866SOL    HW130497   5.936   4.361   4.915
 9866SOL    HW230498   5.808   4.335   4.817
 9867SOL     OW30499   6.263   2.517   2.510
 9867SOL    HW130500   6.329   2.460   2.462
 9867SOL    HW230501   6.278   2.511   2.609
 9868SOL     OW30502   0.323   3.372   4.270
 9868SOL    HW130503   0.380   3.331   4.200
 9868SOL    HW230504   0.372   3.374   4.357
 9869SOL     OW30505   0.761   2.954   0.867
 9869SOL    HW130506   0.696   2.901   0.921
 9869SOL    HW230507   0.828   2.892   0.826
 9870SOL     OW30508   4.370   0.626   2.879
 9870SOL    HW130509   4.302   0.611   2.951
 9870SOL    HW230510   4.413   0.716   2.892
 9871SOL     OW30511   6.685   3.300   5.497
 9871SOL    HW130512   6.722   3.208   5.506
 9871SOL    HW230513   6.749   3.366   5.536
 9872SOL     OW30514   2.454   5.430   4.980
 9872SOL    HW130515   2.482   5.437   5.076
 9872SOL    HW230516   2.408   5.343   4.965
 9873SOL     OW30517   2.239   2.267   6.001
 9873SOL    HW130518   2.187   2.302   6.078
 9873SOL    HW230519   2.269   2.344   5.944
 9874SOL     OW30520   0.198   3.244   5.364
 9874SOL    HW130521   0.155   3.182   5.299
 9874SOL    HW230522   0.225   3.194   5.447
 9875SOL     OW30523   6.897   5.972   2.645
 9875SOL    HW130524   6.840   5.940   2.569
 9875SOL    HW230525   6.962   6.040   2.611
 9876SOL     OW30526   5.352   1.138   4.279
 9876SOL    HW130527   5.313   1.105   4.365
 9876SOL    HW230528   5.283   1.194   4.231
 9877SOL     OW30529   6.752   4.252   4.445
 9877SOL    HW130530   6.738   4.262   4.543
 9877SOL    HW230531   6.715   4.332   4.397
 9878SOL     OW30532   2.195   3.790   6.484
 9878SOL    HW130533   2.243   3.801   6.396
 9878SOL    HW230534   2.190   3.879   6.530
 9879SOL     OW30535   0.489   4.648   5.274
 9879SOL    HW130536   0.581   4.620   5.300
 9879SOL    HW230537   0.426   4.636   5.351
 9880SOL     OW30538   2.510   0.398   0.600
 9880SOL    HW130539   2.456   0.392   0.516
 9880SOL    HW230540   2.454   0.372   0.678
 9881SOL     OW30541   6.542   1.069   4.546
 9881SOL    HW130542   6.495   1.056   4.459
 9881SOL    HW230543   6.598   0.988   4.566
 9882SOL     OW30544   3.713   3.511   5.378
 9882SOL    HW130545   3.770   3.591   5.362
 9882SOL    HW230546   3.652   3.498   5.300
 9883SOL     OW30547   1.542   5.776   1.870
 9883SOL    HW130548   1.556   5.737   1.961
 9883SOL    HW230549   1.617   5.839   1.850
 9884SOL     OW30550   3.638   2.258   0.408
 9884SOL    HW130551   3.546   2.219   0.404
 9884SOL    HW230552   3.681   2.233   0.495
 9885SOL     OW30553   0.811   3.269   4.041
 9885SOL    HW130554   0.739   3.333   4.014
 9885SOL    HW230555   0.771   3.181   4.064
 9886SOL     OW30556   6.419   6.787   1.761
 9886SOL    HW130557   6.477   6.746   1.691
 9886SOL    HW230558   6.475   6.815   1.839
 9887SOL     OW30559   3.268   0.180   0.288
 9887SOL    HW130560   3.178   0.185   0.331
 9887SOL    HW230561   3.339   0.182   0.358
 9888SOL     OW30562   5.616   6.096   3.202
 9888SOL    HW130563   5.678   6.173   3.218
 9888SOL    HW230564   5.521   6.129   3.204
 9889SOL     OW30565   1.114   5.081   2.533
 9889SOL    HW130566   1.144   5.141   2.459
 9889SOL    HW230567   1.037   5.025   2.502
 9890SOL     OW30568   6.496   2.939   0.637
 9890SOL    HW130569   6.571   3.005   0.631
 9890SOL    HW230570   6.461   2.921   0.545
 9891SOL     OW30571   5.384   4.863   1.883
 9891SOL    HW130572   5.411   4.869   1.787
 9891SOL    HW230573   5.286   4.842   1.889
 9892SOL     OW30574   2.704   5.560   3.804
 9892SOL    HW130575   2.686   5.463   3.822
 9892SOL    HW230576   2.658   5.615   3.873
 9893SOL     OW30577   6.444   6.116   2.743
 9893SOL    HW130578   6.537   6.146   2.724
 9893SOL    HW230579   6.403   6.079   2.660
 9894SOL     OW30580   2.976   1.386   6.519
 9894SOL    HW130581   2.892   1.381   6.464
 9894SOL    HW230582   3.049   1.339   6.471
 9895SOL     OW30583   6.451   2.149   5.707
 9895SOL    HW130584   6.392   2.095   5.766
 9895SOL    HW230585   6.474   2.235   5.751
 9896SOL     OW30586   4.977   2.527   0.742
 9896SOL    HW130587   4.886   2.558   0.770
 9896SOL    HW230588   5.047   2.581   0.790
 9897SOL     OW30589   5.064   1.306   2.498
 9897SOL    HW130590   4.989   1.361   2.534
 9897SOL    HW230591   5.134   1.294   2.568
 9898SOL     OW30592   0.918   5.443   5.148
 9898SOL    HW130593   0.987   5.515   5.151
 9898SOL    HW230594   0.882   5.436   5.055
 9899SOL     OW30595   6.502   4.597   2.308
 9899SOL    HW130596   6.520   4.692   2.281
 9899SOL    HW230597   6.461   4.548   2.231
 9900SOL     OW30598   2.132   1.952   2.892
 9900SOL    HW130599   2.132   1.891   2.813
 9900SOL    HW230600   2.096   2.042   2.865
 9901SOL     OW30601   1.438   2.782   0.383
 9901SOL    HW130602   1.459   2.879   0.369
 9901SOL    HW230603   1.445   2.760   0.480
 9902SOL     OW30604   3.409   3.091   1.246
 9902SOL    HW130605   3.341   3.019   1.229
 9902SOL    HW230606   3.444   3.082   1.339
 9903SOL     OW30607   4.579   0.543   2.672
 9903SOL    HW130608   4.495   0.560   2.723
 9903SOL    HW230609   4.656   0.540   2.736
 9904SOL     OW30610   6.892   3.427   6.897
 9904SOL    HW130611   6.819   3.362   6.875
 9904SOL    HW230612   6.924   3.412   6.990
 9905SOL     OW30613   2.128   6.445   0.423
 9905SOL    HW130614   2.161   6.358   0.459
 9905SOL    HW230615   2.030   6.455   0.443
 9906SOL     OW30616   1.530   3.164   0.237
 9906SOL    HW130617   1.531   3.120   0.326
 9906SOL    HW230618   1.474   3.246   0.241
 9907SOL     OW30619   2.723   6.824   3.420
 9907SOL    HW130620   2.645   6.812   3.358
 9907SOL    HW230621   2.798   6.766   3.391
 9908SOL     OW30622   0.697   3.314   5.810
 9908SOL    HW130623   0.763   3.356   5.748
 9908SOL    HW230624   0.638   3.385   5.849
 9909SOL     OW30625   3.394   0.661   3.073
 9909SOL    HW130626   3.317   0.682   3.012
 9909SOL    HW230627   3.384   0.568   3.108
 9910SOL     OW30628   0.120   5.184   1.701
 9910SOL    HW130629   0.112   5.275   1.740
 9910SOL    HW230630   0.217   5.157   1.700
 9911SOL     OW30631   4.866   5.208   3.121
 9911SOL    HW130632   4.859   5.193   3.220
 9911SOL    HW230633   4.821   5.294   3.097
 9912SOL     OW30634   4.645   0.729   2.491
 9912SOL    HW130635   4.610   0.666   2.561
 9912SOL    HW230636   4.593   0.716   2.406
 9913SOL     OW30637   6.170   3.181   2.139
 9913SOL    HW130638   6.148   3.109   2.205
 9913SOL    HW230639   6.162   3.144   2.046
 9914SOL     OW30640   0.711   0.710   5.854
 9914SOL    HW130641   0.632   0.675   5.904
 9914SOL    HW230642   0.753   0.636   5.801
 9915SOL     OW30643   5.396   3.874   4.155
 9915SOL    HW130644   5.472   3.900   4.215
 9915SOL    HW230645   5.385   3.775   4.157
 9916SOL     OW30646   2.579   2.235   3.970
 9916SOL    HW130647   2.580   2.159   3.905
 9916SOL    HW230648   2.539   2.316   3.927
 9917SOL     OW30649   3.162   3.049   4.403
 9917SOL    HW130650   3.206   3.026   4.317
 9917SOL    HW230651   3.199   2.992   4.476
 9918SOL     OW30652   1.440   1.573   0.484
 9918SOL    HW130653   1.494   1.541   0.406
 9918SOL    HW230654   1.486   1.547   0.569
 9919SOL     OW30655   2.351   4.807   2.265
 9919SOL    HW130656   2.342   4.823   2.166
 9919SOL    HW230657   2.435   4.851   2.298
 9920SOL     OW30658   3.421   1.031   3.024
 9920SOL    HW130659   3.340   1.083   3.049
 9920SOL    HW230660   3.431   1.031   2.924
 9921SOL     OW30661   5.860   6.177   4.140
 9921SOL    HW130662   5.930   6.136   4.082
 9921SOL    HW230663   5.900   6.253   4.192
 9922SOL     OW30664   4.523   4.267   0.558
 9922SOL    HW130665   4.493   4.334   0.626
 9922SOL    HW230666   4.617   4.288   0.529
 9923SOL     OW30667   6.741   3.058   0.591
 9923SOL    HW130668   6.721   3.096   0.681
 9923SOL    HW230669   6.840   3.064   0.573
 9924SOL     OW30670   5.574   1.905   2.043
 9924SOL    HW130671   5.657   1.959   2.029
 9924SOL    HW230672   5.575   1.865   2.135
 9925SOL     OW30673   2.032   4.174   5.085
 9925SOL    HW130674   2.113   4.115   5.089
 9925SOL    HW230675   1.995   4.174   4.992
 9926SOL     OW30676   3.658   2.551   1.493
 9926SOL    HW130677   3.727   2.530   1.563
 9926SOL    HW230678   3.568   2.554   1.535
 9927SOL     OW30679   0.937   2.613   1.428
 9927SOL    HW130680   0.876   2.565   1.365
 9927SOL    HW230681   1.020   2.641   1.380
 9928SOL     OW30682   6.245   4.773   2.505
 9928SOL    HW130683   6.187   4.693   2.495
 9928SOL    HW230684   6.235   4.832   2.425
 9929SOL     OW30685   2.730   4.296   5.411
 9929SOL    HW130686   2.697   4.235   5.338
 9929SOL    HW230687   2.659   4.304   5.481
 9930SOL     OW30688   0.044   0.371   5.722
 9930SOL    HW130689   0.127   0.342   5.770
 9930SOL    HW230690   7.027   0.442   5.776
 9931SOL     OW30691   0.303   5.505   5.119
 9931SOL    HW130692   0.282   5.603   5.124
 9931SOL    HW230693   0.278   5.470   5.029
 9932SOL     OW30694   2.050   2.367   0.583
 9932SOL    HW130695   2.009   2.295   0.526
 9932SOL    HW230696   2.045   2.341   0.679
 9933SOL     OW30697   2.006   0.958   3.724
 9933SOL    HW130698   1.939   0.969   3.797
 9933SOL    HW230699   2.092   0.925   3.762
 9934SOL     OW30700   6.099   2.062   0.481
 9934SOL    HW130701   6.076   2.003   0.558
 9934SOL    HW230702   6.088   2.012   0.396
 9935SOL     OW30703   2.810   1.722   0.457
 9935SOL    HW130704   2.802   1.667   0.540
 9935SOL    HW230705   2.853   1.810   0.479
 9936SOL     OW30706   5.929   5.115   6.071
 9936SOL    HW130707   6.006   5.055   6.048
 9936SOL    HW230708   5.915   5.180   5.996
 9937SOL     OW30709   1.169   0.810   2.995
 9937SOL    HW130710   1.246   0.746   2.990
 9937SOL    HW230711   1.198   0.893   3.043
 9938SOL     OW30712   5.347   0.399   3.536
 9938SOL    HW130713   5.306   0.476   3.585
 9938SOL    HW230714   5.431   0.429   3.491
 9939SOL     OW30715   2.178   2.815   0.967
 9939SOL    HW130716   2.170   2.834   0.869
 9939SOL    HW230717   2.254   2.752   0.983
 9940SOL     OW30718   6.959   0.483   3.961
 9940SOL    HW130719   0.012   0.539   3.959
 9940SOL    HW230720   6.885   0.530   3.913
 9941SOL     OW30721   3.218   5.420   5.977
 9941SOL    HW130722   3.240   5.467   6.063
 9941SOL    HW230723   3.301   5.384   5.937
 9942SOL     OW30724   4.782   4.592   2.902
 9942SOL    HW130725   4.717   4.595   2.978
 9942SOL    HW230726   4.794   4.498   2.872
 9943SOL     OW30727   0.790   4.632   6.106
 9943SOL    HW130728   0.713   4.695   6.113
 9943SOL    HW230729   0.821   4.606   6.198
 9944SOL     OW30730   0.229   5.863   6.357
 9944SOL    HW130731   0.176   5.809   6.422
 9944SOL    HW230732   0.314   5.814   6.335
 9945SOL     OW30733   5.274   3.653   6.699
 9945SOL    HW130734   5.219   3.703   6.766
 9945SOL    HW230735   5.215   3.594   6.645
 9946SOL     OW30736   6.395   0.389   3.285
 9946SOL    HW130737   6.458   0.422   3.355
 9946SOL    HW230738   6.372   0.293   3.304
 9947SOL     OW30739   1.727   1.635   3.769
 9947SOL    HW130740   1.701   1.712   3.828
 9947SOL    HW230741   1.727   1.665   3.674
 9948SOL     OW30742   6.968   5.888   5.101
 9948SOL    HW130743   7.014   5.814   5.151
 9948SOL    HW230744   6.911   5.850   5.029
 9949SOL     OW30745   0.282   4.935   3.880
 9949SOL    HW130746   0.352   4.865   3.894
 9949SOL    HW230747   0.242   4.960   3.968
 9950SOL     OW30748   6.864   5.259   5.971
 9950SOL    HW130749   6.834   5.240   6.065
 9950SOL    HW230750   6.954   5.217   5.955
 9951SOL     OW30751   1.622   2.216   2.702
 9951SOL    HW130752   1.623   2.223   2.602
 9951SOL    HW230753   1.633   2.120   2.728
 9952SOL     OW30754   1.290   3.564   1.589
 9952SOL    HW130755   1.302   3.643   1.649
 9952SOL    HW230756   1.279   3.596   1.494
 9953SOL     OW30757   5.714   2.258   3.332
 9953SOL    HW130758   5.787   2.280   3.266
 9953SOL    HW230759   5.747   2.276   3.425
 9954SOL     OW30760   1.693   0.931   4.928
 9954SOL    HW130761   1.612   0.874   4.942
 9954SOL    HW230762   1.740   0.903   4.844
 9955SOL     OW30763   4.690   3.422   6.740
 9955SOL    HW130764   4.665   3.504   6.689
 9955SOL    HW230765   4.664   3.341   6.688
 9956SOL     OW30766   6.940   3.935   2.701
 9956SOL    HW130767   6.978   4.028   2.697
 9956SOL    HW230768   7.010   3.873   2.736
 9957SOL     OW30769   5.261   6.889   1.344
 9957SOL    HW130770   5.187   6.904   1.410
 9957SOL    HW230771   5.345   6.868   1.393
 9958SOL     OW30772   3.430   5.788   6.146
 9958SOL    HW130773   3.355   5.845   6.111
 9958SOL    HW230774   3.396   5.696   6.163
 9959SOL     OW30775   4.324   3.359   1.746
 9959SOL    HW130776   4.304   3.266   1.778
 9959SOL    HW230777   4.239   3.402   1.716
 9960SOL     OW30778   0.253   6.484   1.537
 9960SOL    HW130779   0.223   6.400   1.582
 9960SOL    HW230780   0.321   6.530   1.594
 9961SOL     OW30781   2.339   4.400   2.915
 9961SOL    HW130782   2.361   4.407   2.818
 9961SOL    HW230783   2.288   4.481   2.944
 9962SOL     OW30784   3.853   1.032   1.928
 9962SOL    HW130785   3.923   0.964   1.950
 9962SOL    HW230786   3.847   1.098   2.003
 9963SOL     OW30787   2.519   3.271   6.876
 9963SOL    HW130788   2.512   3.196   6.809
 9963SOL    HW230789   2.603   3.260   6.929
 9964SOL     OW30790   3.442   4.855   5.639
 9964SOL    HW130791   3.349   4.888   5.624
 9964SOL    HW230792   3.505   4.907   5.581
 9965SOL     OW30793   3.566   5.666   4.545
 9965SOL    HW130794   3.514   5.600   4.600
 9965SOL    HW230795   3.529   5.669   4.452
 9966SOL     OW30796   2.767   5.400   2.270
 9966SOL    HW130797   2.801   5.484   2.227
 9966SOL    HW230798   2.841   5.358   2.322
 9967SOL     OW30799   5.830   5.351   2.867
 9967SOL    HW130800   5.838   5.433   2.810
 9967SOL    HW230801   5.900   5.285   2.840
 9968SOL     OW30802   3.995   5.550   6.875
 9968SOL    HW130803   3.931   5.562   6.798
 9968SOL    HW230804   4.086   5.578   6.847
 9969SOL     OW30805   1.615   3.101   4.424
 9969SOL    HW130806   1.562   3.019   4.444
 9969SOL    HW230807   1.554   3.176   4.399
 9970SOL     OW30808   6.417   5.404   1.341
 9970SOL    HW130809   6.412   5.305   1.357
 9970SOL    HW230810   6.506   5.427   1.304
 9971SOL     OW30811   2.484   2.489   1.538
 9971SOL    HW130812   2.468   2.470   1.635
 9971SOL    HW230813   2.551   2.563   1.530
 9972SOL     OW30814   2.590   3.945   0.845
 9972SOL    HW130815   2.629   3.881   0.912
 9972SOL    HW230816   2.552   4.024   0.893
 9973SOL     OW30817   4.639   2.548   4.369
 9973SOL    HW130818   4.645   2.449   4.362
 9973SOL    HW230819   4.634   2.575   4.466
 9974SOL     OW30820   0.115   2.433   2.943
 9974SOL    HW130821   0.153   2.341   2.929
 9974SOL    HW230822   0.189   2.500   2.940
 9975SOL     OW30823   0.437   5.708   6.332
 9975SOL    HW130824   0.529   5.698   6.293
 9975SOL    HW230825   0.428   5.648   6.412
 9976SOL     OW30826   1.199   5.163   5.166
 9976SOL    HW130827   1.181   5.239   5.228
 9976SOL    HW230828   1.117   5.106   5.159
 9977SOL     OW30829   5.292   4.637   5.766
 9977SOL    HW130830   5.199   4.674   5.778
 9977SOL    HW230831   5.302   4.601   5.673
 9978SOL     OW30832   6.963   1.709   5.425
 9978SOL    HW130833   0.029   1.727   5.403
 9978SOL    HW230834   6.958   1.641   5.498
 9979SOL     OW30835   6.339   4.163   6.423
 9979SOL    HW130836   6.291   4.123   6.345
 9979SOL    HW230837   6.364   4.090   6.488
 9980SOL     OW30838   2.012   0.294   0.620
 9980SOL    HW130839   2.037   0.297   0.523
 9980SOL    HW230840   2.012   0.387   0.658
 9981SOL     OW30841   2.469   2.206   0.623
 9981SOL    HW130842   2.524   2.206   0.539
 9981SOL    HW230843   2.407   2.128   0.622
 9982SOL     OW30844   0.982   1.252   4.209
 9982SOL    HW130845   0.895   1.238   4.256
 9982SOL    HW230846   1.038   1.170   4.217
 9983SOL     OW30847   0.399   1.113   1.960
 9983SOL    HW130848   0.355   1.199   1.986
 9983SOL    HW230849   0.497   1.128   1.950
 9984SOL     OW30850   0.804   6.203   0.511
 9984SOL    HW130851   0.840   6.118   0.548
 9984SOL    HW230852   0.881   6.264   0.488
 9985SOL     OW30853   2.730   5.722   1.382
 9985SOL    HW130854   2.782   5.641   1.355
 9985SOL    HW230855   2.661   5.697   1.449
 9986SOL     OW30856   5.651   4.987   1.082
 9986SOL    HW130857   5.729   4.926   1.089
 9986SOL    HW230858   5.678   5.071   1.036
 9987SOL     OW30859   6.418   2.685   2.005
 9987SOL    HW130860   6.449   2.590   2.016
 9987SOL    HW230861   6.364   2.711   2.085
 9988SOL     OW30862   6.813   5.287   4.314
 9988SOL    HW130863   6.760   5.204   4.297
 9988SOL    HW230864   6.911   5.266   4.306
 9989SOL     OW30865   6.201   4.327   2.164
 9989SOL    HW130866   6.274   4.378   2.119
 9989SOL    HW230867   6.229   4.305   2.258
 9990SOL     OW30868   1.946   6.776   2.821
 9990SOL    HW130869   2.017   6.814   2.762
 9990SOL    HW230870   1.907   6.694   2.778
 9991SOL     OW30871   2.182   3.752   3.828
 9991SOL    HW130872   2.242   3.674   3.842
 9991SOL    HW230873   2.169   3.801   3.914
 9992SOL     OW30874   3.747   3.824   0.800
 9992SOL    HW130875   3.750   3.820   0.700
 9992SOL    HW230876   3.659   3.863   0.828
 9993SOL     OW30877   3.908   6.991   3.800
 9993SOL    HW130878   4.006   6.984   3.779
 9993SOL    HW230879   3.865   6.902   3.790
 9994SOL     OW30880   6.854   3.856   2.454
 9994SOL    HW130881   6.884   3.864   2.549
 9994SOL    HW230882   6.830   3.947   2.419
 9995SOL     OW30883   3.003   1.230   3.738
 9995SOL    HW130884   3.090   1.221   3.690
 9995SOL    HW230885   3.015   1.288   3.818
 9996SOL     OW30886   2.534   3.816   1.472
 9996SOL    HW130887   2.578   3.726   1.467
 9996SOL    HW230888   2.603   3.885   1.495
 9997SOL     OW30889   5.445   0.652   2.317
 9997SOL    HW130890   5.415   0.745   2.342
 9997SOL    HW230891   5.511   0.657   2.242
 9998SOL     OW30892   5.692   3.795   1.871
 9998SOL    HW130893   5.697   3.884   1.825
 9998SOL    HW230894   5.693   3.722   1.804
 9999SOL     OW30895   7.005   5.601   5.195
 9999SOL    HW130896   0.055   5.547   5.221
 9999SOL    HW230897   6.979   5.578   5.101
10000SOL     OW30898   5.441   2.351   0.412
10000SOL    HW130899   5.372   2.306   0.469
10000SOL    HW230900   5.397   2.386   0.329
10001SOL     OW30901   3.596   0.470   1.320
10001SOL    HW130902   3.643   0.550   1.359
10001SOL    HW230903   3.654   0.389   1.331
10002SOL     OW30904   1.967   1.112   1.850
10002SOL    HW130905   1.881   1.132   1.802
10002SOL    HW230906   1.951   1.044   1.922
10003SOL     OW30907   2.840   2.209   2.308
10003SOL    HW130908   2.766   2.268   2.340
10003SOL    HW230909   2.875   2.243   2.221
10004SOL     OW30910   5.465   2.999   5.191
10004SOL    HW130911   5.376   2.991   5.146
10004SOL    HW230912   5.498   2.907   5.215
10005SOL     OW30913   3.419   5.397   2.585
10005SOL    HW130914   3.472   5.361   2.662
10005SOL    HW230915   3.340   5.448   2.620
10006SOL     OW30916   6.019   0.355   5.347
10006SOL    HW130917   6.038   0.275   5.291
10006SOL    HW230918   6.011   0.436   5.289
10007SOL     OW30919   1.045   3.282   3.890
10007SOL    HW130920   1.074   3.366   3.935
10007SOL    HW230921   0.960   3.249   3.932
10008SOL     OW30922   4.878   1.183   3.700
10008SOL    HW130923   4.899   1.089   3.726
10008SOL    HW230924   4.932   1.245   3.757
10009SOL     OW30925   1.436   4.089   1.263
10009SOL    HW130926   1.444   4.167   1.326
10009SOL    HW230927   1.351   4.096   1.212
10010SOL     OW30928   2.716   6.124   0.192
10010SOL    HW130929   2.728   6.030   0.225
10010SOL    HW230930   2.667   6.123   0.105
10011SOL     OW30931   0.471   4.178   6.580
10011SOL    HW130932   0.542   4.165   6.510
10011SOL    HW230933   0.512   4.169   6.671
10012SOL     OW30934   5.392   0.173   2.182
10012SOL    HW130935   5.328   0.213   2.249
10012SOL    HW230936   5.374   0.075   2.173
10013SOL     OW30937   1.760   2.229   4.155
10013SOL    HW130938   1.771   2.294   4.230
10013SOL    HW230939   1.702   2.153   4.184
10014SOL     OW30940   0.944   1.131   1.411
10014SOL    HW130941   0.853   1.088   1.406
10014SOL    HW230942   0.936   1.220   1.455
10015SOL     OW30943   3.865   5.040   6.961
10015SOL    HW130944   3.867   5.130   6.917
10015SOL    HW230945   3.943   5.032   7.023
10016SOL     OW30946   1.769   0.608   4.749
10016SOL    HW130947   1.791   0.704   4.735
10016SOL    HW230948   1.854   0.557   4.766
10017SOL     OW30949   1.972   1.689   3.135
10017SOL    HW130950   1.969   1.695   3.235
10017SOL    HW230951   2.065   1.709   3.104
10018SOL     OW30952   6.761   4.748   5.599
10018SOL    HW130953   6.803   4.795   5.676
10018SOL    HW230954   6.735   4.814   5.528
10019SOL     OW30955   0.684   1.580   3.057
10019SOL    HW130956   0.760   1.545   3.002
10019SOL    HW230957   0.603   1.588   2.999
10020SOL     OW30958   0.391   0.611   1.269
10020SOL    HW130959   0.461   0.540   1.265
10020SOL    HW230960   0.425   0.694   1.225
10021SOL     OW30961   1.054   2.391   2.483
10021SOL    HW130962   1.093   2.427   2.568
10021SOL    HW230963   0.998   2.311   2.502
10022SOL     OW30964   3.434   6.925   0.794
10022SOL    HW130965   3.443   6.830   0.824
10022SOL    HW230966   3.453   6.930   0.696
10023SOL     OW30967   1.674   5.329   4.342
10023SOL    HW130968   1.686   5.372   4.431
10023SOL    HW230969   1.754   5.273   4.321
10024SOL     OW30970   2.174   5.572   2.003
10024SOL    HW130971   2.074   5.564   1.995
10024SOL    HW230972   2.200   5.564   2.099
10025SOL     OW30973   1.758   2.964   2.144
10025SOL    HW130974   1.842   2.963   2.089
10025SOL    HW230975   1.686   2.913   2.096
10026SOL     OW30976   5.038   0.466   3.060
10026SOL    HW130977   5.010   0.533   2.992
10026SOL    HW230978   4.963   0.453   3.126
10027SOL     OW30979   0.838   2.655   5.431
10027SOL    HW130980   0.907   2.597   5.473
10027SOL    HW230981   0.871   2.750   5.427
10028SOL     OW30982   2.159   1.620   2.030
10028SOL    HW130983   2.128   1.700   2.081
10028SOL    HW230984   2.093   1.546   2.041
10029SOL     OW30985   1.588   2.510   3.313
10029SOL    HW130986   1.573   2.412   3.300
10029SOL    HW230987   1.508   2.561   3.281
10030SOL     OW30988   3.128   0.379   4.904
10030SOL    HW130989   3.134   0.380   5.004
10030SOL    HW230990   3.158   0.467   4.867
10031SOL     OW30991   5.477   4.690   4.803
10031SOL    HW130992   5.397   4.639   4.833
10031SOL    HW230993   5.494   4.766   4.866
10032SOL     OW30994   4.472   0.396   5.470
10032SOL    HW130995   4.408   0.452   5.524
10032SOL    HW230996   4.565   0.429   5.485
10033SOL     OW30997   4.748   2.569   3.952
10033SOL    HW130998   4.720   2.474   3.962
10033SOL    HW230999   4.743   2.615   4.040
10034SOL     OW31000   3.015   0.362   3.783
10034SOL    HW131001   2.962   0.277   3.785
10034SOL    HW231002   3.056   0.374   3.693
10035SOL     OW31003   6.512   4.975   1.123
10035SOL    HW131004   6.611   4.987   1.115
10035SOL    HW231005   6.471   4.974   1.032
10036SOL     OW31006   6.555   0.594   0.356
10036SOL    HW131007   6.548   0.597   0.256
10036SOL    HW231008   6.652   0.601   0.382
10037SOL     OW31009   5.849   0.747   0.500
10037SOL    HW131010   5.895   0.659   0.484
10037SOL    HW231011   5.766   0.731   0.554
10038SOL     OW31012   4.318   6.864   6.604
10038SOL    HW131013   4.268   6.785   6.568
10038SOL    HW231014   4.257   6.919   6.662
10039SOL     OW31015   4.477   6.653   5.068
10039SOL    HW131016   4.488   6.561   5.032
10039SOL    HW231017   4.396   6.656   5.128
10040SOL     OW31018   4.009   5.833   6.294
10040SOL    HW131019   4.097   5.812   6.336
10040SOL    HW231020   3.977   5.923   6.326
10041SOL     OW31021   4.769   6.193   6.545
10041SOL    HW131022   4.802   6.282   6.576
10041SOL    HW231023   4.669   6.197   6.537
10042SOL     OW31024   1.301   1.900   5.194
10042SOL    HW131025   1.255   1.941   5.116
10042SOL    HW231026   1.331   1.808   5.169
10043SOL     OW31027   0.344   2.081   4.290
10043SOL    HW131028   0.416   2.087   4.359
10043SOL    HW231029   0.278   2.010   4.316
10044SOL     OW31030   2.628   1.498   4.520
10044SOL    HW131031   2.644   1.559   4.597
10044SOL    HW231032   2.715   1.475   4.477
10045SOL     OW31033   5.365   6.784   3.941
10045SOL    HW131034   5.269   6.787   3.913
10045SOL    HW231035   5.420   6.835   3.874
10046SOL     OW31036   1.481   3.868   1.426
10046SOL    HW131037   1.559   3.811   1.398
10046SOL    HW231038   1.469   3.942   1.359
10047SOL     OW31039   6.589   3.484   5.197
10047SOL    HW131040   6.627   3.516   5.110
10047SOL    HW231041   6.510   3.540   5.222
10048SOL     OW31042   5.562   2.134   2.639
10048SOL    HW131043   5.602   2.184   2.716
10048SOL    HW231044   5.473   2.174   2.616
10049SOL     OW31045   0.762   0.041   6.626
10049SOL    HW131046   0.674   0.084   6.607
10049SOL    HW231047   0.767   0.016   6.723
10050SOL     OW31048   6.596   2.611   5.157
10050SOL    HW131049   6.677   2.559   5.183
10050SOL    HW231050   6.586   2.609   5.058
10051SOL     OW31051   6.362   2.418   5.107
10051SOL    HW131052   6.369   2.376   5.017
10051SOL    HW231053   6.290   2.488   5.105
10052SOL     OW31054   3.123   2.186   3.017
10052SOL    HW131055   3.144   2.183   3.114
10052SOL    HW231056   3.035   2.230   3.003
10053SOL     OW31057   3.597   5.982   1.637
10053SOL    HW131058   3.507   5.985   1.594
10053SOL    HW231059   3.666   5.959   1.568
10054SOL     OW31060   5.166   4.950   6.063
10054SOL    HW131061   5.078   4.966   6.109
10054SOL    HW231062   5.222   5.032   6.069
10055SOL     OW31063   6.198   2.122   5.002
10055SOL    HW131064   6.268   2.180   4.959
10055SOL    HW231065   6.231   2.093   5.092
10056SOL     OW31066   5.520   4.568   2.023
10056SOL    HW131067   5.443   4.549   1.962
10056SOL    HW231068   5.486   4.579   2.117
10057SOL     OW31069   4.182   2.307   4.539
10057SOL    HW131070   4.161   2.212   4.564
10057SOL    HW231071   4.110   2.342   4.479
10058SOL     OW31072   0.217   3.671   4.528
10058SOL    HW131073   0.159   3.752   4.539
10058SOL    HW231074   0.242   3.636   4.619
10059SOL     OW31075   4.837   6.792   0.872
10059SOL    HW131076   4.882   6.817   0.958
10059SOL    HW231077   4.894   6.820   0.795
10060SOL     OW31078   1.498   1.690   1.312
10060SOL    HW131079   1.461   1.598   1.327
10060SOL    HW231080   1.423   1.754   1.295
10061SOL     OW31081   5.007   1.303   4.703
10061SOL    HW131082   4.934   1.371   4.690
10061SOL    HW231083   5.058   1.293   4.618
10062SOL     OW31084   6.594   0.111   4.573
10062SOL    HW131085   6.691   0.130   4.589
10062SOL    HW231086   6.539   0.183   4.616
10063SOL     OW31087   1.849   1.285   4.117
10063SOL    HW131088   1.808   1.336   4.192
10063SOL    HW231089   1.906   1.346   4.062
10064SOL     OW31090   4.806   6.578   0.297
10064SOL    HW131091   4.706   6.580   0.303
10064SOL    HW231092   4.840   6.671   0.284
10065SOL     OW31093   1.872   0.040   2.558
10065SOL    HW131094   1.838   6.980   2.531
10065SOL    HW231095   1.872   0.102   2.480
10066SOL     OW31096   1.240   2.350   3.586
10066SOL    HW131097   1.173   2.289   3.629
10066SOL    HW231098   1.278   2.306   3.505
10067SOL     OW31099   6.448   4.325   4.517
10067SOL    HW131100   6.415   4.350   4.608
10067SOL    HW231101   6.507   4.245   4.524
10068SOL     OW31102   7.000   3.293   2.684
10068SOL    HW131103   6.977   3.390   2.693
10068SOL    HW231104   0.050   3.284   2.624
10069SOL     OW31105   1.914   5.360   3.359
10069SOL    HW131106   1.858   5.289   3.402
10069SOL    HW231107   1.866   5.448   3.362
10070SOL     OW31108   6.329   0.149   5.263
10070SOL    HW131109   6.297   0.056   5.243
10070SOL    HW231110   6.429   0.151   5.262
10071SOL     OW31111   6.280   5.911   3.655
10071SOL    HW131112   6.188   5.879   3.675
10071SOL    HW231113   6.345   5.869   3.719
10072SOL     OW31114   0.141   6.105   3.907
10072SOL    HW131115   0.175   6.193   3.873
10072SOL    HW231116   0.203   6.032   3.880
10073SOL     OW31117   6.067   4.461   5.265
10073SOL    HW131118   6.108   4.430   5.351
10073SOL    HW231119   5.967   4.452   5.271
10074SOL     OW31120   1.411   0.601   5.354
10074SOL    HW131121   1.411   0.696   5.385
10074SOL    HW231122   1.471   0.547   5.412
10075SOL     OW31123   1.742   2.798   3.144
10075SOL    HW131124   1.777   2.764   3.231
10075SOL    HW231125   1.768   2.894   3.134
10076SOL     OW31126   0.097   0.264   4.030
10076SOL    HW131127   0.038   0.343   4.014
10076SOL    HW231128   0.191   0.294   4.045
10077SOL     OW31129   3.928   2.868   6.417
10077SOL    HW131130   3.919   2.821   6.329
10077SOL    HW231131   3.839   2.870   6.463
10078SOL     OW31132   0.411   5.123   3.698
10078SOL    HW131133   0.375   5.055   3.762
10078SOL    HW231134   0.361   5.209   3.709
10079SOL     OW31135   6.731   3.891   2.927
10079SOL    HW131136   6.784   3.887   2.843
10079SOL    HW231137   6.786   3.857   3.004
10080SOL     OW31138   4.263   1.521   5.313
10080SOL    HW131139   4.177   1.500   5.267
10080SOL    HW231140   4.283   1.619   5.303
10081SOL     OW31141   6.983   0.041   0.664
10081SOL    HW131142   6.944   0.060   0.574
10081SOL    HW231143   6.939   6.990   0.703
10082SOL     OW31144   6.645   4.807   1.404
10082SOL    HW131145   6.679   4.729   1.457
10082SOL    HW231146   6.699   4.818   1.321
10083SOL     OW31147   5.134   1.194   3.164
10083SOL    HW131148   5.102   1.224   3.074
10083SOL    HW231149   5.055   1.165   3.219
10084SOL     OW31150   2.160   0.579   5.332
10084SOL    HW131151   2.250   0.541   5.316
10084SOL    HW231152   2.169   0.671   5.371
10085SOL     OW31153   1.597   5.635   2.101
10085SOL    HW131154   1.671   5.568   2.113
10085SOL    HW231155   1.620   5.719   2.148
10086SOL     OW31156   4.629   5.462   2.175
10086SOL    HW131157   4.650   5.524   2.251
10086SOL    HW231158   4.530   5.448   2.170
10087SOL     OW31159   0.347   0.041   3.959
10087SOL    HW131160   0.338   0.128   3.911
10087SOL    HW231161   0.270   7.011   3.933
10088SOL     OW31162   6.600   0.162   1.088
10088SOL    HW131163   6.532   0.103   1.131
10088SOL    HW231164   6.674   0.106   1.051
10089SOL     OW31165   2.987   1.771   2.469
10089SOL    HW131166   2.965   1.861   2.434
10089SOL    HW231167   2.949   1.701   2.409
10090SOL     OW31168   1.035   4.853   1.452
10090SOL    HW131169   1.072   4.902   1.373
10090SOL    HW231170   1.110   4.828   1.514
10091SOL     OW31171   0.872   3.928   6.279
10091SOL    HW131172   0.902   3.873   6.357
10091SOL    HW231173   0.910   4.021   6.287
10092SOL     OW31174   1.917   2.846   5.119
10092SOL    HW131175   1.832   2.896   5.136
10092SOL    HW231176   1.994   2.909   5.117
10093SOL     OW31177   6.776   3.621   5.377
10093SOL    HW131178   6.699   3.583   5.326
10093SOL    HW231179   6.789   3.568   5.461
10094SOL     OW31180   2.565   5.680   2.156
10094SOL    HW131181   2.528   5.645   2.243
10094SOL    HW231182   2.504   5.652   2.081
10095SOL     OW31183   5.824   1.904   5.268
10095SOL    HW131184   5.772   1.926   5.350
10095SOL    HW231185   5.856   1.810   5.272
10096SOL     OW31186   4.518   4.970   2.510
10096SOL    HW131187   4.509   4.991   2.607
10096SOL    HW231188   4.458   4.895   2.486
10097SOL     OW31189   1.064   0.810   0.182
10097SOL    HW131190   1.106   0.796   0.093
10097SOL    HW231191   1.036   0.722   0.220
10098SOL     OW31192   2.845   0.510   4.736
10098SOL    HW131193   2.846   0.446   4.813
10098SOL    HW231194   2.894   0.594   4.762
10099SOL     OW31195   0.199   5.058   0.648
10099SOL    HW131196   0.212   5.139   0.705
10099SOL    HW231197   0.275   5.052   0.582
10100SOL     OW31198   5.293   0.085   4.831
10100SOL    HW131199   5.281   0.184   4.835
10100SOL    HW231200   5.264   0.051   4.742
10101SOL     OW31201   6.104   4.170   1.703
10101SOL    HW131202   6.018   4.174   1.754
10101SOL    HW231203   6.138   4.076   1.702
10102SOL     OW31204   0.795   1.227   2.340
10102SOL    HW131205   0.777   1.233   2.438
10102SOL    HW231206   0.864   1.296   2.315
10103SOL     OW31207   2.723   0.153   5.615
10103SOL    HW131208   2.745   0.063   5.652
10103SOL    HW231209   2.777   0.223   5.661
10104SOL     OW31210   2.143   1.910   3.929
10104SOL    HW131211   2.229   1.861   3.943
10104SOL    HW231212   2.068   1.845   3.920
10105SOL     OW31213   1.794   0.902   0.435
10105SOL    HW131214   1.820   0.993   0.402
10105SOL    HW231215   1.716   0.911   0.497
10106SOL     OW31216   4.235   6.477   0.529
10106SOL    HW131217   4.158   6.450   0.471
10106SOL    HW231218   4.242   6.415   0.607
10107SOL     OW31219   6.628   1.607   6.352
10107SOL    HW131220   6.697   1.588   6.281
10107SOL    HW231221   6.655   1.562   6.437
10108SOL     OW31222   6.698   0.090   0.110
10108SOL    HW131223   6.661   0.146   0.184
10108SOL    HW231224   6.633   0.088   0.034
10109SOL     OW31225   5.071   6.874   0.421
10109SOL    HW131226   5.144   6.942   0.428
10109SOL    HW231227   5.059   6.828   0.508
10110SOL     OW31228   3.910   5.326   4.621
10110SOL    HW131229   3.989   5.324   4.560
10110SOL    HW231230   3.840   5.388   4.583
10111SOL     OW31231   5.657   3.221   3.769
10111SOL    HW131232   5.653   3.194   3.673
10111SOL    HW231233   5.599   3.301   3.784
10112SOL     OW31234   5.466   3.393   3.828
10112SOL    HW131235   5.376   3.392   3.873
10112SOL    HW231236   5.529   3.450   3.881
10113SOL     OW31237   4.284   0.141   6.517
10113SOL    HW131238   4.291   0.183   6.608
10113SOL    HW231239   4.360   0.077   6.503
10114SOL     OW31240   5.418   1.270   0.877
10114SOL    HW131241   5.408   1.355   0.825
10114SOL    HW231242   5.515   1.249   0.889
10115SOL     OW31243   3.820   1.548   4.881
10115SOL    HW131244   3.740   1.580   4.932
10115SOL    HW231245   3.853   1.621   4.821
10116SOL     OW31246   0.372   6.334   0.631
10116SOL    HW131247   0.373   6.320   0.730
10116SOL    HW231248   0.423   6.418   0.609
10117SOL     OW31249   6.595   5.655   5.684
10117SOL    HW131250   6.592   5.700   5.595
10117SOL    HW231251   6.673   5.593   5.688
10118SOL     OW31252   1.865   4.581   2.783
10118SOL    HW131253   1.925   4.529   2.844
10118SOL    HW231254   1.798   4.519   2.742
10119SOL     OW31255   0.471   5.585   4.545
10119SOL    HW131256   0.453   5.671   4.497
10119SOL    HW231257   0.386   5.532   4.549
10120SOL     OW31258   1.663   3.271   5.093
10120SOL    HW131259   1.691   3.337   5.163
10120SOL    HW231260   1.613   3.318   5.020
10121SOL     OW31261   6.434   4.024   6.776
10121SOL    HW131262   6.487   3.943   6.800
10121SOL    HW231263   6.338   3.999   6.766
10122SOL     OW31264   6.272   3.327   1.862
10122SOL    HW131265   6.214   3.389   1.914
10122SOL    HW231266   6.219   3.247   1.834
10123SOL     OW31267   5.398   6.601   0.044
10123SOL    HW131268   5.330   6.557   7.014
10123SOL    HW231269   5.464   6.532   0.075
10124SOL     OW31270   1.181   4.324   0.492
10124SOL    HW131271   1.128   4.408   0.503
10124SOL    HW231272   1.229   4.303   0.577
10125SOL     OW31273   2.019   1.395   2.014
10125SOL    HW131274   1.990   1.331   2.085
10125SOL    HW231275   2.052   1.344   1.935
10126SOL     OW31276   0.149   6.435   6.525
10126SOL    HW131277   0.115   6.424   6.618
10126SOL    HW231278   0.184   6.528   6.513
10127SOL     OW31279   2.893   4.616   6.282
10127SOL    HW131280   2.879   4.536   6.223
10127SOL    HW231281   2.851   4.600   6.371
10128SOL     OW31282   2.530   1.335   0.868
10128SOL    HW131283   2.539   1.337   0.768
10128SOL    HW231284   2.479   1.253   0.894
10129SOL     OW31285   5.672   1.440   2.080
10129SOL    HW131286   5.739   1.486   2.139
10129SOL    HW231287   5.628   1.507   2.020
10130SOL     OW31288   1.419   3.633   1.852
10130SOL    HW131289   1.475   3.589   1.781
10130SOL    HW231290   1.478   3.682   1.916
10131SOL     OW31291   0.975   0.036   4.613
10131SOL    HW131292   1.044   0.097   4.654
10131SOL    HW231293   0.897   0.091   4.584
10132SOL     OW31294   3.715   0.567   4.302
10132SOL    HW131295   3.653   0.489   4.302
10132SOL    HW231296   3.716   0.609   4.393
10133SOL     OW31297   3.750   6.097   0.715
10133SOL    HW131298   3.829   6.083   0.655
10133SOL    HW231299   3.777   6.157   0.791
10134SOL     OW31300   0.161   6.159   3.137
10134SOL    HW131301   0.159   6.250   3.097
10134SOL    HW231302   0.133   6.092   3.068
10135SOL     OW31303   4.838   3.265   3.492
10135SOL    HW131304   4.826   3.169   3.517
10135SOL    HW231305   4.815   3.277   3.395
10136SOL     OW31306   5.407   0.889   2.386
10136SOL    HW131307   5.474   0.927   2.322
10136SOL    HW231308   5.319   0.933   2.372
10137SOL     OW31309   6.690   3.506   4.084
10137SOL    HW131310   6.733   3.416   4.092
10137SOL    HW231311   6.676   3.528   3.988
10138SOL     OW31312   5.056   3.347   0.199
10138SOL    HW131313   5.130   3.408   0.168
10138SOL    HW231314   5.086   3.252   0.192
10139SOL     OW31315   3.077   3.834   3.582
10139SOL    HW131316   3.158   3.800   3.628
10139SOL    HW231317   3.005   3.851   3.649
10140SOL     OW31318   5.749   6.124   0.125
10140SOL    HW131319   5.758   6.043   0.066
10140SOL    HW231320   5.768   6.206   0.072
10141SOL     OW31321   4.118   1.493   5.695
10141SOL    HW131322   4.191   1.531   5.753
10141SOL    HW231323   4.158   1.454   5.612
10142SOL     OW31324   6.422   6.896   5.429
10142SOL    HW131325   6.473   6.810   5.425
10142SOL    HW231326   6.392   6.922   5.337
10143SOL     OW31327   5.631   1.433   7.016
10143SOL    HW131328   5.659   1.462   0.077
10143SOL    HW231329   5.535   1.406   7.017
10144SOL     OW31330   3.047   0.359   6.086
10144SOL    HW131331   3.047   0.457   6.107
10144SOL    HW231332   3.100   0.310   6.155
10145SOL     OW31333   3.111   5.002   3.998
10145SOL    HW131334   3.047   4.927   3.980
10145SOL    HW231335   3.146   5.037   3.911
10146SOL     OW31336   4.652   4.590   4.980
10146SOL    HW131337   4.560   4.561   5.008
10146SOL    HW231338   4.667   4.685   5.007
10147SOL     OW31339   5.775   3.757   5.302
10147SOL    HW131340   5.854   3.807   5.266
10147SOL    HW231341   5.731   3.812   5.374
10148SOL     OW31342   5.112   4.665   6.579
10148SOL    HW131343   5.128   4.566   6.580
10148SOL    HW231344   5.018   4.683   6.552
10149SOL     OW31345   5.843   2.996   0.913
10149SOL    HW131346   5.916   3.058   0.886
10149SOL    HW231347   5.883   2.914   0.954
10150SOL     OW31348   3.549   3.524   0.441
10150SOL    HW131349   3.608   3.605   0.447
10150SOL    HW231350   3.456   3.552   0.417
10151SOL     OW31351   0.833   5.838   0.141
10151SOL    HW131352   0.786   5.811   0.057
10151SOL    HW231353   0.807   5.932   0.165
10152SOL     OW31354   0.015   5.696   4.297
10152SOL    HW131355   0.069   5.752   4.233
10152SOL    HW231356   0.059   5.696   4.386
10153SOL     OW31357   4.509   6.172   3.648
10153SOL    HW131358   4.546   6.224   3.725
10153SOL    HW231359   4.584   6.135   3.593
10154SOL     OW31360   4.295   6.581   5.258
10154SOL    HW131361   4.327   6.535   5.341
10154SOL    HW231362   4.222   6.645   5.281
10155SOL     OW31363   4.276   2.420   5.876
10155SOL    HW131364   4.215   2.414   5.797
10155SOL    HW231365   4.291   2.516   5.900
10156SOL     OW31366   6.252   0.307   2.106
10156SOL    HW131367   6.272   0.217   2.144
10156SOL    HW231368   6.156   0.330   2.124
10157SOL     OW31369   0.265   1.537   0.431
10157SOL    HW131370   0.350   1.568   0.473
10157SOL    HW231371   0.270   1.439   0.412
10158SOL     OW31372   5.965   5.571   0.303
10158SOL    HW131373   5.918   5.490   0.268
10158SOL    HW231374   5.899   5.645   0.316
10159SOL     OW31375   2.011   3.257   0.804
10159SOL    HW131376   1.950   3.178   0.814
10159SOL    HW231377   2.073   3.242   0.728
10160SOL     OW31378   1.920   3.201   2.264
10160SOL    HW131379   1.848   3.221   2.198
10160SOL    HW231380   1.889   3.130   2.327
10161SOL     OW31381   3.661   2.981   0.992
10161SOL    HW131382   3.618   2.920   1.058
10161SOL    HW231383   3.684   3.067   1.037
10162SOL     OW31384   3.405   4.510   1.216
10162SOL    HW131385   3.344   4.478   1.143
10162SOL    HW231386   3.495   4.467   1.206
10163SOL     OW31387   5.871   4.415   6.917
10163SOL    HW131388   5.947   4.351   6.928
10163SOL    HW231389   5.791   4.379   6.964
10164SOL     OW31390   5.919   3.602   3.824
10164SOL    HW131391   5.975   3.682   3.846
10164SOL    HW231392   5.958   3.555   3.745
10165SOL     OW31393   6.892   1.855   2.888
10165SOL    HW131394   6.795   1.842   2.906
10165SOL    HW231395   6.941   1.769   2.902
10166SOL     OW31396   3.167   1.771   2.191
10166SOL    HW131397   3.129   1.847   2.140
10166SOL    HW231398   3.191   1.801   2.284
10167SOL     OW31399   1.463   4.620   6.998
10167SOL    HW131400   1.539   4.626   0.034
10167SOL    HW231401   1.458   4.526   6.962
10168SOL     OW31402   6.048   2.766   6.414
10168SOL    HW131403   6.078   2.686   6.362
10168SOL    HW231404   5.948   2.766   6.421
10169SOL     OW31405   6.243   4.697   3.695
10169SOL    HW131406   6.266   4.736   3.605
10169SOL    HW231407   6.259   4.766   3.766
10170SOL     OW31408   6.980   5.293   5.145
10170SOL    HW131409   7.030   5.323   5.226
10170SOL    HW231410   6.988   5.363   5.074
10171SOL     OW31411   0.292   2.549   4.355
10171SOL    HW131412   0.376   2.508   4.319
10171SOL    HW231413   0.214   2.515   4.303
10172SOL     OW31414   0.249   5.852   5.237
10172SOL    HW131415   0.262   5.827   5.141
10172SOL    HW231416   0.298   5.937   5.256
10173SOL     OW31417   1.683   2.518   0.755
10173SOL    HW131418   1.620   2.441   0.754
10173SOL    HW231419   1.712   2.537   0.849
10174SOL     OW31420   5.184   4.666   3.581
10174SOL    HW131421   5.120   4.622   3.519
10174SOL    HW231422   5.133   4.717   3.651
10175SOL     OW31423   6.030   1.850   3.028
10175SOL    HW131424   6.095   1.853   3.104
10175SOL    HW231425   5.986   1.940   3.018
10176SOL     OW31426   0.653   3.406   4.890
10176SOL    HW131427   0.666   3.382   4.986
10176SOL    HW231428   0.697   3.494   4.872
10177SOL     OW31429   2.226   0.928   1.406
10177SOL    HW131430   2.130   0.931   1.431
10177SOL    HW231431   2.278   0.988   1.467
10178SOL     OW31432   0.282   0.788   6.530
10178SOL    HW131433   0.252   0.776   6.435
10178SOL    HW231434   0.322   0.702   6.563
10179SOL     OW31435   0.388   2.726   6.689
10179SOL    HW131436   0.345   2.789   6.753
10179SOL    HW231437   0.477   2.762   6.661
10180SOL     OW31438   4.122   0.666   5.985
10180SOL    HW131439   4.222   0.667   5.984
10180SOL    HW231440   4.090   0.571   5.991
10181SOL     OW31441   6.254   3.707   1.268
10181SOL    HW131442   6.164   3.696   1.310
10181SOL    HW231443   6.322   3.653   1.318
10182SOL     OW31444   4.593   0.745   1.865
10182SOL    HW131445   4.629   0.775   1.777
10182SOL    HW231446   4.659   0.764   1.937
10183SOL     OW31447   6.873   3.158   6.427
10183SOL    HW131448   6.954   3.166   6.485
10183SOL    HW231449   6.799   3.212   6.465
10184SOL     OW31450   4.545   1.040   6.209
10184SOL    HW131451   4.594   0.953   6.209
10184SOL    HW231452   4.452   1.026   6.241
10185SOL     OW31453   6.061   5.942   2.842
10185SOL    HW131454   6.062   6.032   2.799
10185SOL    HW231455   6.136   5.887   2.804
10186SOL     OW31456   5.696   3.687   3.704
10186SOL    HW131457   5.741   3.633   3.774
10186SOL    HW231458   5.764   3.722   3.639
10187SOL     OW31459   1.482   3.540   0.396
10187SOL    HW131460   1.402   3.490   0.361
10187SOL    HW231461   1.510   3.500   0.483
10188SOL     OW31462   4.131   4.678   0.312
10188SOL    HW131463   4.079   4.698   0.229
10188SOL    HW231464   4.194   4.754   0.331
10189SOL     OW31465   0.797   1.182   6.164
10189SOL    HW131466   0.776   1.089   6.135
10189SOL    HW231467   0.883   1.182   6.216
10190SOL     OW31468   4.915   3.168   1.332
10190SOL    HW131469   4.854   3.137   1.405
10190SOL    HW231470   4.883   3.132   1.244
10191SOL     OW31471   3.889   6.063   6.374
10191SOL    HW131472   3.835   6.063   6.457
10191SOL    HW231473   3.850   6.127   6.308
10192SOL     OW31474   4.333   1.769   5.205
10192SOL    HW131475   4.426   1.733   5.201
10192SOL    HW231476   4.311   1.813   5.118
10193SOL     OW31477   3.679   2.912   2.048
10193SOL    HW131478   3.725   2.996   2.076
10193SOL    HW231479   3.637   2.869   2.128
10194SOL     OW31480   5.089   6.083   6.255
10194SOL    HW131481   5.025   6.138   6.202
10194SOL    HW231482   5.045   5.997   6.282
10195SOL     OW31483   6.478   5.936   0.203
10195SOL    HW131484   6.529   6.017   0.177
10195SOL    HW231485   6.452   5.942   0.300
10196SOL     OW31486   4.506   1.837   4.106
10196SOL    HW131487   4.514   1.915   4.168
10196SOL    HW231488   4.434   1.856   4.039
10197SOL     OW31489   5.583   1.326   4.773
10197SOL    HW131490   5.556   1.352   4.866
10197SOL    HW231491   5.525   1.251   4.741
10198SOL     OW31492   3.068   6.751   2.497
10198SOL    HW131493   3.155   6.702   2.504
10198SOL    HW231494   3.067   6.828   2.560
10199SOL     OW31495   1.763   2.882   0.541
10199SOL    HW131496   1.807   2.933   0.616
10199SOL    HW231497   1.803   2.791   0.535
10200SOL     OW31498   4.788   2.653   5.967
10200SOL    HW131499   4.804   2.609   6.056
10200SOL    HW231500   4.862   2.718   5.948
10201SOL     OW31501   1.170   5.217   0.214
10201SOL    HW131502   1.241   5.157   0.178
10201SOL    HW231503   1.193   5.242   0.308
10202SOL     OW31504   3.341   5.153   0.987
10202SOL    HW131505   3.316   5.199   1.073
10202SOL    HW231506   3.404   5.078   1.007
10203SOL     OW31507   6.532   2.953   2.568
10203SOL    HW131508   6.529   3.027   2.501
10203SOL    HW231509   6.564   2.869   2.524
10204SOL     OW31510   4.401   5.829   6.653
10204SOL    HW131511   4.456   5.846   6.735
10204SOL    HW231512   4.333   5.759   6.673
10205SOL     OW31513   2.619   0.782   2.248
10205SOL    HW131514   2.529   0.793   2.205
10205SOL    HW231515   2.675   0.862   2.228
10206SOL     OW31516   6.932   0.057   6.563
10206SOL    HW131517   6.860   0.124   6.578
10206SOL    HW231518   6.932   7.020   6.637
10207SOL     OW31519   1.107   2.377   6.693
10207SOL    HW131520   1.187   2.436   6.685
10207SOL    HW231521   1.046   2.393   6.616
10208SOL     OW31522   6.297   5.064   4.074
10208SOL    HW131523   6.300   5.161   4.051
10208SOL    HW231524   6.237   5.016   4.010
10209SOL     OW31525   0.300   7.004   0.067
10209SOL    HW131526   0.365   0.038   0.108
10209SOL    HW231527   0.302   6.918   0.117
10210SOL     OW31528   4.677   6.317   2.020
10210SOL    HW131529   4.703   6.319   1.923
10210SOL    HW231530   4.752   6.353   2.075
10211SOL     OW31531   4.900   6.570   4.390
10211SOL    HW131532   4.862   6.538   4.303
10211SOL    HW231533   4.991   6.608   4.374
10212SOL     OW31534   7.029   0.059   5.595
10212SOL    HW131535   0.086   0.107   5.609
10212SOL    HW231536   0.015   6.990   5.599
10213SOL     OW31537   5.860   2.451   1.987
10213SOL    HW131538   5.826   2.545   1.983
10213SOL    HW231539   5.881   2.419   1.894
10214SOL     OW31540   0.351   1.843   1.081
10214SOL    HW131541   0.359   1.773   1.152
10214SOL    HW231542   0.254   1.855   1.059
10215SOL     OW31543   3.809   3.373   4.072
10215SOL    HW131544   3.750   3.404   3.998
10215SOL    HW231545   3.764   3.388   4.160
10216SOL     OW31546   6.940   1.214   1.474
10216SOL    HW131547   7.000   1.269   1.417
10216SOL    HW231548   6.848   1.254   1.476
10217SOL     OW31549   2.867   1.317   3.510
10217SOL    HW131550   2.919   1.400   3.488
10217SOL    HW231551   2.911   1.270   3.586
10218SOL     OW31552   0.846   1.078   1.710
10218SOL    HW131553   0.809   1.122   1.792
10218SOL    HW231554   0.789   1.103   1.631
10219SOL     OW31555   0.320   2.233   3.019
10219SOL    HW131556   0.395   2.250   2.956
10219SOL    HW231557   0.282   2.142   3.003
10220SOL     OW31558   4.862   1.928   0.995
10220SOL    HW131559   4.783   1.878   0.958
10220SOL    HW231560   4.886   1.891   1.084
10221SOL     OW31561   1.734   4.107   4.240
10221SOL    HW131562   1.739   4.009   4.257
10221SOL    HW231563   1.664   4.126   4.171
10222SOL     OW31564   3.027   4.343   5.323
10222SOL    HW131565   2.984   4.390   5.245
10222SOL    HW231566   2.957   4.293   5.374
10223SOL     OW31567   2.542   4.991   0.998
10223SOL    HW131568   2.599   4.978   1.079
10223SOL    HW231569   2.570   4.925   0.927
10224SOL     OW31570   6.223   2.745   5.981
10224SOL    HW131571   6.239   2.840   6.007
10224SOL    HW231572   6.144   2.740   5.919
10225SOL     OW31573   1.301   6.098   5.228
10225SOL    HW131574   1.371   6.144   5.283
10225SOL    HW231575   1.225   6.161   5.212
10226SOL     OW31576   2.321   0.489   5.969
10226SOL    HW131577   2.344   0.446   5.882
10226SOL    HW231578   2.370   0.576   5.978
10227SOL     OW31579   5.399   4.955   0.982
10227SOL    HW131580   5.409   4.935   0.884
10227SOL    HW231581   5.489   4.951   1.025
10228SOL     OW31582   0.591   6.329   2.173
10228SOL    HW131583   0.497   6.348   2.201
10228SOL    HW231584   0.653   6.392   2.219
10229SOL     OW31585   2.046   3.213   4.971
10229SOL    HW131586   2.040   3.141   5.041
10229SOL    HW231587   1.956   3.251   4.955
10230SOL     OW31588   6.514   6.386   3.138
10230SOL    HW131589   6.423   6.391   3.097
10230SOL    HW231590   6.576   6.334   3.078
10231SOL     OW31591   6.434   4.811   5.264
10231SOL    HW131592   6.371   4.734   5.275
10231SOL    HW231593   6.451   4.827   5.167
10232SOL     OW31594   3.040   1.664   4.205
10232SOL    HW131595   2.989   1.609   4.139
10232SOL    HW231596   2.979   1.734   4.244
10233SOL     OW31597   3.880   3.724   5.087
10233SOL    HW131598   3.901   3.755   5.179
10233SOL    HW231599   3.866   3.804   5.027
10234SOL     OW31600   5.373   0.373   1.206
10234SOL    HW131601   5.424   0.293   1.237
10234SOL    HW231602   5.428   0.425   1.141
10235SOL     OW31603   3.556   2.062   1.273
10235SOL    HW131604   3.463   2.082   1.304
10235SOL    HW231605   3.605   2.148   1.258
10236SOL     OW31606   2.348   1.299   1.163
10236SOL    HW131607   2.329   1.334   1.072
10236SOL    HW231608   2.376   1.203   1.157
10237SOL     OW31609   0.534   4.727   6.135
10237SOL    HW131610   0.518   4.631   6.112
10237SOL    HW231611   0.521   4.783   6.053
10238SOL     OW31612   3.892   4.106   1.858
10238SOL    HW131613   3.900   4.084   1.955
10238SOL    HW231614   3.928   4.030   1.804
10239SOL     OW31615   2.076   4.002   5.955
10239SOL    HW131616   2.081   4.081   6.017
10239SOL    HW231617   2.156   4.003   5.894
10240SOL     OW31618   1.955   4.678   2.399
10240SOL    HW131619   1.962   4.767   2.356
10240SOL    HW231620   1.863   4.641   2.385
10241SOL     OW31621   0.135   6.446   3.432
10241SOL    HW131622   0.107   6.521   3.371
10241SOL    HW231623   0.086   6.363   3.407
10242SOL     OW31624   0.138   1.062   1.600
10242SOL    HW131625   0.108   1.036   1.692
10242SOL    HW231626   0.060   1.095   1.547
10243SOL     OW31627   2.427   4.398   2.660
10243SOL    HW131628   2.398   4.343   2.582
10243SOL    HW231629   2.493   4.467   2.629
10244SOL     OW31630   1.472   4.216   0.969
10244SOL    HW131631   1.396   4.180   1.023
10244SOL    HW231632   1.534   4.142   0.944
10245SOL     OW31633   3.691   3.457   1.439
10245SOL    HW131634   3.778   3.503   1.454
10245SOL    HW231635   3.625   3.489   1.508
10246SOL     OW31636   3.281   3.352   3.821
10246SOL    HW131637   3.188   3.319   3.837
10246SOL    HW231638   3.277   3.445   3.785
10247SOL     OW31639   7.008   4.028   6.420
10247SOL    HW131640   7.021   3.955   6.353
10247SOL    HW231641   6.910   4.048   6.429
10248SOL     OW31642   1.393   6.315   2.806
10248SOL    HW131643   1.395   6.373   2.724
10248SOL    HW231644   1.372   6.221   2.779
10249SOL     OW31645   2.726   6.138   6.744
10249SOL    HW131646   2.661   6.076   6.701
10249SOL    HW231647   2.817   6.126   6.703
10250SOL     OW31648   6.398   2.338   1.630
10250SOL    HW131649   6.441   2.421   1.592
10250SOL    HW231650   6.444   2.314   1.715
10251SOL     OW31651   2.332   1.189   5.062
10251SOL    HW131652   2.318   1.103   5.014
10251SOL    HW231653   2.399   1.176   5.135
10252SOL     OW31654   3.776   4.479   6.254
10252SOL    HW131655   3.832   4.449   6.332
10252SOL    HW231656   3.799   4.425   6.173
10253SOL     OW31657   2.788   6.775   0.634
10253SOL    HW131658   2.842   6.741   0.711
10253SOL    HW231659   2.698   6.731   0.634
10254SOL     OW31660   5.524   1.395   5.638
10254SOL    HW131661   5.514   1.313   5.695
10254SOL    HW231662   5.467   1.468   5.675
10255SOL     OW31663   2.673   5.985   1.586
10255SOL    HW131664   2.617   5.974   1.505
10255SOL    HW231665   2.669   5.902   1.641
10256SOL     OW31666   5.029   2.434   1.795
10256SOL    HW131667   5.095   2.359   1.790
10256SOL    HW231668   5.077   2.519   1.819
10257SOL     OW31669   1.632   4.550   4.565
10257SOL    HW131670   1.663   4.468   4.614
10257SOL    HW231671   1.664   4.545   4.470
10258SOL     OW31672   3.181   1.761   3.983
10258SOL    HW131673   3.139   1.741   4.072
10258SOL    HW231674   3.153   1.690   3.918
10259SOL     OW31675   1.385   5.019   2.952
10259SOL    HW131676   1.400   4.922   2.933
10259SOL    HW231677   1.377   5.033   3.051
10260SOL     OW31678   1.364   1.181   3.610
10260SOL    HW131679   1.412   1.173   3.523
10260SOL    HW231680   1.430   1.194   3.684
10261SOL     OW31681   6.808   4.882   2.514
10261SOL    HW131682   6.772   4.975   2.520
10261SOL    HW231683   6.765   4.825   2.584
10262SOL     OW31684   2.655   6.781   5.607
10262SOL    HW131685   2.716   6.767   5.529
10262SOL    HW231686   2.697   6.846   5.671
10263SOL     OW31687   5.551   0.187   0.195
10263SOL    HW131688   5.593   0.237   0.271
10263SOL    HW231689   5.591   0.096   0.188
10264SOL     OW31690   5.695   0.020   6.747
10264SOL    HW131691   5.777   0.021   6.804
10264SOL    HW231692   5.716   0.058   6.657
10265SOL     OW31693   2.721   3.018   1.378
10265SOL    HW131694   2.686   2.924   1.380
10265SOL    HW231695   2.652   3.079   1.340
10266SOL     OW31696   4.090   3.261   3.780
10266SOL    HW131697   4.116   3.298   3.869
10266SOL    HW231698   4.016   3.195   3.792
10267SOL     OW31699   6.028   2.780   0.027
10267SOL    HW131700   5.974   2.696   0.017
10267SOL    HW231701   6.078   2.777   0.113
10268SOL     OW31702   6.065   5.728   2.590
10268SOL    HW131703   5.993   5.797   2.593
10268SOL    HW231704   6.027   5.638   2.611
10269SOL     OW31705   0.304   3.673   6.882
10269SOL    HW131706   0.335   3.584   6.850
10269SOL    HW231707   0.343   3.691   6.972
10270SOL     OW31708   3.873   4.786   2.520
10270SOL    HW131709   3.825   4.704   2.489
10270SOL    HW231710   3.816   4.833   2.588
10271SOL     OW31711   3.728   2.495   6.793
10271SOL    HW131712   3.744   2.480   6.696
10271SOL    HW231713   3.728   2.407   6.841
10272SOL     OW31714   1.615   1.439   5.374
10272SOL    HW131715   1.602   1.403   5.282
10272SOL    HW231716   1.713   1.437   5.397
10273SOL     OW31717   2.746   5.368   2.883
10273SOL    HW131718   2.756   5.350   2.786
10273SOL    HW231719   2.835   5.391   2.923
10274SOL     OW31720   0.610   5.638   5.528
10274SOL    HW131721   0.649   5.623   5.437
10274SOL    HW231722   0.674   5.693   5.582
10275SOL     OW31723   0.581   6.683   2.438
10275SOL    HW131724   0.569   6.604   2.499
10275SOL    HW231725   0.538   6.663   2.350
10276SOL     OW31726   5.473   4.851   5.559
10276SOL    HW131727   5.504   4.817   5.648
10276SOL    HW231728   5.454   4.949   5.566
10277SOL     OW31729   1.088   5.824   4.028
10277SOL    HW131730   1.116   5.891   3.960
10277SOL    HW231731   1.137   5.738   4.012
10278SOL     OW31732   0.785   2.093   3.817
10278SOL    HW131733   0.848   2.164   3.786
10278SOL    HW231734   0.706   2.089   3.757
10279SOL     OW31735   1.851   4.944   4.103
10279SOL    HW131736   1.829   5.002   4.182
10279SOL    HW231737   1.766   4.921   4.055
10280SOL     OW31738   0.141   2.922   0.412
10280SOL    HW131739   0.141   2.828   0.446
10280SOL    HW231740   0.128   2.921   0.313
10281SOL     OW31741   5.755   1.505   2.989
10281SOL    HW131742   5.729   1.463   2.902
10281SOL    HW231743   5.730   1.602   2.988
10282SOL     OW31744   5.703   3.639   4.392
10282SOL    HW131745   5.718   3.554   4.342
10282SOL    HW231746   5.715   3.622   4.490
10283SOL     OW31747   1.720   3.058   1.057
10283SOL    HW131748   1.779   3.101   1.126
10283SOL    HW231749   1.758   2.969   1.032
10284SOL     OW31750   5.477   2.327   4.905
10284SOL    HW131751   5.412   2.403   4.907
10284SOL    HW231752   5.567   2.361   4.879
10285SOL     OW31753   5.494   6.962   2.651
10285SOL    HW131754   5.573   6.958   2.590
10285SOL    HW231755   5.448   0.020   2.640
10286SOL     OW31756   3.245   1.706   3.401
10286SOL    HW131757   3.274   1.614   3.427
10286SOL    HW231758   3.318   1.749   3.347
10287SOL     OW31759   2.072   6.454   1.478
10287SOL    HW131760   2.108   6.448   1.571
10287SOL    HW231761   2.143   6.490   1.417
10288SOL     OW31762   4.794   5.462   3.487
10288SOL    HW131763   4.763   5.554   3.509
10288SOL    HW231764   4.877   5.441   3.539
10289SOL     OW31765   2.609   6.202   6.977
10289SOL    HW131766   2.553   6.277   7.012
10289SOL    HW231767   2.599   6.196   6.878
10290SOL     OW31768   3.197   3.932   2.818
10290SOL    HW131769   3.214   3.886   2.731
10290SOL    HW231770   3.104   3.970   2.818
10291SOL     OW31771   3.839   1.729   2.896
10291SOL    HW131772   3.752   1.682   2.912
10291SOL    HW231773   3.908   1.693   2.958
10292SOL     OW31774   1.580   1.198   5.240
10292SOL    HW131775   1.480   1.198   5.237
10292SOL    HW231776   1.611   1.140   5.314
10293SOL     OW31777   2.183   4.076   2.649
10293SOL    HW131778   2.153   3.981   2.650
10293SOL    HW231779   2.247   4.092   2.725
10294SOL     OW31780   5.474   2.953   3.204
10294SOL    HW131781   5.412   2.875   3.212
10294SOL    HW231782   5.510   2.958   3.111
10295SOL     OW31783   0.471   4.192   5.701
10295SOL    HW131784   0.484   4.218   5.605
10295SOL    HW231785   0.375   4.167   5.715
10296SOL     OW31786   5.108   1.632   0.304
10296SOL    HW131787   5.118   1.717   0.252
10296SOL    HW231788   5.094   1.652   0.400
10297SOL     OW31789   2.053   0.313   6.481
10297SOL    HW131790   2.031   0.238   6.418
10297SOL    HW231791   1.974   0.329   6.541
10298SOL     OW31792   2.555   4.226   1.743
10298SOL    HW131793   2.490   4.233   1.668
10298SOL    HW231794   2.506   4.224   1.830
10299SOL     OW31795   4.561   4.398   3.002
10299SOL    HW131796   4.461   4.404   3.007
10299SOL    HW231797   4.601   4.463   3.066
10300SOL     OW31798   1.397   4.097   2.080
10300SOL    HW131799   1.459   4.176   2.077
10300SOL    HW231800   1.408   4.050   2.168
10301SOL     OW31801   5.577   2.597   4.277
10301SOL    HW131802   5.595   2.517   4.334
10301SOL    HW231803   5.479   2.604   4.259
10302SOL     OW31804   1.560   6.777   4.095
10302SOL    HW131805   1.643   6.744   4.051
10302SOL    HW231806   1.487   6.784   4.027
10303SOL     OW31807   1.932   5.864   2.804
10303SOL    HW131808   1.869   5.788   2.791
10303SOL    HW231809   1.882   5.950   2.798
10304SOL     OW31810   5.408   6.893   1.606
10304SOL    HW131811   5.352   6.913   1.686
10304SOL    HW231812   5.473   6.968   1.591
10305SOL     OW31813   1.145   4.572   6.823
10305SOL    HW131814   1.073   4.626   6.866
10305SOL    HW231815   1.212   4.545   6.893
10306SOL     OW31816   5.055   6.892   6.323
10306SOL    HW131817   5.096   6.809   6.286
10306SOL    HW231818   5.097   6.972   6.281
10307SOL     OW31819   2.850   2.301   5.361
10307SOL    HW131820   2.850   2.400   5.346
10307SOL    HW231821   2.931   2.276   5.414
10308SOL     OW31822   2.078   4.332   3.204
10308SOL    HW131823   2.151   4.390   3.240
10308SOL    HW231824   2.094   4.238   3.232
10309SOL     OW31825   6.753   1.296   5.912
10309SOL    HW131826   6.733   1.316   6.008
10309SOL    HW231827   6.670   1.267   5.865
10310SOL     OW31828   3.146   3.342   0.956
10310SOL    HW131829   3.119   3.428   0.913
10310SOL    HW231830   3.199   3.361   1.039
10311SOL     OW31831   6.930   6.222   0.404
10311SOL    HW131832   6.978   6.308   0.426
10311SOL    HW231833   6.991   6.145   0.420
10312SOL     OW31834   3.722   5.926   2.438
10312SOL    HW131835   3.770   5.889   2.358
10312SOL    HW231836   3.628   5.893   2.439
10313SOL     OW31837   4.850   6.600   1.841
10313SOL    HW131838   4.849   6.691   1.884
10313SOL    HW231839   4.921   6.544   1.884
10314SOL     OW31840   6.464   1.090   1.925
10314SOL    HW131841   6.487   0.993   1.926
10314SOL    HW231842   6.410   1.111   1.843
10315SOL     OW31843   5.096   6.047   5.597
10315SOL    HW131844   5.091   5.958   5.552
10315SOL    HW231845   5.004   6.078   5.620
10316SOL     OW31846   5.783   1.610   4.139
10316SOL    HW131847   5.758   1.693   4.191
10316SOL    HW231848   5.851   1.559   4.190
10317SOL     OW31849   4.767   5.933   4.202
10317SOL    HW131850   4.850   5.975   4.237
10317SOL    HW231851   4.756   5.956   4.105
10318SOL     OW31852   5.563   6.439   6.804
10318SOL    HW131853   5.518   6.372   6.745
10318SOL    HW231854   5.592   6.394   6.889
10319SOL     OW31855   1.241   2.573   5.682
10319SOL    HW131856   1.283   2.581   5.773
10319SOL    HW231857   1.264   2.484   5.643
10320SOL     OW31858   0.038   0.951   2.871
10320SOL    HW131859   0.121   1.007   2.865
10320SOL    HW231860   0.057   0.869   2.925
10321SOL     OW31861   4.188   1.957   1.734
10321SOL    HW131862   4.112   1.950   1.798
10321SOL    HW231863   4.236   1.869   1.728
10322SOL     OW31864   6.280   5.994   5.379
10322SOL    HW131865   6.255   5.998   5.282
10322SOL    HW231866   6.219   5.930   5.426
10323SOL     OW31867   5.874   2.893   5.517
10323SOL    HW131868   5.851   2.981   5.560
10323SOL    HW231869   5.848   2.895   5.421
10324SOL     OW31870   3.776   3.336   2.393
10324SOL    HW131871   3.753   3.432   2.374
10324SOL    HW231872   3.875   3.326   2.397
10325SOL     OW31873   0.002   3.891   2.011
10325SOL    HW131874   0.007   3.821   2.082
10325SOL    HW231875   6.944   3.885   1.963
10326SOL     OW31876   3.124   4.502   0.086
10326SOL    HW131877   3.036   4.454   0.082
10326SOL    HW231878   3.174   4.486   0.002
10327SOL     OW31879   2.431   1.367   1.405
10327SOL    HW131880   2.353   1.398   1.459
10327SOL    HW231881   2.401   1.342   1.314
10328SOL     OW31882   6.024   2.557   1.083
10328SOL    HW131883   6.118   2.530   1.064
10328SOL    HW231884   6.004   2.643   1.036
10329SOL     OW31885   3.686   0.431   3.910
10329SOL    HW131886   3.636   0.492   3.848
10329SOL    HW231887   3.778   0.468   3.925
10330SOL     OW31888   4.786   0.191   2.487
10330SOL    HW131889   4.759   0.143   2.571
10330SOL    HW231890   4.719   0.261   2.465
10331SOL     OW31891   6.861   1.080   5.446
10331SOL    HW131892   6.948   1.128   5.433
10331SOL    HW231893   6.861   1.035   5.536
10332SOL     OW31894   6.600   6.904   0.568
10332SOL    HW131895   6.622   6.920   0.664
10332SOL    HW231896   6.536   6.828   0.561
10333SOL     OW31897   6.871   4.743   4.317
10333SOL    HW131898   6.914   4.741   4.226
10333SOL    HW231899   6.844   4.650   4.343
10334SOL     OW31900   4.086   6.640   3.767
10334SOL    HW131901   4.104   6.695   3.685
10334SOL    HW231902   4.035   6.558   3.741
10335SOL     OW31903   2.846   4.641   0.027
10335SOL    HW131904   2.916   4.665   0.095
10335SOL    HW231905   2.890   4.630   6.967
10336SOL     OW31906   6.753   6.442   2.426
10336SOL    HW131907   6.838   6.483   2.395
10336SOL    HW231908   6.714   6.499   2.499
10337SOL     OW31909   0.020   6.461   6.003
10337SOL    HW131910   7.024   6.550   6.040
10337SOL    HW231911   7.002   6.388   6.052
10338SOL     OW31912   2.182   6.232   2.497
10338SOL    HW131913   2.250   6.222   2.424
10338SOL    HW231914   2.223   6.284   2.573
10339SOL     OW31915   3.533   4.508   0.090
10339SOL    HW131916   3.501   4.534   0.180
10339SOL    HW231917   3.487   4.563   0.020
10340SOL     OW31918   1.680   4.612   1.229
10340SOL    HW131919   1.749   4.682   1.210
10340SOL    HW231920   1.596   4.655   1.260
10341SOL     OW31921   1.995   3.613   1.866
10341SOL    HW131922   2.028   3.686   1.807
10341SOL    HW231923   2.072   3.565   1.907
10342SOL     OW31924   1.306   0.128   5.379
10342SOL    HW131925   1.263   0.087   5.459
10342SOL    HW231926   1.314   0.059   5.307
10343SOL     OW31927   3.449   5.974   6.768
10343SOL    HW131928   3.460   6.036   6.690
10343SOL    HW231929   3.353   5.949   6.777
10344SOL     OW31930   4.489   4.309   1.609
10344SOL    HW131931   4.586   4.327   1.596
10344SOL    HW231932   4.475   4.258   1.694
10345SOL     OW31933   1.939   1.120   6.693
10345SOL    HW131934   1.843   1.135   6.720
10345SOL    HW231935   1.975   1.204   6.652
10346SOL     OW31936   6.594   6.684   1.554
10346SOL    HW131937   6.692   6.690   1.570
10346SOL    HW231938   6.568   6.588   1.541
10347SOL     OW31939   4.893   2.122   2.642
10347SOL    HW131940   4.809   2.169   2.667
10347SOL    HW231941   4.959   2.129   2.717
10348SOL     OW31942   6.544   1.426   0.193
10348SOL    HW131943   6.444   1.420   0.184
10348SOL    HW231944   6.580   1.487   0.123
10349SOL     OW31945   6.812   0.836   0.879
10349SOL    HW131946   6.905   0.819   0.911
10349SOL    HW231947   6.801   0.799   0.787
10350SOL     OW31948   1.822   6.923   5.283
10350SOL    HW131949   1.805   6.825   5.294
10350SOL    HW231950   1.744   6.974   5.319
10351SOL     OW31951   4.752   5.359   6.308
10351SOL    HW131952   4.737   5.326   6.401
10351SOL    HW231953   4.799   5.289   6.254
10352SOL     OW31954   4.188   2.401   6.191
10352SOL    HW131955   4.153   2.492   6.170
10352SOL    HW231956   4.285   2.396   6.164
10353SOL     OW31957   0.261   2.578   5.588
10353SOL    HW131958   0.289   2.629   5.670
10353SOL    HW231959   0.307   2.489   5.587
10354SOL     OW31960   5.884   2.796   1.730
10354SOL    HW131961   5.823   2.848   1.788
10354SOL    HW231962   5.930   2.725   1.784
10355SOL     OW31963   1.833   0.236   1.632
10355SOL    HW131964   1.804   0.147   1.668
10355SOL    HW231965   1.757   0.301   1.637
10356SOL     OW31966   0.466   4.612   5.833
10356SOL    HW131967   0.489   4.585   5.739
10356SOL    HW231968   0.454   4.530   5.889
10357SOL     OW31969   2.842   3.203   5.818
10357SOL    HW131970   2.802   3.112   5.829
10357SOL    HW231971   2.855   3.245   5.908
10358SOL     OW31972   6.445   2.972   2.831
10358SOL    HW131973   6.452   2.949   2.734
10358SOL    HW231974   6.526   2.940   2.879
10359SOL     OW31975   6.855   1.599   1.702
10359SOL    HW131976   6.930   1.533   1.695
10359SOL    HW231977   6.844   1.647   1.615
10360SOL     OW31978   4.719   5.677   2.680
10360SOL    HW131979   4.746   5.763   2.723
10360SOL    HW231980   4.729   5.603   2.747
10361SOL     OW31981   3.290   0.208   2.926
10361SOL    HW131982   3.223   0.271   2.966
10361SOL    HW231983   3.378   0.254   2.916
10362SOL     OW31984   0.984   5.114   4.501
10362SOL    HW131985   1.007   5.055   4.578
10362SOL    HW231986   0.887   5.103   4.479
10363SOL     OW31987   4.598   1.821   0.980
10363SOL    HW131988   4.499   1.835   0.972
10363SOL    HW231989   4.618   1.776   1.067
10364SOL     OW31990   4.008   3.607   2.368
10364SOL    HW131991   4.064   3.604   2.450
10364SOL    HW231992   3.962   3.696   2.361
10365SOL     OW31993   5.208   4.363   5.702
10365SOL    HW131994   5.171   4.289   5.646
10365SOL    HW231995   5.135   4.427   5.726
10366SOL     OW31996   4.430   0.418   4.213
10366SOL    HW131997   4.513   0.409   4.157
10366SOL    HW231998   4.445   0.490   4.281
10367SOL     OW31999   0.037   1.299   1.748
10367SOL    HW132000   0.062   1.243   1.669
10367SOL    HW232001   7.026   1.241   1.818
10368SOL     OW32002   1.978   0.902   2.039
10368SOL    HW132003   2.057   0.887   2.098
10368SOL    HW232004   1.968   0.824   1.977
10369SOL     OW32005   4.024   1.487   5.185
10369SOL    HW132006   4.043   1.500   5.088
10369SOL    HW232007   3.937   1.531   5.209
10370SOL     OW32008   5.440   1.900   5.538
10370SOL    HW132009   5.441   1.973   5.470
10370SOL    HW232010   5.346   1.882   5.566
10371SOL     OW32011   2.055   6.111   4.342
10371SOL    HW132012   2.027   6.133   4.249
10371SOL    HW232013   1.983   6.058   4.387
10372SOL     OW32014   1.561   1.480   0.249
10372SOL    HW132015   1.491   1.506   0.183
10372SOL    HW232016   1.552   1.383   0.271
10373SOL     OW32017   2.101   6.660   4.345
10373SOL    HW132018   2.083   6.566   4.316
10373SOL    HW232019   2.020   6.717   4.329
10374SOL     OW32020   4.254   1.148   2.748
10374SOL    HW132021   4.349   1.174   2.765
10374SOL    HW232022   4.248   1.093   2.665
10375SOL     OW32023   2.852   1.597   6.261
10375SOL    HW132024   2.757   1.581   6.235
10375SOL    HW232025   2.860   1.686   6.307
10376SOL     OW32026   1.302   6.396   4.378
10376SOL    HW132027   1.215   6.418   4.334
10376SOL    HW232028   1.377   6.437   4.325
10377SOL     OW32029   6.869   1.137   3.949
10377SOL    HW132030   6.836   1.225   3.915
10377SOL    HW232031   6.839   1.124   4.043
10378SOL     OW32032   6.177   0.283   6.002
10378SOL    HW132033   6.169   0.330   6.089
10378SOL    HW232034   6.088   0.279   5.957
10379SOL     OW32035   3.035   6.669   4.828
10379SOL    HW132036   3.046   6.572   4.808
10379SOL    HW232037   2.938   6.688   4.846
10380SOL     OW32038   0.724   2.126   4.076
10380SOL    HW132039   0.750   2.110   3.981
10380SOL    HW232040   0.636   2.083   4.095
10381SOL     OW32041   4.543   4.777   0.283
10381SOL    HW132042   4.636   4.786   0.320
10381SOL    HW232043   4.504   4.690   0.311
10382SOL     OW32044   2.211   4.379   0.348
10382SOL    HW132045   2.276   4.305   0.332
10382SOL    HW232046   2.220   4.448   0.276
10383SOL     OW32047   6.817   3.865   0.828
10383SOL    HW132048   6.745   3.924   0.792
10383SOL    HW232049   6.880   3.919   0.884
10384SOL     OW32050   0.644   6.894   0.829
10384SOL    HW132051   0.656   6.991   0.809
10384SOL    HW232052   0.689   6.871   0.916
10385SOL     OW32053   3.299   6.314   5.649
10385SOL    HW132054   3.208   6.295   5.686
10385SOL    HW232055   3.298   6.401   5.600
10386SOL     OW32056   6.191   2.496   5.698
10386SOL    HW132057   6.228   2.581   5.661
10386SOL    HW232058   6.160   2.437   5.623
10387SOL     OW32059   4.333   2.213   2.947
10387SOL    HW132060   4.405   2.259   3.000
10387SOL    HW232061   4.308   2.270   2.869
10388SOL     OW32062   2.090   5.791   2.404
10388SOL    HW132063   2.133   5.861   2.461
10388SOL    HW232064   1.990   5.798   2.413
10389SOL     OW32065   0.090   6.848   1.877
10389SOL    HW132066   7.029   6.884   1.858
10389SOL    HW232067   0.138   6.831   1.791
10390SOL     OW32068   2.625   2.724   1.510
10390SOL    HW132069   2.600   2.769   1.596
10390SOL    HW232070   2.722   2.740   1.491
10391SOL     OW32071   1.224   5.783   4.536
10391SOL    HW132072   1.308   5.829   4.507
10391SOL    HW232073   1.166   5.847   4.586
10392SOL     OW32074   6.253   4.448   0.097
10392SOL    HW132075   6.326   4.510   0.070
10392SOL    HW232076   6.165   4.483   0.063
10393SOL     OW32077   2.207   2.477   2.543
10393SOL    HW132078   2.237   2.528   2.623
10393SOL    HW232079   2.107   2.465   2.546
10394SOL     OW32080   2.247   6.246   4.777
10394SOL    HW132081   2.199   6.334   4.774
10394SOL    HW232082   2.286   6.227   4.687
10395SOL     OW32083   6.928   0.843   3.449
10395SOL    HW132084   6.990   0.874   3.521
10395SOL    HW232085   6.977   0.840   3.362
10396SOL     OW32086   2.152   0.514   4.341
10396SOL    HW132087   2.098   0.579   4.288
10396SOL    HW232088   2.243   0.552   4.358
10397SOL     OW32089   2.911   2.122   3.601
10397SOL    HW132090   2.858   2.161   3.676
10397SOL    HW232091   2.967   2.046   3.635
10398SOL     OW32092   5.797   2.505   0.529
10398SOL    HW132093   5.821   2.408   0.537
10398SOL    HW232094   5.698   2.513   0.515
10399SOL     OW32095   4.175   1.747   4.325
10399SOL    HW132096   4.171   1.655   4.287
10399SOL    HW232097   4.087   1.770   4.367
10400SOL     OW32098   3.879   5.601   1.055
10400SOL    HW132099   3.833   5.672   1.001
10400SOL    HW232100   3.812   5.551   1.109
10401SOL     OW32101   0.210   0.202   2.971
10401SOL    HW132102   0.164   0.258   2.902
10401SOL    HW232103   0.278   0.258   3.019
10402SOL     OW32104   0.177   2.827   5.472
10402SOL    HW132105   0.236   2.864   5.399
10402SOL    HW232106   0.205   2.733   5.492
10403SOL     OW32107   5.399   1.474   2.970
10403SOL    HW132108   5.447   1.450   2.886
10403SOL    HW232109   5.464   1.475   3.046
10404SOL     OW32110   0.315   6.529   3.595
10404SOL    HW132111   0.240   6.524   3.528
10404SOL    HW232112   0.397   6.565   3.550
10405SOL     OW32113   1.210   5.523   4.625
10405SOL    HW132114   1.200   5.607   4.573
10405SOL    HW232115   1.287   5.532   4.688
10406SOL     OW32116   2.110   3.779   5.157
10406SOL    HW132117   2.163   3.697   5.175
10406SOL    HW232118   2.135   3.850   5.223
10407SOL     OW32119   1.614   0.727   6.819
10407SOL    HW132120   1.617   0.797   6.747
10407SOL    HW232121   1.535   0.668   6.804
10408SOL     OW32122   3.514   6.179   1.793
10408SOL    HW132123   3.554   6.105   1.738
10408SOL    HW232124   3.555   6.180   1.884
10409SOL     OW32125   0.339   3.970   0.998
10409SOL    HW132126   0.258   4.028   1.005
10409SOL    HW232127   0.367   3.942   1.090
10410SOL     OW32128   5.121   1.743   1.311
10410SOL    HW132129   5.096   1.686   1.389
10410SOL    HW232130   5.204   1.707   1.268
10411SOL     OW32131   3.777   5.515   4.469
10411SOL    HW132132   3.711   5.580   4.507
10411SOL    HW232133   3.777   5.522   4.370
10412SOL     OW32134   0.359   1.066   0.751
10412SOL    HW132135   0.418   1.131   0.799
10412SOL    HW232136   0.375   1.073   0.653
10413SOL     OW32137   0.260   2.125   0.903
10413SOL    HW132138   0.191   2.174   0.848
10413SOL    HW232139   0.216   2.085   0.983
10414SOL     OW32140   4.592   6.666   5.759
10414SOL    HW132141   4.594   6.696   5.664
10414SOL    HW232142   4.686   6.652   5.792
10415SOL     OW32143   2.416   4.480   3.802
10415SOL    HW132144   2.367   4.557   3.761
10415SOL    HW232145   2.394   4.396   3.752
10416SOL     OW32146   6.610   1.166   5.465
10416SOL    HW132147   6.710   1.159   5.456
10416SOL    HW232148   6.571   1.187   5.376
10417SOL     OW32149   4.788   4.032   4.167
10417SOL    HW132150   4.745   4.114   4.205
10417SOL    HW232151   4.800   3.964   4.240
10418SOL     OW32152   6.193   3.996   5.418
10418SOL    HW132153   6.272   3.970   5.474
10418SOL    HW232154   6.197   4.095   5.400
10419SOL     OW32155   3.072   0.366   5.204
10419SOL    HW132156   3.151   0.375   5.265
10419SOL    HW232157   2.998   0.319   5.251
10420SOL     OW32158   7.007   3.478   3.910
10420SOL    HW132159   0.062   3.484   3.963
10420SOL    HW232160   6.941   3.421   3.960
10421SOL     OW32161   1.222   3.190   4.552
10421SOL    HW132162   1.193   3.115   4.492
10421SOL    HW232163   1.229   3.275   4.498
10422SOL     OW32164   6.589   3.519   5.825
10422SOL    HW132165   6.559   3.425   5.811
10422SOL    HW232166   6.688   3.524   5.815
10423SOL     OW32167   4.009   5.013   4.951
10423SOL    HW132168   3.979   4.973   5.038
10423SOL    HW232169   3.929   5.050   4.903
10424SOL     OW32170   4.135   2.315   0.118
10424SOL    HW132171   4.039   2.300   0.139
10424SOL    HW232172   4.189   2.309   0.202
10425SOL     OW32173   0.491   6.274   1.809
10425SOL    HW132174   0.450   6.365   1.806
10425SOL    HW232175   0.436   6.215   1.869
10426SOL     OW32176   5.829   3.494   5.586
10426SOL    HW132177   5.827   3.593   5.604
10426SOL    HW232178   5.923   3.461   5.586
10427SOL     OW32179   5.124   6.625   6.751
10427SOL    HW132180   5.218   6.652   6.769
10427SOL    HW232181   5.114   6.599   6.654
10428SOL     OW32182   2.187   1.645   4.241
10428SOL    HW132183   2.212   1.558   4.283
10428SOL    HW232184   2.177   1.715   4.311
10429SOL     OW32185   0.917   3.854   3.076
10429SOL    HW132186   0.912   3.937   3.021
10429SOL    HW232187   0.828   3.807   3.072
10430SOL     OW32188   4.010   6.176   4.717
10430SOL    HW132189   3.944   6.235   4.670
10430SOL    HW232190   4.018   6.090   4.667
10431SOL     OW32191   2.868   0.819   4.394
10431SOL    HW132192   2.818   0.812   4.308
10431SOL    HW232193   2.966   0.811   4.376
10432SOL     OW32194   0.179   1.738   5.348
10432SOL    HW132195   0.234   1.801   5.294
10432SOL    HW232196   0.219   1.729   5.439
10433SOL     OW32197   0.053   6.178   2.127
10433SOL    HW132198   0.142   6.154   2.167
10433SOL    HW232199   0.067   6.216   2.035
10434SOL     OW32200   4.822   6.035   4.788
10434SOL    HW132201   4.879   5.970   4.737
10434SOL    HW232202   4.881   6.104   4.831
10435SOL     OW32203   1.819   2.196   6.026
10435SOL    HW132204   1.888   2.177   5.957
10435SOL    HW232205   1.849   2.157   6.114
10436SOL     OW32206   6.782   4.007   3.865
10436SOL    HW132207   6.700   3.955   3.887
10436SOL    HW232208   6.784   4.090   3.922
10437SOL     OW32209   5.823   4.867   5.223
10437SOL    HW132210   5.870   4.841   5.139
10437SOL    HW232211   5.888   4.912   5.284
10438SOL     OW32212   6.999   5.939   5.947
10438SOL    HW132213   6.964   5.845   5.935
10438SOL    HW232214   0.063   5.936   5.980
10439SOL     OW32215   5.751   1.452   5.215
10439SOL    HW132216   5.669   1.420   5.167
10439SOL    HW232217   5.727   1.472   5.310
10440SOL     OW32218   6.759   6.731   7.016
10440SOL    HW132219   6.703   6.740   0.069
10440SOL    HW232220   6.832   6.665   0.003
10441SOL     OW32221   3.259   1.359   1.085
10441SOL    HW132222   3.279   1.359   1.183
10441SOL    HW232223   3.329   1.306   1.036
10442SOL     OW32224   4.182   0.490   4.557
10442SOL    HW132225   4.175   0.445   4.646
10442SOL    HW232226   4.143   0.430   4.486
10443SOL     OW32227   6.625   2.566   2.746
10443SOL    HW132228   6.536   2.545   2.787
10443SOL    HW232229   6.688   2.595   2.818
10444SOL     OW32230   3.402   5.127   2.796
10444SOL    HW132231   3.474   5.059   2.809
10444SOL    HW232232   3.360   5.114   2.706
10445SOL     OW32233   0.438   3.799   2.677
10445SOL    HW132234   0.502   3.745   2.622
10445SOL    HW232235   0.482   3.884   2.706
10446SOL     OW32236   1.784   4.091   6.045
10446SOL    HW132237   1.804   4.156   6.118
10446SOL    HW232238   1.685   4.087   6.031
10447SOL     OW32239   6.561   0.210   2.139
10447SOL    HW132240   6.525   0.176   2.225
10447SOL    HW232241   6.571   0.310   2.143
10448SOL     OW32242   3.522   0.351   2.875
10448SOL    HW132243   3.565   0.329   2.788
10448SOL    HW232244   3.577   0.418   2.924
10449SOL     OW32245   2.897   5.717   6.679
10449SOL    HW132246   2.816   5.729   6.621
10449SOL    HW232247   2.978   5.745   6.629
10450SOL     OW32248   6.827   0.720   6.654
10450SOL    HW132249   6.738   0.694   6.617
10450SOL    HW232250   6.885   0.755   6.581
10451SOL     OW32251   3.386   0.002   2.702
10451SOL    HW132252   3.434   0.015   2.789
10451SOL    HW232253   3.440   6.970   2.644
10452SOL     OW32254   6.672   3.299   2.650
10452SOL    HW132255   6.728   3.224   2.615
10452SOL    HW232256   6.681   3.304   2.750
10453SOL     OW32257   4.471   6.124   2.493
10453SOL    HW132258   4.569   6.141   2.507
10453SOL    HW232259   4.457   6.027   2.471
10454SOL     OW32260   5.652   0.670   0.936
10454SOL    HW132261   5.634   0.759   0.977
10454SOL    HW232262   5.716   0.619   0.994
10455SOL     OW32263   0.184   5.832   4.141
10455SOL    HW132264   0.269   5.883   4.150
10455SOL    HW232265   0.182   5.789   4.051
10456SOL     OW32266   0.552   5.508   0.546
10456SOL    HW132267   0.611   5.494   0.466
10456SOL    HW232268   0.460   5.531   0.515
10457SOL     OW32269   4.115   2.923   0.539
10457SOL    HW132270   4.193   2.977   0.507
10457SOL    HW232271   4.127   2.828   0.512
10458SOL     OW32272   6.425   6.543   6.616
10458SOL    HW132273   6.353   6.496   6.565
10458SOL    HW232274   6.510   6.491   6.610
10459SOL     OW32275   4.995   5.179   1.011
10459SOL    HW132276   4.944   5.245   1.067
10459SOL    HW232277   4.960   5.087   1.029
10460SOL     OW32278   0.645   3.813   1.830
10460SOL    HW132279   0.741   3.809   1.801
10460SOL    HW232280   0.587   3.836   1.752
10461SOL     OW32281   6.580   5.141   5.676
10461SOL    HW132282   6.644   5.081   5.723
10461SOL    HW232283   6.622   5.175   5.592
10462SOL     OW32284   5.737   2.225   3.010
10462SOL    HW132285   5.806   2.271   3.066
10462SOL    HW232286   5.704   2.288   2.939
10463SOL     OW32287   4.599   2.330   5.673
10463SOL    HW132288   4.654   2.288   5.601
10463SOL    HW232289   4.552   2.259   5.725
10464SOL     OW32290   5.840   6.196   2.114
10464SOL    HW132291   5.865   6.186   2.017
10464SOL    HW232292   5.746   6.230   2.121
10465SOL     OW32293   4.582   5.682   1.758
10465SOL    HW132294   4.598   5.770   1.802
10465SOL    HW232295   4.496   5.685   1.707
10466SOL     OW32296   4.989   4.495   5.792
10466SOL    HW132297   4.944   4.573   5.749
10466SOL    HW232298   4.929   4.455   5.860
10467SOL     OW32299   1.657   2.342   0.459
10467SOL    HW132300   1.676   2.428   0.506
10467SOL    HW232301   1.656   2.358   0.360
10468SOL     OW32302   4.273   4.899   3.994
10468SOL    HW132303   4.346   4.862   4.053
10468SOL    HW232304   4.250   4.832   3.924
10469SOL     OW32305   4.510   4.157   5.878
10469SOL    HW132306   4.577   4.099   5.832
10469SOL    HW232307   4.541   4.252   5.875
10470SOL     OW32308   2.541   1.429   3.375
10470SOL    HW132309   2.493   1.345   3.351
10470SOL    HW232310   2.611   1.448   3.306
10471SOL     OW32311   2.628   0.639   0.472
10471SOL    HW132312   2.593   0.714   0.528
10471SOL    HW232313   2.584   0.554   0.499
10472SOL     OW32314   2.595   5.592   0.436
10472SOL    HW132315   2.599   5.628   0.529
10472SOL    HW232316   2.684   5.554   0.412
10473SOL     OW32317   5.820   6.673   5.773
10473SOL    HW132318   5.908   6.719   5.787
10473SOL    HW232319   5.834   6.575   5.765
10474SOL     OW32320   4.312   1.170   3.814
10474SOL    HW132321   4.321   1.206   3.721
10474SOL    HW232322   4.394   1.194   3.867
10475SOL     OW32323   3.458   6.833   2.057
10475SOL    HW132324   3.435   6.916   2.106
10475SOL    HW232325   3.375   6.780   2.040
10476SOL     OW32326   5.141   6.387   6.180
10476SOL    HW132327   5.168   6.483   6.171
10476SOL    HW232328   5.108   6.371   6.273
10477SOL     OW32329   6.487   0.833   4.762
10477SOL    HW132330   6.413   0.887   4.723
10477SOL    HW232331   6.498   0.855   4.859
10478SOL     OW32332   6.681   6.332   6.888
10478SOL    HW132333   6.779   6.316   6.904
10478SOL    HW232334   6.666   6.347   6.790
10479SOL     OW32335   6.428   1.183   2.187
10479SOL    HW132336   6.418   1.145   2.095
10479SOL    HW232337   6.508   1.141   2.231
10480SOL     OW32338   1.027   1.097   2.219
10480SOL    HW132339   1.001   1.006   2.251
10480SOL    HW232340   0.955   1.162   2.242
10481SOL     OW32341   1.723   6.369   2.935
10481SOL    HW132342   1.673   6.410   2.859
10481SOL    HW232343   1.759   6.442   2.994
10482SOL     OW32344   6.155   5.301   4.526
10482SOL    HW132345   6.146   5.243   4.445
10482SOL    HW232346   6.152   5.397   4.499
10483SOL     OW32347   5.125   5.671   0.382
10483SOL    HW132348   5.179   5.721   0.314
10483SOL    HW232349   5.142   5.573   0.373
10484SOL     OW32350   4.866   1.713   1.799
10484SOL    HW132351   4.874   1.807   1.833
10484SOL    HW232352   4.910   1.651   1.863
10485SOL     OW32353   2.966   4.371   0.393
10485SOL    HW132354   2.944   4.344   0.487
10485SOL    HW232355   2.887   4.416   0.352
10486SOL     OW32356   7.019   0.881   0.545
10486SOL    HW132357   6.939   0.824   0.565
10486SOL    HW232358   0.072   0.834   0.578
10487SOL     OW32359   4.962   6.900   1.748
10487SOL    HW132360   4.969   6.879   1.846
10487SOL    HW232361   4.898   6.976   1.736
10488SOL     OW32362   3.122   1.654   5.678
10488SOL    HW132363   3.197   1.643   5.743
10488SOL    HW232364   3.138   1.735   5.621
10489SOL     OW32365   0.203   6.856   5.472
10489SOL    HW132366   0.298   6.832   5.491
10489SOL    HW232367   0.193   6.875   5.374
10490SOL     OW32368   6.142   1.113   1.477
10490SOL    HW132369   6.093   1.033   1.444
10490SOL    HW232370   6.227   1.125   1.425
10491SOL     OW32371   1.584   3.669   6.771
10491SOL    HW132372   1.617   3.658   6.865
10491SOL    HW232373   1.590   3.581   6.723
10492SOL     OW32374   6.095   4.417   5.740
10492SOL    HW132375   6.058   4.324   5.732
10492SOL    HW232376   6.188   4.414   5.775
10493SOL     OW32377   3.530   0.662   1.693
10493SOL    HW132378   3.542   0.759   1.715
10493SOL    HW232379   3.610   0.611   1.724
10494SOL     OW32380   5.109   3.817   5.733
10494SOL    HW132381   5.160   3.889   5.780
10494SOL    HW232382   5.020   3.805   5.778
10495SOL     OW32383   2.431   0.114   0.250
10495SOL    HW132384   2.412   0.034   0.193
10495SOL    HW232385   2.478   0.086   0.333
10496SOL     OW32386   0.214   4.482   6.313
10496SOL    HW132387   0.276   4.470   6.391
10496SOL    HW232388   0.167   4.395   6.295
10497SOL     OW32389   2.256   6.918   2.325
10497SOL    HW132390   2.339   6.969   2.348
10497SOL    HW232391   2.237   6.928   2.227
10498SOL     OW32392   3.040   5.927   1.484
10498SOL    HW132393   3.072   5.837   1.514
10498SOL    HW232394   3.018   5.982   1.564
10499SOL     OW32395   3.540   0.107   2.465
10499SOL    HW132396   3.631   0.111   2.507
10499SOL    HW232397   3.528   0.187   2.406
10500SOL     OW32398   0.000   0.871   6.537
10500SOL    HW132399   0.098   0.861   6.557
10500SOL    HW232400   7.012   0.839   6.444
10501SOL     OW32401   2.409   5.658   3.008
10501SOL    HW132402   2.476   5.669   2.935
10501SOL    HW232403   2.321   5.696   2.979
10502SOL     OW32404   2.803   0.105   1.129
10502SOL    HW132405   2.815   0.204   1.133
10502SOL    HW232406   2.828   0.065   1.217
10503SOL     OW32407   3.626   2.814   0.375
10503SOL    HW132408   3.696   2.885   0.366
10503SOL    HW232409   3.668   2.725   0.359
10504SOL     OW32410   1.965   1.548   6.941
10504SOL    HW132411   1.886   1.601   6.910
10504SOL    HW232412   2.022   1.524   6.863
10505SOL     OW32413   5.106   6.179   0.494
10505SOL    HW132414   5.160   6.161   0.576
10505SOL    HW232415   5.010   6.190   0.519
10506SOL     OW32416   6.963   5.440   0.149
10506SOL    HW132417   6.972   5.426   0.051
10506SOL    HW232418   0.011   5.494   0.182
10507SOL     OW32419   2.099   0.035   0.045
10507SOL    HW132420   2.134   0.127   0.029
10507SOL    HW232421   2.174   7.005   0.073
10508SOL     OW32422   6.227   6.692   4.476
10508SOL    HW132423   6.236   6.593   4.486
10508SOL    HW232424   6.145   6.723   4.522
10509SOL     OW32425   0.569   6.436   4.820
10509SOL    HW132426   0.575   6.502   4.745
10509SOL    HW232427   0.658   6.395   4.835
10510SOL     OW32428   4.867   5.941   6.427
10510SOL    HW132429   4.798   5.900   6.366
10510SOL    HW232430   4.834   6.028   6.462
10511SOL     OW32431   4.488   1.523   1.736
10511SOL    HW132432   4.579   1.532   1.696
10511SOL    HW232433   4.422   1.497   1.665
10512SOL     OW32434   3.689   7.020   5.308
10512SOL    HW132435   3.766   0.054   5.313
10512SOL    HW232436   3.675   6.978   5.398
10513SOL     OW32437   6.507   2.886   4.299
10513SOL    HW132438   6.433   2.930   4.248
10513SOL    HW232439   6.570   2.956   4.332
10514SOL     OW32440   0.011   3.641   0.369
10514SOL    HW132441   6.955   3.655   0.318
10514SOL    HW232442   0.086   3.687   0.321
10515SOL     OW32443   0.217   3.278   2.546
10515SOL    HW132444   0.307   3.304   2.580
10515SOL    HW232445   0.179   3.353   2.492
10516SOL     OW32446   3.683   1.016   0.504
10516SOL    HW132447   3.654   0.962   0.425
10516SOL    HW232448   3.732   0.956   0.568
10517SOL     OW32449   0.073   2.662   2.582
10517SOL    HW132450   0.153   2.610   2.612
10517SOL    HW232451   0.103   2.750   2.544
10518SOL     OW32452   1.121   5.217   6.802
10518SOL    HW132453   1.218   5.201   6.818
10518SOL    HW232454   1.109   5.299   6.746
10519SOL     OW32455   2.190   2.989   6.757
10519SOL    HW132456   2.271   2.955   6.806
10519SOL    HW232457   2.119   3.013   6.823
10520SOL     OW32458   1.143   2.677   6.868
10520SOL    HW132459   1.153   2.726   6.781
10520SOL    HW232460   1.064   2.714   6.917
10521SOL     OW32461   5.582   5.966   1.854
10521SOL    HW132462   5.541   6.050   1.890
10521SOL    HW232463   5.588   5.973   1.754
10522SOL     OW32464   6.193   0.417   6.248
10522SOL    HW132465   6.144   0.476   6.311
10522SOL    HW232466   6.285   0.399   6.284
10523SOL     OW32467   0.670   5.055   4.175
10523SOL    HW132468   0.664   4.970   4.122
10523SOL    HW232469   0.766   5.079   4.188
10524SOL     OW32470   1.471   0.611   4.667
10524SOL    HW132471   1.550   0.612   4.728
10524SOL    HW232472   1.392   0.650   4.714
10525SOL     OW32473   3.312   0.093   5.774
10525SOL    HW132474   3.397   0.095   5.826
10525SOL    HW232475   3.261   0.178   5.790
10526SOL     OW32476   0.718   6.906   3.608
10526SOL    HW132477   0.716   6.874   3.513
10526SOL    HW232478   0.722   6.827   3.669
10527SOL     OW32479   6.390   1.995   4.834
10527SOL    HW132480   6.398   2.095   4.831
10527SOL    HW232481   6.481   1.956   4.852
10528SOL     OW32482   1.871   3.586   5.870
10528SOL    HW132483   1.868   3.685   5.882
10528SOL    HW232484   1.955   3.561   5.822
10529SOL     OW32485   2.427   5.607   4.194
10529SOL    HW132486   2.383   5.587   4.281
10529SOL    HW232487   2.388   5.549   4.123
10530SOL     OW32488   2.489   0.388   6.827
10530SOL    HW132489   2.449   0.340   6.749
10530SOL    HW232490   2.585   0.363   6.837
10531SOL     OW32491   1.289   3.110   3.916
10531SOL    HW132492   1.279   3.195   3.969
10531SOL    HW232493   1.203   3.059   3.920
10532SOL     OW32494   1.329   4.723   6.263
10532SOL    HW132495   1.396   4.692   6.195
10532SOL    HW232496   1.374   4.734   6.352
10533SOL     OW32497   2.768   1.342   4.868
10533SOL    HW132498   2.804   1.283   4.796
10533SOL    HW232499   2.669   1.337   4.870
10534SOL     OW32500   5.918   5.727   1.340
10534SOL    HW132501   5.988   5.790   1.375
10534SOL    HW232502   5.849   5.778   1.289
10535SOL     OW32503   0.767   2.070   1.125
10535SOL    HW132504   0.724   2.011   1.056
10535SOL    HW232505   0.699   2.095   1.194
10536SOL     OW32506   3.790   0.759   3.171
10536SOL    HW132507   3.870   0.759   3.231
10536SOL    HW232508   3.730   0.836   3.195
10537SOL     OW32509   3.813   5.524   4.193
10537SOL    HW132510   3.748   5.538   4.119
10537SOL    HW232511   3.888   5.466   4.161
10538SOL     OW32512   5.304   2.673   0.331
10538SOL    HW132513   5.212   2.705   0.353
10538SOL    HW232514   5.303   2.623   0.245
10539SOL     OW32515   0.339   3.761   0.108
10539SOL    HW132516   0.354   3.727   0.201
10539SOL    HW232517   0.253   3.811   0.103
10540SOL     OW32518   1.400   2.927   4.920
10540SOL    HW132519   1.465   2.965   4.986
10540SOL    HW232520   1.422   2.961   4.829
10541SOL     OW32521   4.129   3.871   1.949
10541SOL    HW132522   4.219   3.912   1.936
10541SOL    HW232523   4.139   3.784   1.997
10542SOL     OW32524   6.932   0.951   5.666
10542SOL    HW132525   6.872   0.902   5.730
10542SOL    HW232526   6.979   1.025   5.715
10543SOL     OW32527   0.237   1.048   5.492
10543SOL    HW132528   0.284   1.042   5.580
10543SOL    HW232529   0.200   1.141   5.480
10544SOL     OW32530   1.957   6.655   1.873
10544SOL    HW132531   2.022   6.596   1.825
10544SOL    HW232532   1.968   6.644   1.972
10545SOL     OW32533   6.061   1.254   3.091
10545SOL    HW132534   5.977   1.242   3.143
10545SOL    HW232535   6.077   1.352   3.077
10546SOL     OW32536   1.346   1.019   6.421
10546SOL    HW132537   1.417   0.962   6.463
10546SOL    HW232538   1.287   0.963   6.364
10547SOL     OW32539   5.560   2.414   1.937
10547SOL    HW132540   5.650   2.406   1.979
10547SOL    HW232541   5.491   2.376   1.998
10548SOL     OW32542   5.258   4.525   4.949
10548SOL    HW132543   5.289   4.437   4.913
10548SOL    HW232544   5.168   4.514   4.991
10549SOL     OW32545   6.910   6.951   1.770
10549SOL    HW132546   6.835   7.016   1.781
10549SOL    HW232547   6.876   6.867   1.728
10550SOL     OW32548   4.278   6.181   4.797
10550SOL    HW132549   4.306   6.223   4.710
10550SOL    HW232550   4.179   6.180   4.802
10551SOL     OW32551   2.048   2.759   6.673
10551SOL    HW132552   2.006   2.727   6.759
10551SOL    HW232553   2.100   2.842   6.691
10552SOL     OW32554   3.566   1.642   6.341
10552SOL    HW132555   3.568   1.560   6.398
10552SOL    HW232556   3.601   1.719   6.393
10553SOL     OW32557   0.557   5.358   1.388
10553SOL    HW132558   0.543   5.294   1.464
10553SOL    HW232559   0.648   5.345   1.349
10554SOL     OW32560   5.023   5.258   0.096
10554SOL    HW132561   5.023   5.176   0.039
10554SOL    HW232562   4.956   5.323   0.060
10555SOL     OW32563   1.811   3.334   0.516
10555SOL    HW132564   1.821   3.236   0.498
10555SOL    HW232565   1.887   3.384   0.474
10556SOL     OW32566   2.063   2.270   5.030
10556SOL    HW132567   2.013   2.184   5.040
10556SOL    HW232568   2.140   2.256   4.968
10557SOL     OW32569   2.404   2.255   3.239
10557SOL    HW132570   2.413   2.252   3.339
10557SOL    HW232571   2.311   2.281   3.215
10558SOL     OW32572   4.121   0.662   3.682
10558SOL    HW132573   4.161   0.754   3.688
10558SOL    HW232574   4.024   0.669   3.662
10559SOL     OW32575   4.700   0.443   1.358
10559SOL    HW132576   4.687   0.443   1.457
10559SOL    HW232577   4.626   0.494   1.314
10560SOL     OW32578   3.621   5.844   3.575
10560SOL    HW132579   3.614   5.753   3.616
10560SOL    HW232580   3.714   5.858   3.541
10561SOL     OW32581   3.486   4.947   1.115
10561SOL    HW132582   3.484   4.928   1.213
10561SOL    HW232583   3.580   4.969   1.087
10562SOL     OW32584   4.753   5.920   0.110
10562SOL    HW132585   4.656   5.897   0.109
10562SOL    HW232586   4.770   5.987   0.183
10563SOL     OW32587   0.165   1.456   3.984
10563SOL    HW132588   0.088   1.418   4.035
10563SOL    HW232589   0.229   1.383   3.961
10564SOL     OW32590   5.763   6.533   2.245
10564SOL    HW132591   5.754   6.458   2.312
10564SOL    HW232592   5.840   6.592   2.271
10565SOL     OW32593   6.691   0.504   6.294
10565SOL    HW132594   6.760   0.441   6.330
10565SOL    HW232595   6.693   0.503   6.194
10566SOL     OW32596   4.072   2.693   0.053
10566SOL    HW132597   4.044   2.788   0.063
10566SOL    HW232598   4.136   2.685   7.006
10567SOL     OW32599   2.545   1.876   4.232
10567SOL    HW132600   2.607   1.877   4.153
10567SOL    HW232601   2.598   1.893   4.316
10568SOL     OW32602   6.246   2.013   1.039
10568SOL    HW132603   6.288   2.100   1.013
10568SOL    HW232604   6.147   2.019   1.025
10569SOL     OW32605   5.901   2.364   1.743
10569SOL    HW132606   5.867   2.405   1.659
10569SOL    HW232607   5.996   2.335   1.731
10570SOL     OW32608   1.674   4.925   3.523
10570SOL    HW132609   1.619   4.923   3.607
10570SOL    HW232610   1.616   4.905   3.444
10571SOL     OW32611   0.090   5.211   4.515
10571SOL    HW132612   0.033   5.205   4.597
10571SOL    HW232613   0.095   5.121   4.471
10572SOL     OW32614   0.168   4.339   3.752
10572SOL    HW132615   0.171   4.318   3.654
10572SOL    HW232616   0.198   4.259   3.804
10573SOL     OW32617   4.448   0.523   5.232
10573SOL    HW132618   4.463   0.452   5.300
10573SOL    HW232619   4.431   0.610   5.278
10574SOL     OW32620   1.215   1.600   4.049
10574SOL    HW132621   1.272   1.682   4.060
10574SOL    HW232622   1.235   1.557   3.961
10575SOL     OW32623   0.158   1.427   3.018
10575SOL    HW132624   0.079   1.365   3.024
10575SOL    HW232625   0.225   1.388   2.954
10576SOL     OW32626   0.072   5.377   5.379
10576SOL    HW132627   0.091   5.316   5.455
10576SOL    HW232628   0.045   5.467   5.414
10577SOL     OW32629   1.874   2.716   6.985
10577SOL    HW132630   1.777   2.730   6.963
10577SOL    HW232631   1.882   2.679   0.047
10578SOL     OW32632   5.805   0.749   3.148
10578SOL    HW132633   5.831   0.837   3.188
10578SOL    HW232634   5.825   0.676   3.213
10579SOL     OW32635   4.614   2.075   1.043
10579SOL    HW132636   4.591   1.981   1.020
10579SOL    HW232637   4.709   2.080   1.073
10580SOL     OW32638   6.674   0.356   6.959
10580SOL    HW132639   6.596   0.293   6.957
10580SOL    HW232640   6.748   0.319   6.902
10581SOL     OW32641   7.026   0.235   3.327
10581SOL    HW132642   0.078   0.217   3.272
10581SOL    HW232643   0.019   0.298   3.401
10582SOL     OW32644   4.851   5.162   6.853
10582SOL    HW132645   4.891   5.253   6.845
10582SOL    HW232646   4.914   5.102   6.903
10583SOL     OW32647   3.577   1.456   5.259
10583SOL    HW132648   3.588   1.361   5.229
10583SOL    HW232649   3.667   1.499   5.265
10584SOL     OW32650   6.446   5.901   1.428
10584SOL    HW132651   6.435   5.989   1.473
10584SOL    HW232652   6.407   5.829   1.486
10585SOL     OW32653   2.079   2.887   5.452
10585SOL    HW132654   2.087   2.836   5.538
10585SOL    HW232655   1.983   2.902   5.430
10586SOL     OW32656   0.715   5.116   4.464
10586SOL    HW132657   0.682   5.211   4.460
10586SOL    HW232658   0.696   5.071   4.377
10587SOL     OW32659   5.881   4.022   0.115
10587SOL    HW132660   5.892   4.016   0.214
10587SOL    HW232661   5.936   3.951   0.071
10588SOL     OW32662   0.197   4.042   2.998
10588SOL    HW132663   0.112   4.076   3.037
10588SOL    HW232664   0.191   4.045   2.898
10589SOL     OW32665   6.388   1.320   4.546
10589SOL    HW132666   6.293   1.289   4.550
10589SOL    HW232667   6.448   1.246   4.576
10590SOL     OW32668   1.392   0.270   1.556
10590SOL    HW132669   1.373   0.172   1.554
10590SOL    HW232670   1.479   0.288   1.510
10591SOL     OW32671   1.066   1.651   5.936
10591SOL    HW132672   1.148   1.614   5.892
10591SOL    HW232673   1.030   1.726   5.880
10592SOL     OW32674   6.521   3.247   0.993
10592SOL    HW132675   6.516   3.334   0.943
10592SOL    HW232676   6.439   3.193   0.974
10593SOL     OW32677   2.091   5.050   0.570
10593SOL    HW132678   2.139   5.119   0.623
10593SOL    HW232679   2.011   5.019   0.622
10594SOL     OW32680   5.179   0.549   2.231
10594SOL    HW132681   5.249   0.599   2.282
10594SOL    HW232682   5.091   0.559   2.277
10595SOL     OW32683   3.727   6.788   5.159
10595SOL    HW132684   3.743   6.723   5.234
10595SOL    HW232685   3.720   6.880   5.195
10596SOL     OW32686   4.586   0.099   0.131
10596SOL    HW132687   4.600   0.026   0.198
10596SOL    HW232688   4.658   0.168   0.142
10597SOL     OW32689   3.397   1.253   4.907
10597SOL    HW132690   3.425   1.334   4.855
10597SOL    HW232691   3.457   1.241   4.985
10598SOL     OW32692   2.753   2.308   6.847
10598SOL    HW132693   2.720   2.263   6.763
10598SOL    HW232694   2.805   2.389   6.822
10599SOL     OW32695   4.660   2.833   6.344
10599SOL    HW132696   4.582   2.833   6.406
10599SOL    HW232697   4.637   2.783   6.261
10600SOL     OW32698   1.840   2.585   0.533
10600SOL    HW132699   1.808   2.576   0.627
10600SOL    HW232700   1.894   2.504   0.508
10601SOL     OW32701   1.593   3.980   6.255
10601SOL    HW132702   1.662   4.050   6.273
10601SOL    HW232703   1.513   3.996   6.312
10602SOL     OW32704   4.727   2.151   3.238
10602SOL    HW132705   4.691   2.184   3.151
10602SOL    HW232706   4.827   2.157   3.236
10603SOL     OW32707   2.138   5.430   3.749
10603SOL    HW132708   2.150   5.487   3.668
10603SOL    HW232709   2.048   5.447   3.788
10604SOL     OW32710   5.965   3.744   5.652
10604SOL    HW132711   5.964   3.744   5.752
10604SOL    HW232712   5.895   3.808   5.619
10605SOL     OW32713   1.594   4.738   0.805
10605SOL    HW132714   1.586   4.823   0.856
10605SOL    HW232715   1.553   4.749   0.714
10606SOL     OW32716   6.704   0.042   1.928
10606SOL    HW132717   6.663   0.098   2.000
10606SOL    HW232718   6.685   6.975   1.947
10607SOL     OW32719   4.060   4.741   6.253
10607SOL    HW132720   4.073   4.733   6.154
10607SOL    HW232721   3.964   4.763   6.272
10608SOL     OW32722   4.912   2.003   6.051
10608SOL    HW132723   4.856   1.921   6.062
10608SOL    HW232724   4.917   2.027   5.954
10609SOL     OW32725   3.124   6.789   1.925
10609SOL    HW132726   3.104   6.706   1.872
10609SOL    HW232727   3.113   6.769   2.023
10610SOL     OW32728   1.296   3.235   6.144
10610SOL    HW132729   1.233   3.226   6.067
10610SOL    HW232730   1.319   3.144   6.179
10611SOL     OW32731   4.418   3.830   5.681
10611SOL    HW132732   4.517   3.820   5.687
10611SOL    HW232733   4.391   3.842   5.586
10612SOL     OW32734   2.847   0.374   5.729
10612SOL    HW132735   2.873   0.393   5.634
10612SOL    HW232736   2.926   0.338   5.779
10613SOL     OW32737   6.654   0.244   5.608
10613SOL    HW132738   6.725   0.313   5.593
10613SOL    HW232739   6.654   0.179   5.532
10614SOL     OW32740   6.781   2.645   4.427
10614SOL    HW132741   6.684   2.660   4.442
10614SOL    HW232742   6.796   2.551   4.395
10615SOL     OW32743   3.171   6.015   5.788
10615SOL    HW132744   3.127   6.104   5.773
10615SOL    HW232745   3.249   6.006   5.726
10616SOL     OW32746   2.705   6.362   1.250
10616SOL    HW132747   2.680   6.275   1.295
10616SOL    HW232748   2.624   6.420   1.244
10617SOL     OW32749   2.168   2.682   0.587
10617SOL    HW132750   2.073   2.653   0.602
10617SOL    HW232751   2.228   2.603   0.597
10618SOL     OW32752   6.545   3.814   6.511
10618SOL    HW132753   6.582   3.736   6.460
10618SOL    HW232754   6.445   3.816   6.500
10619SOL     OW32755   6.636   3.699   2.362
10619SOL    HW132756   6.658   3.718   2.267
10619SOL    HW232757   6.698   3.750   2.421
10620SOL     OW32758   1.405   5.266   5.800
10620SOL    HW132759   1.434   5.179   5.760
10620SOL    HW232760   1.381   5.330   5.726
10621SOL     OW32761   0.985   6.128   1.658
10621SOL    HW132762   0.903   6.159   1.610
10621SOL    HW232763   1.064   6.181   1.626
10622SOL     OW32764   4.748   0.838   1.123
10622SOL    HW132765   4.817   0.793   1.180
10622SOL    HW232766   4.724   0.779   1.046
10623SOL     OW32767   0.368   4.652   4.445
10623SOL    HW132768   0.298   4.589   4.410
10623SOL    HW232769   0.332   4.701   4.524
10624SOL     OW32770   0.662   1.899   4.629
10624SOL    HW132771   0.667   1.846   4.545
10624SOL    HW232772   0.736   1.870   4.691
10625SOL     OW32773   0.559   4.405   6.902
10625SOL    HW132774   0.615   4.367   6.828
10625SOL    HW232775   0.463   4.402   6.875
10626SOL     OW32776   2.348   3.000   1.104
10626SOL    HW132777   2.274   2.955   1.053
10626SOL    HW232778   2.381   2.938   1.175
10627SOL     OW32779   5.683   6.064   1.212
10627SOL    HW132780   5.778   6.093   1.202
10627SOL    HW232781   5.674   5.968   1.188
10628SOL     OW32782   5.305   5.861   6.728
10628SOL    HW132783   5.271   5.838   6.637
10628SOL    HW232784   5.258   5.806   6.797
10629SOL     OW32785   2.750   4.743   4.732
10629SOL    HW132786   2.694   4.667   4.701
10629SOL    HW232787   2.805   4.714   4.810
10630SOL     OW32788   6.560   1.466   4.145
10630SOL    HW132789   6.658   1.482   4.132
10630SOL    HW232790   6.523   1.536   4.205
10631SOL     OW32791   2.258   5.188   5.182
10631SOL    HW132792   2.265   5.171   5.084
10631SOL    HW232793   2.163   5.175   5.212
10632SOL     OW32794   5.468   1.496   3.661
10632SOL    HW132795   5.507   1.568   3.604
10632SOL    HW232796   5.472   1.524   3.757
10633SOL     OW32797   2.356   3.670   1.320
10633SOL    HW132798   2.283   3.632   1.377
10633SOL    HW232799   2.406   3.739   1.372
10634SOL     OW32800   3.005   5.394   1.402
10634SOL    HW132801   3.014   5.344   1.487
10634SOL    HW232802   2.908   5.411   1.383
10635SOL     OW32803   3.559   2.009   0.788
10635SOL    HW132804   3.600   1.957   0.862
10635SOL    HW232805   3.461   1.988   0.782
10636SOL     OW32806   0.959   1.434   1.456
10636SOL    HW132807   1.044   1.421   1.507
10636SOL    HW232808   0.965   1.518   1.403
10637SOL     OW32809   2.979   4.818   5.548
10637SOL    HW132810   2.900   4.879   5.540
10637SOL    HW232811   2.998   4.776   5.459
10638SOL     OW32812   0.221   5.450   3.088
10638SOL    HW132813   0.164   5.483   3.164
10638SOL    HW232814   0.188   5.490   3.002
10639SOL     OW32815   0.745   3.277   2.550
10639SOL    HW132816   0.799   3.358   2.573
10639SOL    HW232817   0.656   3.282   2.594
10640SOL     OW32818   3.860   0.161   5.708
10640SOL    HW132819   3.885   0.241   5.762
10640SOL    HW232820   3.807   0.189   5.628
10641SOL     OW32821   3.831   2.302   0.106
10641SOL    HW132822   3.846   2.394   0.071
10641SOL    HW232823   3.750   2.302   0.166
10642SOL     OW32824   6.504   2.579   1.548
10642SOL    HW132825   6.601   2.595   1.531
10642SOL    HW232826   6.453   2.663   1.529
10643SOL     OW32827   2.189   4.583   5.181
10643SOL    HW132828   2.280   4.554   5.149
10643SOL    HW232829   2.174   4.678   5.157
10644SOL     OW32830   5.918   2.332   3.165
10644SOL    HW132831   5.998   2.273   3.175
10644SOL    HW232832   5.947   2.423   3.136
10645SOL     OW32833   0.641   1.616   4.897
10645SOL    HW132834   0.606   1.702   4.933
10645SOL    HW232835   0.615   1.541   4.958
10646SOL     OW32836   0.337   1.650   6.020
10646SOL    HW132837   0.266   1.612   6.079
10646SOL    HW232838   0.418   1.671   6.075
10647SOL     OW32839   3.637   5.296   0.035
10647SOL    HW132840   3.641   5.299   0.135
10647SOL    HW232841   3.545   5.268   0.007
10648SOL     OW32842   4.893   4.347   6.332
10648SOL    HW132843   4.815   4.372   6.389
10648SOL    HW232844   4.875   4.258   6.289
10649SOL     OW32845   0.652   4.428   3.219
10649SOL    HW132846   0.726   4.362   3.231
10649SOL    HW232847   0.594   4.401   3.142
10650SOL     OW32848   1.217   6.705   2.813
10650SOL    HW132849   1.288   6.716   2.744
10650SOL    HW232850   1.234   6.622   2.866
10651SOL     OW32851   4.622   6.917   5.894
10651SOL    HW132852   4.693   6.947   5.958
10651SOL    HW232853   4.637   6.821   5.870
10652SOL     OW32854   3.671   0.258   6.353
10652SOL    HW132855   3.627   0.332   6.302
10652SOL    HW232856   3.678   0.177   6.294
10653SOL     OW32857   5.652   4.021   4.079
10653SOL    HW132858   5.710   3.947   4.113
10653SOL    HW232859   5.636   4.007   3.981
10654SOL     OW32860   4.414   1.228   1.342
10654SOL    HW132861   4.408   1.232   1.242
10654SOL    HW232862   4.370   1.308   1.382
10655SOL     OW32863   2.992   5.255   1.622
10655SOL    HW132864   2.901   5.222   1.596
10655SOL    HW232865   3.009   5.234   1.718
10656SOL     OW32866   6.193   2.524   0.828
10656SOL    HW132867   6.168   2.617   0.801
10656SOL    HW232868   6.265   2.528   0.897
10657SOL     OW32869   6.645   7.018   6.758
10657SOL    HW132870   6.583   6.947   6.726
10657SOL    HW232871   6.718   6.977   6.812
10658SOL     OW32872   6.361   3.644   4.410
10658SOL    HW132873   6.354   3.684   4.501
10658SOL    HW232874   6.355   3.717   4.341
10659SOL     OW32875   6.751   6.142   0.678
10659SOL    HW132876   6.829   6.081   0.689
10659SOL    HW232877   6.720   6.139   0.583
10660SOL     OW32878   5.243   4.243   6.386
10660SOL    HW132879   5.173   4.234   6.315
10660SOL    HW232880   5.323   4.290   6.348
10661SOL     OW32881   0.273   6.383   2.538
10661SOL    HW132882   0.203   6.453   2.523
10661SOL    HW232883   0.251   6.332   2.621
10662SOL     OW32884   5.637   0.524   1.856
10662SOL    HW132885   5.585   0.470   1.922
10662SOL    HW232886   5.735   0.508   1.870
10663SOL     OW32887   0.361   0.114   1.895
10663SOL    HW132888   0.359   0.189   1.960
10663SOL    HW232889   0.278   0.117   1.838
10664SOL     OW32890   2.114   4.591   5.465
10664SOL    HW132891   2.182   4.632   5.404
10664SOL    HW232892   2.025   4.589   5.419
10665SOL     OW32893   0.403   0.807   0.832
10665SOL    HW132894   0.500   0.789   0.852
10665SOL    HW232895   0.393   0.899   0.796
10666SOL     OW32896   3.346   4.933   0.459
10666SOL    HW132897   3.344   4.911   0.362
10666SOL    HW232898   3.252   4.948   0.492
10667SOL     OW32899   3.835   2.748   5.513
10667SOL    HW132900   3.789   2.799   5.441
10667SOL    HW232901   3.871   2.812   5.581
10668SOL     OW32902   1.160   1.763   5.428
10668SOL    HW132903   1.078   1.804   5.388
10668SOL    HW232904   1.241   1.808   5.390
10669SOL     OW32905   6.153   6.693   0.250
10669SOL    HW132906   6.159   6.593   0.261
10669SOL    HW232907   6.223   6.736   0.306
10670SOL     OW32908   4.896   3.631   5.331
10670SOL    HW132909   4.845   3.591   5.255
10670SOL    HW232910   4.963   3.696   5.296
10671SOL     OW32911   2.672   2.035   2.445
10671SOL    HW132912   2.686   2.042   2.544
10671SOL    HW232913   2.715   2.112   2.400
10672SOL     OW32914   6.754   2.369   0.495
10672SOL    HW132915   6.706   2.326   0.572
10672SOL    HW232916   6.752   2.468   0.507
10673SOL     OW32917   1.638   2.405   0.211
10673SOL    HW132918   1.569   2.474   0.189
10673SOL    HW232919   1.698   2.392   0.132
10674SOL     OW32920   3.551   3.467   0.946
10674SOL    HW132921   3.494   3.548   0.943
10674SOL    HW232922   3.502   3.390   0.905
10675SOL     OW32923   1.975   0.376   6.076
10675SOL    HW132924   2.068   0.409   6.054
10675SOL    HW232925   1.947   0.415   6.164
10676SOL     OW32926   6.313   6.491   6.228
10676SOL    HW132927   6.279   6.400   6.251
10676SOL    HW232928   6.405   6.503   6.266
10677SOL     OW32929   0.612   0.600   2.159
10677SOL    HW132930   0.688   0.648   2.203
10677SOL    HW232931   0.640   0.572   2.067
10678SOL     OW32932   3.673   5.191   2.985
10678SOL    HW132933   3.659   5.187   3.084
10678SOL    HW232934   3.625   5.115   2.941
10679SOL     OW32935   5.131   4.593   6.068
10679SOL    HW132936   5.117   4.652   5.988
10679SOL    HW232937   5.169   4.506   6.039
10680SOL     OW32938   1.969   2.084   3.780
10680SOL    HW132939   1.963   2.159   3.845
10680SOL    HW232940   2.041   2.021   3.809
10681SOL     OW32941   7.026   4.007   7.022
10681SOL    HW132942   0.050   3.971   6.946
10681SOL    HW232943   6.929   3.989   7.006
10682SOL     OW32944   2.061   2.227   2.853
10682SOL    HW132945   2.137   2.291   2.864
10682SOL    HW232946   1.999   2.236   2.931
10683SOL     OW32947   3.580   1.744   4.148
10683SOL    HW132948   3.558   1.802   4.070
10683SOL    HW232949   3.538   1.781   4.231
10684SOL     OW32950   4.401   3.807   0.515
10684SOL    HW132951   4.403   3.898   0.557
10684SOL    HW232952   4.491   3.765   0.522
10685SOL     OW32953   6.427   4.472   2.071
10685SOL    HW132954   6.494   4.398   2.064
10685SOL    HW232955   6.462   4.554   2.025
10686SOL     OW32956   3.664   5.249   6.681
10686SOL    HW132957   3.607   5.173   6.652
10686SOL    HW232958   3.672   5.315   6.607
10687SOL     OW32959   6.924   5.053   1.579
10687SOL    HW132960   6.866   5.042   1.660
10687SOL    HW232961   7.013   5.088   1.608
10688SOL     OW32962   6.688   4.859   2.776
10688SOL    HW132963   6.604   4.811   2.799
10688SOL    HW232964   6.694   4.944   2.829
10689SOL     OW32965   0.404   0.135   3.649
10689SOL    HW132966   0.344   0.079   3.592
10689SOL    HW232967   0.371   0.229   3.649
10690SOL     OW32968   6.024   5.212   3.811
10690SOL    HW132969   6.003   5.242   3.718
10690SOL    HW232970   5.944   5.225   3.870
10691SOL     OW32971   6.692   1.271   2.396
10691SOL    HW132972   6.776   1.270   2.451
10691SOL    HW232973   6.627   1.335   2.437
10692SOL     OW32974   3.165   5.329   3.375
10692SOL    HW132975   3.236   5.329   3.305
10692SOL    HW232976   3.085   5.279   3.342
10693SOL     OW32977   1.680   0.775   2.120
10693SOL    HW132978   1.760   0.739   2.073
10693SOL    HW232979   1.666   0.871   2.093
10694SOL     OW32980   3.813   6.185   1.214
10694SOL    HW132981   3.713   6.194   1.214
10694SOL    HW232982   3.838   6.089   1.217
10695SOL     OW32983   6.296   1.976   2.835
10695SOL    HW132984   6.339   2.067   2.840
10695SOL    HW232985   6.340   1.915   2.901
10696SOL     OW32986   6.785   4.859   2.087
10696SOL    HW132987   6.822   4.769   2.112
10696SOL    HW232988   6.852   4.930   2.110
10697SOL     OW32989   6.776   6.349   4.384
10697SOL    HW132990   6.796   6.264   4.432
10697SOL    HW232991   6.843   6.362   4.311
10698SOL     OW32992   3.386   6.603   4.218
10698SOL    HW132993   3.431   6.631   4.302
10698SOL    HW232994   3.374   6.503   4.217
10699SOL     OW32995   4.428   1.633   2.476
10699SOL    HW132996   4.427   1.647   2.377
10699SOL    HW232997   4.334   1.625   2.509
10700SOL     OW32998   1.047   0.192   0.478
10700SOL    HW132999   1.143   0.195   0.502
10700SOL    HW233000   0.999   0.270   0.518
10701SOL     OW33001   3.988   5.885   0.010
10701SOL    HW133002   3.907   5.826   0.007
10701SOL    HW233003   3.963   5.978   7.015
10702SOL     OW33004   6.203   2.753   2.177
10702SOL    HW133005   6.121   2.801   2.146
10702SOL    HW233006   6.229   2.787   2.268
10703SOL     OW33007   3.883   3.079   3.952
10703SOL    HW133008   3.882   3.016   4.030
10703SOL    HW233009   3.857   3.170   3.982
10704SOL     OW33010   5.058   5.869   1.707
10704SOL    HW133011   4.991   5.943   1.695
10704SOL    HW233012   5.133   5.902   1.763
10705SOL     OW33013   0.311   3.646   1.342
10705SOL    HW133014   0.333   3.634   1.438
10705SOL    HW233015   0.358   3.727   1.306
10706SOL     OW33016   4.460   6.620   2.540
10706SOL    HW133017   4.447   6.703   2.595
10706SOL    HW233018   4.379   6.562   2.548
10707SOL     OW33019   0.702   0.360   4.981
10707SOL    HW133020   0.618   0.344   4.929
10707SOL    HW233021   0.682   0.423   5.056
10708SOL     OW33022   5.057   0.918   2.024
10708SOL    HW133023   4.958   0.909   2.029
10708SOL    HW233024   5.084   0.940   1.930
10709SOL     OW33025   6.520   1.234   5.205
10709SOL    HW133026   6.556   1.156   5.154
10709SOL    HW233027   6.420   1.231   5.205
10710SOL     OW33028   0.961   6.635   4.769
10710SOL    HW133029   0.941   6.702   4.841
10710SOL    HW233030   0.971   6.544   4.810
10711SOL     OW33031   2.018   6.753   3.453
10711SOL    HW133032   2.115   6.756   3.427
10711SOL    HW233033   1.993   6.660   3.479
10712SOL     OW33034   3.659   1.006   3.173
10712SOL    HW133035   3.698   1.098   3.171
10712SOL    HW233036   3.577   1.004   3.115
10713SOL     OW33037   1.818   4.606   1.815
10713SOL    HW133038   1.896   4.568   1.765
10713SOL    HW233039   1.799   4.698   1.782
10714SOL     OW33040   6.827   3.305   5.235
10714SOL    HW133041   6.767   3.348   5.168
10714SOL    HW233042   6.800   3.335   5.327
10715SOL     OW33043   4.803   0.752   3.127
10715SOL    HW133044   4.803   0.656   3.156
10715SOL    HW233045   4.895   0.790   3.138
10716SOL     OW33046   0.376   2.510   3.326
10716SOL    HW133047   0.352   2.574   3.253
10716SOL    HW233048   0.417   2.428   3.286
10717SOL     OW33049   0.339   1.678   0.799
10717SOL    HW133050   0.329   1.680   0.899
10717SOL    HW233051   0.371   1.588   0.771
10718SOL     OW33052   6.266   4.984   0.253
10718SOL    HW133053   6.194   5.042   0.215
10718SOL    HW233054   6.299   5.023   0.339
10719SOL     OW33055   4.332   6.101   1.683
10719SOL    HW133056   4.318   6.200   1.692
10719SOL    HW233057   4.336   6.060   1.774
10720SOL     OW33058   6.639   3.592   6.364
10720SOL    HW133059   6.599   3.516   6.313
10720SOL    HW233060   6.731   3.569   6.394
10721SOL     OW33061   6.748   2.346   4.393
10721SOL    HW133062   6.666   2.369   4.340
10721SOL    HW233063   6.758   2.246   4.395
10722SOL     OW33064   6.958   3.424   0.134
10722SOL    HW133065   6.918   3.514   0.154
10722SOL    HW233066   0.021   3.420   0.171
10723SOL     OW33067   5.496   3.786   6.864
10723SOL    HW133068   5.490   3.754   6.959
10723SOL    HW233069   5.441   3.727   6.805
10724SOL     OW33070   3.832   6.707   5.927
10724SOL    HW133071   3.920   6.729   5.969
10724SOL    HW233072   3.818   6.608   5.931
10725SOL     OW33073   0.243   5.454   4.300
10725SOL    HW133074   0.161   5.507   4.322
10725SOL    HW233075   0.237   5.363   4.342
10726SOL     OW33076   6.248   6.903   5.194
10726SOL    HW133077   6.226   6.807   5.209
10726SOL    HW233078   6.184   6.942   5.128
10727SOL     OW33079   1.937   5.508   5.496
10727SOL    HW133080   1.885   5.578   5.545
10727SOL    HW233081   2.022   5.547   5.462
10728SOL     OW33082   5.990   6.691   2.361
10728SOL    HW133083   6.020   6.778   2.397
10728SOL    HW233084   6.045   6.667   2.281
10729SOL     OW33085   6.472   1.549   2.496
10729SOL    HW133086   6.563   1.579   2.524
10729SOL    HW233087   6.472   1.530   2.398
10730SOL     OW33088   2.672   6.588   1.939
10730SOL    HW133089   2.771   6.579   1.929
10730SOL    HW233090   2.628   6.570   1.852
10731SOL     OW33091   2.398   5.426   0.397
10731SOL    HW133092   2.435   5.337   0.371
10731SOL    HW233093   2.474   5.489   0.417
10732SOL     OW33094   6.704   0.300   2.960
10732SOL    HW133095   6.668   0.226   2.904
10732SOL    HW233096   6.732   0.264   3.049
10733SOL     OW33097   5.805   2.220   0.205
10733SOL    HW133098   5.825   2.166   0.287
10733SOL    HW233099   5.879   2.285   0.190
10734SOL     OW33100   0.887   0.501   6.332
10734SOL    HW133101   0.966   0.544   6.375
10734SOL    HW233102   0.917   0.425   6.274
10735SOL     OW33103   1.090   4.751   2.437
10735SOL    HW133104   1.029   4.825   2.465
10735SOL    HW233105   1.040   4.686   2.379
10736SOL     OW33106   0.596   1.042   3.138
10736SOL    HW133107   0.503   1.056   3.104
10736SOL    HW233108   0.622   1.117   3.198
10737SOL     OW33109   0.885   1.734   0.585
10737SOL    HW133110   0.852   1.776   0.669
10737SOL    HW233111   0.845   1.781   0.506
10738SOL     OW33112   2.485   0.176   2.722
10738SOL    HW133113   2.482   0.089   2.672
10738SOL    HW233114   2.577   0.189   2.759
10739SOL     OW33115   6.987   1.716   2.513
10739SOL    HW133116   7.019   1.807   2.539
10739SOL    HW233117   0.035   1.659   2.489
10740SOL     OW33118   1.610   5.773   6.078
10740SOL    HW133119   1.675   5.838   6.038
10740SOL    HW233120   1.624   5.683   6.038
10741SOL     OW33121   1.916   1.981   3.508
10741SOL    HW133122   1.994   1.921   3.527
10741SOL    HW233123   1.914   2.055   3.574
10742SOL     OW33124   5.842   7.007   2.283
10742SOL    HW133125   5.786   6.974   2.207
10742SOL    HW233126   5.784   0.028   2.348
10743SOL     OW33127   2.920   1.526   4.499
10743SOL    HW133128   2.954   1.497   4.589
10743SOL    HW233129   2.946   1.621   4.483
10744SOL     OW33130   3.169   1.207   2.134
10744SOL    HW133131   3.250   1.168   2.176
10744SOL    HW233132   3.104   1.233   2.205
10745SOL     OW33133   2.098   4.764   0.633
10745SOL    HW133134   2.154   4.749   0.714
10745SOL    HW233135   2.151   4.810   0.563
10746SOL     OW33136   1.944   5.711   1.419
10746SOL    HW133137   1.935   5.611   1.419
10746SOL    HW233138   1.931   5.746   1.511
10747SOL     OW33139   5.575   1.483   3.204
10747SOL    HW133140   5.611   1.487   3.297
10747SOL    HW233141   5.651   1.478   3.139
10748SOL     OW33142   5.419   5.748   1.302
10748SOL    HW133143   5.370   5.666   1.271
10748SOL    HW233144   5.503   5.759   1.249
10749SOL     OW33145   0.004   5.031   2.583
10749SOL    HW133146   6.994   5.091   2.651
10749SOL    HW233147   6.969   4.958   2.560
10750SOL     OW33148   4.765   4.061   4.645
10750SOL    HW133149   4.783   3.998   4.720
10750SOL    HW233150   4.683   4.032   4.596
10751SOL     OW33151   1.167   3.077   4.984
10751SOL    HW133152   1.246   3.019   4.965
10751SOL    HW233153   1.160   3.095   5.082
10752SOL     OW33154   5.940   4.657   6.683
10752SOL    HW133155   5.969   4.580   6.626
10752SOL    HW233156   6.021   4.699   6.724
10753SOL     OW33157   5.439   0.433   4.010
10753SOL    HW133158   5.383   0.350   4.015
10753SOL    HW233159   5.524   0.413   3.960
10754SOL     OW33160   1.748   2.525   2.390
10754SOL    HW133161   1.772   2.479   2.305
10754SOL    HW233162   1.649   2.532   2.398
10755SOL     OW33163   6.914   2.146   0.516
10755SOL    HW133164   6.983   2.118   0.450
10755SOL    HW233165   6.864   2.225   0.481
10756SOL     OW33166   6.172   2.766   0.260
10756SOL    HW133167   6.198   2.843   0.318
10756SOL    HW233168   6.140   2.690   0.317
10757SOL     OW33169   0.106   4.007   0.761
10757SOL    HW133170   0.126   4.036   0.668
10757SOL    HW233171   0.059   3.919   0.760
10758SOL     OW33172   0.450   5.434   5.643
10758SOL    HW133173   0.432   5.363   5.575
10758SOL    HW233174   0.499   5.509   5.600
10759SOL     OW33175   1.700   3.254   6.404
10759SOL    HW133176   1.672   3.207   6.320
10759SOL    HW233177   1.700   3.353   6.388
10760SOL     OW33178   0.205   5.824   1.225
10760SOL    HW133179   0.214   5.751   1.157
10760SOL    HW233180   0.293   5.870   1.236
10761SOL     OW33181   1.052   2.681   6.308
10761SOL    HW133182   1.058   2.581   6.317
10761SOL    HW233183   1.004   2.718   6.388
10762SOL     OW33184   4.890   0.994   5.172
10762SOL    HW133185   4.820   1.040   5.226
10762SOL    HW233186   4.846   0.937   5.102
10763SOL     OW33187   4.450   0.483   1.790
10763SOL    HW133188   4.360   0.525   1.783
10763SOL    HW233189   4.484   0.493   1.884
10764SOL     OW33190   5.336   1.518   6.206
10764SOL    HW133191   5.397   1.593   6.178
10764SOL    HW233192   5.385   1.432   6.202
10765SOL     OW33193   5.848   0.780   1.966
10765SOL    HW133194   5.905   0.763   2.047
10765SOL    HW233195   5.906   0.780   1.884
10766SOL     OW33196   2.075   3.554   0.065
10766SOL    HW133197   2.172   3.576   0.067
10766SOL    HW233198   2.058   3.484   7.026
10767SOL     OW33199   1.729   6.634   0.656
10767SOL    HW133200   1.802   6.691   0.619
10767SOL    HW233201   1.722   6.648   0.755
10768SOL     OW33202   5.278   5.600   0.085
10768SOL    HW133203   5.279   5.501   0.103
10768SOL    HW233204   5.366   5.628   0.047
10769SOL     OW33205   2.588   4.540   5.314
10769SOL    HW133206   2.668   4.491   5.279
10769SOL    HW233207   2.558   4.498   5.399
10770SOL     OW33208   5.636   0.174   4.638
10770SOL    HW133209   5.598   0.082   4.633
10770SOL    HW233210   5.593   0.224   4.714
10771SOL     OW33211   4.313   0.090   5.034
10771SOL    HW133212   4.298   0.103   5.132
10771SOL    HW233213   4.355   0.172   4.996
10772SOL     OW33214   6.902   6.578   3.663
10772SOL    HW133215   6.814   6.530   3.673
10772SOL    HW233216   6.949   6.579   3.751
10773SOL     OW33217   6.886   4.712   7.011
10773SOL    HW133218   6.877   4.773   6.933
10773SOL    HW233219   6.875   4.765   0.066
10774SOL     OW33220   1.465   2.481   1.100
10774SOL    HW133221   1.380   2.499   1.050
10774SOL    HW233222   1.463   2.388   1.137
10775SOL     OW33223   2.475   4.378   0.959
10775SOL    HW133224   2.474   4.411   1.054
10775SOL    HW233225   2.422   4.293   0.953
10776SOL     OW33226   7.019   6.592   2.007
10776SOL    HW133227   6.928   6.593   1.967
10776SOL    HW233228   0.041   6.672   1.975
10777SOL     OW33229   3.956   0.348   3.345
10777SOL    HW133230   3.953   0.370   3.247
10777SOL    HW233231   3.880   0.393   3.392
10778SOL     OW33232   6.904   0.118   4.879
10778SOL    HW133233   6.884   0.099   4.783
10778SOL    HW233234   6.820   0.142   4.927
10779SOL     OW33235   7.026   4.756   2.381
10779SOL    HW133236   0.046   4.697   2.444
10779SOL    HW233237   6.946   4.795   2.427
10780SOL     OW33238   0.419   5.667   3.987
10780SOL    HW133239   0.478   5.590   4.011
10780SOL    HW233240   0.335   5.633   3.946
10781SOL     OW33241   4.864   1.530   4.311
10781SOL    HW133242   4.802   1.607   4.326
10781SOL    HW233243   4.814   1.455   4.268
10782SOL     OW33244   6.197   2.472   3.682
10782SOL    HW133245   6.126   2.542   3.676
10782SOL    HW233246   6.247   2.468   3.595
10783SOL     OW33247   2.134   3.150   2.526
10783SOL    HW133248   2.197   3.083   2.486
10783SOL    HW233249   2.119   3.224   2.460
10784SOL     OW33250   2.887   6.681   1.645
10784SOL    HW133251   2.955   6.632   1.700
10784SOL    HW233252   2.853   6.622   1.573
10785SOL     OW33253   1.478   4.623   1.496
10785SOL    HW133254   1.577   4.634   1.506
10785SOL    HW233255   1.459   4.539   1.444
10786SOL     OW33256   5.152   2.233   2.046
10786SOL    HW133257   5.128   2.147   2.002
10786SOL    HW233258   5.099   2.244   2.130
10787SOL     OW33259   3.663   1.411   4.228
10787SOL    HW133260   3.577   1.423   4.179
10787SOL    HW233261   3.649   1.427   4.326
10788SOL     OW33262   1.916   4.246   0.602
10788SOL    HW133263   1.953   4.337   0.621
10788SOL    HW233264   1.817   4.246   0.616
10789SOL     OW33265   5.970   0.508   0.439
10789SOL    HW133266   6.034   0.545   0.372
10789SOL    HW233267   5.948   0.414   0.415
10790SOL     OW33268   0.394   0.699   5.682
10790SOL    HW133269   0.299   0.729   5.668
10790SOL    HW233270   0.456   0.776   5.669
10791SOL     OW33271   1.665   1.459   1.789
10791SOL    HW133272   1.676   1.552   1.824
10791SOL    HW233273   1.568   1.438   1.777
10792SOL     OW33274   3.188   3.071   1.725
10792SOL    HW133275   3.192   3.132   1.805
10792SOL    HW233276   3.122   2.998   1.743
10793SOL     OW33277   5.507   2.136   4.217
10793SOL    HW133278   5.533   2.222   4.173
10793SOL    HW233279   5.430   2.095   4.169
10794SOL     OW33280   3.638   4.098   2.039
10794SOL    HW133281   3.692   4.128   2.117
10794SOL    HW233282   3.690   4.033   1.985
10795SOL     OW33283   6.139   3.755   2.455
10795SOL    HW133284   6.145   3.802   2.367
10795SOL    HW233285   6.043   3.751   2.484
10796SOL     OW33286   3.227   0.049   6.603
10796SOL    HW133287   3.203   0.050   6.700
10796SOL    HW233288   3.301   7.014   6.587
10797SOL     OW33289   3.907   2.640   0.476
10797SOL    HW133290   3.971   2.689   0.417
10797SOL    HW233291   3.837   2.596   0.420
10798SOL     OW33292   2.166   0.490   0.057
10798SOL    HW133293   2.241   0.424   0.049
10798SOL    HW233294   2.080   0.444   0.036
10799SOL     OW33295   3.523   1.866   2.751
10799SOL    HW133296   3.471   1.919   2.684
10799SOL    HW233297   3.610   1.838   2.712
10800SOL     OW33298   1.934   6.102   0.788
10800SOL    HW133299   2.023   6.145   0.772
10800SOL    HW233300   1.907   6.115   0.883
10801SOL     OW33301   1.795   0.004   4.161
10801SOL    HW133302   1.743   7.018   4.077
10801SOL    HW233303   1.747   0.071   4.218
10802SOL     OW33304   2.307   2.750   4.471
10802SOL    HW133305   2.290   2.849   4.471
10802SOL    HW233306   2.239   2.704   4.529
10803SOL     OW33307   5.101   4.824   5.551
10803SOL    HW133308   5.137   4.891   5.616
10803SOL    HW233309   5.166   4.749   5.541
10804SOL     OW33310   6.999   4.360   0.795
10804SOL    HW133311   7.001   4.457   0.820
10804SOL    HW233312   0.039   4.311   0.846
10805SOL     OW33313   3.584   0.491   0.031
10805SOL    HW133314   3.657   0.455   7.002
10805SOL    HW233315   3.536   0.564   7.014
10806SOL     OW33316   5.537   4.422   0.060
10806SOL    HW133317   5.503   4.400   0.151
10806SOL    HW233318   5.585   4.342   0.022
10807SOL     OW33319   3.408   6.817   3.556
10807SOL    HW133320   3.376   6.725   3.581
10807SOL    HW233321   3.506   6.824   3.576
10808SOL     OW33322   0.180   3.962   0.183
10808SOL    HW133323   0.174   4.026   0.259
10808SOL    HW233324   0.116   3.990   0.111
10809SOL     OW33325   2.733   0.486   4.278
10809SOL    HW133326   2.808   0.421   4.286
10809SOL    HW233327   2.656   0.443   4.231
10810SOL     OW33328   0.849   1.635   5.557
10810SOL    HW133329   0.890   1.543   5.554
10810SOL    HW233330   0.749   1.626   5.554
10811SOL     OW33331   3.776   5.177   5.619
10811SOL    HW133332   3.825   5.245   5.674
10811SOL    HW233333   3.836   5.141   5.548
10812SOL     OW33334   0.690   3.098   2.277
10812SOL    HW133335   0.745   3.024   2.238
10812SOL    HW233336   0.739   3.138   2.355
10813SOL     OW33337   2.856   6.366   1.020
10813SOL    HW133338   2.951   6.337   1.033
10813SOL    HW233339   2.805   6.354   1.105
10814SOL     OW33340   1.573   0.417   5.570
10814SOL    HW133341   1.618   0.352   5.509
10814SOL    HW233342   1.501   0.371   5.620
10815SOL     OW33343   4.930   4.462   3.516
10815SOL    HW133344   4.965   4.370   3.501
10815SOL    HW233345   4.880   4.493   3.435
10816SOL     OW33346   1.917   1.149   2.115
10816SOL    HW133347   1.930   1.053   2.089
10816SOL    HW233348   1.821   1.175   2.104
10817SOL     OW33349   5.518   6.713   2.776
10817SOL    HW133350   5.454   6.652   2.730
10817SOL    HW233351   5.531   6.796   2.722
10818SOL     OW33352   5.876   2.565   5.998
10818SOL    HW133353   5.871   2.556   5.899
10818SOL    HW233354   5.847   2.656   6.025
10819SOL     OW33355   0.727   3.816   6.694
10819SOL    HW133356   0.627   3.812   6.687
10819SOL    HW233357   0.767   3.800   6.604
10820SOL     OW33358   0.109   6.903   4.173
10820SOL    HW133359   0.189   6.844   4.170
10820SOL    HW233360   0.026   6.848   4.162
10821SOL     OW33361   6.058   6.333   3.090
10821SOL    HW133362   6.116   6.258   3.124
10821SOL    HW233363   6.114   6.415   3.076
10822SOL     OW33364   1.311   3.200   2.779
10822SOL    HW133365   1.218   3.194   2.743
10822SOL    HW233366   1.374   3.222   2.705
10823SOL     OW33367   1.645   4.885   1.426
10823SOL    HW133368   1.672   4.950   1.355
10823SOL    HW233369   1.591   4.931   1.496
10824SOL     OW33370   4.919   6.680   3.616
10824SOL    HW133371   4.902   6.696   3.714
10824SOL    HW233372   4.985   6.747   3.582
10825SOL     OW33373   2.701   1.177   0.657
10825SOL    HW133374   2.776   1.189   0.592
10825SOL    HW233375   2.655   1.090   0.639
10826SOL     OW33376   6.425   3.418   2.699
10826SOL    HW133377   6.435   3.518   2.695
10826SOL    HW233378   6.509   3.375   2.665
10827SOL     OW33379   6.039   3.482   3.591
10827SOL    HW133380   5.984   3.406   3.556
10827SOL    HW233381   6.052   3.550   3.519
10828SOL     OW33382   0.970   6.152   1.958
10828SOL    HW133383   0.874   6.125   1.955
10828SOL    HW233384   1.005   6.161   1.864
10829SOL     OW33385   2.736   3.222   1.092
10829SOL    HW133386   2.797   3.207   1.170
10829SOL    HW233387   2.642   3.234   1.125
10830SOL     OW33388   5.967   2.318   3.864
10830SOL    HW133389   5.916   2.244   3.820
10830SOL    HW233390   5.996   2.384   3.794
10831SOL     OW33391   5.124   0.192   1.923
10831SOL    HW133392   5.063   0.181   2.001
10831SOL    HW233393   5.163   0.284   1.923
10832SOL     OW33394   0.763   2.133   0.614
10832SOL    HW133395   0.756   2.178   0.525
10832SOL    HW233396   0.846   2.077   0.616
10833SOL     OW33397   2.177   0.331   3.785
10833SOL    HW133398   2.106   0.264   3.762
10833SOL    HW233399   2.176   0.405   3.718
10834SOL     OW33400   0.532   1.261   5.541
10834SOL    HW133401   0.529   1.202   5.460
10834SOL    HW233402   0.484   1.216   5.616
10835SOL     OW33403   5.858   1.044   1.209
10835SOL    HW133404   5.812   1.127   1.240
10835SOL    HW233405   5.907   1.002   1.286
10836SOL     OW33406   6.759   1.888   5.650
10836SOL    HW133407   6.730   1.794   5.670
10836SOL    HW233408   6.858   1.896   5.663
10837SOL     OW33409   6.408   4.662   7.020
10837SOL    HW133410   6.471   4.732   0.023
10837SOL    HW233411   6.380   4.684   6.926
10838SOL     OW33412   6.005   0.570   5.151
10838SOL    HW133413   6.015   0.664   5.184
10838SOL    HW233414   5.908   0.551   5.133
10839SOL     OW33415   2.679   3.283   0.095
10839SOL    HW133416   2.713   3.260   0.187
10839SOL    HW233417   2.612   3.357   0.103
10840SOL     OW33418   3.744   5.832   1.312
10840SOL    HW133419   3.686   5.817   1.232
10840SOL    HW233420   3.827   5.880   1.284
10841SOL     OW33421   2.978   5.815   5.784
10841SOL    HW133422   2.929   5.790   5.867
10841SOL    HW233423   3.019   5.906   5.795
10842SOL     OW33424   6.333   3.068   1.173
10842SOL    HW133425   6.319   3.005   1.096
10842SOL    HW233426   6.319   3.019   1.259
10843SOL     OW33427   0.591   1.626   1.422
10843SOL    HW133428   0.526   1.628   1.346
10843SOL    HW233429   0.584   1.539   1.470
10844SOL     OW33430   6.886   6.525   4.527
10844SOL    HW133431   6.853   6.459   4.459
10844SOL    HW233432   6.808   6.567   4.573
10845SOL     OW33433   2.149   1.006   1.129
10845SOL    HW133434   2.130   0.908   1.125
10845SOL    HW233435   2.177   1.030   1.222
10846SOL     OW33436   4.909   2.187   0.948
10846SOL    HW133437   4.898   2.097   0.989
10846SOL    HW233438   4.882   2.257   1.013
10847SOL     OW33439   2.902   1.990   6.142
10847SOL    HW133440   2.825   2.019   6.085
10847SOL    HW233441   2.926   1.896   6.119
10848SOL     OW33442   2.614   1.694   6.851
10848SOL    HW133443   2.666   1.710   6.935
10848SOL    HW233444   2.677   1.668   6.778
10849SOL     OW33445   4.187   4.729   3.762
10849SOL    HW133446   4.103   4.680   3.738
10849SOL    HW233447   4.174   4.827   3.746
10850SOL     OW33448   3.596   6.901   6.824
10850SOL    HW133449   3.509   6.854   6.813
10850SOL    HW233450   3.607   6.969   6.752
10851SOL     OW33451   3.340   2.657   5.855
10851SOL    HW133452   3.416   2.685   5.797
10851SOL    HW233453   3.278   2.734   5.869
10852SOL     OW33454   0.160   0.260   6.803
10852SOL    HW133455   0.199   0.275   6.894
10852SOL    HW233456   0.144   0.348   6.759
10853SOL     OW33457   3.927   1.869   4.455
10853SOL    HW133458   3.890   1.828   4.371
10853SOL    HW233459   3.870   1.945   4.484
10854SOL     OW33460   5.886   0.126   6.487
10854SOL    HW133461   5.823   0.203   6.475
10854SOL    HW233462   5.978   0.160   6.505
10855SOL     OW33463   2.734   6.288   2.568
10855SOL    HW133464   2.692   6.289   2.658
10855SOL    HW233465   2.697   6.212   2.515
10856SOL     OW33466   5.860   0.399   1.073
10856SOL    HW133467   5.918   0.413   1.152
10856SOL    HW233468   5.900   0.445   0.993
10857SOL     OW33469   6.375   3.312   3.195
10857SOL    HW133470   6.294   3.321   3.137
10857SOL    HW233471   6.451   3.277   3.141
10858SOL     OW33472   1.953   3.180   6.342
10858SOL    HW133473   1.857   3.200   6.361
10858SOL    HW233474   2.011   3.256   6.372
10859SOL     OW33475   1.607   3.781   3.606
10859SOL    HW133476   1.650   3.717   3.543
10859SOL    HW233477   1.670   3.858   3.623
10860SOL     OW33478   6.399   1.176   6.686
10860SOL    HW133479   6.483   1.227   6.670
10860SOL    HW233480   6.320   1.232   6.661
10861SOL     OW33481   3.785   2.545   1.728
10861SOL    HW133482   3.770   2.634   1.771
10861SOL    HW233483   3.731   2.475   1.774
10862SOL     OW33484   2.180   1.790   6.012
10862SOL    HW133485   2.179   1.861   5.942
10862SOL    HW233486   2.252   1.811   6.079
10863SOL     OW33487   3.221   1.039   2.743
10863SOL    HW133488   3.161   1.031   2.823
10863SOL    HW233489   3.169   1.077   2.666
10864SOL     OW33490   2.028   4.864   1.371
10864SOL    HW133491   2.013   4.887   1.467
10864SOL    HW233492   2.125   4.846   1.356
10865SOL     OW33493   6.078   2.950   3.542
10865SOL    HW133494   5.990   2.952   3.590
10865SOL    HW233495   6.079   3.022   3.473
10866SOL     OW33496   5.854   3.264   1.116
10866SOL    HW133497   5.898   3.177   1.137
10866SOL    HW233498   5.771   3.249   1.062
10867SOL     OW33499   2.414   2.977   0.169
10867SOL    HW133500   2.433   2.886   0.132
10867SOL    HW233501   2.352   2.969   0.247
10868SOL     OW33502   1.313   2.336   3.055
10868SOL    HW133503   1.326   2.319   2.958
10868SOL    HW233504   1.216   2.356   3.072
10869NA      NA33505   0.691   2.193   6.314
10870NA      NA33506   4.414   4.547   5.282
10871NA      NA33507   2.048   4.660   2.634
10872NA      NA33508   5.241   4.508   4.057
10873NA      NA33509   4.411   2.544   5.225
10874NA      NA33510   3.314   4.270   1.561
10875NA      NA33511   0.921   4.604   0.102
10876NA      NA33512   4.043   4.277   1.609
10877NA      NA33513   4.502   4.061   0.819
10878NA      NA33514   3.759   1.159   5.602
10879NA      NA33515   5.026   5.638   1.666
10880NA      NA33516   1.646   0.569   5.769
10881NA      NA33517   4.958   4.810   2.110
10882NA      NA33518   3.580   3.323   0.594
   7.02972   7.02972   7.02972
