Generated by trjconv : CNT in water t= 304.00000
33518
    1C        C    1   2.848   2.771   4.748
    1C        C    2   2.903   2.720   4.868
    1C        C    3   2.844   2.775   4.982
    1C        C    4   2.848   2.771   4.263
    1C        C    5   2.902   2.725   4.385
    1C        C    6   2.847   2.772   4.506
    1C        C    7   3.016   2.640   4.626
    1C        C    8   2.901   2.721   4.626
    1C        C    9   3.079   2.603   4.747
    1C        C   10   3.014   2.633   4.868
    1C        C   11   3.183   2.490   4.976
    1C        C   12   3.061   2.559   4.977
    1C        C   13   2.847   2.773   3.770
    1C        C   14   2.897   2.724   3.893
    1C        C   15   2.848   2.769   4.017
    1C        C   16   3.018   2.644   4.137
    1C        C   17   2.903   2.726   4.140
    1C        C   18   3.081   2.612   4.259
    1C        C   19   3.019   2.646   4.382
    1C        C   20   3.207   2.548   4.500
    1C        C   21   3.078   2.606   4.504
    1C        C   22   3.278   2.528   4.621
    1C        C   23   3.209   2.545   4.743
    1C        C   24   3.412   2.478   4.862
    1C        C   25   3.270   2.502   4.864
    1C        C   26   3.491   2.469   4.977
    1C        C   27   2.849   2.770   3.281
    1C        C   28   2.903   2.725   3.403
    1C        C   29   2.852   2.776   3.525
    1C        C   30   3.019   2.647   3.650
    1C        C   31   2.904   2.730   3.648
    1C        C   32   3.080   2.614   3.773
    1C        C   33   3.013   2.644   3.894
    1C        C   34   3.205   2.548   4.013
    1C        C   35   3.075   2.603   4.014
    1C        C   36   3.275   2.530   4.134
    1C        C   37   3.211   2.557   4.257
    1C        C   38   3.417   2.505   4.380
    1C        C   39   3.278   2.534   4.379
    1C        C   40   3.488   2.500   4.502
    1C        C   41   3.418   2.508   4.624
    1C        C   42   3.632   2.481   4.740
    1C        C   43   3.490   2.486   4.744
    1C        C   44   3.707   2.481   4.860
    1C        C   45   3.630   2.470   4.977
    1C        C   46   2.835   2.754   2.793
    1C        C   47   2.892   2.710   2.915
    1C        C   48   2.845   2.765   3.036
    1C        C   49   3.016   2.639   3.162
    1C        C   50   2.901   2.722   3.159
    1C        C   51   3.077   2.601   3.283
    1C        C   52   3.015   2.639   3.405
    1C        C   53   3.203   2.547   3.527
    1C        C   54   3.074   2.603   3.528
    1C        C   55   3.273   2.528   3.649
    1C        C   56   3.207   2.552   3.771
    1C        C   57   3.416   2.509   3.893
    1C        C   58   3.276   2.528   3.892
    1C        C   59   3.486   2.504   4.015
    1C        C   60   3.414   2.504   4.136
    1C        C   61   3.627   2.498   4.257
    1C        C   62   3.486   2.492   4.257
    1C        C   63   3.700   2.503   4.378
    1C        C   64   3.629   2.495   4.500
    1C        C   65   3.837   2.544   4.622
    1C        C   66   3.704   2.496   4.620
    1C        C   67   3.906   2.566   4.744
    1C        C   68   3.840   2.528   4.862
    1C        C   69   4.052   2.584   4.976
    1C        C   70   3.923   2.529   4.975
    1C        C   71   2.818   2.730   2.309
    1C        C   72   2.881   2.689   2.428
    1C        C   73   2.832   2.746   2.548
    1C        C   74   3.004   2.625   2.672
    1C        C   75   2.887   2.704   2.671
    1C        C   76   3.069   2.597   2.794
    1C        C   77   3.009   2.631   2.918
    1C        C   78   3.204   2.543   3.037
    1C        C   79   3.075   2.601   3.039
    1C        C   80   3.274   2.530   3.160
    1C        C   81   3.208   2.548   3.284
    1C        C   82   3.413   2.500   3.403
    1C        C   83   3.275   2.527   3.407
    1C        C   84   3.483   2.490   3.526
    1C        C   85   3.411   2.500   3.647
    1C        C   86   3.625   2.501   3.768
    1C        C   87   3.483   2.501   3.769
    1C        C   88   3.696   2.507   3.890
    1C        C   89   3.628   2.506   4.013
    1C        C   90   3.834   2.548   4.136
    1C        C   91   3.698   2.511   4.136
    1C        C   92   3.901   2.574   4.258
    1C        C   93   3.836   2.541   4.379
    1C        C   94   4.027   2.635   4.499
    1C        C   95   3.903   2.567   4.500
    1C        C   96   4.090   2.673   4.620
    1C        C   97   4.033   2.629   4.741
    1C        C   98   4.197   2.764   4.863
    1C        C   99   4.100   2.659   4.863
    1C        C  100   4.220   2.839   4.979
    1C        C  101   2.817   2.727   2.069
    1C        C  102   2.988   2.592   2.189
    1C        C  103   2.872   2.677   2.188
    1C        C  104   3.062   2.573   2.308
    1C        C  105   3.005   2.621   2.428
    1C        C  106   3.198   2.536   2.551
    1C        C  107   3.066   2.588   2.551
    1C        C  108   3.269   2.518   2.671
    1C        C  109   3.200   2.543   2.792
    1C        C  110   3.406   2.498   2.915
    1C        C  111   3.266   2.516   2.914
    1C        C  112   3.480   2.494   3.036
    1C        C  113   3.412   2.503   3.159
    1C        C  114   3.624   2.504   3.278
    1C        C  115   3.483   2.491   3.281
    1C        C  116   3.694   2.513   3.400
    1C        C  117   3.624   2.502   3.522
    1C        C  118   3.829   2.552   3.645
    1C        C  119   3.693   2.513   3.645
    1C        C  120   3.897   2.572   3.767
    1C        C  121   3.831   2.548   3.889
    1C        C  122   4.020   2.642   4.013
    1C        C  123   3.897   2.572   4.012
    1C        C  124   4.084   2.680   4.132
    1C        C  125   4.024   2.642   4.254
    1C        C  126   4.194   2.768   4.376
    1C        C  127   4.084   2.678   4.377
    1C        C  128   4.242   2.821   4.498
    1C        C  129   4.193   2.769   4.620
    1C        C  130   4.332   2.931   4.742
    1C        C  131   4.248   2.816   4.741
    1C        C  132   4.365   2.998   4.862
    1C        C  133   4.296   2.956   4.976
    1C        C  134   3.176   2.474   2.076
    1C        C  135   3.043   2.520   2.078
    1C        C  136   3.259   2.480   2.188
    1C        C  137   3.192   2.516   2.308
    1C        C  138   3.401   2.477   2.427
    1C        C  139   3.263   2.503   2.430
    1C        C  140   3.477   2.476   2.546
    1C        C  141   3.408   2.492   2.669
    1C        C  142   3.617   2.501   2.790
    1C        C  143   3.476   2.489   2.792
    1C        C  144   3.689   2.510   2.911
    1C        C  145   3.621   2.499   3.034
    1C        C  146   3.831   2.543   3.156
    1C        C  147   3.694   2.510   3.155
    1C        C  148   3.898   2.570   3.277
    1C        C  149   3.832   2.543   3.399
    1C        C  150   4.024   2.631   3.523
    1C        C  151   3.895   2.573   3.522
    1C        C  152   4.084   2.672   3.645
    1C        C  153   4.023   2.636   3.767
    1C        C  154   4.191   2.764   3.887
    1C        C  155   4.079   2.678   3.889
    1C        C  156   4.240   2.818   4.008
    1C        C  157   4.197   2.765   4.131
    1C        C  158   4.340   2.920   4.252
    1C        C  159   4.252   2.810   4.254
    1C        C  160   4.373   2.985   4.373
    1C        C  161   4.330   2.931   4.496
    1C        C  162   4.439   3.112   4.617
    1C        C  163   4.369   2.989   4.619
    1C        C  164   4.465   3.184   4.736
    1C        C  165   4.428   3.124   4.858
    1C        C  166   4.511   3.322   4.972
    1C        C  167   4.478   3.187   4.973
    1C        C  168   3.473   2.436   2.072
    1C        C  169   3.398   2.458   2.189
    1C        C  170   3.616   2.470   2.304
    1C        C  171   3.474   2.459   2.308
    1C        C  172   3.689   2.490   2.424
    1C        C  173   3.618   2.489   2.546
    1C        C  174   3.823   2.544   2.668
    1C        C  175   3.687   2.505   2.668
    1C        C  176   3.893   2.564   2.789
    1C        C  177   3.826   2.544   2.912
    1C        C  178   4.023   2.628   3.032
    1C        C  179   3.897   2.563   3.032
    1C        C  180   4.084   2.667   3.153
    1C        C  181   4.024   2.634   3.277
    1C        C  182   4.197   2.752   3.399
    1C        C  183   4.085   2.666   3.401
    1C        C  184   4.249   2.803   3.519
    1C        C  185   4.196   2.758   3.642
    1C        C  186   4.339   2.914   3.763
    1C        C  187   4.248   2.806   3.764
    1C        C  188   4.382   2.974   3.884
    1C        C  189   4.334   2.923   4.007
    1C        C  190   4.444   3.104   4.129
    1C        C  191   4.376   2.980   4.129
    1C        C  192   4.477   3.169   4.250
    1C        C  193   4.441   3.109   4.373
    1C        C  194   4.501   3.313   4.492
    1C        C  195   4.461   3.178   4.494
    1C        C  196   4.526   3.386   4.611
    1C        C  197   4.513   3.318   4.734
    1C        C  198   4.556   3.534   4.850
    1C        C  199   4.533   3.393   4.853
    1C        C  200   4.583   3.617   4.963
    1C        C  201   3.612   2.418   2.074
    1C        C  202   3.827   2.510   2.184
    1C        C  203   3.692   2.462   2.184
    1C        C  204   3.896   2.543   2.304
    1C        C  205   3.827   2.519   2.425
    1C        C  206   4.019   2.619   2.541
    1C        C  207   3.891   2.559   2.545
    1C        C  208   4.079   2.659   2.662
    1C        C  209   4.019   2.628   2.787
    1C        C  210   4.194   2.749   2.910
    1C        C  211   4.080   2.666   2.908
    1C        C  212   4.251   2.796   3.031
    1C        C  213   4.197   2.751   3.153
    1C        C  214   4.340   2.907   3.272
    1C        C  215   4.248   2.800   3.276
    1C        C  216   4.379   2.967   3.393
    1C        C  217   4.341   2.911   3.517
    1C        C  218   4.437   3.099   3.640
    1C        C  219   4.379   2.969   3.640
    1C        C  220   4.464   3.168   3.760
    1C        C  221   4.444   3.101   3.883
    1C        C  222   4.504   3.305   4.005
    1C        C  223   4.465   3.169   4.006
    1C        C  224   4.516   3.376   4.127
    1C        C  225   4.508   3.307   4.250
    1C        C  226   4.520   3.523   4.367
    1C        C  227   4.516   3.382   4.369
    1C        C  228   4.518   3.598   4.486
    1C        C  229   4.530   3.527   4.608
    1C        C  230   4.502   3.741   4.727
    1C        C  231   4.535   3.603   4.727
    1C        C  232   4.488   3.816   4.845
    1C        C  233   4.537   3.750   4.958
    1C        C  234   4.019   2.609   2.063
    1C        C  235   3.898   2.541   2.067
    1C        C  236   4.083   2.651   2.181
    1C        C  237   4.020   2.611   2.301
    1C        C  238   4.201   2.732   2.423
    1C        C  239   4.085   2.650   2.420
    1C        C  240   4.254   2.783   2.543
    1C        C  241   4.192   2.744   2.664
    1C        C  242   4.338   2.899   2.781
    1C        C  243   4.245   2.793   2.786
    1C        C  244   4.379   2.958   2.903
    1C        C  245   4.342   2.904   3.028
    1C        C  246   4.437   3.094   3.145
    1C        C  247   4.379   2.966   3.149
    1C        C  248   4.461   3.158   3.269
    1C        C  249   4.437   3.096   3.394
    1C        C  250   4.496   3.300   3.515
    1C        C  251   4.458   3.163   3.516
    1C        C  252   4.519   3.369   3.636
    1C        C  253   4.506   3.303   3.760
    1C        C  254   4.520   3.514   3.878
    1C        C  255   4.518   3.373   3.882
    1C        C  256   4.511   3.586   3.999
    1C        C  257   4.516   3.517   4.123
    1C        C  258   4.488   3.730   4.241
    1C        C  259   4.513   3.591   4.243
    1C        C  260   4.467   3.803   4.360
    1C        C  261   4.488   3.736   4.483
    1C        C  262   4.419   3.937   4.602
    1C        C  263   4.473   3.806   4.605
    1C        C  264   4.395   4.005   4.723
    1C        C  265   4.425   3.943   4.846
    1C        C  266   4.319   4.131   4.958
    1C        C  267   4.389   4.011   4.962
    1C        C  268   4.266   2.774   2.065
    1C        C  269   4.198   2.732   2.180
    1C        C  270   4.347   2.888   2.300
    1C        C  271   4.253   2.781   2.301
    1C        C  272   4.390   2.950   2.420
    1C        C  273   4.348   2.889   2.540
    1C        C  274   4.445   3.082   2.658
    1C        C  275   4.380   2.957   2.659
    1C        C  276   4.478   3.148   2.779
    1C        C  277   4.446   3.083   2.900
    1C        C  278   4.503   3.289   3.023
    1C        C  279   4.470   3.152   3.020
    1C        C  280   4.506   3.361   3.145
    1C        C  281   4.491   3.296   3.270
    1C        C  282   4.517   3.508   3.389
    1C        C  283   4.506   3.367   3.391
    1C        C  284   4.516   3.580   3.511
    1C        C  285   4.522   3.510   3.633
    1C        C  286   4.487   3.720   3.754
    1C        C  287   4.516   3.582   3.754
    1C        C  288   4.467   3.791   3.875
    1C        C  289   4.482   3.724   3.999
    1C        C  290   4.426   3.932   4.115
    1C        C  291   4.471   3.799   4.118
    1C        C  292   4.392   3.997   4.236
    1C        C  293   4.423   3.937   4.360
    1C        C  294   4.328   4.129   4.477
    1C        C  295   4.395   4.005   4.480
    1C        C  296   4.281   4.185   4.599
    1C        C  297   4.322   4.127   4.721
    1C        C  298   4.198   4.312   4.835
    1C        C  299   4.282   4.196   4.839
    1C        C  300   4.171   4.400   4.945
    1C        C  301   4.349   2.885   2.062
    1C        C  302   4.472   3.066   2.173
    1C        C  303   4.400   2.942   2.180
    1C        C  304   4.480   3.142   2.292
    1C        C  305   4.454   3.076   2.414
    1C        C  306   4.514   3.281   2.534
    1C        C  307   4.477   3.145   2.536
    1C        C  308   4.523   3.351   2.656
    1C        C  309   4.512   3.286   2.781
    1C        C  310   4.524   3.501   2.899
    1C        C  311   4.518   3.359   2.901
    1C        C  312   4.515   3.570   3.021
    1C        C  313   4.516   3.502   3.145
    1C        C  314   4.489   3.715   3.262
    1C        C  315   4.515   3.576   3.266
    1C        C  316   4.468   3.784   3.384
    1C        C  317   4.484   3.718   3.508
    1C        C  318   4.419   3.919   3.628
    1C        C  319   4.466   3.786   3.630
    1C        C  320   4.388   3.986   3.748
    1C        C  321   4.415   3.922   3.872
    1C        C  322   4.320   4.115   3.990
    1C        C  323   4.391   3.993   3.992
    1C        C  324   4.280   4.172   4.113
    1C        C  325   4.316   4.116   4.238
    1C        C  326   4.182   4.285   4.354
    1C        C  327   4.282   4.185   4.356
    1C        C  328   4.133   4.337   4.476
    1C        C  329   4.193   4.295   4.597
    1C        C  330   4.024   4.438   4.712
    1C        C  331   4.138   4.354   4.713
    1C        C  332   3.970   4.494   4.830
    1C        C  333   4.055   4.478   4.941
    1C        C  334   4.552   3.266   2.056
    1C        C  335   4.533   3.128   2.059
    1C        C  336   4.540   3.347   2.169
    1C        C  337   4.521   3.278   2.291
    1C        C  338   4.524   3.492   2.411
    1C        C  339   4.524   3.351   2.412
    1C        C  340   4.514   3.563   2.532
    1C        C  341   4.522   3.493   2.655
    1C        C  342   4.484   3.705   2.775
    1C        C  343   4.518   3.568   2.774
    1C        C  344   4.465   3.775   2.896
    1C        C  345   4.486   3.708   3.019
    1C        C  346   4.417   3.912   3.139
    1C        C  347   4.467   3.780   3.139
    1C        C  348   4.384   3.976   3.260
    1C        C  349   4.418   3.916   3.384
    1C        C  350   4.316   4.103   3.500
    1C        C  351   4.389   3.982   3.505
    1C        C  352   4.273   4.162   3.621
    1C        C  353   4.317   4.108   3.744
    1C        C  354   4.174   4.264   3.866
    1C        C  355   4.275   4.166   3.866
    1C        C  356   4.123   4.315   3.988
    1C        C  357   4.178   4.270   4.109
    1C        C  358   4.008   4.400   4.231
    1C        C  359   4.127   4.325   4.229
    1C        C  360   3.949   4.444   4.352
    1C        C  361   4.019   4.420   4.472
    1C        C  362   3.827   4.519   4.592
    1C        C  363   3.957   4.463   4.591
    1C        C  364   3.760   4.548   4.714
    1C        C  365   3.838   4.543   4.831
    1C        C  366   3.629   4.585   4.951
    1C        C  367   3.767   4.564   4.951
    1C        C  368   4.505   3.564   2.053
    1C        C  369   4.521   3.487   2.169
    1C        C  370   4.505   3.703   2.288
    1C        C  371   4.521   3.563   2.289
    1C        C  372   4.483   3.774   2.409
    1C        C  373   4.490   3.702   2.531
    1C        C  374   4.421   3.904   2.649
    1C        C  375   4.472   3.773   2.652
    1C        C  376   4.387   3.968   2.771
    1C        C  377   4.421   3.910   2.894
    1C        C  378   4.318   4.095   3.012
    1C        C  379   4.398   3.979   3.015
    1C        C  380   4.272   4.154   3.132
    1C        C  381   4.310   4.096   3.255
    1C        C  382   4.181   4.266   3.376
    1C        C  383   4.271   4.156   3.377
    1C        C  384   4.124   4.308   3.498
    1C        C  385   4.174   4.262   3.622
    1C        C  386   4.006   4.393   3.743
    1C        C  387   4.120   4.310   3.743
    1C        C  388   3.946   4.434   3.864
    1C        C  389   4.005   4.392   3.986
    1C        C  390   3.817   4.488   4.105
    1C        C  391   3.946   4.432   4.108
    1C        C  392   3.749   4.516   4.226
    1C        C  393   3.819   4.500   4.348
    1C        C  394   3.616   4.550   4.473
    1C        C  395   3.755   4.528   4.471
    1C        C  396   3.545   4.558   4.595
    1C        C  397   3.620   4.563   4.715
    1C        C  398   3.410   4.546   4.836
    1C        C  399   3.549   4.570   4.837
    1C        C  400   3.340   4.518   4.954
    1C        C  401   4.503   3.703   2.050
    1C        C  402   4.454   3.913   2.170
    1C        C  403   4.492   3.777   2.169
    1C        C  404   4.407   3.974   2.288
    1C        C  405   4.424   3.902   2.408
    1C        C  406   4.322   4.093   2.525
    1C        C  407   4.391   3.970   2.528
    1C        C  408   4.278   4.150   2.647
    1C        C  409   4.315   4.090   2.769
    1C        C  410   4.170   4.248   2.887
    1C        C  411   4.269   4.147   2.890
    1C        C  412   4.121   4.298   3.009
    1C        C  413   4.174   4.255   3.133
    1C        C  414   4.004   4.383   3.251
    1C        C  415   4.124   4.308   3.254
    1C        C  416   3.944   4.417   3.375
    1C        C  417   4.003   4.380   3.498
    1C        C  418   3.812   4.473   3.619
    1C        C  419   3.944   4.422   3.619
    1C        C  420   3.745   4.502   3.739
    1C        C  421   3.813   4.483   3.862
    1C        C  422   3.608   4.532   3.985
    1C        C  423   3.748   4.509   3.984
    1C        C  424   3.539   4.546   4.107
    1C        C  425   3.610   4.542   4.229
    1C        C  426   3.403   4.551   4.357
    1C        C  427   3.544   4.561   4.352
    1C        C  428   3.330   4.545   4.478
    1C        C  429   3.404   4.548   4.598
    1C        C  430   3.192   4.514   4.724
    1C        C  431   3.331   4.543   4.719
    1C        C  432   3.123   4.490   4.846
    1C        C  433   3.203   4.496   4.961
    1C        C  434   4.388   4.120   2.053
    1C        C  435   4.455   3.997   2.057
    1C        C  436   4.303   4.161   2.160
    1C        C  437   4.331   4.094   2.282
    1C        C  438   4.182   4.250   2.402
    1C        C  439   4.281   4.150   2.402
    1C        C  440   4.126   4.298   2.522
    1C        C  441   4.179   4.251   2.644
    1C        C  442   4.005   4.379   2.763
    1C        C  443   4.120   4.296   2.764
    1C        C  444   3.943   4.415   2.884
    1C        C  445   4.003   4.376   3.006
    1C        C  446   3.815   4.474   3.130
    1C        C  447   3.943   4.415   3.128
    1C        C  448   3.749   4.493   3.253
    1C        C  449   3.815   4.474   3.376
    1C        C  450   3.607   4.528   3.495
    1C        C  451   3.744   4.496   3.497
    1C        C  452   3.538   4.542   3.618
    1C        C  453   3.607   4.534   3.741
    1C        C  454   3.396   4.541   3.866
    1C        C  455   3.538   4.544   3.863
    1C        C  456   3.327   4.535   3.989
    1C        C  457   3.398   4.539   4.112
    1C        C  458   3.195   4.499   4.236
    1C        C  459   3.332   4.532   4.237
    1C        C  460   3.126   4.481   4.359
    1C        C  461   3.193   4.509   4.480
    1C        C  462   2.996   4.431   4.604
    1C        C  463   3.126   4.486   4.602
    1C        C  464   2.928   4.397   4.723
    1C        C  465   2.988   4.444   4.844
    1C        C  466   2.802   4.336   4.958
    1C        C  467   2.907   4.429   4.961
    1C        C  468   4.124   4.288   2.041
    1C        C  469   4.191   4.250   2.159
    1C        C  470   4.007   4.367   2.278
    1C        C  471   4.130   4.296   2.279
    1C        C  472   3.942   4.404   2.399
    1C        C  473   4.010   4.379   2.520
    1C        C  474   3.814   4.469   2.643
    1C        C  475   3.943   4.412   2.640
    1C        C  476   3.744   4.490   2.764
    1C        C  477   3.813   4.469   2.885
    1C        C  478   3.607   4.518   3.009
    1C        C  479   3.745   4.489   3.008
    1C        C  480   3.537   4.527   3.131
    1C        C  481   3.609   4.514   3.252
    1C        C  482   3.396   4.533   3.375
    1C        C  483   3.538   4.533   3.372
    1C        C  484   3.327   4.526   3.498
    1C        C  485   3.397   4.541   3.620
    1C        C  486   3.190   4.498   3.745
    1C        C  487   3.327   4.532   3.743
    1C        C  488   3.123   4.481   3.868
    1C        C  489   3.190   4.503   3.991
    1C        C  490   3.001   4.413   4.114
    1C        C  491   3.126   4.479   4.114
    1C        C  492   2.938   4.385   4.238
    1C        C  493   2.998   4.422   4.360
    1C        C  494   2.825   4.303   4.483
    1C        C  495   2.934   4.392   4.483
    1C        C  496   2.769   4.257   4.604
    1C        C  497   2.809   4.319   4.725
    1C        C  498   2.660   4.165   4.845
    1C        C  499   2.747   4.276   4.844
    1C        C  500   2.593   4.115   4.958
    1C        C  501   4.005   4.360   2.041
    1C        C  502   3.815   4.466   2.158
    1C        C  503   3.941   4.402   2.158
    1C        C  504   3.742   4.482   2.278
    1C        C  505   3.811   4.454   2.398
    1C        C  506   3.607   4.504   2.522
    1C        C  507   3.747   4.486   2.520
    1C        C  508   3.534   4.516   2.642
    1C        C  509   3.604   4.511   2.765
    1C        C  510   3.393   4.523   2.886
    1C        C  511   3.534   4.523   2.887
    1C        C  512   3.323   4.519   3.008
    1C        C  513   3.395   4.524   3.130
    1C        C  514   3.190   4.485   3.254
    1C        C  515   3.327   4.520   3.253
    1C        C  516   3.122   4.464   3.377
    1C        C  517   3.191   4.488   3.498
    1C        C  518   2.997   4.411   3.624
    1C        C  519   3.126   4.470   3.622
    1C        C  520   2.941   4.371   3.747
    1C        C  521   2.999   4.413   3.869
    1C        C  522   2.833   4.283   3.996
    1C        C  523   2.945   4.370   3.992
    1C        C  524   2.780   4.240   4.119
    1C        C  525   2.827   4.298   4.239
    1C        C  526   2.691   4.138   4.364
    1C        C  527   2.772   4.254   4.361
    1C        C  528   2.652   4.076   4.485
    1C        C  529   2.688   4.142   4.605
    1C        C  530   2.580   3.962   4.731
    1C        C  531   2.638   4.092   4.727
    1C        C  532   2.541   3.901   4.853
    1C        C  533   2.532   3.990   4.965
    1C        C  534   3.616   4.562   2.039
    1C        C  535   3.748   4.517   2.046
    1C        C  536   3.534   4.535   2.153
    1C        C  537   3.602   4.506   2.275
    1C        C  538   3.395   4.512   2.400
    1C        C  539   3.537   4.514   2.400
    1C        C  540   3.322   4.503   2.521
    1C        C  541   3.393   4.511   2.643
    1C        C  542   3.183   4.484   2.766
    1C        C  543   3.321   4.512   2.765
    1C        C  544   3.120   4.458   2.890
    1C        C  545   3.187   4.481   3.012
    1C        C  546   2.995   4.393   3.134
    1C        C  547   3.121   4.457   3.134
    1C        C  548   2.935   4.364   3.258
    1C        C  549   2.994   4.406   3.380
    1C        C  550   2.828   4.280   3.504
    1C        C  551   2.933   4.374   3.503
    1C        C  552   2.781   4.229   3.628
    1C        C  553   2.833   4.281   3.749
    1C        C  554   2.697   4.123   3.878
    1C        C  555   2.785   4.233   3.873
    1C        C  556   2.654   4.066   3.999
    1C        C  557   2.689   4.131   4.120
    1C        C  558   2.600   3.943   4.246
    1C        C  559   2.653   4.074   4.244
    1C        C  560   2.568   3.879   4.368
    1C        C  561   2.588   3.951   4.489
    1C        C  562   2.528   3.750   4.614
    1C        C  563   2.565   3.887   4.612
    1C        C  564   2.515   3.682   4.737
    1C        C  565   2.519   3.760   4.856
    1C        C  566   2.537   3.546   4.975
    1C        C  567   2.520   3.684   4.975
    1C        C  568   3.328   4.473   2.040
    1C        C  569   3.395   4.509   2.158
    1C        C  570   3.185   4.470   2.280
    1C        C  571   3.322   4.508   2.280
    1C        C  572   3.117   4.452   2.402
    1C        C  573   3.183   4.480   2.524
    1C        C  574   2.986   4.400   2.646
    1C        C  575   3.113   4.463   2.645
    1C        C  576   2.929   4.356   2.768
    1C        C  577   2.996   4.390   2.887
    1C        C  578   2.823   4.272   3.015
    1C        C  579   2.936   4.356   3.011
    1C        C  580   2.775   4.221   3.138
    1C        C  581   2.826   4.273   3.259
    1C        C  582   2.695   4.112   3.387
    1C        C  583   2.780   4.225   3.383
    1C        C  584   2.661   4.054   3.511
    1C        C  585   2.694   4.118   3.633
    1C        C  586   2.589   3.938   3.755
    1C        C  587   2.656   4.062   3.757
    1C        C  588   2.567   3.873   3.879
    1C        C  589   2.603   3.934   4.001
    1C        C  590   2.539   3.737   4.124
    1C        C  591   2.576   3.873   4.126
    1C        C  592   2.525   3.671   4.249
    1C        C  593   2.531   3.743   4.370
    1C        C  594   2.515   3.534   4.497
    1C        C  595   2.522   3.675   4.494
    1C        C  596   2.514   3.463   4.620
    1C        C  597   2.511   3.540   4.738
    1C        C  598   2.534   3.328   4.862
    1C        C  599   2.524   3.469   4.859
    1C        C  600   2.529   3.248   4.977
    1C        C  601   3.196   4.432   2.043
    1C        C  602   2.982   4.392   2.159
    1C        C  603   3.117   4.437   2.159
    1C        C  604   2.921   4.361   2.284
    1C        C  605   2.991   4.389   2.403
    1C        C  606   2.822   4.263   2.526
    1C        C  607   2.927   4.358   2.525
    1C        C  608   2.769   4.219   2.649
    1C        C  609   2.817   4.270   2.771
    1C        C  610   2.683   4.110   2.893
    1C        C  611   2.765   4.225   2.895
    1C        C  612   2.646   4.055   3.018
    1C        C  613   2.687   4.111   3.141
    1C        C  614   2.588   3.928   3.268
    1C        C  615   2.651   4.054   3.265
    1C        C  616   2.565   3.863   3.391
    1C        C  617   2.598   3.927   3.513
    1C        C  618   2.530   3.729   3.637
    1C        C  619   2.570   3.864   3.636
    1C        C  620   2.515   3.663   3.762
    1C        C  621   2.529   3.737   3.882
    1C        C  622   2.510   3.525   4.008
    1C        C  623   2.525   3.665   4.003
    1C        C  624   2.514   3.457   4.132
    1C        C  625   2.513   3.530   4.253
    1C        C  626   2.535   3.322   4.377
    1C        C  627   2.516   3.462   4.376
    1C        C  628   2.558   3.253   4.499
    1C        C  629   2.538   3.324   4.619
    1C        C  630   2.597   3.121   4.743
    1C        C  631   2.552   3.256   4.742
    1C        C  632   2.619   3.051   4.864
    1C        C  633   2.560   3.112   4.980
    1C        C  634   2.781   4.305   2.055
    1C        C  635   2.894   4.387   2.046
    1C        C  636   2.748   4.228   2.168
    1C        C  637   2.814   4.267   2.286
    1C        C  638   2.671   4.109   2.407
    1C        C  639   2.760   4.218   2.407
    1C        C  640   2.635   4.050   2.530
    1C        C  641   2.683   4.107   2.650
    1C        C  642   2.584   3.920   2.777
    1C        C  643   2.645   4.048   2.772
    1C        C  644   2.563   3.857   2.902
    1C        C  645   2.590   3.926   3.022
    1C        C  646   2.528   3.725   3.148
    1C        C  647   2.563   3.862   3.146
    1C        C  648   2.511   3.656   3.271
    1C        C  649   2.525   3.727   3.392
    1C        C  650   2.500   3.518   3.519
    1C        C  651   2.513   3.659   3.515
    1C        C  652   2.508   3.449   3.642
    1C        C  653   2.505   3.522   3.763
    1C        C  654   2.534   3.315   3.886
    1C        C  655   2.507   3.453   3.886
    1C        C  656   2.555   3.251   4.010
    1C        C  657   2.539   3.318   4.134
    1C        C  658   2.603   3.118   4.257
    1C        C  659   2.554   3.250   4.257
    1C        C  660   2.638   3.056   4.380
    1C        C  661   2.611   3.123   4.502
    1C        C  662   2.714   2.938   4.626
    1C        C  663   2.637   3.057   4.624
    1C        C  664   2.754   2.878   4.748
    1C        C  665   2.703   2.936   4.867
    1C        C  666   2.742   2.870   4.985
    1C        C  667   2.678   4.024   2.050
    1C        C  668   2.679   4.105   2.164
    1C        C  669   2.585   3.914   2.290
    1C        C  670   2.639   4.045   2.285
    1C        C  671   2.555   3.851   2.413
    1C        C  672   2.578   3.920   2.534
    1C        C  673   2.513   3.719   2.657
    1C        C  674   2.552   3.855   2.656
    1C        C  675   2.504   3.652   2.781
    1C        C  676   2.522   3.722   2.902
    1C        C  677   2.504   3.514   3.031
    1C        C  678   2.515   3.655   3.026
    1C        C  679   2.504   3.444   3.154
    1C        C  680   2.502   3.515   3.276
    1C        C  681   2.525   3.306   3.402
    1C        C  682   2.501   3.445   3.399
    1C        C  683   2.537   3.236   3.524
    1C        C  684   2.522   3.308   3.644
    1C        C  685   2.583   3.105   3.775
    1C        C  686   2.545   3.240   3.766
    1C        C  687   2.633   3.048   3.894
    1C        C  688   2.606   3.119   4.014
    1C        C  689   2.716   2.937   4.139
    1C        C  690   2.641   3.057   4.136
    1C        C  691   2.757   2.879   4.261
    1C        C  692   2.718   2.940   4.383
    1C        C  693   2.754   2.879   4.505
    1C        C  694   2.628   3.894   2.054
    1C        C  695   2.523   3.707   2.175
    1C        C  696   2.576   3.838   2.171
    1C        C  697   2.505   3.638   2.297
    1C        C  698   2.519   3.714   2.415
    1C        C  699   2.495   3.504   2.542
    1C        C  700   2.501   3.645   2.537
    1C        C  701   2.499   3.437   2.666
    1C        C  702   2.506   3.510   2.787
    1C        C  703   2.530   3.301   2.910
    1C        C  704   2.507   3.441   2.910
    1C        C  705   2.547   3.235   3.033
    1C        C  706   2.531   3.306   3.155
    1C        C  707   2.602   3.109   3.281
    1C        C  708   2.549   3.240   3.279
    1C        C  709   2.631   3.047   3.405
    1C        C  710   2.595   3.107   3.528
    1C        C  711   2.707   2.933   3.648
    1C        C  712   2.619   3.044   3.652
    1C        C  713   2.756   2.881   3.770
    1C        C  714   2.716   2.933   3.895
    1C        C  715   2.757   2.877   4.018
    1C        C  716   2.453   3.502   2.063
    1C        C  717   2.495   3.635   2.058
    1C        C  718   2.472   3.421   2.181
    1C        C  719   2.485   3.497   2.300
    1C        C  720   2.514   3.289   2.425
    1C        C  721   2.491   3.428   2.423
    1C        C  722   2.542   3.225   2.548
    1C        C  723   2.524   3.298   2.668
    1C        C  724   2.594   3.097   2.792
    1C        C  725   2.545   3.229   2.789
    1C        C  726   2.621   3.033   2.916
    1C        C  727   2.597   3.103   3.036
    1C        C  728   2.707   2.924   3.158
    1C        C  729   2.631   3.043   3.160
    1C        C  730   2.752   2.873   3.282
    1C        C  731   2.709   2.929   3.405
    1C        C  732   2.751   2.874   3.528
    1C        C  733   2.487   3.196   2.070
    1C        C  734   2.493   3.280   2.181
    1C        C  735   2.591   3.090   2.303
    1C        C  736   2.527   3.216   2.304
    1C        C  737   2.620   3.024   2.425
    1C        C  738   2.598   3.095   2.545
    1C        C  739   2.696   2.912   2.669
    1C        C  740   2.626   3.035   2.669
    1C        C  741   2.732   2.850   2.791
    1C        C  742   2.697   2.914   2.912
    1C        C  743   2.748   2.867   3.036
    1C        C  744   2.546   3.070   2.072
    1C        C  745   2.688   2.899   2.183
    1C        C  746   2.615   3.020   2.183
    1C        C  747   2.732   2.843   2.305
    1C        C  748   2.690   2.901   2.426
    1C        C  749   2.734   2.848   2.549
    1C        C  750   2.739   2.842   2.065
    1C        C  751   3.660   2.337   1.960
    1C        O  752   3.638   2.213   1.948
    1C        O  753   3.680   2.396   1.835
    1C        C  754   4.619   3.055   1.963
    1C        O  755   4.592   3.074   1.841
    1C        O  756   4.758   3.052   1.981
    1C        C  757   4.450   4.223   1.966
    1C        O  758   4.515   4.323   2.007
    1C        O  759   4.491   4.196   1.835
    1C        C  760   3.590   4.682   1.956
    1C        O  761   3.561   4.792   2.010
    1C        O  762   3.565   4.662   1.820
    1C        C  763   2.873   4.510   1.966
    1C        O  764   2.924   4.516   1.851
    1C        O  765   2.856   4.641   2.013
    1C        C  766   2.357   3.473   1.954
    1C        O  767   2.399   3.485   1.836
    1C        O  768   2.222   3.506   1.966
    1C        C  769   4.693   3.594   5.059
    1C        O  770   4.671   3.545   5.173
    1C        O  771   4.822   3.567   5.010
    1C        C  772   4.283   4.469   5.013
    1C        O  773   4.331   4.434   5.125
    1C        O  774   4.385   4.540   4.949
    1C        C  775   4.145   2.546   5.085
    1C        O  776   4.262   2.503   5.071
    1C        O  777   4.102   2.501   5.211
    1C        C  778   2.903   4.529   5.070
    1C        O  779   2.831   4.632   5.071
    1C        O  780   2.916   4.482   5.201
    1C        C  781   2.474   3.033   5.071
    1C        O  782   2.353   3.023   5.037
    1C        O  783   2.485   3.052   5.208
    1C        C  784   2.418   3.977   5.060
    1C        O  785   2.304   4.014   5.020
    1C        O  786   2.429   4.015   5.194
    1C        C  787   2.955   2.449   1.983
    1C        O  788   2.959   2.475   1.860
    1C        O  789   2.916   2.319   2.012
    1C        C  790   3.160   2.359   5.041
    1C        O  791   3.145   2.253   4.973
    1C        O  792   3.171   2.347   5.180
    1C        H  793   4.345   2.975   5.069
    1C        H  794   4.139   2.843   5.049
    1C        H  795   4.529   3.129   5.047
    1C        H  796   4.500   3.374   5.065
    1C        H  797   4.557   3.810   5.044
    1C        H  798   4.450   3.998   5.049
    1C        H  799   4.292   4.174   5.052
    1C        H  800   4.025   4.510   5.039
    1C        H  801   3.822   4.590   5.039
    1C        H  802   3.594   4.667   5.010
    1C        H  803   3.403   4.478   5.031
    1C        H  804   3.155   4.523   5.053
    1C        H  805   3.880   2.504   5.069
    1C        H  806   3.679   2.477   5.072
    1C        H  807   2.992   2.541   5.057
    1C        H  808   3.448   2.515   5.064
    1C        H  809   2.915   2.779   5.061
    1C        H  810   2.716   2.910   5.081
    1C        H  811   2.464   3.278   5.057
    1C        H  812   2.575   3.502   5.064
    1C        H  813   2.516   3.732   5.070
    1C        H  814   2.616   4.154   5.055
    1C        H  815   2.732   4.342   5.039
    1C        H  816   2.751   2.903   1.978
    1C        H  817   2.788   2.657   1.994
    1C        H  818   3.214   2.460   1.977
    1C        H  819   3.419   2.419   1.981
    1C        H  820   3.841   2.552   1.978
    1C        H  821   4.051   2.650   1.969
    1C        H  822   4.298   2.697   1.997
    1C        H  823   4.412   2.890   1.976
    1C        H  824   4.551   3.310   1.958
    1C        H  825   4.516   3.516   1.958
    1C        H  826   4.475   3.752   1.959
    1C        H  827   3.804   4.519   1.954
    1C        H  828   4.000   4.430   1.961
    1C        H  829   4.141   4.232   1.952
    1C        H  830   4.532   3.988   1.983
    1C        H  831   2.654   3.836   1.967
    1C        H  832   2.692   4.072   1.954
    1C        H  833   2.721   4.288   1.967
    1C        H  834   3.371   4.490   1.943
    1C        H  835   3.163   4.360   1.971
    1C        H  836   2.495   2.996   2.012
    1C        H  837   2.425   3.220   1.986
    1C        H  838   2.534   3.673   1.966
    2V3OU   H29  839   2.812   3.540   3.225
    2V3OU   C27  840   2.791   3.502   3.328
    2V3OU   H27  841   2.736   3.574   3.395
    2V3OU   H28  842   2.746   3.400   3.326
    2V3OU   O11  843   2.912   3.474   3.398
    2V3OU   C15  844   2.926   3.400   3.514
    2V3OU   C13  845   3.052   3.371   3.570
    2V3OU   C14  846   3.077   3.262   3.653
    2V3OU   C16  847   2.978   3.179   3.704
    2V3OU    H6  848   2.991   3.101   3.780
    2V3OU   C12  849   3.214   3.223   3.694
    2V3OU    O2  850   3.240   3.124   3.766
    2V3OU   C10  851   3.326   3.303   3.642
    2V3OU    C8  852   3.456   3.273   3.679
    2V3OU   O10  853   3.488   3.156   3.740
    2V3OU   H26  854   3.403   3.118   3.767
    2V3OU    C6  855   3.566   3.353   3.635
    2V3OU    C5  856   3.536   3.470   3.567
    2V3OU    C4  857   3.704   3.296   3.643
    2V3OU    H4  858   3.719   3.229   3.733
    2V3OU    H5  859   3.714   3.226   3.555
    2V3OU    C2  860   3.819   3.396   3.640
    2V3OU    O6  861   3.804   3.478   3.756
    2V3OU   H21  862   3.763   3.555   3.714
    2V3OU    C3  863   3.781   3.492   3.527
    2V3OU    H2  864   3.862   3.569   3.516
    2V3OU    H3  865   3.780   3.435   3.430
    2V3OU   C25  866   3.954   3.325   3.628
    2V3OU    O7  867   4.002   3.296   3.519
    2V3OU   C26  868   4.032   3.290   3.754
    2V3OU   H22  869   4.064   3.380   3.813
    2V3OU   H23  870   4.119   3.225   3.729
    2V3OU    O8  871   3.960   3.209   3.845
    2V3OU   H24  872   3.918   3.265   3.912
    2V3OU    C1  873   3.648   3.566   3.537
    2V3OU    H1  874   3.629   3.623   3.442
    2V3OU    O3  875   3.658   3.654   3.649
    2V3OU   C19  876   3.622   3.791   3.630
    2V3OU    H9  877   3.521   3.804   3.580
    2V3OU    O4  878   3.717   3.847   3.542
    2V3OU   C20  879   3.848   3.872   3.594
    2V3OU   H10  880   3.893   3.768   3.603
    2V3OU   C24  881   3.609   3.857   3.768
    2V3OU   H16  882   3.546   3.792   3.834
    2V3OU   H17  883   3.562   3.959   3.760
    2V3OU   C23  884   3.749   3.881   3.824
    2V3OU   H15  885   3.791   3.776   3.843
    2V3OU    N1  886   3.736   3.954   3.949
    2V3OU   H19  887   3.804   3.918   4.013
    2V3OU   H20  888   3.647   3.934   3.990
    2V3OU   C21  889   3.849   3.949   3.726
    2V3OU   H11  890   3.954   3.927   3.762
    2V3OU    O5  891   3.829   4.089   3.724
    2V3OU   H18  892   3.793   4.103   3.814
    2V3OU   C22  893   3.918   3.949   3.484
    2V3OU   H12  894   3.865   4.048   3.475
    2V3OU   H13  895   3.906   3.896   3.386
    2V3OU   H14  896   4.028   3.958   3.501
    2V3OU   C11  897   3.160   3.467   3.542
    2V3OU    O1  898   3.134   3.587   3.518
    2V3OU    C9  899   3.298   3.417   3.562
    2V3OU    C7  900   3.403   3.500   3.523
    2V3OU    O9  901   3.384   3.619   3.456
    2V3OU   H25  902   3.290   3.631   3.436
    2V3OU   C17  903   2.831   3.315   3.575
    2V3OU    H7  904   2.732   3.346   3.544
    2V3OU   C18  905   2.848   3.211   3.666
    2V3OU    H8  906   2.785   3.172   3.748
    3SOL     OW  907   3.116   5.211   5.911
    3SOL    HW1  908   3.169   5.252   5.837
    3SOL    HW2  909   3.169   5.138   5.954
    4SOL     OW  910   6.790   6.998   0.723
    4SOL    HW1  911   6.719   6.999   0.653
    4SOL    HW2  912   6.750   0.005   0.810
    5SOL     OW  913   4.858   2.229   2.049
    5SOL    HW1  914   4.864   2.276   2.137
    5SOL    HW2  915   4.778   2.262   1.999
    6SOL     OW  916   4.433   1.957   2.022
    6SOL    HW1  917   4.393   1.958   2.113
    6SOL    HW2  918   4.394   2.031   1.967
    7SOL     OW  919   0.863   4.251   3.624
    7SOL    HW1  920   0.893   4.156   3.619
    7SOL    HW2  921   0.868   4.284   3.718
    8SOL     OW  922   2.270   2.441   5.548
    8SOL    HW1  923   2.270   2.510   5.620
    8SOL    HW2  924   2.209   2.366   5.573
    9SOL     OW  925   6.045   2.254   5.740
    9SOL    HW1  926   6.085   2.271   5.649
    9SOL    HW2  927   5.945   2.255   5.733
   10SOL     OW  928   3.127   5.224   5.117
   10SOL    HW1  929   3.096   5.129   5.114
   10SOL    HW2  930   3.163   5.250   5.028
   11SOL     OW  931   2.118   1.502   6.055
   11SOL    HW1  932   2.077   1.485   5.965
   11SOL    HW2  933   2.167   1.589   6.053
   12SOL     OW  934   2.953   4.950   3.615
   12SOL    HW1  935   2.904   4.871   3.579
   12SOL    HW2  936   2.997   4.925   3.701
   13SOL     OW  937   3.204   6.655   4.034
   13SOL    HW1  938   3.291   6.704   4.032
   13SOL    HW2  939   3.128   6.720   4.032
   14SOL     OW  940   4.023   5.068   6.005
   14SOL    HW1  941   3.946   5.029   6.056
   14SOL    HW2  942   4.109   5.047   6.051
   15SOL     OW  943   0.781   5.959   0.910
   15SOL    HW1  944   0.701   5.956   0.970
   15SOL    HW2  945   0.750   5.959   0.814
   16SOL     OW  946   5.235   3.065   6.686
   16SOL    HW1  947   5.326   3.061   6.726
   16SOL    HW2  948   5.242   3.062   6.586
   17SOL     OW  949   5.449   6.646   7.009
   17SOL    HW1  950   5.358   6.611   6.987
   17SOL    HW2  951   5.484   6.699   6.931
   18SOL     OW  952   2.964   1.062   5.132
   18SOL    HW1  953   2.904   1.093   5.205
   18SOL    HW2  954   3.002   0.972   5.156
   19SOL     OW  955   6.998   2.162   2.335
   19SOL    HW1  956   0.048   2.109   2.290
   19SOL    HW2  957   6.911   2.145   2.289
   20SOL     OW  958   4.895   1.874   5.606
   20SOL    HW1  959   4.916   1.965   5.569
   20SOL    HW2  960   4.962   1.808   5.573
   21SOL     OW  961   2.477   0.700   2.405
   21SOL    HW1  962   2.471   0.789   2.360
   21SOL    HW2  963   2.483   0.713   2.504
   22SOL     OW  964   0.935   6.208   0.258
   22SOL    HW1  965   0.897   6.247   0.342
   22SOL    HW2  966   1.030   6.238   0.248
   23SOL     OW  967   4.078   5.380   1.857
   23SOL    HW1  968   4.171   5.408   1.832
   23SOL    HW2  969   4.080   5.337   1.947
   24SOL     OW  970   3.507   0.633   2.601
   24SOL    HW1  971   3.496   0.643   2.502
   24SOL    HW2  972   3.601   0.606   2.622
   25SOL     OW  973   2.407   6.762   3.544
   25SOL    HW1  974   2.362   6.818   3.474
   25SOL    HW2  975   2.438   6.821   3.619
   26SOL     OW  976   6.487   1.812   0.334
   26SOL    HW1  977   6.399   1.808   0.383
   26SOL    HW2  978   6.554   1.859   0.391
   27SOL     OW  979   1.782   1.213   2.101
   27SOL    HW1  980   1.759   1.310   2.110
   27SOL    HW2  981   1.822   1.180   2.187
   28SOL     OW  982   1.537   0.495   5.352
   28SOL    HW1  983   1.500   0.588   5.362
   28SOL    HW2  984   1.575   0.484   5.260
   29SOL     OW  985   6.511   1.861   1.589
   29SOL    HW1  986   6.579   1.930   1.613
   29SOL    HW2  987   6.539   1.815   1.505
   30SOL     OW  988   4.443   0.732   4.114
   30SOL    HW1  989   4.502   0.661   4.152
   30SOL    HW2  990   4.472   0.822   4.148
   31SOL     OW  991   0.314   2.400   6.528
   31SOL    HW1  992   0.344   2.487   6.566
   31SOL    HW2  993   0.294   2.336   6.602
   32SOL     OW  994   0.491   1.848   2.487
   32SOL    HW1  995   0.550   1.911   2.437
   32SOL    HW2  996   0.453   1.895   2.567
   33SOL     OW  997   0.754   4.689   5.273
   33SOL    HW1  998   0.813   4.762   5.238
   33SOL    HW2  999   0.798   4.644   5.351
   34SOL     OW 1000   2.921   6.086   4.790
   34SOL    HW1 1001   2.847   6.084   4.857
   34SOL    HW2 1002   3.000   6.037   4.826
   35SOL     OW 1003   4.445   2.322   5.616
   35SOL    HW1 1004   4.508   2.249   5.642
   35SOL    HW2 1005   4.492   2.410   5.620
   36SOL     OW 1006   4.252   2.362   4.147
   36SOL    HW1 1007   4.260   2.267   4.118
   36SOL    HW2 1008   4.330   2.414   4.112
   37SOL     OW 1009   1.941   1.945   5.419
   37SOL    HW1 1010   1.854   1.926   5.372
   37SOL    HW2 1011   1.922   1.968   5.514
   38SOL     OW 1012   1.504   4.723   1.837
   38SOL    HW1 1013   1.493   4.821   1.823
   38SOL    HW2 1014   1.599   4.697   1.819
   39SOL     OW 1015   5.987   4.880   6.554
   39SOL    HW1 1016   6.001   4.953   6.487
   39SOL    HW2 1017   6.075   4.857   6.596
   40SOL     OW 1018   3.709   2.553   0.417
   40SOL    HW1 1019   3.658   2.470   0.396
   40SOL    HW2 1020   3.791   2.558   0.359
   41SOL     OW 1021   6.575   3.760   3.369
   41SOL    HW1 1022   6.586   3.854   3.401
   41SOL    HW2 1023   6.491   3.722   3.408
   42SOL     OW 1024   3.404   5.909   4.444
   42SOL    HW1 1025   3.438   5.998   4.475
   42SOL    HW2 1026   3.470   5.838   4.469
   43SOL     OW 1027   4.676   0.835   5.050
   43SOL    HW1 1028   4.723   0.802   5.131
   43SOL    HW2 1029   4.673   0.935   5.051
   44SOL     OW 1030   5.731   2.622   5.220
   44SOL    HW1 1031   5.739   2.553   5.292
   44SOL    HW2 1032   5.816   2.674   5.214
   45SOL     OW 1033   4.615   5.360   1.264
   45SOL    HW1 1034   4.590   5.281   1.320
   45SOL    HW2 1035   4.631   5.439   1.324
   46SOL     OW 1036   0.835   2.476   3.850
   46SOL    HW1 1037   0.741   2.459   3.822
   46SOL    HW2 1038   0.848   2.575   3.865
   47SOL     OW 1039   4.282   4.305   0.766
   47SOL    HW1 1040   4.377   4.321   0.795
   47SOL    HW2 1041   4.279   4.299   0.666
   48SOL     OW 1042   6.613   2.580   6.747
   48SOL    HW1 1043   6.616   2.674   6.712
   48SOL    HW2 1044   6.567   2.521   6.680
   49SOL     OW 1045   5.918   2.800   1.890
   49SOL    HW1 1046   5.917   2.887   1.939
   49SOL    HW2 1047   5.986   2.803   1.817
   50SOL     OW 1048   6.268   1.119   5.472
   50SOL    HW1 1049   6.324   1.154   5.547
   50SOL    HW2 1050   6.302   1.029   5.444
   51SOL     OW 1051   2.106   6.704   3.069
   51SOL    HW1 1052   2.128   6.802   3.068
   51SOL    HW2 1053   2.142   6.662   2.985
   52SOL     OW 1054   5.383   3.466   2.009
   52SOL    HW1 1055   5.472   3.443   1.970
   52SOL    HW2 1056   5.355   3.557   1.977
   53SOL     OW 1057   4.796   1.405   3.610
   53SOL    HW1 1058   4.746   1.323   3.581
   53SOL    HW2 1059   4.776   1.480   3.547
   54SOL     OW 1060   5.579   6.437   1.311
   54SOL    HW1 1061   5.529   6.351   1.308
   54SOL    HW2 1062   5.637   6.441   1.392
   55SOL     OW 1063   2.221   2.802   5.144
   55SOL    HW1 1064   2.278   2.877   5.111
   55SOL    HW2 1065   2.158   2.773   5.071
   56SOL     OW 1066   0.306   0.934   1.096
   56SOL    HW1 1067   0.305   0.855   1.035
   56SOL    HW2 1068   0.387   0.990   1.078
   57SOL     OW 1069   4.057   1.141   1.472
   57SOL    HW1 1070   4.053   1.165   1.375
   57SOL    HW2 1071   4.054   1.042   1.482
   58SOL     OW 1072   0.657   6.701   5.843
   58SOL    HW1 1073   0.718   6.622   5.838
   58SOL    HW2 1074   0.632   6.729   5.751
   59SOL     OW 1075   6.914   3.611   6.216
   59SOL    HW1 1076   6.914   3.538   6.283
   59SOL    HW2 1077   6.847   3.591   6.144
   60SOL     OW 1078   5.127   3.017   4.177
   60SOL    HW1 1079   5.029   3.037   4.173
   60SOL    HW2 1080   5.168   3.038   4.088
   61SOL     OW 1081   0.008   1.200   4.287
   61SOL    HW1 1082   6.975   1.230   4.365
   61SOL    HW2 1083   0.098   1.243   4.291
   62SOL     OW 1084   2.007   1.376   1.888
   62SOL    HW1 1085   2.074   1.401   1.819
   62SOL    HW2 1086   1.978   1.458   1.937
   63SOL     OW 1087   3.532   0.446   4.524
   63SOL    HW1 1088   3.568   0.534   4.491
   63SOL    HW2 1089   3.432   0.451   4.527
   64SOL     OW 1090   0.148   2.643   6.256
   64SOL    HW1 1091   0.060   2.660   6.210
   64SOL    HW2 1092   0.152   2.548   6.285
   65SOL     OW 1093   0.265   4.985   5.814
   65SOL    HW1 1094   0.173   4.982   5.852
   65SOL    HW2 1095   0.301   5.078   5.820
   66SOL     OW 1096   3.298   0.540   3.102
   66SOL    HW1 1097   3.349   0.455   3.086
   66SOL    HW2 1098   3.332   0.585   3.183
   67SOL     OW 1099   0.628   2.867   6.202
   67SOL    HW1 1100   0.535   2.868   6.240
   67SOL    HW2 1101   0.628   2.913   6.114
   68SOL     OW 1102   0.304   1.957   6.798
   68SOL    HW1 1103   0.234   2.005   6.850
   68SOL    HW2 1104   0.343   1.884   6.854
   69SOL     OW 1105   1.288   2.527   5.572
   69SOL    HW1 1106   1.360   2.543   5.505
   69SOL    HW2 1107   1.235   2.610   5.585
   70SOL     OW 1108   5.248   4.791   4.377
   70SOL    HW1 1109   5.238   4.763   4.282
   70SOL    HW2 1110   5.333   4.753   4.414
   71SOL     OW 1111   4.685   2.261   3.309
   71SOL    HW1 1112   4.588   2.257   3.335
   71SOL    HW2 1113   4.741   2.245   3.390
   72SOL     OW 1114   0.801   1.274   3.212
   72SOL    HW1 1115   0.760   1.195   3.166
   72SOL    HW2 1116   0.878   1.243   3.269
   73SOL     OW 1117   3.299   0.316   0.568
   73SOL    HW1 1118   3.395   0.299   0.590
   73SOL    HW2 1119   3.289   0.325   0.469
   74SOL     OW 1120   3.555   1.189   0.154
   74SOL    HW1 1121   3.509   1.256   0.212
   74SOL    HW2 1122   3.496   1.165   0.077
   75SOL     OW 1123   4.462   0.927   1.557
   75SOL    HW1 1124   4.389   0.914   1.624
   75SOL    HW2 1125   4.430   0.989   1.485
   76SOL     OW 1126   3.074   3.434   0.118
   76SOL    HW1 1127   3.042   3.339   0.120
   76SOL    HW2 1128   3.001   3.493   0.085
   77SOL     OW 1129   0.780   0.280   3.280
   77SOL    HW1 1130   0.825   0.213   3.340
   77SOL    HW2 1131   0.821   0.275   3.189
   78SOL     OW 1132   4.750   1.378   0.826
   78SOL    HW1 1133   4.741   1.476   0.807
   78SOL    HW2 1134   4.846   1.353   0.826
   79SOL     OW 1135   2.737   6.396   1.790
   79SOL    HW1 1136   2.824   6.352   1.767
   79SOL    HW2 1137   2.753   6.474   1.850
   80SOL     OW 1138   4.067   1.946   4.079
   80SOL    HW1 1139   4.069   2.046   4.081
   80SOL    HW2 1140   4.029   1.915   3.992
   81SOL     OW 1141   1.913   6.659   1.888
   81SOL    HW1 1142   1.987   6.592   1.882
   81SOL    HW2 1143   1.890   6.673   1.984
   82SOL     OW 1144   5.678   6.074   1.509
   82SOL    HW1 1145   5.646   6.080   1.603
   82SOL    HW2 1146   5.616   6.016   1.456
   83SOL     OW 1147   0.599   1.016   6.694
   83SOL    HW1 1148   0.653   0.972   6.623
   83SOL    HW2 1149   0.656   1.083   6.742
   84SOL     OW 1150   5.977   3.783   3.144
   84SOL    HW1 1151   5.964   3.761   3.047
   84SOL    HW2 1152   6.075   3.782   3.165
   85SOL     OW 1153   1.448   1.351   3.274
   85SOL    HW1 1154   1.439   1.379   3.178
   85SOL    HW2 1155   1.464   1.432   3.330
   86SOL     OW 1156   6.815   1.390   0.079
   86SOL    HW1 1157   6.726   1.392   0.034
   86SOL    HW2 1158   6.809   1.437   0.167
   87SOL     OW 1159   4.167   4.175   0.974
   87SOL    HW1 1160   4.205   4.086   0.997
   87SOL    HW2 1161   4.218   4.214   0.897
   88SOL     OW 1162   3.455   2.498   5.948
   88SOL    HW1 1163   3.419   2.480   5.856
   88SOL    HW2 1164   3.503   2.416   5.981
   89SOL     OW 1165   3.158   2.633   0.287
   89SOL    HW1 1166   3.143   2.699   0.213
   89SOL    HW2 1167   3.087   2.562   0.283
   90SOL     OW 1168   3.756   5.293   2.478
   90SOL    HW1 1169   3.770   5.207   2.527
   90SOL    HW2 1170   3.837   5.351   2.488
   91SOL     OW 1171   6.399   3.844   5.826
   91SOL    HW1 1172   6.459   3.831   5.905
   91SOL    HW2 1173   6.410   3.937   5.790
   92SOL     OW 1174   4.816   4.841   0.755
   92SOL    HW1 1175   4.849   4.828   0.662
   92SOL    HW2 1176   4.719   4.864   0.753
   93SOL     OW 1177   3.274   3.018   7.005
   93SOL    HW1 1178   3.250   2.964   6.924
   93SOL    HW2 1179   3.214   2.992   0.059
   94SOL     OW 1180   3.110   5.451   6.568
   94SOL    HW1 1181   3.014   5.466   6.589
   94SOL    HW2 1182   3.119   5.387   6.492
   95SOL     OW 1183   2.001   1.315   3.351
   95SOL    HW1 1184   2.068   1.245   3.377
   95SOL    HW2 1185   2.041   1.406   3.366
   96SOL     OW 1186   4.605   5.695   5.285
   96SOL    HW1 1187   4.521   5.720   5.334
   96SOL    HW2 1188   4.651   5.621   5.333
   97SOL     OW 1189   2.163   3.729   5.280
   97SOL    HW1 1190   2.259   3.710   5.299
   97SOL    HW2 1191   2.134   3.679   5.198
   98SOL     OW 1192   1.056   1.964   0.471
   98SOL    HW1 1193   1.040   1.962   0.372
   98SOL    HW2 1194   0.996   2.032   0.513
   99SOL     OW 1195   4.028   3.618   1.729
   99SOL    HW1 1196   4.095   3.690   1.746
   99SOL    HW2 1197   4.031   3.592   1.632
  100SOL     OW 1198   0.320   6.949   3.967
  100SOL    HW1 1199   0.271   6.931   3.882
  100SOL    HW2 1200   0.410   6.986   3.947
  101SOL     OW 1201   0.293   4.744   2.078
  101SOL    HW1 1202   0.355   4.812   2.039
  101SOL    HW2 1203   0.208   4.788   2.106
  102SOL     OW 1204   3.440   5.807   2.171
  102SOL    HW1 1205   3.380   5.821   2.092
  102SOL    HW2 1206   3.493   5.890   2.188
  103SOL     OW 1207   2.285   2.460   2.480
  103SOL    HW1 1208   2.293   2.383   2.417
  103SOL    HW2 1209   2.349   2.532   2.453
  104SOL     OW 1210   1.713   5.633   2.695
  104SOL    HW1 1211   1.662   5.675   2.770
  104SOL    HW2 1212   1.670   5.658   2.608
  105SOL     OW 1213   6.194   0.981   6.524
  105SOL    HW1 1214   6.207   0.914   6.450
  105SOL    HW2 1215   6.123   1.046   6.497
  106SOL     OW 1216   3.729   5.859   3.478
  106SOL    HW1 1217   3.722   5.860   3.379
  106SOL    HW2 1218   3.677   5.782   3.515
  107SOL     OW 1219   0.330   0.813   0.691
  107SOL    HW1 1220   0.253   0.825   0.628
  107SOL    HW2 1221   0.377   0.901   0.704
  108SOL     OW 1222   4.243   6.446   6.688
  108SOL    HW1 1223   4.166   6.507   6.708
  108SOL    HW2 1224   4.213   6.351   6.693
  109SOL     OW 1225   2.518   1.078   2.508
  109SOL    HW1 1226   2.571   1.017   2.568
  109SOL    HW2 1227   2.580   1.138   2.459
  110SOL     OW 1228   3.296   4.995   4.491
  110SOL    HW1 1229   3.252   4.936   4.558
  110SOL    HW2 1230   3.259   4.975   4.400
  111SOL     OW 1231   1.944   1.549   4.061
  111SOL    HW1 1232   1.892   1.607   3.997
  111SOL    HW2 1233   1.976   1.467   4.013
  112SOL     OW 1234   4.346   6.070   0.520
  112SOL    HW1 1235   4.426   6.011   0.537
  112SOL    HW2 1236   4.364   6.161   0.556
  113SOL     OW 1237   1.391   6.339   3.168
  113SOL    HW1 1238   1.485   6.307   3.168
  113SOL    HW2 1239   1.329   6.261   3.185
  114SOL     OW 1240   1.477   6.127   2.057
  114SOL    HW1 1241   1.552   6.186   2.026
  114SOL    HW2 1242   1.468   6.049   1.996
  115SOL     OW 1243   5.467   6.755   2.844
  115SOL    HW1 1244   5.405   6.734   2.768
  115SOL    HW2 1245   5.532   6.825   2.814
  116SOL     OW 1246   0.198   5.661   1.339
  116SOL    HW1 1247   0.267   5.593   1.365
  116SOL    HW2 1248   0.208   5.742   1.395
  117SOL     OW 1249   0.768   0.743   0.760
  117SOL    HW1 1250   0.863   0.714   0.765
  117SOL    HW2 1251   0.716   0.702   0.835
  118SOL     OW 1252   1.302   1.972   2.586
  118SOL    HW1 1253   1.302   1.873   2.595
  118SOL    HW2 1254   1.220   2.010   2.629
  119SOL     OW 1255   0.075   0.516   0.027
  119SOL    HW1 1256   0.126   0.542   6.967
  119SOL    HW2 1257   7.010   0.564   0.029
  120SOL     OW 1258   5.519   0.753   4.321
  120SOL    HW1 1259   5.537   0.691   4.398
  120SOL    HW2 1260   5.452   0.821   4.348
  121SOL     OW 1261   1.496   3.729   0.285
  121SOL    HW1 1262   1.551   3.797   0.236
  121SOL    HW2 1263   1.416   3.773   0.325
  122SOL     OW 1264   1.576   3.181   0.703
  122SOL    HW1 1265   1.527   3.142   0.625
  122SOL    HW2 1266   1.516   3.180   0.784
  123SOL     OW 1267   1.267   1.474   1.923
  123SOL    HW1 1268   1.256   1.511   2.016
  123SOL    HW2 1269   1.361   1.443   1.911
  124SOL     OW 1270   3.142   2.214   0.969
  124SOL    HW1 1271   3.062   2.230   0.912
  124SOL    HW2 1272   3.180   2.301   1.000
  125SOL     OW 1273   3.720   2.997   0.663
  125SOL    HW1 1274   3.656   3.064   0.625
  125SOL    HW2 1275   3.694   2.906   0.632
  126SOL     OW 1276   3.298   2.932   2.779
  126SOL    HW1 1277   3.319   2.939   2.876
  126SOL    HW2 1278   3.213   2.982   2.760
  127SOL     OW 1279   0.001   5.364   6.284
  127SOL    HW1 1280   0.058   5.282   6.280
  127SOL    HW2 1281   0.011   5.416   6.199
  128SOL     OW 1282   4.771   3.126   1.189
  128SOL    HW1 1283   4.775   3.142   1.090
  128SOL    HW2 1284   4.679   3.097   1.214
  129SOL     OW 1285   2.943   3.471   0.403
  129SOL    HW1 1286   2.848   3.440   0.409
  129SOL    HW2 1287   2.981   3.445   0.314
  130SOL     OW 1288   6.876   0.136   4.574
  130SOL    HW1 1289   6.860   0.213   4.512
  130SOL    HW2 1290   6.833   0.054   4.537
  131SOL     OW 1291   5.356   0.311   3.832
  131SOL    HW1 1292   5.417   0.296   3.910
  131SOL    HW2 1293   5.266   0.337   3.865
  132SOL     OW 1294   2.859   2.417   1.111
  132SOL    HW1 1295   2.817   2.476   1.181
  132SOL    HW2 1296   2.958   2.429   1.113
  133SOL     OW 1297   5.615   0.966   3.418
  133SOL    HW1 1298   5.610   0.876   3.461
  133SOL    HW2 1299   5.710   0.988   3.398
  134SOL     OW 1300   7.018   0.284   3.100
  134SOL    HW1 1301   0.034   0.370   3.134
  134SOL    HW2 1302   0.068   0.229   3.058
  135SOL     OW 1303   5.178   3.739   4.117
  135SOL    HW1 1304   5.219   3.705   4.032
  135SOL    HW2 1305   5.166   3.663   4.181
  136SOL     OW 1306   2.053   5.314   5.004
  136SOL    HW1 1307   2.138   5.262   5.010
  136SOL    HW2 1308   1.977   5.253   4.979
  137SOL     OW 1309   4.295   1.515   3.701
  137SOL    HW1 1310   4.316   1.598   3.751
  137SOL    HW2 1311   4.344   1.514   3.614
  138SOL     OW 1312   0.961   4.075   3.140
  138SOL    HW1 1313   1.034   4.007   3.128
  138SOL    HW2 1314   1.001   4.161   3.172
  139SOL     OW 1315   1.909   6.005   5.472
  139SOL    HW1 1316   1.832   6.048   5.520
  139SOL    HW2 1317   1.986   6.070   5.468
  140SOL     OW 1318   1.358   6.294   4.001
  140SOL    HW1 1319   1.437   6.269   4.057
  140SOL    HW2 1320   1.331   6.216   3.944
  141SOL     OW 1321   6.661   3.059   5.594
  141SOL    HW1 1322   6.697   2.967   5.609
  141SOL    HW2 1323   6.592   3.080   5.663
  142SOL     OW 1324   2.109   3.583   2.194
  142SOL    HW1 1325   2.168   3.561   2.116
  142SOL    HW2 1326   2.081   3.500   2.240
  143SOL     OW 1327   5.345   6.060   1.019
  143SOL    HW1 1328   5.408   6.133   0.994
  143SOL    HW2 1329   5.397   5.981   1.053
  144SOL     OW 1330   2.162   4.747   5.387
  144SOL    HW1 1331   2.193   4.656   5.415
  144SOL    HW2 1332   2.094   4.737   5.314
  145SOL     OW 1333   2.356   5.483   1.324
  145SOL    HW1 1334   2.358   5.407   1.259
  145SOL    HW2 1335   2.368   5.569   1.274
  146SOL     OW 1336   5.243   0.223   0.070
  146SOL    HW1 1337   5.184   0.221   7.012
  146SOL    HW2 1338   5.211   0.156   0.137
  147SOL     OW 1339   5.344   1.134   6.051
  147SOL    HW1 1340   5.304   1.045   6.028
  147SOL    HW2 1341   5.435   1.121   6.089
  148SOL     OW 1342   0.655   5.232   1.496
  148SOL    HW1 1343   0.624   5.323   1.522
  148SOL    HW2 1344   0.718   5.197   1.565
  149SOL     OW 1345   3.500   1.982   4.898
  149SOL    HW1 1346   3.485   1.884   4.905
  149SOL    HW2 1347   3.437   2.021   4.831
  150SOL     OW 1348   4.930   0.260   6.419
  150SOL    HW1 1349   4.946   0.355   6.445
  150SOL    HW2 1350   4.983   0.239   6.337
  151SOL     OW 1351   3.718   0.554   2.240
  151SOL    HW1 1352   3.710   0.650   2.266
  151SOL    HW2 1353   3.666   0.537   2.156
  152SOL     OW 1354   6.968   1.836   0.394
  152SOL    HW1 1355   6.927   1.856   0.305
  152SOL    HW2 1356   6.896   1.813   0.460
  153SOL     OW 1357   3.158   6.439   3.074
  153SOL    HW1 1358   3.216   6.416   2.996
  153SOL    HW2 1359   3.198   6.402   3.158
  154SOL     OW 1360   0.339   3.469   0.680
  154SOL    HW1 1361   0.263   3.404   0.673
  154SOL    HW2 1362   0.338   3.512   0.770
  155SOL     OW 1363   0.799   0.865   3.255
  155SOL    HW1 1364   0.791   0.922   3.173
  155SOL    HW2 1365   0.843   0.778   3.231
  156SOL     OW 1366   6.807   0.272   0.020
  156SOL    HW1 1367   6.777   0.332   6.968
  156SOL    HW2 1368   6.753   0.187   0.018
  157SOL     OW 1369   5.710   3.574   0.453
  157SOL    HW1 1370   5.699   3.662   0.408
  157SOL    HW2 1371   5.717   3.587   0.552
  158SOL     OW 1372   2.033   2.745   1.262
  158SOL    HW1 1373   2.074   2.659   1.293
  158SOL    HW2 1374   2.096   2.820   1.277
  159SOL     OW 1375   4.099   5.043   1.506
  159SOL    HW1 1376   4.184   5.007   1.469
  159SOL    HW2 1377   4.112   5.139   1.531
  160SOL     OW 1378   6.043   0.282   0.884
  160SOL    HW1 1379   5.995   0.257   0.800
  160SOL    HW2 1380   6.060   0.380   0.885
  161SOL     OW 1381   1.358   0.096   2.695
  161SOL    HW1 1382   1.448   0.062   2.666
  161SOL    HW2 1383   1.366   0.192   2.720
  162SOL     OW 1384   3.464   5.828   6.631
  162SOL    HW1 1385   3.389   5.762   6.621
  162SOL    HW2 1386   3.504   5.846   6.541
  163SOL     OW 1387   0.444   5.924   2.666
  163SOL    HW1 1388   0.348   5.928   2.693
  163SOL    HW2 1389   0.486   5.840   2.702
  164SOL     OW 1390   1.039   3.457   2.409
  164SOL    HW1 1391   0.968   3.494   2.469
  164SOL    HW2 1392   1.048   3.359   2.425
  165SOL     OW 1393   5.417   5.369   6.920
  165SOL    HW1 1394   5.476   5.325   6.988
  165SOL    HW2 1395   5.461   5.454   6.888
  166SOL     OW 1396   0.211   3.685   2.000
  166SOL    HW1 1397   0.257   3.679   1.911
  166SOL    HW2 1398   0.211   3.595   2.043
  167SOL     OW 1399   6.288   1.842   6.329
  167SOL    HW1 1400   6.282   1.942   6.335
  167SOL    HW2 1401   6.197   1.803   6.338
  168SOL     OW 1402   4.343   2.256   1.137
  168SOL    HW1 1403   4.257   2.274   1.089
  168SOL    HW2 1404   4.376   2.165   1.113
  169SOL     OW 1405   5.451   2.722   6.917
  169SOL    HW1 1406   5.498   2.684   6.838
  169SOL    HW2 1407   5.456   2.657   6.993
  170SOL     OW 1408   6.940   5.668   2.302
  170SOL    HW1 1409   6.918   5.592   2.364
  170SOL    HW2 1410   6.910   5.645   2.209
  171SOL     OW 1411   2.530   4.748   0.385
  171SOL    HW1 1412   2.584   4.680   0.336
  171SOL    HW2 1413   2.453   4.703   0.430
  172SOL     OW 1414   5.737   1.796   2.963
  172SOL    HW1 1415   5.750   1.809   3.061
  172SOL    HW2 1416   5.649   1.834   2.935
  173SOL     OW 1417   5.698   1.532   4.754
  173SOL    HW1 1418   5.775   1.576   4.710
  173SOL    HW2 1419   5.679   1.576   4.842
  174SOL     OW 1420   4.690   5.229   3.312
  174SOL    HW1 1421   4.748   5.305   3.282
  174SOL    HW2 1422   4.595   5.247   3.288
  175SOL     OW 1423   3.437   0.849   0.844
  175SOL    HW1 1424   3.393   0.926   0.798
  175SOL    HW2 1425   3.532   0.871   0.864
  176SOL     OW 1426   5.317   4.781   2.220
  176SOL    HW1 1427   5.391   4.812   2.280
  176SOL    HW2 1428   5.330   4.684   2.198
  177SOL     OW 1429   4.896   3.310   4.477
  177SOL    HW1 1430   4.907   3.244   4.551
  177SOL    HW2 1431   4.966   3.295   4.408
  178SOL     OW 1432   2.862   4.842   5.540
  178SOL    HW1 1433   2.800   4.834   5.618
  178SOL    HW2 1434   2.870   4.753   5.495
  179SOL     OW 1435   4.101   0.227   6.737
  179SOL    HW1 1436   4.164   0.205   6.811
  179SOL    HW2 1437   4.079   0.325   6.739
  180SOL     OW 1438   2.386   6.780   0.355
  180SOL    HW1 1439   2.413   6.849   0.422
  180SOL    HW2 1440   2.310   6.726   0.391
  181SOL     OW 1441   2.815   3.350   6.032
  181SOL    HW1 1442   2.884   3.360   6.103
  181SOL    HW2 1443   2.731   3.314   6.071
  182SOL     OW 1444   4.002   2.194   6.415
  182SOL    HW1 1445   4.052   2.280   6.407
  182SOL    HW2 1446   4.031   2.145   6.497
  183SOL     OW 1447   3.512   2.107   3.706
  183SOL    HW1 1448   3.516   2.113   3.607
  183SOL    HW2 1449   3.597   2.067   3.741
  184SOL     OW 1450   0.331   6.563   3.257
  184SOL    HW1 1451   0.283   6.500   3.196
  184SOL    HW2 1452   0.421   6.525   3.280
  185SOL     OW 1453   1.292   1.173   5.021
  185SOL    HW1 1454   1.246   1.171   5.109
  185SOL    HW2 1455   1.236   1.126   4.952
  186SOL     OW 1456   5.907   0.890   4.246
  186SOL    HW1 1457   5.842   0.828   4.203
  186SOL    HW2 1458   5.877   0.911   4.339
  187SOL     OW 1459   5.839   6.548   2.419
  187SOL    HW1 1460   5.898   6.628   2.416
  187SOL    HW2 1461   5.894   6.467   2.442
  188SOL     OW 1462   0.331   3.404   3.922
  188SOL    HW1 1463   0.312   3.501   3.938
  188SOL    HW2 1464   0.403   3.394   3.853
  189SOL     OW 1465   1.863   5.188   6.953
  189SOL    HW1 1466   1.774   5.149   6.979
  189SOL    HW2 1467   1.904   5.133   6.880
  190SOL     OW 1468   6.251   4.601   5.939
  190SOL    HW1 1469   6.285   4.556   5.857
  190SOL    HW2 1470   6.323   4.602   6.009
  191SOL     OW 1471   6.320   1.286   6.519
  191SOL    HW1 1472   6.292   1.310   6.426
  191SOL    HW2 1473   6.271   1.204   6.549
  192SOL     OW 1474   0.484   4.402   1.732
  192SOL    HW1 1475   0.461   4.482   1.787
  192SOL    HW2 1476   0.452   4.319   1.779
  193SOL     OW 1477   4.988   4.061   5.448
  193SOL    HW1 1478   5.079   4.033   5.476
  193SOL    HW2 1479   4.925   3.984   5.457
  194SOL     OW 1480   3.614   6.310   3.317
  194SOL    HW1 1481   3.661   6.263   3.243
  194SOL    HW2 1482   3.617   6.253   3.400
  195SOL     OW 1483   1.726   1.370   3.516
  195SOL    HW1 1484   1.656   1.342   3.582
  195SOL    HW2 1485   1.791   1.432   3.560
  196SOL     OW 1486   3.039   0.327   6.799
  196SOL    HW1 1487   3.008   0.263   6.870
  196SOL    HW2 1488   3.122   0.290   6.756
  197SOL     OW 1489   2.826   0.238   0.250
  197SOL    HW1 1490   2.726   0.229   0.252
  197SOL    HW2 1491   2.854   0.306   0.317
  198SOL     OW 1492   4.583   0.029   2.304
  198SOL    HW1 1493   4.602   0.120   2.267
  198SOL    HW2 1494   4.549   6.992   2.232
  199SOL     OW 1495   6.315   1.235   3.263
  199SOL    HW1 1496   6.294   1.207   3.357
  199SOL    HW2 1497   6.340   1.332   3.263
  200SOL     OW 1498   0.838   4.009   1.875
  200SOL    HW1 1499   0.878   3.979   1.961
  200SOL    HW2 1500   0.900   3.986   1.800
  201SOL     OW 1501   4.874   6.796   6.267
  201SOL    HW1 1502   4.878   6.772   6.364
  201SOL    HW2 1503   4.794   6.753   6.225
  202SOL     OW 1504   5.577   0.141   5.823
  202SOL    HW1 1505   5.574   0.188   5.735
  202SOL    HW2 1506   5.576   0.208   5.897
  203SOL     OW 1507   4.789   2.159   4.636
  203SOL    HW1 1508   4.713   2.112   4.590
  203SOL    HW2 1509   4.769   2.257   4.640
  204SOL     OW 1510   6.920   0.913   6.748
  204SOL    HW1 1511   6.923   0.892   6.846
  204SOL    HW2 1512   7.013   0.914   6.711
  205SOL     OW 1513   0.996   1.039   2.235
  205SOL    HW1 1514   1.034   0.953   2.202
  205SOL    HW2 1515   1.035   1.115   2.184
  206SOL     OW 1516   6.990   4.854   2.712
  206SOL    HW1 1517   6.960   4.948   2.698
  206SOL    HW2 1518   0.064   4.845   2.686
  207SOL     OW 1519   4.173   0.680   4.190
  207SOL    HW1 1520   4.207   0.609   4.251
  207SOL    HW2 1521   4.249   0.721   4.140
  208SOL     OW 1522   5.210   3.997   5.589
  208SOL    HW1 1523   5.206   3.913   5.535
  208SOL    HW2 1524   5.286   3.992   5.654
  209SOL     OW 1525   1.049   4.952   4.810
  209SOL    HW1 1526   1.091   4.944   4.901
  209SOL    HW2 1527   1.031   5.048   4.790
  210SOL     OW 1528   4.808   2.074   1.398
  210SOL    HW1 1529   4.891   2.101   1.349
  210SOL    HW2 1530   4.803   2.123   1.485
  211SOL     OW 1531   1.215   5.976   4.280
  211SOL    HW1 1532   1.167   6.055   4.241
  211SOL    HW2 1533   1.153   5.899   4.288
  212SOL     OW 1534   2.178   4.568   2.352
  212SOL    HW1 1535   2.149   4.606   2.440
  212SOL    HW2 1536   2.276   4.587   2.339
  213SOL     OW 1537   3.524   1.016   5.947
  213SOL    HW1 1538   3.442   1.017   6.004
  213SOL    HW2 1539   3.500   0.992   5.853
  214SOL     OW 1540   3.731   5.943   2.025
  214SOL    HW1 1541   3.678   5.906   1.949
  214SOL    HW2 1542   3.788   5.871   2.065
  215SOL     OW 1543   3.096   4.088   1.813
  215SOL    HW1 1544   3.090   4.079   1.912
  215SOL    HW2 1545   3.016   4.045   1.771
  216SOL     OW 1546   1.753   6.262   4.794
  216SOL    HW1 1547   1.737   6.166   4.769
  216SOL    HW2 1548   1.748   6.272   4.893
  217SOL     OW 1549   2.751   2.324   3.788
  217SOL    HW1 1550   2.762   2.320   3.688
  217SOL    HW2 1551   2.666   2.278   3.814
  218SOL     OW 1552   0.406   3.527   4.390
  218SOL    HW1 1553   0.339   3.453   4.401
  218SOL    HW2 1554   0.489   3.491   4.347
  219SOL     OW 1555   3.107   6.538   6.471
  219SOL    HW1 1556   3.040   6.569   6.539
  219SOL    HW2 1557   3.172   6.612   6.453
  220SOL     OW 1558   3.678   6.728   6.352
  220SOL    HW1 1559   3.730   6.642   6.350
  220SOL    HW2 1560   3.630   6.740   6.265
  221SOL     OW 1561   0.139   3.753   2.469
  221SOL    HW1 1562   0.174   3.828   2.414
  221SOL    HW2 1563   0.201   3.736   2.546
  222SOL     OW 1564   2.208   5.033   5.598
  222SOL    HW1 1565   2.139   5.100   5.572
  222SOL    HW2 1566   2.264   5.009   5.518
  223SOL     OW 1567   5.804   3.452   1.021
  223SOL    HW1 1568   5.878   3.517   1.031
  223SOL    HW2 1569   5.720   3.500   0.994
  224SOL     OW 1570   2.872   1.794   3.756
  224SOL    HW1 1571   2.844   1.805   3.661
  224SOL    HW2 1572   2.792   1.796   3.815
  225SOL     OW 1573   5.168   1.246   6.238
  225SOL    HW1 1574   5.253   1.231   6.187
  225SOL    HW2 1575   5.187   1.303   6.318
  226SOL     OW 1576   0.770   0.194   5.797
  226SOL    HW1 1577   0.840   0.257   5.830
  226SOL    HW2 1578   0.742   0.221   5.705
  227SOL     OW 1579   1.541   4.260   2.053
  227SOL    HW1 1580   1.509   4.281   2.145
  227SOL    HW2 1581   1.630   4.213   2.058
  228SOL     OW 1582   3.334   6.289   3.875
  228SOL    HW1 1583   3.404   6.294   3.947
  228SOL    HW2 1584   3.275   6.210   3.893
  229SOL     OW 1585   5.086   6.819   0.440
  229SOL    HW1 1586   5.149   6.757   0.394
  229SOL    HW2 1587   4.994   6.808   0.403
  230SOL     OW 1588   2.674   4.722   2.573
  230SOL    HW1 1589   2.705   4.815   2.593
  230SOL    HW2 1590   2.682   4.705   2.475
  231SOL     OW 1591   6.356   2.295   6.393
  231SOL    HW1 1592   6.405   2.377   6.422
  231SOL    HW2 1593   6.362   2.226   6.465
  232SOL     OW 1594   1.328   4.349   6.169
  232SOL    HW1 1595   1.261   4.347   6.242
  232SOL    HW2 1596   1.332   4.259   6.125
  233SOL     OW 1597   2.207   1.046   3.828
  233SOL    HW1 1598   2.236   0.976   3.763
  233SOL    HW2 1599   2.254   1.132   3.807
  234SOL     OW 1600   3.169   6.090   5.481
  234SOL    HW1 1601   3.150   6.067   5.385
  234SOL    HW2 1602   3.086   6.080   5.535
  235SOL     OW 1603   3.156   3.735   2.306
  235SOL    HW1 1604   3.146   3.685   2.220
  235SOL    HW2 1605   3.085   3.706   2.369
  236SOL     OW 1606   5.774   2.814   6.820
  236SOL    HW1 1607   5.728   2.752   6.756
  236SOL    HW2 1608   5.862   2.841   6.781
  237SOL     OW 1609   6.506   6.510   0.745
  237SOL    HW1 1610   6.519   6.499   0.843
  237SOL    HW2 1611   6.467   6.601   0.726
  238SOL     OW 1612   6.149   1.841   6.938
  238SOL    HW1 1613   6.213   1.866   6.866
  238SOL    HW2 1614   6.109   1.924   6.977
  239SOL     OW 1615   0.011   5.876   6.921
  239SOL    HW1 1616   0.003   5.795   6.863
  239SOL    HW2 1617   6.948   5.928   6.917
  240SOL     OW 1618   0.316   3.066   5.853
  240SOL    HW1 1619   0.232   3.042   5.901
  240SOL    HW2 1620   0.331   3.165   5.860
  241SOL     OW 1621   1.508   0.318   4.366
  241SOL    HW1 1622   1.567   0.368   4.303
  241SOL    HW2 1623   1.413   0.326   4.336
  242SOL     OW 1624   2.234   3.108   6.417
  242SOL    HW1 1625   2.275   3.080   6.504
  242SOL    HW2 1626   2.252   3.205   6.401
  243SOL     OW 1627   5.135   0.235   6.838
  243SOL    HW1 1628   5.182   0.294   6.772
  243SOL    HW2 1629   5.059   0.189   6.793
  244SOL     OW 1630   4.840   3.078   4.142
  244SOL    HW1 1631   4.830   2.992   4.192
  244SOL    HW2 1632   4.830   3.155   4.205
  245SOL     OW 1633   0.120   2.220   5.022
  245SOL    HW1 1634   0.164   2.211   5.112
  245SOL    HW2 1635   0.032   2.171   5.023
  246SOL     OW 1636   5.552   3.205   3.230
  246SOL    HW1 1637   5.565   3.233   3.326
  246SOL    HW2 1638   5.557   3.106   3.223
  247SOL     OW 1639   2.062   1.577   2.063
  247SOL    HW1 1640   2.046   1.581   2.162
  247SOL    HW2 1641   2.132   1.508   2.043
  248SOL     OW 1642   4.299   1.962   4.325
  248SOL    HW1 1643   4.344   2.045   4.292
  248SOL    HW2 1644   4.364   1.886   4.326
  249SOL     OW 1645   4.915   6.983   5.504
  249SOL    HW1 1646   4.951   6.899   5.462
  249SOL    HW2 1647   4.818   6.992   5.482
  250SOL     OW 1648   4.994   2.327   6.065
  250SOL    HW1 1649   5.010   2.422   6.090
  250SOL    HW2 1650   4.902   2.300   6.091
  251SOL     OW 1651   4.376   5.090   6.654
  251SOL    HW1 1652   4.408   5.144   6.576
  251SOL    HW2 1653   4.452   5.071   6.715
  252SOL     OW 1654   0.330   0.649   0.203
  252SOL    HW1 1655   0.336   0.557   0.244
  252SOL    HW2 1656   0.383   0.650   0.118
  253SOL     OW 1657   2.148   4.326   0.160
  253SOL    HW1 1658   2.049   4.344   0.164
  253SOL    HW2 1659   2.198   4.411   0.168
  254SOL     OW 1660   6.472   2.771   3.556
  254SOL    HW1 1661   6.449   2.867   3.572
  254SOL    HW2 1662   6.430   2.741   3.470
  255SOL     OW 1663   1.839   3.201   4.069
  255SOL    HW1 1664   1.930   3.208   4.028
  255SOL    HW2 1665   1.809   3.292   4.098
  256SOL     OW 1666   6.515   4.489   0.336
  256SOL    HW1 1667   6.601   4.438   0.340
  256SOL    HW2 1668   6.477   4.499   0.428
  257SOL     OW 1669   3.852   5.463   5.287
  257SOL    HW1 1670   3.920   5.537   5.291
  257SOL    HW2 1671   3.811   5.460   5.196
  258SOL     OW 1672   5.361   4.975   4.674
  258SOL    HW1 1673   5.429   4.940   4.610
  258SOL    HW2 1674   5.286   4.909   4.682
  259SOL     OW 1675   1.899   2.729   2.387
  259SOL    HW1 1676   1.846   2.772   2.459
  259SOL    HW2 1677   1.996   2.754   2.397
  260SOL     OW 1678   4.558   1.161   1.680
  260SOL    HW1 1679   4.463   1.192   1.692
  260SOL    HW2 1680   4.560   1.084   1.616
  261SOL     OW 1681   6.595   3.834   0.992
  261SOL    HW1 1682   6.647   3.861   1.073
  261SOL    HW2 1683   6.544   3.751   1.012
  262SOL     OW 1684   0.705   3.796   1.422
  262SOL    HW1 1685   0.682   3.874   1.363
  262SOL    HW2 1686   0.653   3.802   1.506
  263SOL     OW 1687   0.624   1.187   3.657
  263SOL    HW1 1688   0.660   1.207   3.748
  263SOL    HW2 1689   0.524   1.183   3.660
  264SOL     OW 1690   5.566   4.178   5.081
  264SOL    HW1 1691   5.539   4.101   5.023
  264SOL    HW2 1692   5.502   4.186   5.157
  265SOL     OW 1693   4.687   4.314   3.198
  265SOL    HW1 1694   4.699   4.228   3.147
  265SOL    HW2 1695   4.629   4.375   3.145
  266SOL     OW 1696   3.292   3.126   5.996
  266SOL    HW1 1697   3.240   3.211   5.987
  266SOL    HW2 1698   3.271   3.084   6.084
  267SOL     OW 1699   6.919   2.695   6.093
  267SOL    HW1 1700   6.858   2.744   6.030
  267SOL    HW2 1701   6.881   2.604   6.111
  268SOL     OW 1702   4.889   6.684   5.146
  268SOL    HW1 1703   4.825   6.758   5.164
  268SOL    HW2 1704   4.859   6.601   5.194
  269SOL     OW 1705   2.002   1.916   0.225
  269SOL    HW1 1706   2.100   1.919   0.241
  269SOL    HW2 1707   1.972   1.820   0.223
  270SOL     OW 1708   6.960   0.449   1.975
  270SOL    HW1 1709   6.992   0.398   1.895
  270SOL    HW2 1710   0.016   0.476   2.031
  271SOL     OW 1711   2.466   2.369   0.351
  271SOL    HW1 1712   2.528   2.349   0.275
  271SOL    HW2 1713   2.496   2.453   0.396
  272SOL     OW 1714   3.081   5.477   4.268
  272SOL    HW1 1715   3.148   5.508   4.201
  272SOL    HW2 1716   2.993   5.519   4.248
  273SOL     OW 1717   1.409   5.433   5.469
  273SOL    HW1 1718   1.476   5.367   5.503
  273SOL    HW2 1719   1.439   5.471   5.382
  274SOL     OW 1720   5.571   1.917   4.081
  274SOL    HW1 1721   5.620   1.833   4.060
  274SOL    HW2 1722   5.609   1.959   4.164
  275SOL     OW 1723   7.004   5.682   6.221
  275SOL    HW1 1724   0.020   5.666   6.312
  275SOL    HW2 1725   6.905   5.668   6.224
  276SOL     OW 1726   6.647   5.195   3.668
  276SOL    HW1 1727   6.588   5.172   3.746
  276SOL    HW2 1728   6.596   5.253   3.604
  277SOL     OW 1729   3.034   1.550   0.088
  277SOL    HW1 1730   3.017   1.633   0.036
  277SOL    HW2 1731   2.967   1.542   0.162
  278SOL     OW 1732   6.626   3.577   1.753
  278SOL    HW1 1733   6.662   3.561   1.845
  278SOL    HW2 1734   6.526   3.581   1.757
  279SOL     OW 1735   6.129   2.907   4.573
  279SOL    HW1 1736   6.056   2.938   4.634
  279SOL    HW2 1737   6.091   2.888   4.482
  280SOL     OW 1738   3.882   6.957   2.687
  280SOL    HW1 1739   3.914   0.006   2.750
  280SOL    HW2 1740   3.790   6.979   2.656
  281SOL     OW 1741   2.654   4.631   2.826
  281SOL    HW1 1742   2.701   4.543   2.817
  281SOL    HW2 1743   2.639   4.670   2.735
  282SOL     OW 1744   3.874   2.406   5.330
  282SOL    HW1 1745   3.955   2.438   5.281
  282SOL    HW2 1746   3.839   2.323   5.286
  283SOL     OW 1747   6.553   0.982   5.956
  283SOL    HW1 1748   6.629   1.046   5.942
  283SOL    HW2 1749   6.589   0.892   5.978
  284SOL     OW 1750   0.412   4.704   5.086
  284SOL    HW1 1751   0.403   4.605   5.080
  284SOL    HW2 1752   0.460   4.728   5.170
  285SOL     OW 1753   5.092   5.802   6.987
  285SOL    HW1 1754   5.154   5.879   7.003
  285SOL    HW2 1755   5.106   5.733   0.035
  286SOL     OW 1756   4.195   4.870   5.129
  286SOL    HW1 1757   4.142   4.904   5.207
  286SOL    HW2 1758   4.245   4.788   5.157
  287SOL     OW 1759   0.252   5.107   6.678
  287SOL    HW1 1760   0.304   5.023   6.668
  287SOL    HW2 1761   0.187   5.115   6.603
  288SOL     OW 1762   3.951   1.413   0.569
  288SOL    HW1 1763   3.976   1.365   0.484
  288SOL    HW2 1764   3.901   1.496   0.547
  289SOL     OW 1765   0.456   5.053   4.894
  289SOL    HW1 1766   0.401   5.043   4.811
  289SOL    HW2 1767   0.403   5.105   4.962
  290SOL     OW 1768   5.050   1.824   3.729
  290SOL    HW1 1769   5.145   1.793   3.722
  290SOL    HW2 1770   5.044   1.896   3.798
  291SOL     OW 1771   3.728   1.076   4.364
  291SOL    HW1 1772   3.784   1.155   4.340
  291SOL    HW2 1773   3.753   0.998   4.306
  292SOL     OW 1774   4.400   1.768   3.770
  292SOL    HW1 1775   4.480   1.827   3.778
  292SOL    HW2 1776   4.334   1.809   3.707
  293SOL     OW 1777   3.787   6.338   1.422
  293SOL    HW1 1778   3.776   6.370   1.516
  293SOL    HW2 1779   3.821   6.244   1.423
  294SOL     OW 1780   6.396   5.802   6.994
  294SOL    HW1 1781   6.356   5.893   6.983
  294SOL    HW2 1782   6.345   5.736   6.940
  295SOL     OW 1783   2.559   1.677   5.338
  295SOL    HW1 1784   2.574   1.765   5.291
  295SOL    HW2 1785   2.486   1.627   5.292
  296SOL     OW 1786   6.206   2.427   1.814
  296SOL    HW1 1787   6.244   2.518   1.798
  296SOL    HW2 1788   6.114   2.423   1.775
  297SOL     OW 1789   3.125   4.857   2.961
  297SOL    HW1 1790   3.037   4.820   2.929
  297SOL    HW2 1791   3.108   4.940   3.014
  298SOL     OW 1792   3.873   7.021   0.096
  298SOL    HW1 1793   3.894   0.001   7.020
  298SOL    HW2 1794   3.897   0.088   0.136
  299SOL     OW 1795   4.446   2.509   6.216
  299SOL    HW1 1796   4.357   2.529   6.177
  299SOL    HW2 1797   4.435   2.462   6.304
  300SOL     OW 1798   4.651   1.033   2.427
  300SOL    HW1 1799   4.597   0.952   2.450
  300SOL    HW2 1800   4.648   1.047   2.328
  301SOL     OW 1801   4.984   1.783   0.718
  301SOL    HW1 1802   4.981   1.739   0.628
  301SOL    HW2 1803   5.061   1.847   0.722
  302SOL     OW 1804   6.855   0.574   2.755
  302SOL    HW1 1805   6.881   0.652   2.811
  302SOL    HW2 1806   6.835   0.496   2.814
  303SOL     OW 1807   6.367   6.063   1.988
  303SOL    HW1 1808   6.457   6.043   2.027
  303SOL    HW2 1809   6.370   6.052   1.889
  304SOL     OW 1810   2.049   6.180   6.155
  304SOL    HW1 1811   2.080   6.166   6.061
  304SOL    HW2 1812   2.128   6.196   6.214
  305SOL     OW 1813   1.181   3.054   0.845
  305SOL    HW1 1814   1.181   3.043   0.746
  305SOL    HW2 1815   1.128   2.981   0.887
  306SOL     OW 1816   0.672   0.858   2.677
  306SOL    HW1 1817   0.756   0.873   2.728
  306SOL    HW2 1818   0.677   0.906   2.589
  307SOL     OW 1819   4.671   4.431   0.496
  307SOL    HW1 1820   4.765   4.460   0.480
  307SOL    HW2 1821   4.639   4.468   0.583
  308SOL     OW 1822   5.928   3.593   4.404
  308SOL    HW1 1823   5.921   3.554   4.312
  308SOL    HW2 1824   5.881   3.682   4.406
  309SOL     OW 1825   1.316   5.789   0.282
  309SOL    HW1 1826   1.368   5.765   0.365
  309SOL    HW2 1827   1.310   5.709   0.223
  310SOL     OW 1828   5.157   5.781   4.380
  310SOL    HW1 1829   5.062   5.811   4.389
  310SOL    HW2 1830   5.213   5.829   4.447
  311SOL     OW 1831   3.120   5.166   2.929
  311SOL    HW1 1832   3.192   5.155   2.860
  311SOL    HW2 1833   3.137   5.249   2.982
  312SOL     OW 1834   3.804   1.724   4.311
  312SOL    HW1 1835   3.842   1.751   4.400
  312SOL    HW2 1836   3.748   1.798   4.274
  313SOL     OW 1837   3.411   4.098   2.538
  313SOL    HW1 1838   3.372   4.022   2.487
  313SOL    HW2 1839   3.349   4.176   2.535
  314SOL     OW 1840   2.677   4.581   6.341
  314SOL    HW1 1841   2.692   4.593   6.439
  314SOL    HW2 1842   2.721   4.656   6.291
  315SOL     OW 1843   0.801   2.926   4.213
  315SOL    HW1 1844   0.883   2.943   4.159
  315SOL    HW2 1845   0.744   3.008   4.215
  316SOL     OW 1846   3.267   0.439   4.493
  316SOL    HW1 1847   3.214   0.389   4.425
  316SOL    HW2 1848   3.214   0.517   4.525
  317SOL     OW 1849   6.961   1.879   1.181
  317SOL    HW1 1850   6.977   1.906   1.087
  317SOL    HW2 1851   7.002   1.788   1.197
  318SOL     OW 1852   0.199   6.532   6.871
  318SOL    HW1 1853   0.188   6.443   6.825
  318SOL    HW2 1854   0.296   6.556   6.875
  319SOL     OW 1855   6.613   1.218   3.872
  319SOL    HW1 1856   6.566   1.143   3.827
  319SOL    HW2 1857   6.638   1.288   3.805
  320SOL     OW 1858   5.485   2.442   0.054
  320SOL    HW1 1859   5.489   2.351   0.094
  320SOL    HW2 1860   5.481   2.510   0.127
  321SOL     OW 1861   3.719   1.831   7.022
  321SOL    HW1 1862   3.633   1.873   0.026
  321SOL    HW2 1863   3.724   1.825   6.922
  322SOL     OW 1864   3.003   3.202   4.098
  322SOL    HW1 1865   2.998   3.215   4.197
  322SOL    HW2 1866   2.927   3.250   4.054
  323SOL     OW 1867   1.012   2.637   6.172
  323SOL    HW1 1868   1.038   2.728   6.140
  323SOL    HW2 1869   1.006   2.574   6.094
  324SOL     OW 1870   3.089   0.245   3.026
  324SOL    HW1 1871   3.155   0.251   3.100
  324SOL    HW2 1872   3.044   0.334   3.014
  325SOL     OW 1873   0.605   2.672   1.775
  325SOL    HW1 1874   0.537   2.731   1.819
  325SOL    HW2 1875   0.573   2.646   1.684
  326SOL     OW 1876   1.089   3.954   6.216
  326SOL    HW1 1877   1.052   3.863   6.196
  326SOL    HW2 1878   1.042   3.992   6.296
  327SOL     OW 1879   1.714   4.753   2.264
  327SOL    HW1 1880   1.807   4.789   2.263
  327SOL    HW2 1881   1.678   4.758   2.358
  328SOL     OW 1882   1.457   5.856   1.849
  328SOL    HW1 1883   1.385   5.812   1.795
  328SOL    HW2 1884   1.518   5.908   1.789
  329SOL     OW 1885   2.920   3.549   5.288
  329SOL    HW1 1886   3.016   3.578   5.287
  329SOL    HW2 1887   2.908   3.470   5.228
  330SOL     OW 1888   3.200   6.457   1.505
  330SOL    HW1 1889   3.141   6.376   1.497
  330SOL    HW2 1890   3.162   6.532   1.452
  331SOL     OW 1891   4.182   5.631   0.694
  331SOL    HW1 1892   4.244   5.639   0.616
  331SOL    HW2 1893   4.093   5.597   0.663
  332SOL     OW 1894   5.073   2.658   5.713
  332SOL    HW1 1895   5.142   2.724   5.743
  332SOL    HW2 1896   5.084   2.640   5.615
  333SOL     OW 1897   4.378   0.993   5.552
  333SOL    HW1 1898   4.441   0.928   5.594
  333SOL    HW2 1899   4.426   1.045   5.481
  334SOL     OW 1900   3.624   1.501   0.375
  334SOL    HW1 1901   3.620   1.482   0.473
  334SOL    HW2 1902   3.551   1.450   0.328
  335SOL     OW 1903   4.517   0.014   6.123
  335SOL    HW1 1904   4.442   6.976   6.100
  335SOL    HW2 1905   4.604   6.994   6.095
  336SOL     OW 1906   3.017   1.036   3.259
  336SOL    HW1 1907   3.037   1.092   3.339
  336SOL    HW2 1908   3.060   0.946   3.270
  337SOL     OW 1909   0.059   3.370   6.025
  337SOL    HW1 1910   0.024   3.442   5.966
  337SOL    HW2 1911   0.011   3.373   6.113
  338SOL     OW 1912   2.978   2.186   1.253
  338SOL    HW1 1913   2.973   2.223   1.346
  338SOL    HW2 1914   2.933   2.249   1.190
  339SOL     OW 1915   4.440   5.761   4.838
  339SOL    HW1 1916   4.464   5.770   4.741
  339SOL    HW2 1917   4.523   5.767   4.893
  340SOL     OW 1918   5.468   3.687   4.908
  340SOL    HW1 1919   5.540   3.712   4.973
  340SOL    HW2 1920   5.384   3.666   4.959
  341SOL     OW 1921   6.125   6.699   4.370
  341SOL    HW1 1922   6.061   6.776   4.367
  341SOL    HW2 1923   6.134   6.661   4.278
  342SOL     OW 1924   5.742   3.871   0.382
  342SOL    HW1 1925   5.664   3.911   0.431
  342SOL    HW2 1926   5.752   3.916   0.293
  343SOL     OW 1927   0.986   5.985   1.264
  343SOL    HW1 1928   1.003   5.949   1.173
  343SOL    HW2 1929   1.073   6.012   1.306
  344SOL     OW 1930   1.143   3.460   1.539
  344SOL    HW1 1931   1.112   3.546   1.580
  344SOL    HW2 1932   1.178   3.399   1.610
  345SOL     OW 1933   5.583   2.133   3.582
  345SOL    HW1 1934   5.548   2.044   3.611
  345SOL    HW2 1935   5.667   2.155   3.633
  346SOL     OW 1936   1.770   1.173   2.720
  346SOL    HW1 1937   1.864   1.178   2.684
  346SOL    HW2 1938   1.751   1.080   2.750
  347SOL     OW 1939   2.906   5.527   6.894
  347SOL    HW1 1940   2.876   5.487   6.980
  347SOL    HW2 1941   2.947   5.617   6.911
  348SOL     OW 1942   4.975   4.275   2.464
  348SOL    HW1 1943   5.002   4.244   2.555
  348SOL    HW2 1944   5.048   4.254   2.398
  349SOL     OW 1945   0.139   4.895   0.910
  349SOL    HW1 1946   0.081   4.901   0.991
  349SOL    HW2 1947   0.203   4.973   0.910
  350SOL     OW 1948   2.841   1.958   0.834
  350SOL    HW1 1949   2.843   1.863   0.804
  350SOL    HW2 1950   2.914   1.974   0.901
  351SOL     OW 1951   2.983   3.647   0.828
  351SOL    HW1 1952   2.943   3.555   0.834
  351SOL    HW2 1953   3.013   3.664   0.734
  352SOL     OW 1954   3.201   0.200   3.601
  352SOL    HW1 1955   3.165   0.283   3.558
  352SOL    HW2 1956   3.161   0.120   3.557
  353SOL     OW 1957   2.933   0.156   6.994
  353SOL    HW1 1958   2.940   0.120   0.065
  353SOL    HW2 1959   2.909   0.082   6.931
  354SOL     OW 1960   4.211   2.929   1.042
  354SOL    HW1 1961   4.239   2.896   0.952
  354SOL    HW2 1962   4.210   2.853   1.107
  355SOL     OW 1963   1.592   4.085   3.006
  355SOL    HW1 1964   1.601   4.061   3.102
  355SOL    HW2 1965   1.573   4.003   2.952
  356SOL     OW 1966   2.002   0.244   5.801
  356SOL    HW1 1967   1.967   0.186   5.727
  356SOL    HW2 1968   2.098   0.222   5.817
  357SOL     OW 1969   6.975   6.559   5.464
  357SOL    HW1 1970   0.040   6.527   5.427
  357SOL    HW2 1971   6.965   6.657   5.446
  358SOL     OW 1972   4.551   6.545   0.650
  358SOL    HW1 1973   4.552   6.578   0.744
  358SOL    HW2 1974   4.458   6.550   0.614
  359SOL     OW 1975   2.910   2.182   1.567
  359SOL    HW1 1976   3.004   2.173   1.602
  359SOL    HW2 1977   2.860   2.247   1.625
  360SOL     OW 1978   1.386   4.150   5.770
  360SOL    HW1 1979   1.367   4.059   5.807
  360SOL    HW2 1980   1.349   4.157   5.678
  361SOL     OW 1981   6.568   6.255   2.576
  361SOL    HW1 1982   6.553   6.308   2.659
  361SOL    HW2 1983   6.490   6.268   2.514
  362SOL     OW 1984   3.585   2.748   1.535
  362SOL    HW1 1985   3.616   2.672   1.478
  362SOL    HW2 1986   3.486   2.749   1.539
  363SOL     OW 1987   5.737   4.134   2.913
  363SOL    HW1 1988   5.664   4.070   2.888
  363SOL    HW2 1989   5.772   4.178   2.830
  364SOL     OW 1990   6.274   4.802   6.657
  364SOL    HW1 1991   6.369   4.832   6.647
  364SOL    HW2 1992   6.271   4.702   6.660
  365SOL     OW 1993   5.326   7.000   1.987
  365SOL    HW1 1994   5.351   0.059   2.039
  365SOL    HW2 1995   5.391   6.987   1.912
  366SOL     OW 1996   5.381   0.644   6.838
  366SOL    HW1 1997   5.425   0.635   6.927
  366SOL    HW2 1998   5.443   0.612   6.766
  367SOL     OW 1999   6.017   2.693   1.255
  367SOL    HW1 2000   6.019   2.723   1.350
  367SOL    HW2 2001   5.970   2.761   1.199
  368SOL     OW 2002   0.294   2.541   5.455
  368SOL    HW1 2003   0.306   2.556   5.357
  368SOL    HW2 2004   0.371   2.490   5.492
  369SOL     OW 2005   6.180   5.253   2.517
  369SOL    HW1 2006   6.133   5.330   2.560
  369SOL    HW2 2007   6.209   5.188   2.587
  370SOL     OW 2008   1.593   1.718   5.160
  370SOL    HW1 2009   1.520   1.762   5.108
  370SOL    HW2 2010   1.608   1.626   5.126
  371SOL     OW 2011   1.480   4.782   5.468
  371SOL    HW1 2012   1.535   4.855   5.509
  371SOL    HW2 2013   1.426   4.819   5.392
  372SOL     OW 2014   1.441   6.697   6.469
  372SOL    HW1 2015   1.470   6.617   6.415
  372SOL    HW2 2016   1.456   6.780   6.416
  373SOL     OW 2017   5.919   6.504   4.551
  373SOL    HW1 2018   6.015   6.503   4.580
  373SOL    HW2 2019   5.883   6.597   4.561
  374SOL     OW 2020   2.637   1.806   3.881
  374SOL    HW1 2021   2.550   1.849   3.855
  374SOL    HW2 2022   2.626   1.706   3.876
  375SOL     OW 2023   0.852   4.579   4.012
  375SOL    HW1 2024   0.852   4.677   4.032
  375SOL    HW2 2025   0.886   4.529   4.091
  376SOL     OW 2026   2.506   0.901   5.439
  376SOL    HW1 2027   2.600   0.932   5.454
  376SOL    HW2 2028   2.449   0.978   5.412
  377SOL     OW 2029   1.069   1.770   1.298
  377SOL    HW1 2030   0.994   1.789   1.362
  377SOL    HW2 2031   1.039   1.700   1.232
  378SOL     OW 2032   4.820   2.356   6.413
  378SOL    HW1 2033   4.876   2.281   6.448
  378SOL    HW2 2034   4.783   2.332   6.324
  379SOL     OW 2035   5.880   2.491   1.521
  379SOL    HW1 2036   5.868   2.511   1.618
  379SOL    HW2 2037   5.975   2.467   1.503
  380SOL     OW 2038   2.975   1.158   0.682
  380SOL    HW1 2039   2.876   1.154   0.666
  380SOL    HW2 2040   2.997   1.110   0.767
  381SOL     OW 2041   1.414   4.288   2.903
  381SOL    HW1 2042   1.475   4.211   2.923
  381SOL    HW2 2043   1.425   4.315   2.807
  382SOL     OW 2044   6.211   0.486   0.071
  382SOL    HW1 2045   6.121   0.463   0.033
  382SOL    HW2 2046   6.278   0.417   0.045
  383SOL     OW 2047   3.975   3.933   6.640
  383SOL    HW1 2048   3.961   4.018   6.689
  383SOL    HW2 2049   4.073   3.916   6.629
  384SOL     OW 2050   6.775   5.332   3.899
  384SOL    HW1 2051   6.732   5.329   3.809
  384SOL    HW2 2052   6.871   5.306   3.891
  385SOL     OW 2053   3.107   4.718   5.253
  385SOL    HW1 2054   3.051   4.636   5.237
  385SOL    HW2 2055   3.105   4.741   5.350
  386SOL     OW 2056   2.791   6.808   4.766
  386SOL    HW1 2057   2.841   6.894   4.763
  386SOL    HW2 2058   2.693   6.826   4.760
  387SOL     OW 2059   1.467   6.572   1.996
  387SOL    HW1 2060   1.544   6.543   1.940
  387SOL    HW2 2061   1.391   6.508   1.984
  388SOL     OW 2062   1.147   1.774   5.420
  388SOL    HW1 2063   1.133   1.869   5.447
  388SOL    HW2 2064   1.164   1.769   5.321
  389SOL     OW 2065   3.911   3.473   1.412
  389SOL    HW1 2066   3.936   3.443   1.319
  389SOL    HW2 2067   3.938   3.569   1.424
  390SOL     OW 2068   3.200   1.763   1.894
  390SOL    HW1 2069   3.227   1.853   1.858
  390SOL    HW2 2070   3.118   1.773   1.950
  391SOL     OW 2071   2.031   2.769   6.963
  391SOL    HW1 2072   2.033   2.787   6.865
  391SOL    HW2 2073   2.035   2.671   6.979
  392SOL     OW 2074   1.747   4.131   0.683
  392SOL    HW1 2075   1.718   4.093   0.595
  392SOL    HW2 2076   1.830   4.086   0.713
  393SOL     OW 2077   1.664   4.675   6.736
  393SOL    HW1 2078   1.590   4.615   6.706
  393SOL    HW2 2079   1.751   4.627   6.729
  394SOL     OW 2080   6.727   1.717   0.174
  394SOL    HW1 2081   6.647   1.657   0.172
  394SOL    HW2 2082   6.769   1.719   0.083
  395SOL     OW 2083   4.971   3.851   3.004
  395SOL    HW1 2084   4.958   3.792   3.084
  395SOL    HW2 2085   5.060   3.833   2.962
  396SOL     OW 2086   3.349   4.086   1.697
  396SOL    HW1 2087   3.272   4.097   1.759
  396SOL    HW2 2088   3.319   4.039   1.614
  397SOL     OW 2089   6.148   1.664   5.523
  397SOL    HW1 2090   6.082   1.737   5.544
  397SOL    HW2 2091   6.099   1.579   5.503
  398SOL     OW 2092   1.145   6.717   1.944
  398SOL    HW1 2093   1.159   6.801   1.997
  398SOL    HW2 2094   1.102   6.649   2.003
  399SOL     OW 2095   6.134   5.836   2.136
  399SOL    HW1 2096   6.044   5.793   2.124
  399SOL    HW2 2097   6.122   5.934   2.148
  400SOL     OW 2098   6.077   6.388   5.783
  400SOL    HW1 2099   6.159   6.443   5.765
  400SOL    HW2 2100   6.063   6.323   5.708
  401SOL     OW 2101   5.888   0.552   6.125
  401SOL    HW1 2102   5.825   0.611   6.175
  401SOL    HW2 2103   5.900   0.466   6.175
  402SOL     OW 2104   5.936   0.101   3.628
  402SOL    HW1 2105   6.034   0.107   3.644
  402SOL    HW2 2106   5.908   0.005   3.623
  403SOL     OW 2107   3.726   2.109   4.398
  403SOL    HW1 2108   3.634   2.088   4.363
  403SOL    HW2 2109   3.731   2.083   4.495
  404SOL     OW 2110   1.583   4.975   3.966
  404SOL    HW1 2111   1.483   4.973   3.971
  404SOL    HW2 2112   1.621   4.935   4.048
  405SOL     OW 2113   1.793   3.471   2.257
  405SOL    HW1 2114   1.739   3.424   2.187
  405SOL    HW2 2115   1.769   3.568   2.259
  406SOL     OW 2116   1.200   4.009   4.636
  406SOL    HW1 2117   1.279   4.026   4.696
  406SOL    HW2 2118   1.151   3.928   4.668
  407SOL     OW 2119   1.537   1.106   4.436
  407SOL    HW1 2120   1.626   1.064   4.451
  407SOL    HW2 2121   1.520   1.175   4.506
  408SOL     OW 2122   1.122   2.552   3.016
  408SOL    HW1 2123   1.077   2.462   3.016
  408SOL    HW2 2124   1.215   2.542   3.052
  409SOL     OW 2125   0.150   2.779   1.600
  409SOL    HW1 2126   0.139   2.716   1.523
  409SOL    HW2 2127   0.097   2.746   1.678
  410SOL     OW 2128   1.962   1.407   0.822
  410SOL    HW1 2129   1.949   1.505   0.837
  410SOL    HW2 2130   1.997   1.365   0.905
  411SOL     OW 2131   5.969   6.746   2.000
  411SOL    HW1 2132   5.963   6.758   1.901
  411SOL    HW2 2133   5.967   6.648   2.021
  412SOL     OW 2134   4.009   5.911   3.865
  412SOL    HW1 2135   4.087   5.868   3.910
  412SOL    HW2 2136   3.925   5.887   3.914
  413SOL     OW 2137   5.178   3.544   1.489
  413SOL    HW1 2138   5.245   3.617   1.499
  413SOL    HW2 2139   5.107   3.554   1.558
  414SOL     OW 2140   3.720   5.400   3.706
  414SOL    HW1 2141   3.756   5.352   3.626
  414SOL    HW2 2142   3.773   5.376   3.787
  415SOL     OW 2143   1.124   5.864   7.000
  415SOL    HW1 2144   1.159   5.958   6.994
  415SOL    HW2 2145   1.043   5.855   6.943
  416SOL     OW 2146   4.701   6.491   4.361
  416SOL    HW1 2147   4.798   6.489   4.337
  416SOL    HW2 2148   4.648   6.445   4.289
  417SOL     OW 2149   2.490   5.719   6.396
  417SOL    HW1 2150   2.447   5.772   6.469
  417SOL    HW2 2151   2.587   5.708   6.415
  418SOL     OW 2152   4.234   6.223   0.095
  418SOL    HW1 2153   4.182   6.173   0.026
  418SOL    HW2 2154   4.198   6.201   0.186
  419SOL     OW 2155   2.266   6.912   1.446
  419SOL    HW1 2156   2.290   7.004   1.418
  419SOL    HW2 2157   2.249   6.910   1.545
  420SOL     OW 2158   5.651   1.122   0.156
  420SOL    HW1 2159   5.682   1.107   0.250
  420SOL    HW2 2160   5.584   1.196   0.154
  421SOL     OW 2161   0.107   4.302   5.467
  421SOL    HW1 2162   0.039   4.320   5.395
  421SOL    HW2 2163   0.108   4.379   5.531
  422SOL     OW 2164   5.613   3.577   1.471
  422SOL    HW1 2165   5.582   3.486   1.495
  422SOL    HW2 2166   5.623   3.584   1.372
  423SOL     OW 2167   0.563   1.931   6.175
  423SOL    HW1 2168   0.527   1.905   6.264
  423SOL    HW2 2169   0.588   1.849   6.123
  424SOL     OW 2170   1.736   5.551   0.701
  424SOL    HW1 2171   1.686   5.620   0.753
  424SOL    HW2 2172   1.745   5.467   0.755
  425SOL     OW 2173   4.857   1.722   3.533
  425SOL    HW1 2174   4.937   1.736   3.593
  425SOL    HW2 2175   4.882   1.659   3.459
  426SOL     OW 2176   3.472   2.111   4.615
  426SOL    HW1 2177   3.387   2.129   4.663
  426SOL    HW2 2178   3.475   2.163   4.530
  427SOL     OW 2179   5.604   6.200   3.774
  427SOL    HW1 2180   5.636   6.294   3.767
  427SOL    HW2 2181   5.560   6.173   3.688
  428SOL     OW 2182   4.258   0.637   3.869
  428SOL    HW1 2183   4.234   0.684   3.953
  428SOL    HW2 2184   4.217   0.685   3.791
  429SOL     OW 2185   1.265   4.742   1.384
  429SOL    HW1 2186   1.231   4.673   1.447
  429SOL    HW2 2187   1.353   4.713   1.346
  430SOL     OW 2188   0.839   0.290   4.472
  430SOL    HW1 2189   0.829   0.371   4.530
  430SOL    HW2 2190   0.764   0.287   4.406
  431SOL     OW 2191   2.506   0.431   0.817
  431SOL    HW1 2192   2.431   0.365   0.830
  431SOL    HW2 2193   2.594   0.383   0.823
  432SOL     OW 2194   6.336   1.670   0.750
  432SOL    HW1 2195   6.432   1.689   0.772
  432SOL    HW2 2196   6.278   1.696   0.827
  433SOL     OW 2197   1.982   6.617   4.923
  433SOL    HW1 2198   1.891   6.645   4.955
  433SOL    HW2 2199   2.006   6.528   4.962
  434SOL     OW 2200   3.426   5.221   3.038
  434SOL    HW1 2201   3.356   5.292   3.037
  434SOL    HW2 2202   3.514   5.260   3.013
  435SOL     OW 2203   4.789   2.936   6.599
  435SOL    HW1 2204   4.861   2.950   6.530
  435SOL    HW2 2205   4.816   2.862   6.660
  436SOL     OW 2206   3.328   6.169   1.755
  436SOL    HW1 2207   3.276   6.104   1.700
  436SOL    HW2 2208   3.425   6.145   1.752
  437SOL     OW 2209   0.826   1.456   0.078
  437SOL    HW1 2210   0.844   1.377   0.137
  437SOL    HW2 2211   0.764   1.428   0.004
  438SOL     OW 2212   2.227   4.305   3.623
  438SOL    HW1 2213   2.231   4.336   3.718
  438SOL    HW2 2214   2.193   4.380   3.565
  439SOL     OW 2215   5.860   5.133   2.458
  439SOL    HW1 2216   5.921   5.212   2.464
  439SOL    HW2 2217   5.794   5.146   2.384
  440SOL     OW 2218   2.239   1.817   4.779
  440SOL    HW1 2219   2.332   1.790   4.806
  440SOL    HW2 2220   2.243   1.861   4.689
  441SOL     OW 2221   0.464   3.328   4.150
  441SOL    HW1 2222   0.461   3.359   4.055
  441SOL    HW2 2223   0.378   3.352   4.195
  442SOL     OW 2224   4.325   5.396   5.461
  442SOL    HW1 2225   4.322   5.495   5.448
  442SOL    HW2 2226   4.245   5.354   5.418
  443SOL     OW 2227   6.116   4.704   3.516
  443SOL    HW1 2228   6.203   4.671   3.477
  443SOL    HW2 2229   6.061   4.745   3.444
  444SOL     OW 2230   4.650   0.674   6.865
  444SOL    HW1 2231   4.715   0.616   6.816
  444SOL    HW2 2232   4.578   0.703   6.802
  445SOL     OW 2233   0.589   5.716   2.770
  445SOL    HW1 2234   0.585   5.644   2.701
  445SOL    HW2 2235   0.631   5.681   2.854
  446SOL     OW 2236   3.365   5.047   3.848
  446SOL    HW1 2237   3.330   5.138   3.870
  446SOL    HW2 2238   3.325   5.015   3.762
  447SOL     OW 2239   0.512   2.704   6.468
  447SOL    HW1 2240   0.563   2.630   6.423
  447SOL    HW2 2241   0.498   2.681   6.564
  448SOL     OW 2242   1.786   0.372   3.527
  448SOL    HW1 2243   1.806   0.394   3.622
  448SOL    HW2 2244   1.698   0.324   3.522
  449SOL     OW 2245   2.980   0.892   3.676
  449SOL    HW1 2246   3.013   0.811   3.628
  449SOL    HW2 2247   2.899   0.868   3.730
  450SOL     OW 2248   1.389   5.032   3.078
  450SOL    HW1 2249   1.372   5.015   2.981
  450SOL    HW2 2250   1.321   5.096   3.114
  451SOL     OW 2251   1.044   2.547   4.099
  451SOL    HW1 2252   1.005   2.561   4.007
  451SOL    HW2 2253   0.975   2.571   4.168
  452SOL     OW 2254   5.282   6.702   0.309
  452SOL    HW1 2255   5.333   6.684   0.225
  452SOL    HW2 2256   5.343   6.745   0.376
  453SOL     OW 2257   4.516   0.531   6.265
  453SOL    HW1 2258   4.556   0.449   6.305
  453SOL    HW2 2259   4.463   0.507   6.184
  454SOL     OW 2260   6.767   4.336   5.908
  454SOL    HW1 2261   6.852   4.289   5.932
  454SOL    HW2 2262   6.737   4.392   5.985
  455SOL     OW 2263   5.949   2.340   4.206
  455SOL    HW1 2264   5.954   2.241   4.189
  455SOL    HW2 2265   6.015   2.387   4.148
  456SOL     OW 2266   0.014   6.708   3.723
  456SOL    HW1 2267   0.065   6.646   3.663
  456SOL    HW2 2268   6.972   6.762   3.669
  457SOL     OW 2269   1.967   2.575   4.161
  457SOL    HW1 2270   1.973   2.592   4.062
  457SOL    HW2 2271   1.905   2.641   4.202
  458SOL     OW 2272   4.115   5.647   3.006
  458SOL    HW1 2273   4.092   5.743   2.989
  458SOL    HW2 2274   4.101   5.594   2.922
  459SOL     OW 2275   1.778   6.972   5.770
  459SOL    HW1 2276   1.750   6.939   5.680
  459SOL    HW2 2277   1.873   6.948   5.786
  460SOL     OW 2278   2.589   6.738   4.414
  460SOL    HW1 2279   2.608   6.641   4.424
  460SOL    HW2 2280   2.534   6.769   4.492
  461SOL     OW 2281   6.962   6.109   5.681
  461SOL    HW1 2282   6.936   6.187   5.737
  461SOL    HW2 2283   0.034   6.083   5.699
  462SOL     OW 2284   4.113   3.592   0.088
  462SOL    HW1 2285   4.047   3.521   0.066
  462SOL    HW2 2286   4.156   3.572   0.177
  463SOL     OW 2287   5.588   6.013   3.323
  463SOL    HW1 2288   5.639   5.927   3.324
  463SOL    HW2 2289   5.496   5.997   3.288
  464SOL     OW 2290   2.642   1.311   5.761
  464SOL    HW1 2291   2.694   1.267   5.834
  464SOL    HW2 2292   2.571   1.369   5.801
  465SOL     OW 2293   0.538   2.883   0.651
  465SOL    HW1 2294   0.474   2.931   0.712
  465SOL    HW2 2295   0.520   2.909   0.556
  466SOL     OW 2296   1.857   6.168   3.677
  466SOL    HW1 2297   1.785   6.205   3.735
  466SOL    HW2 2298   1.937   6.227   3.681
  467SOL     OW 2299   1.942   0.955   0.588
  467SOL    HW1 2300   1.925   1.048   0.621
  467SOL    HW2 2301   2.031   0.923   0.621
  468SOL     OW 2302   3.908   6.476   5.705
  468SOL    HW1 2303   4.007   6.482   5.699
  468SOL    HW2 2304   3.870   6.564   5.735
  469SOL     OW 2305   3.038   3.473   6.618
  469SOL    HW1 2306   3.040   3.522   6.706
  469SOL    HW2 2307   2.950   3.489   6.574
  470SOL     OW 2308   4.755   6.544   1.366
  470SOL    HW1 2309   4.764   6.472   1.296
  470SOL    HW2 2310   4.843   6.588   1.380
  471SOL     OW 2311   2.185   2.602   3.893
  471SOL    HW1 2312   2.104   2.654   3.920
  471SOL    HW2 2313   2.195   2.604   3.793
  472SOL     OW 2314   4.225   3.864   6.824
  472SOL    HW1 2315   4.287   3.942   6.827
  472SOL    HW2 2316   4.256   3.794   6.889
  473SOL     OW 2317   1.343   2.358   2.669
  473SOL    HW1 2318   1.346   2.308   2.582
  473SOL    HW2 2319   1.270   2.320   2.726
  474SOL     OW 2320   5.457   5.634   4.842
  474SOL    HW1 2321   5.519   5.631   4.763
  474SOL    HW2 2322   5.397   5.554   4.840
  475SOL     OW 2323   6.125   1.637   6.644
  475SOL    HW1 2324   6.052   1.569   6.631
  475SOL    HW2 2325   6.212   1.590   6.657
  476SOL     OW 2326   0.416   3.397   2.693
  476SOL    HW1 2327   0.354   3.325   2.724
  476SOL    HW2 2328   0.510   3.364   2.695
  477SOL     OW 2329   2.889   6.394   3.146
  477SOL    HW1 2330   2.975   6.436   3.117
  477SOL    HW2 2331   2.901   6.355   3.238
  478SOL     OW 2332   3.789   6.724   2.831
  478SOL    HW1 2333   3.818   6.813   2.796
  478SOL    HW2 2334   3.847   6.697   2.908
  479SOL     OW 2335   4.014   2.547   5.993
  479SOL    HW1 2336   3.970   2.603   5.924
  479SOL    HW2 2337   4.020   2.598   6.079
  480SOL     OW 2338   2.730   0.593   0.230
  480SOL    HW1 2339   2.800   0.559   0.292
  480SOL    HW2 2340   2.640   0.565   0.262
  481SOL     OW 2341   2.258   6.582   1.638
  481SOL    HW1 2342   2.250   6.616   1.732
  481SOL    HW2 2343   2.189   6.511   1.623
  482SOL     OW 2344   4.122   4.760   2.277
  482SOL    HW1 2345   4.077   4.765   2.188
  482SOL    HW2 2346   4.210   4.713   2.268
  483SOL     OW 2347   6.736   2.245   2.929
  483SOL    HW1 2348   6.757   2.152   2.900
  483SOL    HW2 2349   6.648   2.273   2.891
  484SOL     OW 2350   1.727   3.190   5.324
  484SOL    HW1 2351   1.786   3.265   5.294
  484SOL    HW2 2352   1.662   3.167   5.252
  485SOL     OW 2353   3.836   5.054   2.573
  485SOL    HW1 2354   3.932   5.060   2.600
  485SOL    HW2 2355   3.826   4.981   2.505
  486SOL     OW 2356   6.197   1.535   0.363
  486SOL    HW1 2357   6.267   1.510   0.430
  486SOL    HW2 2358   6.186   1.634   0.361
  487SOL     OW 2359   0.944   0.627   3.175
  487SOL    HW1 2360   0.937   0.528   3.177
  487SOL    HW2 2361   1.009   0.655   3.104
  488SOL     OW 2362   1.128   1.266   2.114
  488SOL    HW1 2363   1.194   1.199   2.081
  488SOL    HW2 2364   1.176   1.341   2.159
  489SOL     OW 2365   4.361   5.668   5.449
  489SOL    HW1 2366   4.378   5.686   5.546
  489SOL    HW2 2367   4.297   5.736   5.414
  490SOL     OW 2368   0.630   6.082   3.054
  490SOL    HW1 2369   0.664   6.063   3.146
  490SOL    HW2 2370   0.552   6.144   3.060
  491SOL     OW 2371   1.563   3.904   1.951
  491SOL    HW1 2372   1.642   3.965   1.955
  491SOL    HW2 2373   1.582   3.829   1.888
  492SOL     OW 2374   1.351   0.730   5.515
  492SOL    HW1 2375   1.411   0.788   5.570
  492SOL    HW2 2376   1.383   0.731   5.420
  493SOL     OW 2377   4.185   6.686   5.525
  493SOL    HW1 2378   4.139   6.745   5.591
  493SOL    HW2 2379   4.190   6.593   5.561
  494SOL     OW 2380   0.809   6.641   0.006
  494SOL    HW1 2381   0.902   6.674   7.014
  494SOL    HW2 2382   0.787   6.573   6.958
  495SOL     OW 2383   4.429   6.035   3.720
  495SOL    HW1 2384   4.414   6.015   3.623
  495SOL    HW2 2385   4.499   5.973   3.756
  496SOL     OW 2386   5.099   3.061   1.894
  496SOL    HW1 2387   5.039   3.099   1.964
  496SOL    HW2 2388   5.055   2.982   1.851
  497SOL     OW 2389   3.054   1.854   4.805
  497SOL    HW1 2390   3.016   1.762   4.812
  497SOL    HW2 2391   3.040   1.903   4.891
  498SOL     OW 2392   0.713   4.372   1.592
  498SOL    HW1 2393   0.722   4.440   1.520
  498SOL    HW2 2394   0.629   4.389   1.644
  499SOL     OW 2395   1.601   5.475   4.090
  499SOL    HW1 2396   1.689   5.428   4.088
  499SOL    HW2 2397   1.527   5.408   4.075
  500SOL     OW 2398   6.778   1.756   5.948
  500SOL    HW1 2399   6.821   1.829   6.000
  500SOL    HW2 2400   6.813   1.668   5.980
  501SOL     OW 2401   3.208   0.365   0.848
  501SOL    HW1 2402   3.245   0.358   0.755
  501SOL    HW2 2403   3.279   0.399   0.909
  502SOL     OW 2404   0.968   3.605   5.988
  502SOL    HW1 2405   0.963   3.573   6.082
  502SOL    HW2 2406   0.876   3.622   5.953
  503SOL     OW 2407   6.815   4.853   6.867
  503SOL    HW1 2408   6.755   4.850   6.947
  503SOL    HW2 2409   6.786   4.929   6.808
  504SOL     OW 2410   0.922   5.023   2.191
  504SOL    HW1 2411   0.929   5.020   2.290
  504SOL    HW2 2412   0.967   4.942   2.152
  505SOL     OW 2413   3.033   5.741   4.799
  505SOL    HW1 2414   3.072   5.780   4.715
  505SOL    HW2 2415   2.943   5.780   4.815
  506SOL     OW 2416   3.398   4.946   4.107
  506SOL    HW1 2417   3.305   4.936   4.143
  506SOL    HW2 2418   3.394   4.981   4.014
  507SOL     OW 2419   2.979   0.178   3.376
  507SOL    HW1 2420   3.033   0.098   3.402
  507SOL    HW2 2421   2.896   0.149   3.330
  508SOL     OW 2422   7.014   3.550   2.926
  508SOL    HW1 2423   0.061   3.592   2.867
  508SOL    HW2 2424   6.991   3.613   3.000
  509SOL     OW 2425   2.927   1.200   1.652
  509SOL    HW1 2426   3.005   1.138   1.642
  509SOL    HW2 2427   2.948   1.267   1.724
  510SOL     OW 2428   6.120   4.174   6.817
  510SOL    HW1 2429   6.040   4.207   6.867
  510SOL    HW2 2430   6.103   4.181   6.719
  511SOL     OW 2431   0.597   2.322   5.892
  511SOL    HW1 2432   0.672   2.325   5.958
  511SOL    HW2 2433   0.580   2.414   5.856
  512SOL     OW 2434   0.166   2.821   6.485
  512SOL    HW1 2435   0.214   2.813   6.397
  512SOL    HW2 2436   0.219   2.776   6.556
  513SOL     OW 2437   5.995   6.396   3.372
  513SOL    HW1 2438   5.937   6.314   3.365
  513SOL    HW2 2439   5.969   6.461   3.301
  514SOL     OW 2440   6.365   0.970   4.409
  514SOL    HW1 2441   6.286   1.001   4.357
  514SOL    HW2 2442   6.349   0.986   4.507
  515SOL     OW 2443   0.995   6.165   0.891
  515SOL    HW1 2444   0.958   6.072   0.882
  515SOL    HW2 2445   0.925   6.231   0.864
  516SOL     OW 2446   2.815   4.707   2.261
  516SOL    HW1 2447   2.838   4.676   2.168
  516SOL    HW2 2448   2.899   4.736   2.308
  517SOL     OW 2449   4.137   5.297   1.573
  517SOL    HW1 2450   4.172   5.336   1.487
  517SOL    HW2 2451   4.114   5.370   1.636
  518SOL     OW 2452   2.263   1.813   3.430
  518SOL    HW1 2453   2.209   1.731   3.411
  518SOL    HW2 2454   2.203   1.885   3.465
  519SOL     OW 2455   0.589   6.236   4.200
  519SOL    HW1 2456   0.535   6.180   4.138
  519SOL    HW2 2457   0.589   6.195   4.291
  520SOL     OW 2458   5.870   3.885   6.934
  520SOL    HW1 2459   5.960   3.924   6.919
  520SOL    HW2 2460   5.827   3.866   6.845
  521SOL     OW 2461   6.199   6.039   4.940
  521SOL    HW1 2462   6.257   6.111   4.903
  521SOL    HW2 2463   6.107   6.075   4.955
  522SOL     OW 2464   3.251   3.276   4.508
  522SOL    HW1 2465   3.230   3.326   4.592
  522SOL    HW2 2466   3.348   3.250   4.508
  523SOL     OW 2467   1.102   5.486   1.610
  523SOL    HW1 2468   1.156   5.428   1.671
  523SOL    HW2 2469   1.045   5.428   1.552
  524SOL     OW 2470   0.210   1.973   2.373
  524SOL    HW1 2471   0.272   1.972   2.452
  524SOL    HW2 2472   0.192   1.879   2.344
  525SOL     OW 2473   1.985   4.079   5.839
  525SOL    HW1 2474   1.900   4.076   5.787
  525SOL    HW2 2475   2.050   4.140   5.795
  526SOL     OW 2476   3.566   5.642   4.126
  526SOL    HW1 2477   3.636   5.590   4.175
  526SOL    HW2 2478   3.593   5.739   4.124
  527SOL     OW 2479   6.084   3.006   0.482
  527SOL    HW1 2480   6.070   2.968   0.573
  527SOL    HW2 2481   6.167   3.062   0.481
  528SOL     OW 2482   1.331   2.810   3.623
  528SOL    HW1 2483   1.410   2.754   3.597
  528SOL    HW2 2484   1.261   2.751   3.663
  529SOL     OW 2485   1.607   5.836   4.502
  529SOL    HW1 2486   1.625   5.741   4.528
  529SOL    HW2 2487   1.659   5.859   4.420
  530SOL     OW 2488   3.319   3.620   3.887
  530SOL    HW1 2489   3.371   3.657   3.964
  530SOL    HW2 2490   3.288   3.696   3.829
  531SOL     OW 2491   0.406   2.080   2.981
  531SOL    HW1 2492   0.383   2.135   3.061
  531SOL    HW2 2493   0.503   2.087   2.961
  532SOL     OW 2494   0.739   3.102   0.102
  532SOL    HW1 2495   0.709   3.120   0.195
  532SOL    HW2 2496   0.827   3.054   0.104
  533SOL     OW 2497   4.137   6.650   4.005
  533SOL    HW1 2498   4.095   6.585   3.943
  533SOL    HW2 2499   4.075   6.728   4.019
  534SOL     OW 2500   5.319   6.539   2.329
  534SOL    HW1 2501   5.314   6.615   2.264
  534SOL    HW2 2502   5.410   6.497   2.323
  535SOL     OW 2503   6.910   3.261   4.605
  535SOL    HW1 2504   6.968   3.281   4.683
  535SOL    HW2 2505   6.950   3.187   4.551
  536SOL     OW 2506   6.151   4.603   2.425
  536SOL    HW1 2507   6.171   4.535   2.495
  536SOL    HW2 2508   6.079   4.664   2.459
  537SOL     OW 2509   2.425   6.662   4.720
  537SOL    HW1 2510   2.518   6.633   4.739
  537SOL    HW2 2511   2.361   6.610   4.777
  538SOL     OW 2512   1.479   5.035   4.291
  538SOL    HW1 2513   1.560   4.984   4.264
  538SOL    HW2 2514   1.460   5.019   4.388
  539SOL     OW 2515   1.879   5.889   1.232
  539SOL    HW1 2516   1.963   5.898   1.285
  539SOL    HW2 2517   1.877   5.800   1.187
  540SOL     OW 2518   1.502   1.602   2.776
  540SOL    HW1 2519   1.421   1.604   2.718
  540SOL    HW2 2520   1.515   1.693   2.817
  541SOL     OW 2521   4.904   5.267   3.738
  541SOL    HW1 2522   4.940   5.181   3.702
  541SOL    HW2 2523   4.942   5.283   3.829
  542SOL     OW 2524   5.569   6.064   6.743
  542SOL    HW1 2525   5.496   5.996   6.734
  542SOL    HW2 2526   5.615   6.076   6.655
  543SOL     OW 2527   0.617   3.122   4.241
  543SOL    HW1 2528   0.640   3.131   4.338
  543SOL    HW2 2529   0.564   3.201   4.211
  544SOL     OW 2530   2.262   4.810   6.972
  544SOL    HW1 2531   2.243   4.886   6.909
  544SOL    HW2 2532   2.260   4.844   0.044
  545SOL     OW 2533   3.297   1.540   1.789
  545SOL    HW1 2534   3.273   1.623   1.840
  545SOL    HW2 2535   3.397   1.533   1.784
  546SOL     OW 2536   2.362   2.889   0.581
  546SOL    HW1 2537   2.405   2.824   0.645
  546SOL    HW2 2538   2.264   2.869   0.575
  547SOL     OW 2539   3.089   1.131   0.380
  547SOL    HW1 2540   3.124   1.205   0.438
  547SOL    HW2 2541   3.048   1.171   0.297
  548SOL     OW 2542   3.424   3.543   2.179
  548SOL    HW1 2543   3.379   3.580   2.098
  548SOL    HW2 2544   3.359   3.487   2.230
  549SOL     OW 2545   5.416   3.335   1.151
  549SOL    HW1 2546   5.359   3.253   1.149
  549SOL    HW2 2547   5.386   3.395   1.225
  550SOL     OW 2548   0.755   5.630   4.129
  550SOL    HW1 2549   0.729   5.720   4.095
  550SOL    HW2 2550   0.679   5.566   4.117
  551SOL     OW 2551   1.416   0.390   2.108
  551SOL    HW1 2552   1.352   0.344   2.047
  551SOL    HW2 2553   1.381   0.481   2.131
  552SOL     OW 2554   6.227   4.476   6.902
  552SOL    HW1 2555   6.254   4.445   6.993
  552SOL    HW2 2556   6.128   4.486   6.898
  553SOL     OW 2557   3.130   6.171   2.879
  553SOL    HW1 2558   3.166   6.215   2.961
  553SOL    HW2 2559   3.198   6.109   2.842
  554SOL     OW 2560   6.057   6.706   6.897
  554SOL    HW1 2561   6.042   6.772   6.823
  554SOL    HW2 2562   6.094   6.622   6.859
  555SOL     OW 2563   1.962   4.619   4.545
  555SOL    HW1 2564   1.881   4.673   4.522
  555SOL    HW2 2565   1.936   4.523   4.558
  556SOL     OW 2566   4.033   2.214   3.755
  556SOL    HW1 2567   4.123   2.194   3.715
  556SOL    HW2 2568   4.037   2.203   3.854
  557SOL     OW 2569   0.343   5.420   0.631
  557SOL    HW1 2570   0.427   5.471   0.649
  557SOL    HW2 2571   0.360   5.322   0.646
  558SOL     OW 2572   3.076   3.504   3.858
  558SOL    HW1 2573   3.025   3.583   3.892
  558SOL    HW2 2574   3.174   3.521   3.865
  559SOL     OW 2575   6.631   6.171   0.450
  559SOL    HW1 2576   6.711   6.195   0.396
  559SOL    HW2 2577   6.658   6.115   0.528
  560SOL     OW 2578   5.407   4.444   6.270
  560SOL    HW1 2579   5.394   4.531   6.223
  560SOL    HW2 2580   5.384   4.369   6.208
  561SOL     OW 2581   0.980   1.517   1.428
  561SOL    HW1 2582   0.924   1.598   1.415
  561SOL    HW2 2583   1.033   1.526   1.513
  562SOL     OW 2584   4.993   0.456   5.864
  562SOL    HW1 2585   4.914   0.514   5.881
  562SOL    HW2 2586   5.030   0.475   5.773
  563SOL     OW 2587   2.510   0.383   3.567
  563SOL    HW1 2588   2.480   0.293   3.600
  563SOL    HW2 2589   2.603   0.377   3.531
  564SOL     OW 2590   1.605   1.871   6.976
  564SOL    HW1 2591   1.689   1.818   6.968
  564SOL    HW2 2592   1.583   1.915   6.889
  565SOL     OW 2593   3.064   2.840   5.628
  565SOL    HW1 2594   3.132   2.912   5.639
  565SOL    HW2 2595   3.028   2.841   5.534
  566SOL     OW 2596   6.684   5.132   3.300
  566SOL    HW1 2597   6.743   5.051   3.308
  566SOL    HW2 2598   6.714   5.201   3.365
  567SOL     OW 2599   2.782   2.776   1.228
  567SOL    HW1 2600   2.706   2.719   1.260
  567SOL    HW2 2601   2.858   2.770   1.293
  568SOL     OW 2602   5.055   0.842   0.137
  568SOL    HW1 2603   5.112   0.781   0.194
  568SOL    HW2 2604   4.963   0.804   0.130
  569SOL     OW 2605   1.622   3.191   6.578
  569SOL    HW1 2606   1.626   3.091   6.584
  569SOL    HW2 2607   1.534   3.223   6.613
  570SOL     OW 2608   3.537   6.662   6.568
  570SOL    HW1 2609   3.494   6.747   6.598
  570SOL    HW2 2610   3.582   6.677   6.480
  571SOL     OW 2611   3.309   0.069   2.001
  571SOL    HW1 2612   3.398   0.025   2.012
  571SOL    HW2 2613   3.255   0.054   2.084
  572SOL     OW 2614   2.327   4.979   5.346
  572SOL    HW1 2615   2.263   4.905   5.367
  572SOL    HW2 2616   2.421   4.943   5.350
  573SOL     OW 2617   5.425   1.669   5.691
  573SOL    HW1 2618   5.418   1.570   5.687
  573SOL    HW2 2619   5.489   1.702   5.622
  574SOL     OW 2620   3.562   1.840   4.170
  574SOL    HW1 2621   3.527   1.924   4.212
  574SOL    HW2 2622   3.530   1.834   4.075
  575SOL     OW 2623   4.958   4.249   6.755
  575SOL    HW1 2624   4.896   4.175   6.783
  575SOL    HW2 2625   5.038   4.250   6.815
  576SOL     OW 2626   0.635   2.156   2.759
  576SOL    HW1 2627   0.713   2.185   2.704
  576SOL    HW2 2628   0.574   2.233   2.774
  577SOL     OW 2629   1.422   1.156   2.903
  577SOL    HW1 2630   1.325   1.132   2.894
  577SOL    HW2 2631   1.458   1.185   2.814
  578SOL     OW 2632   5.939   6.054   3.629
  578SOL    HW1 2633   5.883   6.004   3.696
  578SOL    HW2 2634   5.879   6.097   3.562
  579SOL     OW 2635   1.712   2.888   2.825
  579SOL    HW1 2636   1.634   2.944   2.852
  579SOL    HW2 2637   1.724   2.814   2.890
  580SOL     OW 2638   5.734   5.469   0.564
  580SOL    HW1 2639   5.822   5.493   0.607
  580SOL    HW2 2640   5.661   5.521   0.608
  581SOL     OW 2641   2.448   3.303   1.266
  581SOL    HW1 2642   2.356   3.308   1.304
  581SOL    HW2 2643   2.484   3.211   1.280
  582SOL     OW 2644   4.337   6.849   1.733
  582SOL    HW1 2645   4.255   6.899   1.759
  582SOL    HW2 2646   4.349   6.855   1.634
  583SOL     OW 2647   3.040   5.484   5.669
  583SOL    HW1 2648   2.989   5.456   5.587
  583SOL    HW2 2649   2.982   5.542   5.726
  584SOL     OW 2650   3.012   4.477   6.232
  584SOL    HW1 2651   3.039   4.499   6.326
  584SOL    HW2 2652   3.006   4.561   6.179
  585SOL     OW 2653   5.340   2.694   6.181
  585SOL    HW1 2654   5.250   2.696   6.226
  585SOL    HW2 2655   5.349   2.773   6.121
  586SOL     OW 2656   3.988   1.454   6.129
  586SOL    HW1 2657   4.013   1.530   6.069
  586SOL    HW2 2658   3.919   1.486   6.195
  587SOL     OW 2659   4.261   1.912   5.181
  587SOL    HW1 2660   4.286   1.997   5.134
  587SOL    HW2 2661   4.342   1.855   5.190
  588SOL     OW 2662   1.787   4.085   1.998
  588SOL    HW1 2663   1.819   4.178   1.979
  588SOL    HW2 2664   1.858   4.020   1.974
  589SOL     OW 2665   3.170   4.718   1.420
  589SOL    HW1 2666   3.203   4.802   1.463
  589SOL    HW2 2667   3.121   4.741   1.336
  590SOL     OW 2668   4.904   3.185   3.422
  590SOL    HW1 2669   4.950   3.114   3.475
  590SOL    HW2 2670   4.901   3.269   3.476
  591SOL     OW 2671   3.452   5.404   3.699
  591SOL    HW1 2672   3.431   5.474   3.768
  591SOL    HW2 2673   3.551   5.399   3.686
  592SOL     OW 2674   3.468   1.005   1.281
  592SOL    HW1 2675   3.452   0.978   1.376
  592SOL    HW2 2676   3.534   0.942   1.239
  593SOL     OW 2677   4.625   2.706   3.277
  593SOL    HW1 2678   4.638   2.694   3.178
  593SOL    HW2 2679   4.694   2.770   3.312
  594SOL     OW 2680   6.411   2.135   6.995
  594SOL    HW1 2681   6.336   2.172   6.940
  594SOL    HW2 2682   6.394   2.038   7.013
  595SOL     OW 2683   5.886   6.797   3.398
  595SOL    HW1 2684   5.863   6.785   3.494
  595SOL    HW2 2685   5.979   6.831   3.389
  596SOL     OW 2686   1.181   4.783   3.318
  596SOL    HW1 2687   1.163   4.747   3.410
  596SOL    HW2 2688   1.279   4.795   3.306
  597SOL     OW 2689   3.458   0.500   0.161
  597SOL    HW1 2690   3.406   0.415   0.166
  597SOL    HW2 2691   3.432   0.559   0.237
  598SOL     OW 2692   4.464   4.949   5.379
  598SOL    HW1 2693   4.440   5.034   5.333
  598SOL    HW2 2694   4.437   4.954   5.476
  599SOL     OW 2695   2.331   6.132   2.194
  599SOL    HW1 2696   2.290   6.071   2.127
  599SOL    HW2 2697   2.399   6.190   2.149
  600SOL     OW 2698   0.466   1.266   0.015
  600SOL    HW1 2699   0.421   1.198   6.981
  600SOL    HW2 2700   0.401   1.304   0.081
  601SOL     OW 2701   2.565   0.383   4.171
  601SOL    HW1 2702   2.535   0.430   4.254
  601SOL    HW2 2703   2.645   0.429   4.133
  602SOL     OW 2704   1.595   2.906   6.610
  602SOL    HW1 2705   1.496   2.899   6.614
  602SOL    HW2 2706   1.635   2.858   6.688
  603SOL     OW 2707   2.717   2.110   4.719
  603SOL    HW1 2708   2.745   2.196   4.761
  603SOL    HW2 2709   2.639   2.126   4.658
  604SOL     OW 2710   1.265   3.347   1.770
  604SOL    HW1 2711   1.234   3.255   1.796
  604SOL    HW2 2712   1.238   3.412   1.840
  605SOL     OW 2713   6.589   6.801   1.856
  605SOL    HW1 2714   6.508   6.860   1.859
  605SOL    HW2 2715   6.617   6.779   1.950
  606SOL     OW 2716   4.403   0.163   6.664
  606SOL    HW1 2717   4.393   0.134   6.758
  606SOL    HW2 2718   4.318   0.146   6.614
  607SOL     OW 2719   6.617   6.619   6.098
  607SOL    HW1 2720   6.669   6.684   6.154
  607SOL    HW2 2721   6.650   6.623   6.004
  608SOL     OW 2722   3.237   6.276   6.167
  608SOL    HW1 2723   3.296   6.196   6.174
  608SOL    HW2 2724   3.282   6.354   6.211
  609SOL     OW 2725   3.898   3.052   3.243
  609SOL    HW1 2726   3.996   3.061   3.230
  609SOL    HW2 2727   3.875   3.065   3.339
  610SOL     OW 2728   5.074   3.549   2.331
  610SOL    HW1 2729   5.000   3.614   2.314
  610SOL    HW2 2730   5.046   3.457   2.301
  611SOL     OW 2731   3.816   6.949   0.730
  611SOL    HW1 2732   3.742   6.994   0.779
  611SOL    HW2 2733   3.904   6.985   0.761
  612SOL     OW 2734   4.069   6.842   5.685
  612SOL    HW1 2735   4.000   6.888   5.629
  612SOL    HW2 2736   4.126   6.910   5.731
  613SOL     OW 2737   3.884   6.692   5.860
  613SOL    HW1 2738   3.808   6.756   5.851
  613SOL    HW2 2739   3.968   6.735   5.827
  614SOL     OW 2740   4.674   4.805   1.224
  614SOL    HW1 2741   4.633   4.879   1.276
  614SOL    HW2 2742   4.750   4.765   1.276
  615SOL     OW 2743   6.562   2.652   1.832
  615SOL    HW1 2744   6.633   2.708   1.876
  615SOL    HW2 2745   6.576   2.556   1.856
  616SOL     OW 2746   0.207   2.006   3.931
  616SOL    HW1 2747   0.278   2.028   3.864
  616SOL    HW2 2748   0.120   1.989   3.885
  617SOL     OW 2749   6.463   4.101   6.409
  617SOL    HW1 2750   6.541   4.111   6.347
  617SOL    HW2 2751   6.483   4.146   6.496
  618SOL     OW 2752   6.470   2.561   6.492
  618SOL    HW1 2753   6.559   2.593   6.458
  618SOL    HW2 2754   6.399   2.627   6.467
  619SOL     OW 2755   4.237   0.974   6.725
  619SOL    HW1 2756   4.318   0.993   6.669
  619SOL    HW2 2757   4.155   0.980   6.668
  620SOL     OW 2758   4.455   3.352   1.430
  620SOL    HW1 2759   4.362   3.350   1.466
  620SOL    HW2 2760   4.520   3.342   1.506
  621SOL     OW 2761   2.762   5.674   6.689
  621SOL    HW1 2762   2.797   5.624   6.768
  621SOL    HW2 2763   2.801   5.636   6.605
  622SOL     OW 2764   1.626   0.974   4.973
  622SOL    HW1 2765   1.607   1.066   4.937
  622SOL    HW2 2766   1.540   0.932   5.003
  623SOL     OW 2767   0.494   5.862   6.093
  623SOL    HW1 2768   0.502   5.959   6.074
  623SOL    HW2 2769   0.400   5.832   6.075
  624SOL     OW 2770   7.000   1.889   1.752
  624SOL    HW1 2771   7.008   1.817   1.821
  624SOL    HW2 2772   7.004   1.848   1.661
  625SOL     OW 2773   1.343   1.728   2.135
  625SOL    HW1 2774   1.258   1.764   2.095
  625SOL    HW2 2775   1.409   1.710   2.062
  626SOL     OW 2776   1.152   5.866   3.192
  626SOL    HW1 2777   1.138   5.782   3.139
  626SOL    HW2 2778   1.155   5.944   3.131
  627SOL     OW 2779   6.259   6.357   0.599
  627SOL    HW1 2780   6.329   6.290   0.623
  627SOL    HW2 2781   6.222   6.397   0.683
  628SOL     OW 2782   5.760   5.624   5.579
  628SOL    HW1 2783   5.734   5.709   5.625
  628SOL    HW2 2784   5.733   5.629   5.483
  629SOL     OW 2785   0.139   0.879   6.635
  629SOL    HW1 2786   0.148   0.884   6.536
  629SOL    HW2 2787   0.229   0.890   6.678
  630SOL     OW 2788   0.388   1.489   1.175
  630SOL    HW1 2789   0.299   1.530   1.194
  630SOL    HW2 2790   0.430   1.536   1.097
  631SOL     OW 2791   4.210   0.728   5.151
  631SOL    HW1 2792   4.217   0.754   5.248
  631SOL    HW2 2793   4.289   0.672   5.126
  632SOL     OW 2794   3.658   1.304   1.473
  632SOL    HW1 2795   3.591   1.328   1.403
  632SOL    HW2 2796   3.635   1.214   1.511
  633SOL     OW 2797   3.192   3.495   6.838
  633SOL    HW1 2798   3.253   3.483   6.760
  633SOL    HW2 2799   3.222   3.436   6.913
  634SOL     OW 2800   4.154   3.409   2.206
  634SOL    HW1 2801   4.085   3.348   2.166
  634SOL    HW2 2802   4.239   3.359   2.221
  635SOL     OW 2803   4.557   5.533   0.651
  635SOL    HW1 2804   4.625   5.575   0.711
  635SOL    HW2 2805   4.534   5.442   0.685
  636SOL     OW 2806   2.338   6.370   0.246
  636SOL    HW1 2807   2.245   6.358   0.211
  636SOL    HW2 2808   2.400   6.390   0.170
  637SOL     OW 2809   6.885   3.307   3.000
  637SOL    HW1 2810   6.926   3.394   2.974
  637SOL    HW2 2811   6.956   3.246   3.035
  638SOL     OW 2812   6.150   2.451   4.038
  638SOL    HW1 2813   6.124   2.547   4.042
  638SOL    HW2 2814   6.165   2.425   3.942
  639SOL     OW 2815   4.913   3.538   3.369
  639SOL    HW1 2816   4.871   3.472   3.431
  639SOL    HW2 2817   4.934   3.493   3.282
  640SOL     OW 2818   0.388   5.684   4.079
  640SOL    HW1 2819   0.414   5.751   4.010
  640SOL    HW2 2820   0.469   5.637   4.113
  641SOL     OW 2821   0.168   4.741   4.779
  641SOL    HW1 2822   0.176   4.783   4.869
  641SOL    HW2 2823   0.079   4.765   4.740
  642SOL     OW 2824   6.784   2.849   4.352
  642SOL    HW1 2825   6.833   2.925   4.396
  642SOL    HW2 2826   6.850   2.790   4.305
  643SOL     OW 2827   6.022   5.478   5.581
  643SOL    HW1 2828   5.931   5.515   5.561
  643SOL    HW2 2829   6.076   5.476   5.496
  644SOL     OW 2830   1.517   6.554   4.352
  644SOL    HW1 2831   1.564   6.467   4.336
  644SOL    HW2 2832   1.578   6.630   4.329
  645SOL     OW 2833   4.331   0.622   4.605
  645SOL    HW1 2834   4.342   0.569   4.522
  645SOL    HW2 2835   4.326   0.719   4.583
  646SOL     OW 2836   3.300   0.882   4.576
  646SOL    HW1 2837   3.351   0.960   4.540
  646SOL    HW2 2838   3.268   0.825   4.500
  647SOL     OW 2839   5.574   1.794   5.450
  647SOL    HW1 2840   5.519   1.718   5.416
  647SOL    HW2 2841   5.655   1.805   5.391
  648SOL     OW 2842   0.384   3.444   3.246
  648SOL    HW1 2843   0.300   3.432   3.192
  648SOL    HW2 2844   0.458   3.477   3.188
  649SOL     OW 2845   2.947   4.262   0.620
  649SOL    HW1 2846   2.993   4.263   0.531
  649SOL    HW2 2847   2.882   4.186   0.622
  650SOL     OW 2848   5.776   4.399   0.236
  650SOL    HW1 2849   5.857   4.347   0.208
  650SOL    HW2 2850   5.800   4.496   0.244
  651SOL     OW 2851   0.548   6.123   6.112
  651SOL    HW1 2852   0.558   6.092   6.206
  651SOL    HW2 2853   0.553   6.223   6.109
  652SOL     OW 2854   4.895   0.565   3.831
  652SOL    HW1 2855   4.814   0.581   3.888
  652SOL    HW2 2856   4.915   0.648   3.779
  653SOL     OW 2857   0.629   5.547   6.277
  653SOL    HW1 2858   0.584   5.503   6.354
  653SOL    HW2 2859   0.638   5.645   6.295
  654SOL     OW 2860   0.424   4.719   6.160
  654SOL    HW1 2861   0.432   4.629   6.202
  654SOL    HW2 2862   0.515   4.757   6.144
  655SOL     OW 2863   0.236   5.915   1.694
  655SOL    HW1 2864   0.213   5.842   1.758
  655SOL    HW2 2865   0.152   5.955   1.658
  656SOL     OW 2866   1.783   6.215   1.606
  656SOL    HW1 2867   1.767   6.144   1.537
  656SOL    HW2 2868   1.799   6.302   1.560
  657SOL     OW 2869   2.378   3.724   1.686
  657SOL    HW1 2870   2.418   3.707   1.596
  657SOL    HW2 2871   2.402   3.649   1.748
  658SOL     OW 2872   2.227   4.283   6.909
  658SOL    HW1 2873   2.300   4.350   6.904
  658SOL    HW2 2874   2.196   4.274   7.003
  659SOL     OW 2875   1.290   5.379   5.698
  659SOL    HW1 2876   1.332   5.395   5.609
  659SOL    HW2 2877   1.360   5.356   5.765
  660SOL     OW 2878   5.530   3.625   2.528
  660SOL    HW1 2879   5.463   3.573   2.581
  660SOL    HW2 2880   5.621   3.589   2.546
  661SOL     OW 2881   4.993   4.829   3.220
  661SOL    HW1 2882   5.045   4.808   3.304
  661SOL    HW2 2883   4.974   4.743   3.171
  662SOL     OW 2884   3.933   0.656   4.415
  662SOL    HW1 2885   4.023   0.692   4.388
  662SOL    HW2 2886   3.941   0.559   4.435
  663SOL     OW 2887   1.695   3.849   0.108
  663SOL    HW1 2888   1.718   3.826   0.013
  663SOL    HW2 2889   1.767   3.907   0.146
  664SOL     OW 2890   6.879   5.047   6.432
  664SOL    HW1 2891   6.880   4.950   6.406
  664SOL    HW2 2892   6.825   5.098   6.366
  665SOL     OW 2893   4.392   4.934   1.028
  665SOL    HW1 2894   4.374   4.853   0.972
  665SOL    HW2 2895   4.459   4.911   1.098
  666SOL     OW 2896   4.739   2.001   2.844
  666SOL    HW1 2897   4.645   2.006   2.813
  666SOL    HW2 2898   4.772   1.907   2.838
  667SOL     OW 2899   6.325   3.697   3.975
  667SOL    HW1 2900   6.410   3.694   4.027
  667SOL    HW2 2901   6.345   3.710   3.878
  668SOL     OW 2902   4.741   5.906   6.632
  668SOL    HW1 2903   4.796   5.831   6.668
  668SOL    HW2 2904   4.644   5.887   6.647
  669SOL     OW 2905   3.887   6.345   3.605
  669SOL    HW1 2906   3.808   6.394   3.566
  669SOL    HW2 2907   3.967   6.360   3.547
  670SOL     OW 2908   2.644   3.022   1.016
  670SOL    HW1 2909   2.721   2.996   0.958
  670SOL    HW2 2910   2.601   2.940   1.053
  671SOL     OW 2911   2.459   5.814   0.819
  671SOL    HW1 2912   2.466   5.719   0.849
  671SOL    HW2 2913   2.364   5.835   0.795
  672SOL     OW 2914   1.481   4.945   2.204
  672SOL    HW1 2915   1.480   4.950   2.304
  672SOL    HW2 2916   1.466   4.850   2.176
  673SOL     OW 2917   0.336   0.583   1.320
  673SOL    HW1 2918   0.256   0.591   1.260
  673SOL    HW2 2919   0.343   0.663   1.378
  674SOL     OW 2920   0.186   3.189   4.770
  674SOL    HW1 2921   0.270   3.221   4.815
  674SOL    HW2 2922   0.107   3.212   4.827
  675SOL     OW 2923   0.779   0.608   3.820
  675SOL    HW1 2924   0.746   0.519   3.849
  675SOL    HW2 2925   0.726   0.640   3.741
  676SOL     OW 2926   4.262   6.365   2.890
  676SOL    HW1 2927   4.358   6.378   2.915
  676SOL    HW2 2928   4.245   6.406   2.800
  677SOL     OW 2929   6.364   1.505   6.700
  677SOL    HW1 2930   6.354   1.429   6.635
  677SOL    HW2 2931   6.453   1.548   6.687
  678SOL     OW 2932   1.754   1.392   5.014
  678SOL    HW1 2933   1.836   1.404   5.069
  678SOL    HW2 2934   1.746   1.467   4.948
  679SOL     OW 2935   4.350   1.811   4.065
  679SOL    HW1 2936   4.257   1.840   4.089
  679SOL    HW2 2937   4.357   1.803   3.965
  680SOL     OW 2938   5.832   5.149   5.560
  680SOL    HW1 2939   5.770   5.226   5.550
  680SOL    HW2 2940   5.921   5.181   5.591
  681SOL     OW 2941   5.386   5.577   1.687
  681SOL    HW1 2942   5.483   5.582   1.664
  681SOL    HW2 2943   5.376   5.544   1.781
  682SOL     OW 2944   1.404   1.068   0.342
  682SOL    HW1 2945   1.468   1.007   0.390
  682SOL    HW2 2946   1.455   1.140   0.295
  683SOL     OW 2947   3.574   3.145   0.033
  683SOL    HW1 2948   3.475   3.151   0.019
  683SOL    HW2 2949   3.594   3.151   0.130
  684SOL     OW 2950   0.073   0.882   0.150
  684SOL    HW1 2951   7.014   0.849   0.102
  684SOL    HW2 2952   0.134   0.805   0.170
  685SOL     OW 2953   4.830   1.339   3.930
  685SOL    HW1 2954   4.905   1.275   3.948
  685SOL    HW2 2955   4.849   1.390   3.847
  686SOL     OW 2956   5.551   2.235   4.007
  686SOL    HW1 2957   5.621   2.281   4.062
  686SOL    HW2 2958   5.548   2.276   3.916
  687SOL     OW 2959   0.317   2.338   4.436
  687SOL    HW1 2960   0.380   2.343   4.513
  687SOL    HW2 2961   0.347   2.267   4.373
  688SOL     OW 2962   0.759   2.489   0.364
  688SOL    HW1 2963   0.746   2.396   0.398
  688SOL    HW2 2964   0.813   2.542   0.430
  689SOL     OW 2965   0.094   4.061   6.309
  689SOL    HW1 2966   0.034   3.987   6.339
  689SOL    HW2 2967   0.174   4.024   6.263
  690SOL     OW 2968   0.712   4.166   3.123
  690SOL    HW1 2969   0.680   4.207   3.208
  690SOL    HW2 2970   0.805   4.131   3.137
  691SOL     OW 2971   2.606   0.243   6.277
  691SOL    HW1 2972   2.611   0.322   6.216
  691SOL    HW2 2973   2.653   0.264   6.362
  692SOL     OW 2974   3.778   5.726   3.863
  692SOL    HW1 2975   3.762   5.768   3.773
  692SOL    HW2 2976   3.709   5.759   3.927
  693SOL     OW 2977   6.447   0.724   3.525
  693SOL    HW1 2978   6.375   0.742   3.592
  693SOL    HW2 2979   6.437   0.786   3.447
  694SOL     OW 2980   4.474   6.183   2.471
  694SOL    HW1 2981   4.466   6.158   2.568
  694SOL    HW2 2982   4.384   6.205   2.435
  695SOL     OW 2983   4.106   6.073   4.570
  695SOL    HW1 2984   4.129   6.157   4.619
  695SOL    HW2 2985   4.007   6.059   4.573
  696SOL     OW 2986   3.886   4.837   2.393
  696SOL    HW1 2987   3.812   4.834   2.326
  696SOL    HW2 2988   3.965   4.787   2.358
  697SOL     OW 2989   2.088   3.041   3.392
  697SOL    HW1 2990   2.045   3.122   3.351
  697SOL    HW2 2991   2.123   2.982   3.320
  698SOL     OW 2992   5.835   6.359   0.230
  698SOL    HW1 2993   5.854   6.406   0.144
  698SOL    HW2 2994   5.919   6.317   0.264
  699SOL     OW 2995   1.947   3.710   6.426
  699SOL    HW1 2996   1.978   3.627   6.473
  699SOL    HW2 2997   1.972   3.704   6.329
  700SOL     OW 2998   2.396   1.398   3.231
  700SOL    HW1 2999   2.317   1.369   3.177
  700SOL    HW2 3000   2.464   1.439   3.170
  701SOL     OW 3001   5.902   3.713   4.958
  701SOL    HW1 3002   5.897   3.616   4.983
  701SOL    HW2 3003   5.988   3.752   4.991
  702SOL     OW 3004   0.792   6.331   5.889
  702SOL    HW1 3005   0.801   6.231   5.893
  702SOL    HW2 3006   0.725   6.361   5.956
  703SOL     OW 3007   3.758   4.000   6.365
  703SOL    HW1 3008   3.700   4.000   6.283
  703SOL    HW2 3009   3.762   3.907   6.402
  704SOL     OW 3010   1.628   1.840   0.223
  704SOL    HW1 3011   1.605   1.848   0.126
  704SOL    HW2 3012   1.671   1.751   0.238
  705SOL     OW 3013   6.408   5.883   2.496
  705SOL    HW1 3014   6.383   5.793   2.460
  705SOL    HW2 3015   6.373   5.893   2.589
  706SOL     OW 3016   4.507   2.415   4.320
  706SOL    HW1 3017   4.603   2.443   4.327
  706SOL    HW2 3018   4.463   2.421   4.409
  707SOL     OW 3019   5.061   6.765   2.398
  707SOL    HW1 3020   5.121   6.702   2.350
  707SOL    HW2 3021   5.043   6.845   2.341
  708SOL     OW 3022   4.000   0.287   1.706
  708SOL    HW1 3023   4.094   0.270   1.678
  708SOL    HW2 3024   3.947   0.203   1.698
  709SOL     OW 3025   1.248   5.186   1.307
  709SOL    HW1 3026   1.209   5.113   1.363
  709SOL    HW2 3027   1.336   5.157   1.271
  710SOL     OW 3028   3.462   2.860   2.574
  710SOL    HW1 3029   3.533   2.803   2.617
  710SOL    HW2 3030   3.395   2.887   2.643
  711SOL     OW 3031   6.999   2.589   5.180
  711SOL    HW1 3032   6.943   2.559   5.102
  711SOL    HW2 3033   6.963   2.548   5.264
  712SOL     OW 3034   4.022   3.442   1.162
  712SOL    HW1 3035   3.989   3.514   1.101
  712SOL    HW2 3036   4.092   3.388   1.115
  713SOL     OW 3037   4.095   2.697   6.202
  713SOL    HW1 3038   4.091   2.764   6.276
  713SOL    HW2 3039   4.153   2.731   6.128
  714SOL     OW 3040   6.713   4.357   4.205
  714SOL    HW1 3041   6.647   4.286   4.181
  714SOL    HW2 3042   6.803   4.316   4.220
  715SOL     OW 3043   5.545   5.865   0.408
  715SOL    HW1 3044   5.452   5.898   0.426
  715SOL    HW2 3045   5.596   5.934   0.358
  716SOL     OW 3046   0.755   6.847   1.231
  716SOL    HW1 3047   0.689   6.866   1.305
  716SOL    HW2 3048   0.800   6.932   1.205
  717SOL     OW 3049   6.172   4.832   5.736
  717SOL    HW1 3050   6.147   4.775   5.815
  717SOL    HW2 3051   6.138   4.790   5.652
  718SOL     OW 3052   5.081   1.939   6.206
  718SOL    HW1 3053   4.988   1.974   6.196
  718SOL    HW2 3054   5.101   1.877   6.129
  719SOL     OW 3055   6.297   0.520   1.719
  719SOL    HW1 3056   6.294   0.588   1.646
  719SOL    HW2 3057   6.246   0.552   1.798
  720SOL     OW 3058   3.514   1.326   5.983
  720SOL    HW1 3059   3.520   1.237   5.938
  720SOL    HW2 3060   3.546   1.397   5.920
  721SOL     OW 3061   2.872   1.090   4.141
  721SOL    HW1 3062   2.800   1.159   4.129
  721SOL    HW2 3063   2.892   1.080   4.239
  722SOL     OW 3064   2.644   0.968   4.965
  722SOL    HW1 3065   2.597   0.944   4.880
  722SOL    HW2 3066   2.673   0.885   5.012
  723SOL     OW 3067   1.871   3.787   3.277
  723SOL    HW1 3068   1.951   3.843   3.300
  723SOL    HW2 3069   1.833   3.817   3.190
  724SOL     OW 3070   1.101   2.904   4.182
  724SOL    HW1 3071   1.093   2.869   4.276
  724SOL    HW2 3072   1.169   2.850   4.132
  725SOL     OW 3073   3.071   5.529   0.268
  725SOL    HW1 3074   3.114   5.445   0.233
  725SOL    HW2 3075   3.141   5.597   0.288
  726SOL     OW 3076   3.878   4.949   0.962
  726SOL    HW1 3077   3.824   4.870   0.987
  726SOL    HW2 3078   3.969   4.941   1.003
  727SOL     OW 3079   5.625   4.428   5.648
  727SOL    HW1 3080   5.724   4.416   5.654
  727SOL    HW2 3081   5.598   4.429   5.552
  728SOL     OW 3082   6.789   3.049   4.838
  728SOL    HW1 3083   6.706   3.103   4.826
  728SOL    HW2 3084   6.859   3.105   4.882
  729SOL     OW 3085   1.321   1.779   1.110
  729SOL    HW1 3086   1.335   1.824   1.198
  729SOL    HW2 3087   1.225   1.756   1.098
  730SOL     OW 3088   5.808   0.772   3.719
  730SOL    HW1 3089   5.845   0.679   3.726
  730SOL    HW2 3090   5.850   0.830   3.789
  731SOL     OW 3091   5.880   4.381   6.284
  731SOL    HW1 3092   5.830   4.359   6.367
  731SOL    HW2 3093   5.816   4.411   6.213
  732SOL     OW 3094   6.396   2.282   1.467
  732SOL    HW1 3095   6.450   2.363   1.442
  732SOL    HW2 3096   6.434   2.242   1.551
  733SOL     OW 3097   5.747   6.327   5.302
  733SOL    HW1 3098   5.725   6.386   5.224
  733SOL    HW2 3099   5.845   6.330   5.320
  734SOL     OW 3100   6.961   4.862   3.004
  734SOL    HW1 3101   6.890   4.931   3.009
  734SOL    HW2 3102   6.954   4.813   2.917
  735SOL     OW 3103   3.730   1.879   0.522
  735SOL    HW1 3104   3.696   1.824   0.598
  735SOL    HW2 3105   3.689   1.847   0.436
  736SOL     OW 3106   0.660   0.988   3.442
  736SOL    HW1 3107   0.740   0.943   3.401
  736SOL    HW2 3108   0.690   1.065   3.499
  737SOL     OW 3109   4.776   1.879   5.298
  737SOL    HW1 3110   4.787   1.785   5.265
  737SOL    HW2 3111   4.749   1.877   5.395
  738SOL     OW 3112   2.119   4.166   1.746
  738SOL    HW1 3113   2.074   4.173   1.658
  738SOL    HW2 3114   2.164   4.253   1.768
  739SOL     OW 3115   4.079   0.169   4.199
  739SOL    HW1 3116   4.090   0.078   4.240
  739SOL    HW2 3117   4.166   0.200   4.162
  740SOL     OW 3118   6.204   0.634   1.248
  740SOL    HW1 3119   6.161   0.627   1.338
  740SOL    HW2 3120   6.134   0.643   1.178
  741SOL     OW 3121   2.504   6.244   3.209
  741SOL    HW1 3122   2.416   6.253   3.163
  741SOL    HW2 3123   2.575   6.224   3.142
  742SOL     OW 3124   2.615   0.019   2.491
  742SOL    HW1 3125   2.565   6.968   2.445
  742SOL    HW2 3126   2.710   7.015   2.503
  743SOL     OW 3127   0.256   3.757   3.589
  743SOL    HW1 3128   0.263   3.854   3.611
  743SOL    HW2 3129   0.294   3.741   3.498
  744SOL     OW 3130   5.872   0.334   6.822
  744SOL    HW1 3131   5.901   0.384   6.903
  744SOL    HW2 3132   5.940   0.265   6.798
  745SOL     OW 3133   1.253   5.613   5.014
  745SOL    HW1 3134   1.161   5.583   4.991
  745SOL    HW2 3135   1.320   5.553   4.970
  746SOL     OW 3136   0.110   4.272   6.488
  746SOL    HW1 3137   0.108   4.352   6.428
  746SOL    HW2 3138   0.093   4.190   6.433
  747SOL     OW 3139   3.649   6.353   4.362
  747SOL    HW1 3140   3.688   6.286   4.299
  747SOL    HW2 3141   3.693   6.344   4.451
  748SOL     OW 3142   3.695   5.147   2.224
  748SOL    HW1 3143   3.743   5.184   2.304
  748SOL    HW2 3144   3.624   5.212   2.196
  749SOL     OW 3145   6.134   4.682   4.672
  749SOL    HW1 3146   6.064   4.656   4.738
  749SOL    HW2 3147   6.188   4.758   4.708
  750SOL     OW 3148   1.547   1.685   1.386
  750SOL    HW1 3149   1.567   1.717   1.479
  750SOL    HW2 3150   1.461   1.635   1.386
  751SOL     OW 3151   4.173   2.197   6.913
  751SOL    HW1 3152   4.106   2.166   6.981
  751SOL    HW2 3153   4.196   2.293   6.932
  752SOL     OW 3154   3.499   0.941   2.507
  752SOL    HW1 3155   3.501   0.881   2.587
  752SOL    HW2 3156   3.420   1.003   2.514
  753SOL     OW 3157   2.037   3.312   5.440
  753SOL    HW1 3158   2.003   3.331   5.348
  753SOL    HW2 3159   2.136   3.296   5.437
  754SOL     OW 3160   4.988   2.601   5.427
  754SOL    HW1 3161   4.959   2.522   5.373
  754SOL    HW2 3162   4.909   2.658   5.448
  755SOL     OW 3163   1.302   4.356   5.514
  755SOL    HW1 3164   1.243   4.411   5.573
  755SOL    HW2 3165   1.397   4.381   5.530
  756SOL     OW 3166   2.989   6.307   0.036
  756SOL    HW1 3167   2.966   6.403   0.020
  756SOL    HW2 3168   3.088   6.296   0.033
  757SOL     OW 3169   0.468   0.794   3.501
  757SOL    HW1 3170   0.553   0.838   3.471
  757SOL    HW2 3171   0.490   0.718   3.561
  758SOL     OW 3172   3.503   6.906   1.968
  758SOL    HW1 3173   3.477   6.834   2.033
  758SOL    HW2 3174   3.598   6.931   1.983
  759SOL     OW 3175   0.284   1.294   1.337
  759SOL    HW1 3176   0.318   1.367   1.279
  759SOL    HW2 3177   0.358   1.230   1.358
  760SOL     OW 3178   5.574   0.190   5.297
  760SOL    HW1 3179   5.597   0.093   5.293
  760SOL    HW2 3180   5.511   0.212   5.222
  761SOL     OW 3181   5.381   3.313   5.906
  761SOL    HW1 3182   5.394   3.410   5.926
  761SOL    HW2 3183   5.341   3.303   5.815
  762SOL     OW 3184   2.499   0.885   4.748
  762SOL    HW1 3185   2.545   0.807   4.705
  762SOL    HW2 3186   2.403   0.886   4.719
  763SOL     OW 3187   4.271   5.378   6.446
  763SOL    HW1 3188   4.195   5.385   6.382
  763SOL    HW2 3189   4.339   5.448   6.426
  764SOL     OW 3190   5.123   1.725   5.210
  764SOL    HW1 3191   5.183   1.646   5.200
  764SOL    HW2 3192   5.174   1.809   5.191
  765SOL     OW 3193   1.500   6.058   1.235
  765SOL    HW1 3194   1.450   6.144   1.223
  765SOL    HW2 3195   1.457   5.986   1.181
  766SOL     OW 3196   2.753   3.443   6.498
  766SOL    HW1 3197   2.718   3.421   6.589
  766SOL    HW2 3198   2.728   3.370   6.435
  767SOL     OW 3199   6.069   5.909   1.707
  767SOL    HW1 3200   5.991   5.931   1.765
  767SOL    HW2 3201   6.038   5.892   1.613
  768SOL     OW 3202   2.200   6.434   2.150
  768SOL    HW1 3203   2.257   6.453   2.231
  768SOL    HW2 3204   2.258   6.431   2.069
  769SOL     OW 3205   2.856   1.176   4.880
  769SOL    HW1 3206   2.918   1.167   4.958
  769SOL    HW2 3207   2.782   1.110   4.889
  770SOL     OW 3208   1.638   4.524   2.937
  770SOL    HW1 3209   1.610   4.447   2.880
  770SOL    HW2 3210   1.576   4.601   2.924
  771SOL     OW 3211   1.918   4.939   2.504
  771SOL    HW1 3212   2.005   4.947   2.554
  771SOL    HW2 3213   1.935   4.893   2.417
  772SOL     OW 3214   5.527   5.539   0.390
  772SOL    HW1 3215   5.618   5.501   0.400
  772SOL    HW2 3216   5.525   5.632   0.428
  773SOL     OW 3217   0.170   3.874   5.112
  773SOL    HW1 3218   0.185   3.820   5.195
  773SOL    HW2 3219   0.252   3.871   5.055
  774SOL     OW 3220   1.326   1.513   1.407
  774SOL    HW1 3221   1.235   1.518   1.449
  774SOL    HW2 3222   1.384   1.452   1.460
  775SOL     OW 3223   0.465   2.474   3.214
  775SOL    HW1 3224   0.389   2.456   3.151
  775SOL    HW2 3225   0.523   2.547   3.176
  776SOL     OW 3226   1.472   7.005   6.145
  776SOL    HW1 3227   1.390   6.983   6.092
  776SOL    HW2 3228   1.543   0.018   6.085
  777SOL     OW 3229   2.239   4.974   1.797
  777SOL    HW1 3230   2.229   4.902   1.728
  777SOL    HW2 3231   2.330   5.015   1.789
  778SOL     OW 3232   2.408   1.619   2.135
  778SOL    HW1 3233   2.364   1.593   2.221
  778SOL    HW2 3234   2.400   1.717   2.122
  779SOL     OW 3235   6.646   2.872   2.015
  779SOL    HW1 3236   6.740   2.892   2.041
  779SOL    HW2 3237   6.593   2.849   2.097
  780SOL     OW 3238   6.725   3.583   4.477
  780SOL    HW1 3239   6.824   3.588   4.464
  780SOL    HW2 3240   6.694   3.489   4.459
  781SOL     OW 3241   5.928   0.515   0.054
  781SOL    HW1 3242   5.909   0.571   6.996
  781SOL    HW2 3243   5.918   0.570   0.136
  782SOL     OW 3244   1.662   4.373   6.536
  782SOL    HW1 3245   1.631   4.304   6.602
  782SOL    HW2 3246   1.606   4.367   6.453
  783SOL     OW 3247   4.813   5.223   1.149
  783SOL    HW1 3248   4.737   5.278   1.184
  783SOL    HW2 3249   4.827   5.243   1.052
  784SOL     OW 3250   4.813   5.829   0.674
  784SOL    HW1 3251   4.891   5.889   0.694
  784SOL    HW2 3252   4.737   5.883   0.639
  785SOL     OW 3253   0.278   2.579   3.461
  785SOL    HW1 3254   0.246   2.659   3.410
  785SOL    HW2 3255   0.291   2.503   3.398
  786SOL     OW 3256   1.687   1.250   2.384
  786SOL    HW1 3257   1.756   1.179   2.369
  786SOL    HW2 3258   1.597   1.215   2.358
  787SOL     OW 3259   2.484   0.745   6.739
  787SOL    HW1 3260   2.563   0.706   6.692
  787SOL    HW2 3261   2.400   0.710   6.698
  788SOL     OW 3262   3.289   2.869   5.888
  788SOL    HW1 3263   3.323   2.954   5.929
  788SOL    HW2 3264   3.218   2.830   5.948
  789SOL     OW 3265   5.202   4.059   0.550
  789SOL    HW1 3266   5.107   4.029   0.543
  789SOL    HW2 3267   5.229   4.061   0.646
  790SOL     OW 3268   2.346   1.254   3.709
  790SOL    HW1 3269   2.303   1.311   3.639
  790SOL    HW2 3270   2.435   1.222   3.677
  791SOL     OW 3271   2.945   5.686   3.859
  791SOL    HW1 3272   3.007   5.699   3.936
  791SOL    HW2 3273   2.850   5.691   3.891
  792SOL     OW 3274   1.161   6.879   0.791
  792SOL    HW1 3275   1.231   6.829   0.841
  792SOL    HW2 3276   1.159   6.848   0.696
  793SOL     OW 3277   4.893   4.695   3.665
  793SOL    HW1 3278   4.817   4.633   3.684
  793SOL    HW2 3279   4.865   4.763   3.598
  794SOL     OW 3280   3.665   3.595   5.313
  794SOL    HW1 3281   3.662   3.695   5.310
  794SOL    HW2 3282   3.753   3.566   5.351
  795SOL     OW 3283   3.011   6.829   4.095
  795SOL    HW1 3284   2.923   6.825   4.142
  795SOL    HW2 3285   3.041   6.925   4.088
  796SOL     OW 3286   0.165   1.739   6.401
  796SOL    HW1 3287   0.224   1.736   6.482
  796SOL    HW2 3288   0.143   1.645   6.373
  797SOL     OW 3289   5.578   3.125   0.852
  797SOL    HW1 3290   5.605   3.171   0.937
  797SOL    HW2 3291   5.611   3.177   0.774
  798SOL     OW 3292   4.024   0.192   2.517
  798SOL    HW1 3293   3.933   0.231   2.512
  798SOL    HW2 3294   4.063   0.208   2.608
  799SOL     OW 3295   0.285   0.045   6.054
  799SOL    HW1 3296   0.295   0.066   6.151
  799SOL    HW2 3297   0.363   7.014   6.023
  800SOL     OW 3298   5.304   2.445   2.838
  800SOL    HW1 3299   5.290   2.480   2.746
  800SOL    HW2 3300   5.261   2.355   2.846
  801SOL     OW 3301   1.665   3.534   4.491
  801SOL    HW1 3302   1.674   3.577   4.402
  801SOL    HW2 3303   1.569   3.513   4.509
  802SOL     OW 3304   3.855   2.109   1.285
  802SOL    HW1 3305   3.797   2.076   1.210
  802SOL    HW2 3306   3.902   2.193   1.256
  803SOL     OW 3307   0.360   6.388   5.611
  803SOL    HW1 3308   0.431   6.323   5.583
  803SOL    HW2 3309   0.320   6.359   5.697
  804SOL     OW 3310   5.277   5.624   6.579
  804SOL    HW1 3311   5.239   5.532   6.579
  804SOL    HW2 3312   5.252   5.670   6.494
  805SOL     OW 3313   3.305   6.867   4.849
  805SOL    HW1 3314   3.361   6.859   4.767
  805SOL    HW2 3315   3.229   6.802   4.845
  806SOL     OW 3316   4.965   1.046   4.476
  806SOL    HW1 3317   5.026   1.101   4.533
  806SOL    HW2 3318   4.935   1.100   4.397
  807SOL     OW 3319   1.656   1.766   4.358
  807SOL    HW1 3320   1.616   1.857   4.369
  807SOL    HW2 3321   1.584   1.698   4.352
  808SOL     OW 3322   4.789   3.333   6.207
  808SOL    HW1 3323   4.711   3.339   6.269
  808SOL    HW2 3324   4.834   3.422   6.201
  809SOL     OW 3325   6.830   4.809   0.901
  809SOL    HW1 3326   6.922   4.812   0.940
  809SOL    HW2 3327   6.824   4.734   0.836
  810SOL     OW 3328   3.262   3.396   1.712
  810SOL    HW1 3329   3.164   3.410   1.696
  810SOL    HW2 3330   3.274   3.326   1.782
  811SOL     OW 3331   4.542   5.443   5.169
  811SOL    HW1 3332   4.503   5.438   5.077
  811SOL    HW2 3333   4.549   5.539   5.196
  812SOL     OW 3334   0.730   1.269   2.235
  812SOL    HW1 3335   0.650   1.224   2.276
  812SOL    HW2 3336   0.783   1.315   2.307
  813SOL     OW 3337   3.554   6.394   4.763
  813SOL    HW1 3338   3.493   6.468   4.737
  813SOL    HW2 3339   3.575   6.400   4.860
  814SOL     OW 3340   6.644   6.066   1.978
  814SOL    HW1 3341   6.731   6.071   1.930
  814SOL    HW2 3342   6.608   6.159   1.993
  815SOL     OW 3343   0.593   3.443   2.942
  815SOL    HW1 3344   0.519   3.411   2.882
  815SOL    HW2 3345   0.651   3.506   2.892
  816SOL     OW 3346   6.344   6.742   0.675
  816SOL    HW1 3347   6.347   6.686   0.592
  816SOL    HW2 3348   6.309   6.832   0.653
  817SOL     OW 3349   2.416   4.593   0.902
  817SOL    HW1 3350   2.458   4.526   0.963
  817SOL    HW2 3351   2.453   4.583   0.810
  818SOL     OW 3352   6.505   2.944   2.249
  818SOL    HW1 3353   6.519   3.005   2.327
  818SOL    HW2 3354   6.450   2.866   2.278
  819SOL     OW 3355   5.742   2.593   3.265
  819SOL    HW1 3356   5.643   2.582   3.251
  819SOL    HW2 3357   5.770   2.683   3.231
  820SOL     OW 3358   2.938   2.306   5.297
  820SOL    HW1 3359   3.029   2.320   5.258
  820SOL    HW2 3360   2.887   2.392   5.294
  821SOL     OW 3361   1.815   4.795   1.325
  821SOL    HW1 3362   1.758   4.751   1.256
  821SOL    HW2 3363   1.824   4.893   1.303
  822SOL     OW 3364   1.439   4.609   4.053
  822SOL    HW1 3365   1.438   4.626   3.954
  822SOL    HW2 3366   1.441   4.510   4.069
  823SOL     OW 3367   4.931   3.877   6.694
  823SOL    HW1 3368   4.877   3.932   6.631
  823SOL    HW2 3369   4.874   3.847   6.771
  824SOL     OW 3370   5.662   0.814   6.077
  824SOL    HW1 3371   5.602   0.891   6.054
  824SOL    HW2 3372   5.649   0.788   6.173
  825SOL     OW 3373   0.270   4.082   1.123
  825SOL    HW1 3374   0.290   4.112   1.216
  825SOL    HW2 3375   0.287   3.984   1.115
  826SOL     OW 3376   5.414   3.084   5.549
  826SOL    HW1 3377   5.397   3.118   5.456
  826SOL    HW2 3378   5.356   3.135   5.613
  827SOL     OW 3379   2.588   4.902   5.383
  827SOL    HW1 3380   2.587   4.830   5.453
  827SOL    HW2 3381   2.674   4.898   5.333
  828SOL     OW 3382   5.348   6.921   6.446
  828SOL    HW1 3383   5.309   7.010   6.472
  828SOL    HW2 3384   5.334   6.856   6.521
  829SOL     OW 3385   3.921   4.012   2.971
  829SOL    HW1 3386   3.869   4.063   2.902
  829SOL    HW2 3387   3.919   4.062   3.057
  830SOL     OW 3388   5.175   5.342   6.616
  830SOL    HW1 3389   5.106   5.317   6.549
  830SOL    HW2 3390   5.260   5.293   6.596
  831SOL     OW 3391   6.350   0.173   0.349
  831SOL    HW1 3392   6.343   0.073   0.341
  831SOL    HW2 3393   6.430   0.196   0.405
  832SOL     OW 3394   3.441   0.740   1.785
  832SOL    HW1 3395   3.490   0.806   1.843
  832SOL    HW2 3396   3.344   0.765   1.781
  833SOL     OW 3397   1.104   3.763   5.823
  833SOL    HW1 3398   1.164   3.697   5.777
  833SOL    HW2 3399   1.053   3.716   5.895
  834SOL     OW 3400   4.115   3.681   0.614
  834SOL    HW1 3401   4.146   3.608   0.674
  834SOL    HW2 3402   4.139   3.770   0.653
  835SOL     OW 3403   3.495   0.285   5.272
  835SOL    HW1 3404   3.477   0.259   5.177
  835SOL    HW2 3405   3.593   0.298   5.285
  836SOL     OW 3406   3.599   6.203   6.377
  836SOL    HW1 3407   3.663   6.149   6.323
  836SOL    HW2 3408   3.507   6.194   6.338
  837SOL     OW 3409   5.757   0.651   0.817
  837SOL    HW1 3410   5.663   0.669   0.787
  837SOL    HW2 3411   5.807   0.603   0.745
  838SOL     OW 3412   2.011   0.630   4.489
  838SOL    HW1 3413   2.071   0.555   4.460
  838SOL    HW2 3414   1.918   0.613   4.456
  839SOL     OW 3415   1.438   2.870   2.186
  839SOL    HW1 3416   1.463   2.949   2.130
  839SOL    HW2 3417   1.514   2.805   2.190
  840SOL     OW 3418   6.460   6.346   0.329
  840SOL    HW1 3419   6.392   6.297   0.275
  840SOL    HW2 3420   6.513   6.280   0.383
  841SOL     OW 3421   4.079   5.208   6.573
  841SOL    HW1 3422   4.048   5.133   6.514
  841SOL    HW2 3423   4.150   5.261   6.527
  842SOL     OW 3424   4.225   0.424   5.190
  842SOL    HW1 3425   4.156   0.473   5.242
  842SOL    HW2 3426   4.290   0.489   5.151
  843SOL     OW 3427   0.725   1.298   1.201
  843SOL    HW1 3428   0.676   1.377   1.237
  843SOL    HW2 3429   0.757   1.240   1.276
  844SOL     OW 3430   5.988   0.807   0.595
  844SOL    HW1 3431   6.024   0.863   0.521
  844SOL    HW2 3432   5.932   0.863   0.656
  845SOL     OW 3433   4.917   4.551   5.120
  845SOL    HW1 3434   4.828   4.506   5.115
  845SOL    HW2 3435   4.912   4.628   5.183
  846SOL     OW 3436   2.019   2.101   6.509
  846SOL    HW1 3437   1.989   2.035   6.578
  846SOL    HW2 3438   2.046   2.187   6.553
  847SOL     OW 3439   1.596   3.024   1.553
  847SOL    HW1 3440   1.612   2.927   1.533
  847SOL    HW2 3441   1.574   3.072   1.468
  848SOL     OW 3442   6.191   0.499   6.140
  848SOL    HW1 3443   6.148   0.556   6.070
  848SOL    HW2 3444   6.200   0.405   6.107
  849SOL     OW 3445   0.395   4.201   6.451
  849SOL    HW1 3446   0.300   4.233   6.450
  849SOL    HW2 3447   0.403   4.118   6.396
  850SOL     OW 3448   5.147   0.376   3.464
  850SOL    HW1 3449   5.077   0.404   3.529
  850SOL    HW2 3450   5.125   0.411   3.373
  851SOL     OW 3451   0.176   1.707   2.338
  851SOL    HW1 3452   0.087   1.691   2.380
  851SOL    HW2 3453   0.184   1.650   2.256
  852SOL     OW 3454   1.422   3.124   6.973
  852SOL    HW1 3455   1.453   3.136   0.045
  852SOL    HW2 3456   1.371   3.205   6.945
  853SOL     OW 3457   1.868   4.341   1.965
  853SOL    HW1 3458   1.895   4.419   2.022
  853SOL    HW2 3459   1.800   4.370   1.897
  854SOL     OW 3460   4.725   6.019   1.139
  854SOL    HW1 3461   4.820   6.001   1.165
  854SOL    HW2 3462   4.710   6.118   1.140
  855SOL     OW 3463   0.108   6.948   1.474
  855SOL    HW1 3464   0.145   7.021   1.416
  855SOL    HW2 3465   0.081   6.870   1.417
  856SOL     OW 3466   1.101   2.334   5.156
  856SOL    HW1 3467   1.189   2.363   5.120
  856SOL    HW2 3468   1.104   2.236   5.177
  857SOL     OW 3469   6.009   3.993   1.785
  857SOL    HW1 3470   5.965   4.069   1.832
  857SOL    HW2 3471   5.954   3.910   1.796
  858SOL     OW 3472   2.600   3.566   0.958
  858SOL    HW1 3473   2.645   3.559   0.869
  858SOL    HW2 3474   2.501   3.570   0.945
  859SOL     OW 3475   5.647   5.893   5.233
  859SOL    HW1 3476   5.667   5.879   5.136
  859SOL    HW2 3477   5.586   5.971   5.243
  860SOL     OW 3478   5.323   3.393   0.560
  860SOL    HW1 3479   5.330   3.319   0.627
  860SOL    HW2 3480   5.242   3.448   0.581
  861SOL     OW 3481   2.758   5.625   3.476
  861SOL    HW1 3482   2.765   5.650   3.380
  861SOL    HW2 3483   2.728   5.704   3.529
  862SOL     OW 3484   0.933   4.065   5.053
  862SOL    HW1 3485   0.897   4.005   4.982
  862SOL    HW2 3486   1.033   4.056   5.057
  863SOL     OW 3487   6.157   0.872   0.994
  863SOL    HW1 3488   6.083   0.807   1.010
  863SOL    HW2 3489   6.128   0.939   0.925
  864SOL     OW 3490   4.285   4.734   3.628
  864SOL    HW1 3491   4.344   4.810   3.653
  864SOL    HW2 3492   4.189   4.760   3.640
  865SOL     OW 3493   0.560   6.400   6.007
  865SOL    HW1 3494   0.579   6.491   6.044
  865SOL    HW2 3495   0.476   6.404   5.953
  866SOL     OW 3496   2.017   1.842   1.409
  866SOL    HW1 3497   2.060   1.756   1.437
  866SOL    HW2 3498   2.031   1.911   1.480
  867SOL     OW 3499   3.999   3.862   0.931
  867SOL    HW1 3500   4.095   3.838   0.940
  867SOL    HW2 3501   3.978   3.885   0.836
  868SOL     OW 3502   5.724   1.114   1.291
  868SOL    HW1 3503   5.629   1.133   1.316
  868SOL    HW2 3504   5.749   1.023   1.324
  869SOL     OW 3505   0.109   5.005   3.315
  869SOL    HW1 3506   0.158   4.929   3.358
  869SOL    HW2 3507   0.065   5.061   3.385
  870SOL     OW 3508   4.447   3.144   0.493
  870SOL    HW1 3509   4.477   3.240   0.496
  870SOL    HW2 3510   4.373   3.130   0.558
  871SOL     OW 3511   4.451   2.480   3.245
  871SOL    HW1 3512   4.453   2.435   3.334
  871SOL    HW2 3513   4.501   2.566   3.249
  872SOL     OW 3514   5.169   3.775   3.685
  872SOL    HW1 3515   5.255   3.804   3.645
  872SOL    HW2 3516   5.100   3.846   3.673
  873SOL     OW 3517   5.784   6.852   4.073
  873SOL    HW1 3518   5.777   6.774   4.011
  873SOL    HW2 3519   5.786   6.937   4.020
  874SOL     OW 3520   0.771   4.205   6.412
  874SOL    HW1 3521   0.707   4.249   6.475
  874SOL    HW2 3522   0.827   4.274   6.368
  875SOL     OW 3523   3.549   3.217   0.629
  875SOL    HW1 3524   3.473   3.235   0.692
  875SOL    HW2 3525   3.543   3.279   0.551
  876SOL     OW 3526   0.308   5.076   2.770
  876SOL    HW1 3527   0.229   5.111   2.819
  876SOL    HW2 3528   0.359   5.013   2.829
  877SOL     OW 3529   4.240   3.939   6.441
  877SOL    HW1 3530   4.238   3.839   6.437
  877SOL    HW2 3531   4.149   3.975   6.420
  878SOL     OW 3532   3.832   5.963   5.387
  878SOL    HW1 3533   3.748   5.922   5.421
  878SOL    HW2 3534   3.868   6.027   5.455
  879SOL     OW 3535   2.984   2.467   1.390
  879SOL    HW1 3536   3.024   2.449   1.480
  879SOL    HW2 3537   2.886   2.486   1.400
  880SOL     OW 3538   3.548   4.432   5.340
  880SOL    HW1 3539   3.506   4.493   5.407
  880SOL    HW2 3540   3.646   4.451   5.335
  881SOL     OW 3541   4.727   4.133   5.140
  881SOL    HW1 3542   4.825   4.131   5.161
  881SOL    HW2 3543   4.692   4.039   5.139
  882SOL     OW 3544   0.648   2.287   4.203
  882SOL    HW1 3545   0.711   2.327   4.270
  882SOL    HW2 3546   0.686   2.200   4.171
  883SOL     OW 3547   4.648   5.944   6.065
  883SOL    HW1 3548   4.734   5.912   6.106
  883SOL    HW2 3549   4.665   6.028   6.015
  884SOL     OW 3550   0.225   3.844   0.120
  884SOL    HW1 3551   0.210   3.788   0.202
  884SOL    HW2 3552   0.154   3.914   0.114
  885SOL     OW 3553   4.703   5.595   6.368
  885SOL    HW1 3554   4.782   5.656   6.371
  885SOL    HW2 3555   4.706   5.532   6.446
  886SOL     OW 3556   4.038   0.869   1.502
  886SOL    HW1 3557   3.942   0.853   1.524
  886SOL    HW2 3558   4.077   0.785   1.462
  887SOL     OW 3559   3.430   6.951   4.109
  887SOL    HW1 3560   3.435   6.953   4.010
  887SOL    HW2 3561   3.335   6.968   4.138
  888SOL     OW 3562   5.864   5.691   3.052
  888SOL    HW1 3563   5.800   5.740   2.994
  888SOL    HW2 3564   5.832   5.598   3.068
  889SOL     OW 3565   1.634   6.735   6.137
  889SOL    HW1 3566   1.612   6.654   6.084
  889SOL    HW2 3567   1.573   6.810   6.110
  890SOL     OW 3568   2.543   5.134   2.461
  890SOL    HW1 3569   2.555   5.035   2.467
  890SOL    HW2 3570   2.621   5.174   2.412
  891SOL     OW 3571   6.456   4.133   0.339
  891SOL    HW1 3572   6.479   4.094   0.249
  891SOL    HW2 3573   6.367   4.097   0.368
  892SOL     OW 3574   4.074   3.975   5.559
  892SOL    HW1 3575   4.102   3.949   5.467
  892SOL    HW2 3576   4.102   3.903   5.623
  893SOL     OW 3577   1.846   0.976   1.942
  893SOL    HW1 3578   1.831   1.059   1.996
  893SOL    HW2 3579   1.858   0.898   2.003
  894SOL     OW 3580   1.363   2.310   3.124
  894SOL    HW1 3581   1.276   2.304   3.174
  894SOL    HW2 3582   1.414   2.226   3.135
  895SOL     OW 3583   1.039   5.101   4.379
  895SOL    HW1 3584   0.959   5.067   4.429
  895SOL    HW2 3585   1.032   5.200   4.368
  896SOL     OW 3586   6.322   6.592   1.416
  896SOL    HW1 3587   6.411   6.599   1.460
  896SOL    HW2 3588   6.334   6.569   1.319
  897SOL     OW 3589   4.470   0.479   6.866
  897SOL    HW1 3590   4.461   0.439   6.775
  897SOL    HW2 3591   4.537   0.554   6.863
  898SOL     OW 3592   3.826   6.296   3.021
  898SOL    HW1 3593   3.794   6.223   3.081
  898SOL    HW2 3594   3.868   6.257   2.939
  899SOL     OW 3595   0.453   4.928   0.644
  899SOL    HW1 3596   0.455   4.844   0.699
  899SOL    HW2 3597   0.530   4.986   0.668
  900SOL     OW 3598   4.308   6.539   0.476
  900SOL    HW1 3599   4.253   6.618   0.502
  900SOL    HW2 3600   4.272   6.500   0.391
  901SOL     OW 3601   1.173   1.154   5.293
  901SOL    HW1 3602   1.109   1.099   5.240
  901SOL    HW2 3603   1.154   1.143   5.390
  902SOL     OW 3604   0.629   2.191   0.863
  902SOL    HW1 3605   0.618   2.115   0.927
  902SOL    HW2 3606   0.548   2.196   0.804
  903SOL     OW 3607   6.638   3.823   5.935
  903SOL    HW1 3608   6.719   3.869   5.970
  903SOL    HW2 3609   6.626   3.736   5.982
  904SOL     OW 3610   1.941   2.576   3.001
  904SOL    HW1 3611   1.936   2.615   3.093
  904SOL    HW2 3612   1.851   2.543   2.974
  905SOL     OW 3613   4.791   3.892   6.207
  905SOL    HW1 3614   4.696   3.920   6.221
  905SOL    HW2 3615   4.849   3.934   6.277
  906SOL     OW 3616   0.763   3.194   5.867
  906SOL    HW1 3617   0.834   3.195   5.796
  906SOL    HW2 3618   0.705   3.113   5.856
  907SOL     OW 3619   5.438   2.971   2.966
  907SOL    HW1 3620   5.484   3.060   2.965
  907SOL    HW2 3621   5.368   2.969   2.894
  908SOL     OW 3622   2.118   5.679   3.101
  908SOL    HW1 3623   2.037   5.665   3.158
  908SOL    HW2 3624   2.127   5.776   3.078
  909SOL     OW 3625   2.863   6.045   2.542
  909SOL    HW1 3626   2.865   6.120   2.608
  909SOL    HW2 3627   2.956   6.021   2.515
  910SOL     OW 3628   2.887   0.845   0.863
  910SOL    HW1 3629   2.934   0.931   0.883
  910SOL    HW2 3630   2.878   0.835   0.764
  911SOL     OW 3631   0.291   5.135   0.839
  911SOL    HW1 3632   0.335   5.115   0.752
  911SOL    HW2 3633   0.208   5.189   0.822
  912SOL     OW 3634   5.837   0.475   3.732
  912SOL    HW1 3635   5.783   0.424   3.666
  912SOL    HW2 3636   5.895   0.412   3.784
  913SOL     OW 3637   1.131   0.891   3.127
  913SOL    HW1 3638   1.089   0.833   3.197
  913SOL    HW2 3639   1.209   0.844   3.086
  914SOL     OW 3640   2.382   5.773   4.799
  914SOL    HW1 3641   2.303   5.821   4.836
  914SOL    HW2 3642   2.448   5.839   4.765
  915SOL     OW 3643   1.394   3.367   0.414
  915SOL    HW1 3644   1.405   3.440   0.347
  915SOL    HW2 3645   1.299   3.365   0.446
  916SOL     OW 3646   1.164   2.662   1.922
  916SOL    HW1 3647   1.119   2.664   1.832
  916SOL    HW2 3648   1.239   2.596   1.920
  917SOL     OW 3649   5.801   0.651   1.859
  917SOL    HW1 3650   5.735   0.670   1.932
  917SOL    HW2 3651   5.829   0.555   1.863
  918SOL     OW 3652   2.989   0.000   0.231
  918SOL    HW1 3653   3.003   6.943   0.290
  918SOL    HW2 3654   2.940   0.072   0.282
  919SOL     OW 3655   6.563   5.349   2.777
  919SOL    HW1 3656   6.544   5.444   2.803
  919SOL    HW2 3657   6.525   5.287   2.845
  920SOL     OW 3658   2.346   5.978   3.139
  920SOL    HW1 3659   2.296   5.938   3.216
  920SOL    HW2 3660   2.313   6.071   3.122
  921SOL     OW 3661   4.517   4.416   3.000
  921SOL    HW1 3662   4.423   4.410   3.034
  921SOL    HW2 3663   4.516   4.430   2.901
  922SOL     OW 3664   3.284   3.038   5.617
  922SOL    HW1 3665   3.231   3.097   5.678
  922SOL    HW2 3666   3.342   2.978   5.672
  923SOL     OW 3667   2.883   5.060   5.870
  923SOL    HW1 3668   2.897   4.966   5.902
  923SOL    HW2 3669   2.970   5.109   5.871
  924SOL     OW 3670   6.120   2.427   2.857
  924SOL    HW1 3671   6.086   2.417   2.764
  924SOL    HW2 3672   6.100   2.344   2.910
  925SOL     OW 3673   6.912   1.850   6.578
  925SOL    HW1 3674   6.973   1.921   6.613
  925SOL    HW2 3675   6.944   1.760   6.607
  926SOL     OW 3676   5.842   1.575   0.617
  926SOL    HW1 3677   5.884   1.537   0.699
  926SOL    HW2 3678   5.749   1.606   0.638
  927SOL     OW 3679   5.862   3.432   3.502
  927SOL    HW1 3680   5.859   3.525   3.467
  927SOL    HW2 3681   5.924   3.377   3.446
  928SOL     OW 3682   1.131   5.364   0.843
  928SOL    HW1 3683   1.220   5.410   0.842
  928SOL    HW2 3684   1.065   5.420   0.893
  929SOL     OW 3685   0.135   0.749   1.559
  929SOL    HW1 3686   0.224   0.793   1.574
  929SOL    HW2 3687   0.127   0.723   1.462
  930SOL     OW 3688   5.308   6.544   4.315
  930SOL    HW1 3689   5.239   6.486   4.272
  930SOL    HW2 3690   5.317   6.519   4.411
  931SOL     OW 3691   5.551   2.528   2.896
  931SOL    HW1 3692   5.609   2.455   2.860
  931SOL    HW2 3693   5.457   2.514   2.864
  932SOL     OW 3694   3.490   6.659   2.941
  932SOL    HW1 3695   3.496   6.598   3.019
  932SOL    HW2 3696   3.577   6.705   2.926
  933SOL     OW 3697   0.789   5.307   3.264
  933SOL    HW1 3698   0.745   5.232   3.214
  933SOL    HW2 3699   0.761   5.304   3.360
  934SOL     OW 3700   1.764   0.730   4.942
  934SOL    HW1 3701   1.718   0.817   4.928
  934SOL    HW2 3702   1.809   0.701   4.858
  935SOL     OW 3703   4.975   4.305   4.962
  935SOL    HW1 3704   4.986   4.235   5.032
  935SOL    HW2 3705   4.964   4.395   5.005
  936SOL     OW 3706   1.522   0.772   6.452
  936SOL    HW1 3707   1.448   0.798   6.514
  936SOL    HW2 3708   1.532   0.672   6.452
  937SOL     OW 3709   5.108   1.143   4.976
  937SOL    HW1 3710   5.039   1.209   4.945
  937SOL    HW2 3711   5.065   1.054   4.991
  938SOL     OW 3712   6.754   5.653   5.817
  938SOL    HW1 3713   6.719   5.742   5.788
  938SOL    HW2 3714   6.854   5.651   5.808
  939SOL     OW 3715   5.960   0.263   5.780
  939SOL    HW1 3716   5.894   0.331   5.812
  939SOL    HW2 3717   6.038   0.310   5.737
  940SOL     OW 3718   0.782   2.881   1.797
  940SOL    HW1 3719   0.865   2.843   1.837
  940SOL    HW2 3720   0.730   2.809   1.751
  941SOL     OW 3721   6.038   1.159   5.628
  941SOL    HW1 3722   6.030   1.073   5.678
  941SOL    HW2 3723   6.124   1.159   5.577
  942SOL     OW 3724   4.998   0.033   3.590
  942SOL    HW1 3725   4.972   6.961   3.614
  942SOL    HW2 3726   4.946   0.063   3.510
  943SOL     OW 3727   1.856   3.399   3.549
  943SOL    HW1 3728   1.938   3.342   3.554
  943SOL    HW2 3729   1.832   3.432   3.640
  944SOL     OW 3730   6.659   3.869   5.664
  944SOL    HW1 3731   6.653   3.847   5.761
  944SOL    HW2 3732   6.686   3.965   5.654
  945SOL     OW 3733   6.429   4.357   5.019
  945SOL    HW1 3734   6.476   4.401   5.096
  945SOL    HW2 3735   6.488   4.287   4.979
  946SOL     OW 3736   4.682   2.620   6.147
  946SOL    HW1 3737   4.695   2.577   6.057
  946SOL    HW2 3738   4.594   2.591   6.185
  947SOL     OW 3739   3.772   2.920   4.430
  947SOL    HW1 3740   3.842   2.946   4.363
  947SOL    HW2 3741   3.686   2.901   4.383
  948SOL     OW 3742   4.357   0.688   1.185
  948SOL    HW1 3743   4.305   0.759   1.137
  948SOL    HW2 3744   4.389   0.620   1.119
  949SOL     OW 3745   0.874   6.147   6.239
  949SOL    HW1 3746   0.815   6.066   6.247
  949SOL    HW2 3747   0.849   6.214   6.308
  950SOL     OW 3748   4.595   5.120   1.494
  950SOL    HW1 3749   4.553   5.066   1.421
  950SOL    HW2 3750   4.567   5.085   1.583
  951SOL     OW 3751   2.290   0.587   3.555
  951SOL    HW1 3752   2.265   0.590   3.459
  951SOL    HW2 3753   2.363   0.520   3.569
  952SOL     OW 3754   5.200   2.462   3.160
  952SOL    HW1 3755   5.179   2.370   3.127
  952SOL    HW2 3756   5.295   2.484   3.141
  953SOL     OW 3757   5.302   5.355   4.158
  953SOL    HW1 3758   5.315   5.421   4.084
  953SOL    HW2 3759   5.253   5.398   4.234
  954SOL     OW 3760   4.573   5.912   0.945
  954SOL    HW1 3761   4.624   5.955   1.020
  954SOL    HW2 3762   4.536   5.824   0.977
  955SOL     OW 3763   6.821   4.128   2.660
  955SOL    HW1 3764   6.765   4.067   2.717
  955SOL    HW2 3765   6.878   4.074   2.598
  956SOL     OW 3766   6.958   2.472   2.751
  956SOL    HW1 3767   0.010   2.522   2.706
  956SOL    HW2 3768   6.954   2.379   2.716
  957SOL     OW 3769   0.143   4.774   5.073
  957SOL    HW1 3770   0.110   4.750   5.164
  957SOL    HW2 3771   0.237   4.740   5.062
  958SOL     OW 3772   4.287   1.478   2.727
  958SOL    HW1 3773   4.330   1.549   2.672
  958SOL    HW2 3774   4.332   1.474   2.817
  959SOL     OW 3775   3.669   5.311   2.981
  959SOL    HW1 3776   3.733   5.248   2.936
  959SOL    HW2 3777   3.717   5.395   3.005
  960SOL     OW 3778   1.045   5.744   3.421
  960SOL    HW1 3779   1.048   5.645   3.408
  960SOL    HW2 3780   1.096   5.790   3.349
  961SOL     OW 3781   4.648   0.077   3.658
  961SOL    HW1 3782   4.576   0.138   3.690
  961SOL    HW2 3783   4.608   7.016   3.620
  962SOL     OW 3784   1.103   0.663   4.521
  962SOL    HW1 3785   1.125   0.566   4.533
  962SOL    HW2 3786   1.188   0.715   4.509
  963SOL     OW 3787   6.918   1.951   6.052
  963SOL    HW1 3788   7.005   1.984   6.016
  963SOL    HW2 3789   6.929   1.923   6.147
  964SOL     OW 3790   5.904   4.301   6.921
  964SOL    HW1 3791   5.929   4.396   6.903
  964SOL    HW2 3792   5.837   4.270   6.854
  965SOL     OW 3793   5.747   1.858   0.965
  965SOL    HW1 3794   5.690   1.889   0.889
  965SOL    HW2 3795   5.701   1.878   1.052
  966SOL     OW 3796   5.231   2.626   1.651
  966SOL    HW1 3797   5.287   2.553   1.691
  966SOL    HW2 3798   5.157   2.585   1.598
  967SOL     OW 3799   1.875   4.584   2.036
  967SOL    HW1 3800   1.970   4.607   2.055
  967SOL    HW2 3801   1.815   4.628   2.103
  968SOL     OW 3802   3.489   1.212   1.820
  968SOL    HW1 3803   3.436   1.158   1.885
  968SOL    HW2 3804   3.450   1.304   1.812
  969SOL     OW 3805   3.242   5.855   5.937
  969SOL    HW1 3806   3.281   5.763   5.950
  969SOL    HW2 3807   3.306   5.923   5.973
  970SOL     OW 3808   5.296   0.608   6.170
  970SOL    HW1 3809   5.202   0.575   6.164
  970SOL    HW2 3810   5.331   0.628   6.079
  971SOL     OW 3811   6.717   1.930   3.118
  971SOL    HW1 3812   6.698   1.901   3.024
  971SOL    HW2 3813   6.781   2.007   3.117
  972SOL     OW 3814   5.364   3.742   1.605
  972SOL    HW1 3815   5.345   3.776   1.697
  972SOL    HW2 3816   5.449   3.783   1.571
  973SOL     OW 3817   6.932   4.349   6.997
  973SOL    HW1 3818   7.007   4.288   7.020
  973SOL    HW2 3819   6.911   4.407   0.054
  974SOL     OW 3820   5.584   6.747   2.516
  974SOL    HW1 3821   5.620   6.796   2.595
  974SOL    HW2 3822   5.487   6.726   2.532
  975SOL     OW 3823   1.840   5.879   6.213
  975SOL    HW1 3824   1.782   5.937   6.155
  975SOL    HW2 3825   1.785   5.841   6.287
  976SOL     OW 3826   0.185   3.714   2.811
  976SOL    HW1 3827   0.240   3.780   2.861
  976SOL    HW2 3828   0.231   3.689   2.726
  977SOL     OW 3829   1.293   0.444   2.545
  977SOL    HW1 3830   1.357   0.382   2.499
  977SOL    HW2 3831   1.244   0.498   2.478
  978SOL     OW 3832   4.749   3.767   5.765
  978SOL    HW1 3833   4.777   3.674   5.739
  978SOL    HW2 3834   4.650   3.770   5.778
  979SOL     OW 3835   6.453   1.963   0.753
  979SOL    HW1 3836   6.394   1.978   0.833
  979SOL    HW2 3837   6.475   2.051   0.711
  980SOL     OW 3838   4.531   2.477   4.061
  980SOL    HW1 3839   4.530   2.451   4.158
  980SOL    HW2 3840   4.585   2.561   4.050
  981SOL     OW 3841   0.884   1.765   5.026
  981SOL    HW1 3842   0.861   1.860   5.048
  981SOL    HW2 3843   0.898   1.756   4.927
  982SOL     OW 3844   2.296   2.395   4.063
  982SOL    HW1 3845   2.246   2.476   4.034
  982SOL    HW2 3846   2.393   2.418   4.076
  983SOL     OW 3847   5.552   2.391   4.589
  983SOL    HW1 3848   5.580   2.399   4.684
  983SOL    HW2 3849   5.587   2.306   4.550
  984SOL     OW 3850   2.399   1.723   4.471
  984SOL    HW1 3851   2.366   1.680   4.386
  984SOL    HW2 3852   2.488   1.767   4.453
  985SOL     OW 3853   5.318   4.696   6.179
  985SOL    HW1 3854   5.221   4.685   6.157
  985SOL    HW2 3855   5.328   4.754   6.260
  986SOL     OW 3856   5.774   4.320   0.542
  986SOL    HW1 3857   5.772   4.354   0.636
  986SOL    HW2 3858   5.859   4.348   0.498
  987SOL     OW 3859   4.518   7.005   1.863
  987SOL    HW1 3860   4.447   6.954   1.813
  987SOL    HW2 3861   4.530   0.073   1.820
  988SOL     OW 3862   3.372   3.609   3.053
  988SOL    HW1 3863   3.431   3.535   3.085
  988SOL    HW2 3864   3.303   3.628   3.122
  989SOL     OW 3865   6.344   0.355   5.186
  989SOL    HW1 3866   6.299   0.267   5.201
  989SOL    HW2 3867   6.398   0.379   5.266
  990SOL     OW 3868   3.688   0.100   1.757
  990SOL    HW1 3869   3.698   0.144   1.846
  990SOL    HW2 3870   3.615   0.145   1.705
  991SOL     OW 3871   1.221   2.750   5.274
  991SOL    HW1 3872   1.228   2.655   5.305
  991SOL    HW2 3873   1.309   2.796   5.288
  992SOL     OW 3874   6.785   2.472   2.094
  992SOL    HW1 3875   6.871   2.457   2.046
  992SOL    HW2 3876   6.801   2.478   2.192
  993SOL     OW 3877   1.492   4.125   1.541
  993SOL    HW1 3878   1.552   4.099   1.616
  993SOL    HW2 3879   1.415   4.178   1.576
  994SOL     OW 3880   3.664   3.969   2.201
  994SOL    HW1 3881   3.626   4.028   2.129
  994SOL    HW2 3882   3.711   3.892   2.159
  995SOL     OW 3883   3.842   3.040   5.444
  995SOL    HW1 3884   3.787   2.978   5.388
  995SOL    HW2 3885   3.939   3.024   5.427
  996SOL     OW 3886   3.152   4.968   4.200
  996SOL    HW1 3887   3.164   5.065   4.179
  996SOL    HW2 3888   3.055   4.947   4.208
  997SOL     OW 3889   1.228   1.032   3.334
  997SOL    HW1 3890   1.311   1.086   3.348
  997SOL    HW2 3891   1.236   0.979   3.249
  998SOL     OW 3892   4.665   0.270   4.302
  998SOL    HW1 3893   4.751   0.228   4.275
  998SOL    HW2 3894   4.666   0.289   4.400
  999SOL     OW 3895   5.103   4.829   2.377
  999SOL    HW1 3896   5.065   4.737   2.367
  999SOL    HW2 3897   5.190   4.834   2.328
 1000SOL     OW 3898   2.165   1.204   2.304
 1000SOL    HW1 3899   2.128   1.181   2.214
 1000SOL    HW2 3900   2.226   1.130   2.334
 1001SOL     OW 3901   5.380   6.411   0.514
 1001SOL    HW1 3902   5.395   6.417   0.415
 1001SOL    HW2 3903   5.407   6.320   0.546
 1002SOL     OW 3904   6.020   1.799   0.443
 1002SOL    HW1 3905   5.959   1.729   0.405
 1002SOL    HW2 3906   6.001   1.810   0.541
 1003SOL     OW 3907   2.055   5.771   1.977
 1003SOL    HW1 3908   2.065   5.861   2.019
 1003SOL    HW2 3909   1.960   5.740   1.986
 1004SOL     OW 3910   0.373   0.517   1.844
 1004SOL    HW1 3911   0.416   0.449   1.903
 1004SOL    HW2 3912   0.379   0.488   1.749
 1005SOL     OW 3913   1.826   2.719   3.678
 1005SOL    HW1 3914   1.811   2.812   3.645
 1005SOL    HW2 3915   1.824   2.656   3.600
 1006SOL     OW 3916   1.408   4.449   0.861
 1006SOL    HW1 3917   1.428   4.418   0.954
 1006SOL    HW2 3918   1.475   4.411   0.798
 1007SOL     OW 3919   4.713   0.485   5.167
 1007SOL    HW1 3920   4.727   0.425   5.088
 1007SOL    HW2 3921   4.788   0.550   5.172
 1008SOL     OW 3922   1.486   2.874   5.045
 1008SOL    HW1 3923   1.506   2.952   4.986
 1008SOL    HW2 3924   1.556   2.804   5.032
 1009SOL     OW 3925   0.140   5.609   4.996
 1009SOL    HW1 3926   0.090   5.694   5.014
 1009SOL    HW2 3927   0.075   5.537   4.972
 1010SOL     OW 3928   3.485   2.823   5.714
 1010SOL    HW1 3929   3.409   2.807   5.777
 1010SOL    HW2 3930   3.566   2.849   5.767
 1011SOL     OW 3931   2.209   5.028   2.346
 1011SOL    HW1 3932   2.158   5.114   2.338
 1011SOL    HW2 3933   2.201   4.993   2.439
 1012SOL     OW 3934   6.780   0.687   1.671
 1012SOL    HW1 3935   6.770   0.626   1.593
 1012SOL    HW2 3936   6.756   0.638   1.755
 1013SOL     OW 3937   0.816   1.124   5.303
 1013SOL    HW1 3938   0.862   1.096   5.388
 1013SOL    HW2 3939   0.836   1.057   5.232
 1014SOL     OW 3940   5.366   5.921   6.413
 1014SOL    HW1 3941   5.276   5.960   6.392
 1014SOL    HW2 3942   5.374   5.908   6.512
 1015SOL     OW 3943   2.825   6.656   5.653
 1015SOL    HW1 3944   2.848   6.561   5.674
 1015SOL    HW2 3945   2.882   6.690   5.579
 1016SOL     OW 3946   3.965   3.779   6.946
 1016SOL    HW1 3947   4.007   3.706   7.000
 1016SOL    HW2 3948   4.034   3.817   6.883
 1017SOL     OW 3949   3.989   2.598   1.650
 1017SOL    HW1 3950   3.939   2.522   1.692
 1017SOL    HW2 3951   4.086   2.574   1.643
 1018SOL     OW 3952   0.424   3.762   4.516
 1018SOL    HW1 3953   0.407   3.673   4.475
 1018SOL    HW2 3954   0.521   3.785   4.510
 1019SOL     OW 3955   7.000   0.128   1.619
 1019SOL    HW1 3956   6.912   0.135   1.667
 1019SOL    HW2 3957   7.000   0.046   1.561
 1020SOL     OW 3958   0.806   0.527   1.148
 1020SOL    HW1 3959   0.740   0.602   1.147
 1020SOL    HW2 3960   0.899   0.564   1.141
 1021SOL     OW 3961   5.023   6.655   1.439
 1021SOL    HW1 3962   5.050   6.737   1.387
 1021SOL    HW2 3963   5.103   6.596   1.451
 1022SOL     OW 3964   4.043   4.933   5.771
 1022SOL    HW1 3965   4.055   4.969   5.678
 1022SOL    HW2 3966   4.025   5.008   5.834
 1023SOL     OW 3967   0.758   6.559   2.722
 1023SOL    HW1 3968   0.718   6.580   2.812
 1023SOL    HW2 3969   0.835   6.620   2.706
 1024SOL     OW 3970   6.890   2.264   4.133
 1024SOL    HW1 3971   6.841   2.188   4.089
 1024SOL    HW2 3972   6.970   2.288   4.078
 1025SOL     OW 3973   2.473   2.835   1.108
 1025SOL    HW1 3974   2.381   2.873   1.112
 1025SOL    HW2 3975   2.478   2.767   1.035
 1026SOL     OW 3976   2.388   2.623   1.671
 1026SOL    HW1 3977   2.311   2.578   1.625
 1026SOL    HW2 3978   2.364   2.717   1.693
 1027SOL     OW 3979   3.083   6.655   1.352
 1027SOL    HW1 3980   3.133   6.733   1.313
 1027SOL    HW2 3981   2.989   6.682   1.369
 1028SOL     OW 3982   3.077   6.313   0.306
 1028SOL    HW1 3983   3.012   6.293   0.233
 1028SOL    HW2 3984   3.113   6.227   0.343
 1029SOL     OW 3985   1.688   0.139   0.063
 1029SOL    HW1 3986   1.698   0.125   0.162
 1029SOL    HW2 3987   1.617   0.208   0.047
 1030SOL     OW 3988   2.826   3.526   1.875
 1030SOL    HW1 3989   2.791   3.483   1.959
 1030SOL    HW2 3990   2.815   3.625   1.882
 1031SOL     OW 3991   5.226   5.007   0.907
 1031SOL    HW1 3992   5.179   5.008   0.995
 1031SOL    HW2 3993   5.270   4.918   0.893
 1032SOL     OW 3994   2.298   1.987   4.549
 1032SOL    HW1 3995   2.393   2.015   4.535
 1032SOL    HW2 3996   2.266   1.937   4.468
 1033SOL     OW 3997   1.492   6.301   0.993
 1033SOL    HW1 3998   1.526   6.384   0.947
 1033SOL    HW2 3999   1.561   6.228   0.985
 1034SOL     OW 4000   0.717   5.408   4.922
 1034SOL    HW1 4001   0.663   5.384   4.841
 1034SOL    HW2 4002   0.678   5.489   4.966
 1035SOL     OW 4003   1.135   1.042   4.798
 1035SOL    HW1 4004   1.129   0.943   4.794
 1035SOL    HW2 4005   1.067   1.082   4.737
 1036SOL     OW 4006   3.359   1.047   1.968
 1036SOL    HW1 4007   3.347   1.032   2.066
 1036SOL    HW2 4008   3.298   0.986   1.918
 1037SOL     OW 4009   1.560   0.886   1.563
 1037SOL    HW1 4010   1.504   0.806   1.580
 1037SOL    HW2 4011   1.524   0.938   1.486
 1038SOL     OW 4012   1.060   6.999   5.440
 1038SOL    HW1 4013   0.963   6.994   5.418
 1038SOL    HW2 4014   1.073   0.032   5.522
 1039SOL     OW 4015   3.196   3.379   5.980
 1039SOL    HW1 4016   3.136   3.392   6.058
 1039SOL    HW2 4017   3.243   3.465   5.959
 1040SOL     OW 4018   4.863   2.979   2.653
 1040SOL    HW1 4019   4.810   3.058   2.623
 1040SOL    HW2 4020   4.853   2.967   2.752
 1041SOL     OW 4021   6.636   6.688   3.824
 1041SOL    HW1 4022   6.607   6.665   3.731
 1041SOL    HW2 4023   6.728   6.652   3.840
 1042SOL     OW 4024   4.374   5.225   2.055
 1042SOL    HW1 4025   4.335   5.293   2.116
 1042SOL    HW2 4026   4.474   5.229   2.060
 1043SOL     OW 4027   3.673   1.132   4.967
 1043SOL    HW1 4028   3.591   1.114   5.022
 1043SOL    HW2 4029   3.748   1.075   5.000
 1044SOL     OW 4030   5.281   4.468   2.352
 1044SOL    HW1 4031   5.240   4.377   2.346
 1044SOL    HW2 4032   5.305   4.500   2.261
 1045SOL     OW 4033   4.341   6.573   2.384
 1045SOL    HW1 4034   4.417   6.635   2.362
 1045SOL    HW2 4035   4.322   6.514   2.305
 1046SOL     OW 4036   1.313   0.870   0.175
 1046SOL    HW1 4037   1.382   0.941   0.192
 1046SOL    HW2 4038   1.249   0.867   0.252
 1047SOL     OW 4039   1.448   1.133   3.414
 1047SOL    HW1 4040   1.446   1.213   3.355
 1047SOL    HW2 4041   1.542   1.100   3.424
 1048SOL     OW 4042   5.681   6.644   4.269
 1048SOL    HW1 4043   5.616   6.697   4.323
 1048SOL    HW2 4044   5.721   6.701   4.197
 1049SOL     OW 4045   6.354   5.968   4.322
 1049SOL    HW1 4046   6.322   6.041   4.382
 1049SOL    HW2 4047   6.419   5.910   4.372
 1050SOL     OW 4048   4.562   5.313   0.828
 1050SOL    HW1 4049   4.657   5.282   0.839
 1050SOL    HW2 4050   4.525   5.340   0.917
 1051SOL     OW 4051   2.915   5.726   0.876
 1051SOL    HW1 4052   2.892   5.637   0.915
 1051SOL    HW2 4053   2.877   5.798   0.934
 1052SOL     OW 4054   3.748   0.658   4.722
 1052SOL    HW1 4055   3.845   0.652   4.699
 1052SOL    HW2 4056   3.697   0.691   4.643
 1053SOL     OW 4057   5.736   5.125   3.098
 1053SOL    HW1 4058   5.705   5.106   3.191
 1053SOL    HW2 4059   5.662   5.167   3.046
 1054SOL     OW 4060   2.677   4.142   5.769
 1054SOL    HW1 4061   2.767   4.131   5.811
 1054SOL    HW2 4062   2.608   4.101   5.829
 1055SOL     OW 4063   4.517   7.019   4.669
 1055SOL    HW1 4064   4.473   0.084   4.690
 1055SOL    HW2 4065   4.505   6.997   4.572
 1056SOL     OW 4066   1.990   4.958   6.089
 1056SOL    HW1 4067   1.954   4.990   6.177
 1056SOL    HW2 4068   1.967   4.861   6.077
 1057SOL     OW 4069   2.971   3.461   2.347
 1057SOL    HW1 4070   2.961   3.362   2.342
 1057SOL    HW2 4071   3.004   3.495   2.259
 1058SOL     OW 4072   4.492   1.610   3.427
 1058SOL    HW1 4073   4.525   1.692   3.382
 1058SOL    HW2 4074   4.560   1.537   3.419
 1059SOL     OW 4075   2.117   6.893   1.227
 1059SOL    HW1 4076   2.155   6.892   1.320
 1059SOL    HW2 4077   2.190   6.911   1.161
 1060SOL     OW 4078   6.984   4.284   4.305
 1060SOL    HW1 4079   7.006   4.219   4.378
 1060SOL    HW2 4080   6.992   4.239   4.217
 1061SOL     OW 4081   5.610   3.775   1.252
 1061SOL    HW1 4082   5.678   3.844   1.274
 1061SOL    HW2 4083   5.576   3.789   1.159
 1062SOL     OW 4084   5.861   3.961   6.519
 1062SOL    HW1 4085   5.838   3.886   6.580
 1062SOL    HW2 4086   5.790   3.971   6.449
 1063SOL     OW 4087   1.996   4.958   2.039
 1063SOL    HW1 4088   2.043   5.041   2.009
 1063SOL    HW2 4089   1.898   4.975   2.044
 1064SOL     OW 4090   1.920   3.905   1.692
 1064SOL    HW1 4091   2.018   3.898   1.709
 1064SOL    HW2 4092   1.896   3.999   1.667
 1065SOL     OW 4093   3.907   0.078   3.805
 1065SOL    HW1 4094   3.836   0.143   3.778
 1065SOL    HW2 4095   3.978   0.076   3.735
 1066SOL     OW 4096   4.630   0.587   3.913
 1066SOL    HW1 4097   4.582   0.664   3.872
 1066SOL    HW2 4098   4.565   0.531   3.965
 1067SOL     OW 4099   0.853   3.157   0.599
 1067SOL    HW1 4100   0.818   3.064   0.609
 1067SOL    HW2 4101   0.884   3.191   0.688
 1068SOL     OW 4102   5.537   5.163   2.634
 1068SOL    HW1 4103   5.537   5.221   2.552
 1068SOL    HW2 4104   5.631   5.151   2.666
 1069SOL     OW 4105   4.510   4.877   0.741
 1069SOL    HW1 4106   4.481   4.973   0.744
 1069SOL    HW2 4107   4.430   4.819   0.731
 1070SOL     OW 4108   0.231   0.303   2.238
 1070SOL    HW1 4109   0.248   0.378   2.174
 1070SOL    HW2 4110   0.167   0.334   2.309
 1071SOL     OW 4111   1.397   0.843   3.103
 1071SOL    HW1 4112   1.462   0.911   3.135
 1071SOL    HW2 4113   1.441   0.753   3.102
 1072SOL     OW 4114   2.132   0.548   0.703
 1072SOL    HW1 4115   2.106   0.457   0.671
 1072SOL    HW2 4116   2.117   0.554   0.802
 1073SOL     OW 4117   4.861   6.956   1.479
 1073SOL    HW1 4118   4.906   0.000   1.420
 1073SOL    HW2 4119   4.913   6.947   1.564
 1074SOL     OW 4120   2.633   5.504   0.912
 1074SOL    HW1 4121   2.586   5.462   0.833
 1074SOL    HW2 4122   2.706   5.564   0.879
 1075SOL     OW 4123   4.449   6.651   3.916
 1075SOL    HW1 4124   4.495   6.564   3.939
 1075SOL    HW2 4125   4.514   6.726   3.925
 1076SOL     OW 4126   6.773   3.196   6.034
 1076SOL    HW1 4127   6.713   3.227   6.109
 1076SOL    HW2 4128   6.760   3.256   5.955
 1077SOL     OW 4129   5.694   0.546   1.338
 1077SOL    HW1 4130   5.672   0.521   1.244
 1077SOL    HW2 4131   5.611   0.577   1.384
 1078SOL     OW 4132   1.199   1.515   2.524
 1078SOL    HW1 4133   1.281   1.458   2.527
 1078SOL    HW2 4134   1.120   1.461   2.553
 1079SOL     OW 4135   2.189   6.191   2.421
 1079SOL    HW1 4136   2.243   6.221   2.500
 1079SOL    HW2 4137   2.249   6.148   2.354
 1080SOL     OW 4138   1.223   4.356   3.868
 1080SOL    HW1 4139   1.207   4.348   3.967
 1080SOL    HW2 4140   1.245   4.266   3.830
 1081SOL     OW 4141   0.162   5.818   6.091
 1081SOL    HW1 4142   0.086   5.786   6.147
 1081SOL    HW2 4143   0.181   5.914   6.112
 1082SOL     OW 4144   3.842   2.122   5.752
 1082SOL    HW1 4145   3.762   2.182   5.753
 1082SOL    HW2 4146   3.813   2.027   5.765
 1083SOL     OW 4147   4.403   3.867   0.182
 1083SOL    HW1 4148   4.309   3.899   0.179
 1083SOL    HW2 4149   4.408   3.780   0.232
 1084SOL     OW 4150   5.996   6.100   0.009
 1084SOL    HW1 4151   6.077   6.060   6.989
 1084SOL    HW2 4152   6.017   6.127   0.104
 1085SOL     OW 4153   1.145   3.812   4.291
 1085SOL    HW1 4154   1.196   3.764   4.362
 1085SOL    HW2 4155   1.156   3.911   4.302
 1086SOL     OW 4156   6.837   6.341   1.371
 1086SOL    HW1 4157   6.800   6.307   1.457
 1086SOL    HW2 4158   6.804   6.434   1.355
 1087SOL     OW 4159   5.545   2.303   5.245
 1087SOL    HW1 4160   5.575   2.292   5.339
 1087SOL    HW2 4161   5.624   2.305   5.184
 1088SOL     OW 4162   6.495   4.482   3.236
 1088SOL    HW1 4163   6.398   4.459   3.236
 1088SOL    HW2 4164   6.514   4.543   3.159
 1089SOL     OW 4165   1.626   6.256   4.323
 1089SOL    HW1 4166   1.624   6.228   4.227
 1089SOL    HW2 4167   1.704   6.214   4.368
 1090SOL     OW 4168   2.065   1.573   3.374
 1090SOL    HW1 4169   1.975   1.596   3.338
 1090SOL    HW2 4170   2.073   1.606   3.468
 1091SOL     OW 4171   2.543   2.436   5.475
 1091SOL    HW1 4172   2.445   2.440   5.454
 1091SOL    HW2 4173   2.555   2.440   5.574
 1092SOL     OW 4174   1.956   4.238   1.107
 1092SOL    HW1 4175   2.040   4.185   1.092
 1092SOL    HW2 4176   1.974   4.312   1.173
 1093SOL     OW 4177   1.839   1.745   2.184
 1093SOL    HW1 4178   1.827   1.744   2.283
 1093SOL    HW2 4179   1.928   1.786   2.162
 1094SOL     OW 4180   1.193   6.658   3.675
 1094SOL    HW1 4181   1.181   6.560   3.687
 1094SOL    HW2 4182   1.105   6.699   3.650
 1095SOL     OW 4183   0.595   2.960   6.588
 1095SOL    HW1 4184   0.582   2.878   6.532
 1095SOL    HW2 4185   0.691   2.967   6.615
 1096SOL     OW 4186   3.405   4.506   1.695
 1096SOL    HW1 4187   3.456   4.425   1.723
 1096SOL    HW2 4188   3.445   4.587   1.738
 1097SOL     OW 4189   2.250   4.229   4.364
 1097SOL    HW1 4190   2.315   4.166   4.408
 1097SOL    HW2 4191   2.157   4.200   4.384
 1098SOL     OW 4192   4.591   3.380   0.546
 1098SOL    HW1 4193   4.610   3.477   0.531
 1098SOL    HW2 4194   4.667   3.325   0.510
 1099SOL     OW 4195   4.491   1.807   5.201
 1099SOL    HW1 4196   4.521   1.830   5.109
 1099SOL    HW2 4197   4.556   1.744   5.243
 1100SOL     OW 4198   3.608   2.270   6.027
 1100SOL    HW1 4199   3.541   2.255   6.099
 1100SOL    HW2 4200   3.697   2.288   6.069
 1101SOL     OW 4201   6.045   2.086   7.017
 1101SOL    HW1 4202   6.073   2.109   0.087
 1101SOL    HW2 4203   5.945   2.080   7.013
 1102SOL     OW 4204   0.817   5.601   4.408
 1102SOL    HW1 4205   0.755   5.654   4.465
 1102SOL    HW2 4206   0.796   5.616   4.312
 1103SOL     OW 4207   3.694   2.065   1.071
 1103SOL    HW1 4208   3.605   2.086   1.031
 1103SOL    HW2 4209   3.750   2.015   1.005
 1104SOL     OW 4210   2.327   3.169   5.379
 1104SOL    HW1 4211   2.372   3.123   5.302
 1104SOL    HW2 4212   2.392   3.179   5.454
 1105SOL     OW 4213   6.349   3.678   4.776
 1105SOL    HW1 4214   6.255   3.677   4.808
 1105SOL    HW2 4215   6.382   3.772   4.770
 1106SOL     OW 4216   1.107   1.553   1.683
 1106SOL    HW1 4217   1.159   1.634   1.656
 1106SOL    HW2 4218   1.142   1.518   1.770
 1107SOL     OW 4219   1.972   0.276   6.447
 1107SOL    HW1 4220   1.930   0.252   6.534
 1107SOL    HW2 4221   1.904   0.266   6.374
 1108SOL     OW 4222   3.750   0.312   5.399
 1108SOL    HW1 4223   3.838   0.356   5.383
 1108SOL    HW2 4224   3.722   0.326   5.494
 1109SOL     OW 4225   4.664   0.338   4.593
 1109SOL    HW1 4226   4.575   0.355   4.634
 1109SOL    HW2 4227   4.732   0.400   4.633
 1110SOL     OW 4228   2.657   2.006   3.583
 1110SOL    HW1 4229   2.757   2.004   3.588
 1110SOL    HW2 4230   2.627   1.950   3.505
 1111SOL     OW 4231   5.246   5.621   6.036
 1111SOL    HW1 4232   5.289   5.532   6.055
 1111SOL    HW2 4233   5.284   5.658   5.951
 1112SOL     OW 4234   5.349   1.548   2.400
 1112SOL    HW1 4235   5.304   1.515   2.317
 1112SOL    HW2 4236   5.308   1.503   2.480
 1113SOL     OW 4237   0.069   3.525   2.297
 1113SOL    HW1 4238   0.134   3.473   2.242
 1113SOL    HW2 4239   0.117   3.596   2.348
 1114SOL     OW 4240   3.615   1.664   6.707
 1114SOL    HW1 4241   3.620   1.758   6.675
 1114SOL    HW2 4242   3.660   1.603   6.641
 1115SOL     OW 4243   4.158   3.606   0.357
 1115SOL    HW1 4244   4.258   3.613   0.352
 1115SOL    HW2 4245   4.127   3.632   0.448
 1116SOL     OW 4246   5.282   6.476   5.037
 1116SOL    HW1 4247   5.354   6.407   5.049
 1116SOL    HW2 4248   5.323   6.567   5.031
 1117SOL     OW 4249   1.236   2.418   1.654
 1117SOL    HW1 4250   1.146   2.422   1.611
 1117SOL    HW2 4251   1.271   2.324   1.649
 1118SOL     OW 4252   2.461   4.525   1.367
 1118SOL    HW1 4253   2.428   4.614   1.399
 1118SOL    HW2 4254   2.544   4.501   1.417
 1119SOL     OW 4255   4.448   4.424   0.125
 1119SOL    HW1 4256   4.466   4.445   0.029
 1119SOL    HW2 4257   4.493   4.339   0.150
 1120SOL     OW 4258   6.087   6.986   5.206
 1120SOL    HW1 4259   6.013   6.926   5.238
 1120SOL    HW2 4260   6.119   6.955   5.117
 1121SOL     OW 4261   5.108   5.006   2.716
 1121SOL    HW1 4262   5.056   5.091   2.706
 1121SOL    HW2 4263   5.132   4.993   2.813
 1122SOL     OW 4264   5.159   3.444   6.724
 1122SOL    HW1 4265   5.144   3.402   6.634
 1122SOL    HW2 4266   5.073   3.478   6.760
 1123SOL     OW 4267   5.113   1.110   3.079
 1123SOL    HW1 4268   5.064   1.023   3.079
 1123SOL    HW2 4269   5.210   1.094   3.093
 1124SOL     OW 4270   6.319   3.619   5.399
 1124SOL    HW1 4271   6.311   3.580   5.307
 1124SOL    HW2 4272   6.238   3.596   5.452
 1125SOL     OW 4273   3.184   1.527   4.977
 1125SOL    HW1 4274   3.152   1.440   5.015
 1125SOL    HW2 4275   3.154   1.534   4.882
 1126SOL     OW 4276   6.186   5.349   6.614
 1126SOL    HW1 4277   6.163   5.367   6.518
 1126SOL    HW2 4278   6.279   5.314   6.621
 1127SOL     OW 4279   4.838   5.013   4.190
 1127SOL    HW1 4280   4.906   4.999   4.262
 1127SOL    HW2 4281   4.754   4.965   4.214
 1128SOL     OW 4282   5.640   1.997   5.644
 1128SOL    HW1 4283   5.604   1.949   5.564
 1128SOL    HW2 4284   5.574   2.066   5.673
 1129SOL     OW 4285   3.282   0.612   6.859
 1129SOL    HW1 4286   3.188   0.629   6.886
 1129SOL    HW2 4287   3.342   0.681   6.900
 1130SOL     OW 4288   2.611   4.968   0.567
 1130SOL    HW1 4289   2.570   4.893   0.515
 1130SOL    HW2 4290   2.648   4.932   0.653
 1131SOL     OW 4291   0.091   6.414   6.291
 1131SOL    HW1 4292   0.185   6.383   6.308
 1131SOL    HW2 4293   0.043   6.421   6.378
 1132SOL     OW 4294   5.251   0.211   1.136
 1132SOL    HW1 4295   5.238   0.166   1.047
 1132SOL    HW2 4296   5.279   0.144   1.204
 1133SOL     OW 4297   1.133   0.331   1.193
 1133SOL    HW1 4298   1.056   0.336   1.129
 1133SOL    HW2 4299   1.216   0.364   1.148
 1134SOL     OW 4300   5.232   1.224   1.535
 1134SOL    HW1 4301   5.278   1.246   1.621
 1134SOL    HW2 4302   5.244   1.299   1.470
 1135SOL     OW 4303   2.182   1.288   3.106
 1135SOL    HW1 4304   2.136   1.349   3.042
 1135SOL    HW2 4305   2.125   1.207   3.121
 1136SOL     OW 4306   3.137   4.870   4.684
 1136SOL    HW1 4307   3.044   4.833   4.684
 1136SOL    HW2 4308   3.191   4.823   4.754
 1137SOL     OW 4309   0.945   1.550   6.063
 1137SOL    HW1 4310   0.905   1.630   6.019
 1137SOL    HW2 4311   0.995   1.496   5.995
 1138SOL     OW 4312   0.221   0.918   6.377
 1138SOL    HW1 4313   0.244   1.015   6.376
 1138SOL    HW2 4314   0.298   0.865   6.341
 1139SOL     OW 4315   3.917   5.362   1.368
 1139SOL    HW1 4316   3.956   5.452   1.384
 1139SOL    HW2 4317   3.957   5.321   1.286
 1140SOL     OW 4318   4.270   1.235   2.036
 1140SOL    HW1 4319   4.338   1.266   1.970
 1140SOL    HW2 4320   4.305   1.157   2.087
 1141SOL     OW 4321   0.343   6.681   6.522
 1141SOL    HW1 4322   0.272   6.752   6.525
 1141SOL    HW2 4323   0.395   6.683   6.608
 1142SOL     OW 4324   2.884   0.012   4.670
 1142SOL    HW1 4325   2.792   0.032   4.636
 1142SOL    HW2 4326   2.926   0.096   4.705
 1143SOL     OW 4327   1.849   3.625   2.555
 1143SOL    HW1 4328   1.757   3.642   2.589
 1143SOL    HW2 4329   1.865   3.679   2.472
 1144SOL     OW 4330   6.439   4.920   5.321
 1144SOL    HW1 4331   6.533   4.930   5.288
 1144SOL    HW2 4332   6.417   4.996   5.381
 1145SOL     OW 4333   0.276   3.960   2.032
 1145SOL    HW1 4334   0.235   3.869   2.037
 1145SOL    HW2 4335   0.370   3.952   1.998
 1146SOL     OW 4336   6.231   0.723   2.072
 1146SOL    HW1 4337   6.306   0.769   2.024
 1146SOL    HW2 4338   6.251   0.719   2.170
 1147SOL     OW 4339   2.049   5.431   1.341
 1147SOL    HW1 4340   2.020   5.392   1.428
 1147SOL    HW2 4341   2.143   5.463   1.348
 1148SOL     OW 4342   4.723   6.988   0.603
 1148SOL    HW1 4343   4.626   6.969   0.592
 1148SOL    HW2 4344   4.735   0.046   0.662
 1149SOL     OW 4345   6.460   4.206   2.627
 1149SOL    HW1 4346   6.524   4.232   2.555
 1149SOL    HW2 4347   6.382   4.159   2.587
 1150SOL     OW 4348   2.928   3.914   0.390
 1150SOL    HW1 4349   2.861   3.884   0.322
 1150SOL    HW2 4350   3.019   3.913   0.349
 1151SOL     OW 4351   4.025   5.314   6.804
 1151SOL    HW1 4352   4.075   5.273   6.880
 1151SOL    HW2 4353   4.057   5.275   6.718
 1152SOL     OW 4354   6.170   4.816   6.186
 1152SOL    HW1 4355   6.137   4.722   6.200
 1152SOL    HW2 4356   6.115   4.861   6.116
 1153SOL     OW 4357   2.165   0.226   1.599
 1153SOL    HW1 4358   2.130   0.319   1.591
 1153SOL    HW2 4359   2.221   0.205   1.519
 1154SOL     OW 4360   0.749   4.123   1.512
 1154SOL    HW1 4361   0.737   4.219   1.538
 1154SOL    HW2 4362   0.717   4.110   1.418
 1155SOL     OW 4363   2.050   5.534   6.254
 1155SOL    HW1 4364   2.102   5.464   6.205
 1155SOL    HW2 4365   2.104   5.618   6.259
 1156SOL     OW 4366   2.913   1.576   4.417
 1156SOL    HW1 4367   2.950   1.494   4.374
 1156SOL    HW2 4368   2.814   1.581   4.401
 1157SOL     OW 4369   5.942   0.450   5.439
 1157SOL    HW1 4370   6.025   0.440   5.494
 1157SOL    HW2 4371   5.912   0.360   5.408
 1158SOL     OW 4372   6.698   5.823   5.403
 1158SOL    HW1 4373   6.726   5.757   5.333
 1158SOL    HW2 4374   6.646   5.897   5.360
 1159SOL     OW 4375   6.166   0.003   4.238
 1159SOL    HW1 4376   6.165   0.088   4.290
 1159SOL    HW2 4377   6.076   6.981   4.245
 1160SOL     OW 4378   3.898   3.910   1.202
 1160SOL    HW1 4379   3.938   3.860   1.126
 1160SOL    HW2 4380   3.809   3.947   1.175
 1161SOL     OW 4381   6.331   0.483   6.781
 1161SOL    HW1 4382   6.393   0.533   6.720
 1161SOL    HW2 4383   6.238   0.520   6.772
 1162SOL     OW 4384   2.447   1.872   6.427
 1162SOL    HW1 4385   2.523   1.895   6.367
 1162SOL    HW2 4386   2.470   1.900   6.521
 1163SOL     OW 4387   6.863   3.303   1.308
 1163SOL    HW1 4388   6.774   3.347   1.306
 1163SOL    HW2 4389   6.864   3.232   1.378
 1164SOL     OW 4390   5.471   2.739   5.283
 1164SOL    HW1 4391   5.417   2.655   5.287
 1164SOL    HW2 4392   5.561   2.720   5.244
 1165SOL     OW 4393   2.663   4.702   3.827
 1165SOL    HW1 4394   2.707   4.788   3.852
 1165SOL    HW2 4395   2.625   4.710   3.734
 1166SOL     OW 4396   3.496   7.000   6.911
 1166SOL    HW1 4397   3.561   0.024   6.852
 1166SOL    HW2 4398   3.459   0.043   6.977
 1167SOL     OW 4399   4.472   6.553   6.541
 1167SOL    HW1 4400   4.453   6.648   6.516
 1167SOL    HW2 4401   4.389   6.509   6.575
 1168SOL     OW 4402   4.969   2.265   3.880
 1168SOL    HW1 4403   4.923   2.350   3.853
 1168SOL    HW2 4404   4.959   2.197   3.808
 1169SOL     OW 4405   5.265   2.275   5.983
 1169SOL    HW1 4406   5.282   2.358   5.930
 1169SOL    HW2 4407   5.169   2.273   6.012
 1170SOL     OW 4408   5.061   1.232   2.781
 1170SOL    HW1 4409   5.047   1.189   2.870
 1170SOL    HW2 4410   5.004   1.187   2.713
 1171SOL     OW 4411   2.763   6.078   0.151
 1171SOL    HW1 4412   2.799   6.157   0.201
 1171SOL    HW2 4413   2.836   6.011   0.137
 1172SOL     OW 4414   3.335   3.918   1.956
 1172SOL    HW1 4415   3.349   3.930   1.857
 1172SOL    HW2 4416   3.318   3.822   1.976
 1173SOL     OW 4417   3.495   0.640   6.548
 1173SOL    HW1 4418   3.397   0.655   6.531
 1173SOL    HW2 4419   3.524   0.696   6.626
 1174SOL     OW 4420   3.655   4.405   0.224
 1174SOL    HW1 4421   3.735   4.348   0.244
 1174SOL    HW2 4422   3.572   4.355   0.249
 1175SOL     OW 4423   3.771   3.218   6.607
 1175SOL    HW1 4424   3.794   3.313   6.588
 1175SOL    HW2 4425   3.851   3.160   6.587
 1176SOL     OW 4426   6.150   4.955   6.861
 1176SOL    HW1 4427   6.058   4.917   6.864
 1176SOL    HW2 4428   6.199   4.918   6.782
 1177SOL     OW 4429   6.565   1.981   6.000
 1177SOL    HW1 4430   6.615   1.963   5.915
 1177SOL    HW2 4431   6.518   2.069   5.993
 1178SOL     OW 4432   3.152   3.423   1.322
 1178SOL    HW1 4433   3.162   3.331   1.359
 1178SOL    HW2 4434   3.121   3.418   1.227
 1179SOL     OW 4435   3.033   6.537   0.904
 1179SOL    HW1 4436   3.099   6.548   0.978
 1179SOL    HW2 4437   3.039   6.444   0.867
 1180SOL     OW 4438   2.388   6.095   3.778
 1180SOL    HW1 4439   2.441   6.071   3.696
 1180SOL    HW2 4440   2.345   6.012   3.814
 1181SOL     OW 4441   0.503   3.486   5.694
 1181SOL    HW1 4442   0.542   3.439   5.615
 1181SOL    HW2 4443   0.475   3.418   5.763
 1182SOL     OW 4444   2.918   5.141   3.375
 1182SOL    HW1 4445   2.945   5.061   3.428
 1182SOL    HW2 4446   2.869   5.205   3.434
 1183SOL     OW 4447   3.659   5.827   1.787
 1183SOL    HW1 4448   3.740   5.770   1.776
 1183SOL    HW2 4449   3.577   5.773   1.768
 1184SOL     OW 4450   5.291   6.987   6.846
 1184SOL    HW1 4451   5.287   0.031   6.772
 1184SOL    HW2 4452   5.245   0.001   6.927
 1185SOL     OW 4453   0.916   0.884   1.034
 1185SOL    HW1 4454   0.924   0.843   0.943
 1185SOL    HW2 4455   0.973   0.833   1.099
 1186SOL     OW 4456   5.523   5.894   5.515
 1186SOL    HW1 4457   5.577   5.978   5.511
 1186SOL    HW2 4458   5.549   5.833   5.440
 1187SOL     OW 4459   5.185   0.006   5.271
 1187SOL    HW1 4460   5.105   7.015   5.212
 1187SOL    HW2 4461   5.256   0.056   5.220
 1188SOL     OW 4462   3.748   5.626   6.056
 1188SOL    HW1 4463   3.811   5.695   6.020
 1188SOL    HW2 4464   3.687   5.595   5.983
 1189SOL     OW 4465   6.085   0.545   1.922
 1189SOL    HW1 4466   6.146   0.585   1.990
 1189SOL    HW2 4467   6.116   0.452   1.902
 1190SOL     OW 4468   3.549   5.594   2.886
 1190SOL    HW1 4469   3.616   5.543   2.941
 1190SOL    HW2 4470   3.597   5.660   2.828
 1191SOL     OW 4471   2.738   6.407   4.371
 1191SOL    HW1 4472   2.777   6.319   4.399
 1191SOL    HW2 4473   2.769   6.479   4.433
 1192SOL     OW 4474   5.786   6.175   3.429
 1192SOL    HW1 4475   5.727   6.113   3.377
 1192SOL    HW2 4476   5.745   6.266   3.431
 1193SOL     OW 4477   0.390   0.752   5.151
 1193SOL    HW1 4478   0.357   0.670   5.105
 1193SOL    HW2 4479   0.366   0.749   5.248
 1194SOL     OW 4480   6.755   1.687   0.527
 1194SOL    HW1 4481   6.737   1.598   0.484
 1194SOL    HW2 4482   6.834   1.679   0.587
 1195SOL     OW 4483   6.390   3.829   0.720
 1195SOL    HW1 4484   6.453   3.751   0.711
 1195SOL    HW2 4485   6.443   3.914   0.723
 1196SOL     OW 4486   5.886   4.503   2.812
 1196SOL    HW1 4487   5.823   4.504   2.890
 1196SOL    HW2 4488   5.866   4.581   2.753
 1197SOL     OW 4489   4.512   6.373   4.171
 1197SOL    HW1 4490   4.424   6.417   4.188
 1197SOL    HW2 4491   4.538   6.386   4.075
 1198SOL     OW 4492   1.153   3.815   2.233
 1198SOL    HW1 4493   1.213   3.736   2.240
 1198SOL    HW2 4494   1.206   3.895   2.204
 1199SOL     OW 4495   3.526   3.145   2.685
 1199SOL    HW1 4496   3.469   3.067   2.710
 1199SOL    HW2 4497   3.539   3.204   2.765
 1200SOL     OW 4498   3.934   4.027   4.493
 1200SOL    HW1 4499   3.869   4.068   4.431
 1200SOL    HW2 4500   4.009   3.986   4.441
 1201SOL     OW 4501   0.027   0.845   4.757
 1201SOL    HW1 4502   0.104   0.785   4.736
 1201SOL    HW2 4503   0.001   0.894   4.674
 1202SOL     OW 4504   6.692   6.682   5.830
 1202SOL    HW1 4505   6.792   6.679   5.841
 1202SOL    HW2 4506   6.669   6.703   5.735
 1203SOL     OW 4507   0.089   6.384   0.900
 1203SOL    HW1 4508   0.166   6.446   0.914
 1203SOL    HW2 4509   0.013   6.436   0.859
 1204SOL     OW 4510   4.860   1.492   1.750
 1204SOL    HW1 4511   4.766   1.498   1.716
 1204SOL    HW2 4512   4.860   1.455   1.843
 1205SOL     OW 4513   3.600   3.670   0.108
 1205SOL    HW1 4514   3.671   3.684   0.177
 1205SOL    HW2 4515   3.640   3.635   0.024
 1206SOL     OW 4516   1.152   3.047   4.460
 1206SOL    HW1 4517   1.133   3.144   4.447
 1206SOL    HW2 4518   1.213   3.015   4.387
 1207SOL     OW 4519   0.566   0.591   0.598
 1207SOL    HW1 4520   0.641   0.629   0.651
 1207SOL    HW2 4521   0.480   0.634   0.626
 1208SOL     OW 4522   3.586   3.737   1.723
 1208SOL    HW1 4523   3.583   3.682   1.640
 1208SOL    HW2 4524   3.580   3.834   1.700
 1209SOL     OW 4525   5.531   0.253   4.014
 1209SOL    HW1 4526   5.552   0.169   3.966
 1209SOL    HW2 4527   5.594   0.264   4.091
 1210SOL     OW 4528   4.877   6.666   3.887
 1210SOL    HW1 4529   4.849   6.586   3.940
 1210SOL    HW2 4530   4.969   6.693   3.914
 1211SOL     OW 4531   0.715   3.198   3.093
 1211SOL    HW1 4532   0.696   3.294   3.074
 1211SOL    HW2 4533   0.781   3.191   3.168
 1212SOL     OW 4534   6.844   0.442   5.852
 1212SOL    HW1 4535   6.893   0.377   5.910
 1212SOL    HW2 4536   6.784   0.392   5.790
 1213SOL     OW 4537   5.799   1.816   2.522
 1213SOL    HW1 4538   5.819   1.913   2.510
 1213SOL    HW2 4539   5.702   1.799   2.502
 1214SOL     OW 4540   0.398   2.600   6.683
 1214SOL    HW1 4541   0.458   2.548   6.744
 1214SOL    HW2 4542   0.358   2.677   6.732
 1215SOL     OW 4543   1.672   4.807   2.514
 1215SOL    HW1 4544   1.752   4.867   2.515
 1215SOL    HW2 4545   1.590   4.861   2.535
 1216SOL     OW 4546   6.142   1.471   1.084
 1216SOL    HW1 4547   6.132   1.375   1.111
 1216SOL    HW2 4548   6.055   1.518   1.096
 1217SOL     OW 4549   3.265   4.741   0.859
 1217SOL    HW1 4550   3.274   4.774   0.766
 1217SOL    HW2 4551   3.321   4.797   0.920
 1218SOL     OW 4552   1.452   2.952   5.608
 1218SOL    HW1 4553   1.435   2.888   5.533
 1218SOL    HW2 4554   1.505   2.907   5.680
 1219SOL     OW 4555   5.283   5.274   1.639
 1219SOL    HW1 4556   5.200   5.324   1.614
 1219SOL    HW2 4557   5.359   5.338   1.644
 1220SOL     OW 4558   6.823   4.082   2.041
 1220SOL    HW1 4559   6.919   4.055   2.049
 1220SOL    HW2 4560   6.776   4.021   1.977
 1221SOL     OW 4561   5.423   3.843   6.456
 1221SOL    HW1 4562   5.419   3.755   6.408
 1221SOL    HW2 4563   5.365   3.840   6.537
 1222SOL     OW 4564   0.394   0.841   6.773
 1222SOL    HW1 4565   0.475   0.871   6.721
 1222SOL    HW2 4566   0.424   0.787   6.852
 1223SOL     OW 4567   3.788   1.167   0.275
 1223SOL    HW1 4568   3.779   1.090   0.338
 1223SOL    HW2 4569   3.706   1.173   0.218
 1224SOL     OW 4570   3.047   5.781   6.701
 1224SOL    HW1 4571   2.979   5.787   6.774
 1224SOL    HW2 4572   3.063   5.871   6.662
 1225SOL     OW 4573   3.637   2.626   0.092
 1225SOL    HW1 4574   3.696   2.547   0.105
 1225SOL    HW2 4575   3.590   2.647   0.178
 1226SOL     OW 4576   3.392   6.128   0.302
 1226SOL    HW1 4577   3.449   6.065   0.355
 1226SOL    HW2 4578   3.295   6.109   0.320
 1227SOL     OW 4579   5.407   5.392   5.753
 1227SOL    HW1 4580   5.356   5.462   5.702
 1227SOL    HW2 4581   5.485   5.435   5.799
 1228SOL     OW 4582   3.564   2.525   6.621
 1228SOL    HW1 4583   3.525   2.552   6.709
 1228SOL    HW2 4584   3.627   2.449   6.634
 1229SOL     OW 4585   1.841   5.192   0.356
 1229SOL    HW1 4586   1.869   5.288   0.370
 1229SOL    HW2 4587   1.916   5.142   0.312
 1230SOL     OW 4588   5.874   5.789   2.145
 1230SOL    HW1 4589   5.819   5.712   2.110
 1230SOL    HW2 4590   5.812   5.860   2.179
 1231SOL     OW 4591   1.615   2.166   5.089
 1231SOL    HW1 4592   1.684   2.117   5.036
 1231SOL    HW2 4593   1.526   2.124   5.075
 1232SOL     OW 4594   6.367   1.081   4.968
 1232SOL    HW1 4595   6.457   1.056   5.005
 1232SOL    HW2 4596   6.302   1.091   5.043
 1233SOL     OW 4597   0.678   5.308   4.644
 1233SOL    HW1 4598   0.730   5.228   4.674
 1233SOL    HW2 4599   0.724   5.351   4.566
 1234SOL     OW 4600   5.828   2.049   5.453
 1234SOL    HW1 4601   5.807   2.145   5.438
 1234SOL    HW2 4602   5.775   2.015   5.531
 1235SOL     OW 4603   6.023   4.576   1.656
 1235SOL    HW1 4604   6.042   4.669   1.686
 1235SOL    HW2 4605   6.090   4.548   1.588
 1236SOL     OW 4606   4.275   1.464   1.814
 1236SOL    HW1 4607   4.185   1.504   1.828
 1236SOL    HW2 4608   4.334   1.484   1.892
 1237SOL     OW 4609   1.132   4.786   5.342
 1237SOL    HW1 4610   1.223   4.824   5.327
 1237SOL    HW2 4611   1.079   4.849   5.400
 1238SOL     OW 4612   1.357   0.437   5.782
 1238SOL    HW1 4613   1.384   0.384   5.702
 1238SOL    HW2 4614   1.322   0.526   5.753
 1239SOL     OW 4615   0.242   6.794   6.281
 1239SOL    HW1 4616   0.170   6.842   6.331
 1239SOL    HW2 4617   0.285   6.726   6.341
 1240SOL     OW 4618   5.910   6.090   1.403
 1240SOL    HW1 4619   5.818   6.093   1.442
 1240SOL    HW2 4620   5.937   6.182   1.374
 1241SOL     OW 4621   6.085   4.367   5.214
 1241SOL    HW1 4622   6.120   4.377   5.121
 1241SOL    HW2 4623   6.160   4.346   5.276
 1242SOL     OW 4624   2.224   4.166   1.090
 1242SOL    HW1 4625   2.312   4.179   1.136
 1242SOL    HW2 4626   2.218   4.071   1.057
 1243SOL     OW 4627   1.029   0.966   5.127
 1243SOL    HW1 4628   1.064   0.877   5.157
 1243SOL    HW2 4629   0.999   0.959   5.032
 1244SOL     OW 4630   5.177   6.214   4.438
 1244SOL    HW1 4631   5.199   6.178   4.529
 1244SOL    HW2 4632   5.089   6.177   4.407
 1245SOL     OW 4633   5.115   4.209   6.986
 1245SOL    HW1 4634   5.170   4.169   6.912
 1245SOL    HW2 4635   5.174   4.265   0.022
 1246SOL     OW 4636   3.109   1.628   1.608
 1246SOL    HW1 4637   3.161   1.643   1.524
 1246SOL    HW2 4638   3.171   1.596   1.680
 1247SOL     OW 4639   6.954   6.641   5.869
 1247SOL    HW1 4640   0.007   6.651   5.803
 1247SOL    HW2 4641   6.991   6.639   5.962
 1248SOL     OW 4642   1.929   6.494   3.501
 1248SOL    HW1 4643   1.976   6.563   3.444
 1248SOL    HW2 4644   1.835   6.485   3.470
 1249SOL     OW 4645   6.595   2.380   1.932
 1249SOL    HW1 4646   6.652   2.389   2.013
 1249SOL    HW2 4647   6.650   2.399   1.850
 1250SOL     OW 4648   5.695   5.143   3.384
 1250SOL    HW1 4649   5.668   5.086   3.461
 1250SOL    HW2 4650   5.791   5.171   3.395
 1251SOL     OW 4651   1.880   1.001   2.985
 1251SOL    HW1 4652   1.845   0.946   3.060
 1251SOL    HW2 4653   1.847   1.095   2.994
 1252SOL     OW 4654   3.920   4.521   0.115
 1252SOL    HW1 4655   3.887   4.486   0.203
 1252SOL    HW2 4656   3.893   4.616   0.104
 1253SOL     OW 4657   3.697   6.635   2.590
 1253SOL    HW1 4658   3.599   6.654   2.594
 1253SOL    HW2 4659   3.739   6.657   2.678
 1254SOL     OW 4660   0.597   2.387   3.762
 1254SOL    HW1 4661   0.515   2.331   3.773
 1254SOL    HW2 4662   0.575   2.468   3.706
 1255SOL     OW 4663   5.878   1.378   6.217
 1255SOL    HW1 4664   5.875   1.372   6.117
 1255SOL    HW2 4665   5.788   1.407   6.251
 1256SOL     OW 4666   0.197   6.944   3.711
 1256SOL    HW1 4667   0.128   6.875   3.733
 1256SOL    HW2 4668   0.198   6.960   3.613
 1257SOL     OW 4669   6.808   5.156   5.002
 1257SOL    HW1 4670   6.881   5.121   5.062
 1257SOL    HW2 4671   6.742   5.208   5.056
 1258SOL     OW 4672   1.560   5.252   2.995
 1258SOL    HW1 4673   1.555   5.253   2.895
 1258SOL    HW2 4674   1.492   5.189   3.031
 1259SOL     OW 4675   3.918   0.214   4.589
 1259SOL    HW1 4676   3.836   0.160   4.569
 1259SOL    HW2 4677   3.909   0.254   4.680
 1260SOL     OW 4678   3.313   1.934   0.364
 1260SOL    HW1 4679   3.373   1.864   0.402
 1260SOL    HW2 4680   3.248   1.891   0.301
 1261SOL     OW 4681   6.609   5.447   6.529
 1261SOL    HW1 4682   6.630   5.532   6.577
 1261SOL    HW2 4683   6.530   5.462   6.469
 1262SOL     OW 4684   5.489   4.806   1.215
 1262SOL    HW1 4685   5.400   4.774   1.184
 1262SOL    HW2 4686   5.536   4.853   1.140
 1263SOL     OW 4687   6.753   2.177   1.578
 1263SOL    HW1 4688   6.714   2.139   1.494
 1263SOL    HW2 4689   6.732   2.117   1.655
 1264SOL     OW 4690   0.328   3.478   1.330
 1264SOL    HW1 4691   0.383   3.487   1.247
 1264SOL    HW2 4692   0.232   3.495   1.308
 1265SOL     OW 4693   5.401   5.509   3.371
 1265SOL    HW1 4694   5.396   5.449   3.451
 1265SOL    HW2 4695   5.309   5.522   3.334
 1266SOL     OW 4696   1.084   1.240   4.412
 1266SOL    HW1 4697   1.058   1.164   4.353
 1266SOL    HW2 4698   1.028   1.240   4.494
 1267SOL     OW 4699   5.271   6.154   1.738
 1267SOL    HW1 4700   5.311   6.246   1.736
 1267SOL    HW2 4701   5.282   6.115   1.830
 1268SOL     OW 4702   3.687   3.187   0.277
 1268SOL    HW1 4703   3.779   3.224   0.275
 1268SOL    HW2 4704   3.626   3.253   0.321
 1269SOL     OW 4705   5.479   5.513   5.185
 1269SOL    HW1 4706   5.474   5.561   5.098
 1269SOL    HW2 4707   5.452   5.417   5.171
 1270SOL     OW 4708   2.214   4.390   3.898
 1270SOL    HW1 4709   2.212   4.308   3.955
 1270SOL    HW2 4710   2.308   4.422   3.889
 1271SOL     OW 4711   2.831   2.348   4.073
 1271SOL    HW1 4712   2.828   2.386   3.981
 1271SOL    HW2 4713   2.814   2.249   4.068
 1272SOL     OW 4714   5.623   5.727   0.072
 1272SOL    HW1 4715   5.621   5.825   0.091
 1272SOL    HW2 4716   5.530   5.694   0.055
 1273SOL     OW 4717   0.575   4.252   6.638
 1273SOL    HW1 4718   0.505   4.216   6.577
 1273SOL    HW2 4719   0.594   4.185   6.710
 1274SOL     OW 4720   6.621   4.038   1.479
 1274SOL    HW1 4721   6.523   4.054   1.491
 1274SOL    HW2 4722   6.670   4.078   1.557
 1275SOL     OW 4723   3.514   1.683   4.587
 1275SOL    HW1 4724   3.503   1.621   4.509
 1275SOL    HW2 4725   3.442   1.752   4.586
 1276SOL     OW 4726   0.001   6.784   4.665
 1276SOL    HW1 4727   0.024   6.851   4.735
 1276SOL    HW2 4728   6.961   6.825   4.598
 1277SOL     OW 4729   1.144   6.106   6.239
 1277SOL    HW1 4730   1.052   6.143   6.242
 1277SOL    HW2 4731   1.141   6.006   6.247
 1278SOL     OW 4732   0.770   0.010   5.329
 1278SOL    HW1 4733   0.701   0.083   5.329
 1278SOL    HW2 4734   0.771   6.988   5.240
 1279SOL     OW 4735   3.156   6.546   0.227
 1279SOL    HW1 4736   3.222   6.536   0.152
 1279SOL    HW2 4737   3.131   6.456   0.261
 1280SOL     OW 4738   3.030   6.343   4.862
 1280SOL    HW1 4739   3.035   6.394   4.776
 1280SOL    HW2 4740   2.989   6.253   4.844
 1281SOL     OW 4741   1.429   6.489   3.591
 1281SOL    HW1 4742   1.395   6.544   3.667
 1281SOL    HW2 4743   1.383   6.516   3.507
 1282SOL     OW 4744   0.534   2.065   6.694
 1282SOL    HW1 4745   0.447   2.040   6.735
 1282SOL    HW2 4746   0.590   2.114   6.761
 1283SOL     OW 4747   0.019   2.811   5.012
 1283SOL    HW1 4748   7.014   2.733   5.068
 1283SOL    HW2 4749   6.975   2.825   4.939
 1284SOL     OW 4750   4.819   1.829   1.797
 1284SOL    HW1 4751   4.893   1.895   1.813
 1284SOL    HW2 4752   4.833   1.784   1.709
 1285SOL     OW 4753   4.734   2.276   6.158
 1285SOL    HW1 4754   4.662   2.324   6.108
 1285SOL    HW2 4755   4.741   2.182   6.125
 1286SOL     OW 4756   5.184   4.226   2.256
 1286SOL    HW1 4757   5.154   4.274   2.173
 1286SOL    HW2 4758   5.241   4.148   2.231
 1287SOL     OW 4759   5.695   5.609   5.333
 1287SOL    HW1 4760   5.681   5.687   5.272
 1287SOL    HW2 4761   5.627   5.539   5.313
 1288SOL     OW 4762   4.311   3.652   6.936
 1288SOL    HW1 4763   4.238   3.641   7.003
 1288SOL    HW2 4764   4.381   3.582   6.951
 1289SOL     OW 4765   1.184   6.010   2.069
 1289SOL    HW1 4766   1.145   6.016   1.977
 1289SOL    HW2 4767   1.267   6.064   2.074
 1290SOL     OW 4768   1.039   6.331   6.536
 1290SOL    HW1 4769   1.102   6.344   6.460
 1290SOL    HW2 4770   1.032   6.416   6.588
 1291SOL     OW 4771   0.408   3.768   5.443
 1291SOL    HW1 4772   0.425   3.771   5.542
 1291SOL    HW2 4773   0.495   3.760   5.394
 1292SOL     OW 4774   0.369   5.807   2.260
 1292SOL    HW1 4775   0.391   5.856   2.176
 1292SOL    HW2 4776   0.278   5.766   2.252
 1293SOL     OW 4777   1.159   1.713   0.399
 1293SOL    HW1 4778   1.083   1.651   0.378
 1293SOL    HW2 4779   1.123   1.800   0.433
 1294SOL     OW 4780   0.994   3.174   6.832
 1294SOL    HW1 4781   1.009   3.246   6.764
 1294SOL    HW2 4782   0.987   3.214   6.923
 1295SOL     OW 4783   0.217   3.138   2.066
 1295SOL    HW1 4784   0.120   3.128   2.091
 1295SOL    HW2 4785   0.270   3.064   2.107
 1296SOL     OW 4786   3.732   0.281   5.713
 1296SOL    HW1 4787   3.665   0.306   5.782
 1296SOL    HW2 4788   3.817   0.252   5.758
 1297SOL     OW 4789   6.164   0.972   1.316
 1297SOL    HW1 4790   6.143   0.875   1.308
 1297SOL    HW2 4791   6.258   0.989   1.284
 1298SOL     OW 4792   5.797   4.574   2.425
 1298SOL    HW1 4793   5.851   4.491   2.444
 1298SOL    HW2 4794   5.717   4.576   2.485
 1299SOL     OW 4795   1.583   4.002   3.261
 1299SOL    HW1 4796   1.603   3.916   3.309
 1299SOL    HW2 4797   1.487   4.025   3.273
 1300SOL     OW 4798   3.148   2.875   1.868
 1300SOL    HW1 4799   3.224   2.844   1.925
 1300SOL    HW2 4800   3.069   2.814   1.883
 1301SOL     OW 4801   0.791   5.759   1.283
 1301SOL    HW1 4802   0.825   5.851   1.300
 1301SOL    HW2 4803   0.868   5.700   1.255
 1302SOL     OW 4804   5.050   0.802   5.393
 1302SOL    HW1 4805   5.142   0.764   5.405
 1302SOL    HW2 4806   5.054   0.878   5.327
 1303SOL     OW 4807   4.511   1.442   2.000
 1303SOL    HW1 4808   4.529   1.526   1.949
 1303SOL    HW2 4809   4.477   1.464   2.091
 1304SOL     OW 4810   2.271   1.227   6.348
 1304SOL    HW1 4811   2.225   1.144   6.317
 1304SOL    HW2 4812   2.208   1.304   6.342
 1305SOL     OW 4813   4.920   3.307   0.257
 1305SOL    HW1 4814   4.846   3.272   0.200
 1305SOL    HW2 4815   5.008   3.282   0.216
 1306SOL     OW 4816   0.400   4.755   4.351
 1306SOL    HW1 4817   0.310   4.715   4.367
 1306SOL    HW2 4818   0.424   4.748   4.254
 1307SOL     OW 4819   0.580   4.282   4.082
 1307SOL    HW1 4820   0.543   4.361   4.131
 1307SOL    HW2 4821   0.569   4.200   4.138
 1308SOL     OW 4822   5.703   6.229   4.846
 1308SOL    HW1 4823   5.646   6.229   4.928
 1308SOL    HW2 4824   5.698   6.319   4.802
 1309SOL     OW 4825   5.333   3.497   5.374
 1309SOL    HW1 4826   5.416   3.551   5.367
 1309SOL    HW2 4827   5.354   3.400   5.360
 1310SOL     OW 4828   6.768   3.791   4.066
 1310SOL    HW1 4829   6.809   3.703   4.093
 1310SOL    HW2 4830   6.791   3.861   4.134
 1311SOL     OW 4831   0.692   6.768   4.710
 1311SOL    HW1 4832   0.698   6.669   4.699
 1311SOL    HW2 4833   0.770   6.811   4.665
 1312SOL     OW 4834   1.428   0.321   6.514
 1312SOL    HW1 4835   1.360   0.296   6.445
 1312SOL    HW2 4836   1.493   0.246   6.525
 1313SOL     OW 4837   0.687   4.067   3.956
 1313SOL    HW1 4838   0.787   4.066   3.955
 1313SOL    HW2 4839   0.656   4.134   4.024
 1314SOL     OW 4840   4.302   1.401   5.500
 1314SOL    HW1 4841   4.372   1.330   5.492
 1314SOL    HW2 4842   4.344   1.491   5.488
 1315SOL     OW 4843   0.034   1.212   1.280
 1315SOL    HW1 4844   0.008   1.225   1.184
 1315SOL    HW2 4845   0.133   1.228   1.289
 1316SOL     OW 4846   2.198   6.107   5.037
 1316SOL    HW1 4847   2.183   6.013   5.007
 1316SOL    HW2 4848   2.248   6.107   5.124
 1317SOL     OW 4849   2.206   4.336   6.322
 1317SOL    HW1 4850   2.107   4.341   6.333
 1317SOL    HW2 4851   2.231   4.247   6.284
 1318SOL     OW 4852   0.935   1.187   1.071
 1318SOL    HW1 4853   0.914   1.089   1.062
 1318SOL    HW2 4854   0.852   1.236   1.097
 1319SOL     OW 4855   6.849   0.845   0.044
 1319SOL    HW1 4856   6.833   0.747   0.058
 1319SOL    HW2 4857   6.762   0.894   0.047
 1320SOL     OW 4858   4.949   3.955   0.630
 1320SOL    HW1 4859   4.881   3.904   0.684
 1320SOL    HW2 4860   4.921   4.051   0.625
 1321SOL     OW 4861   5.630   1.443   6.319
 1321SOL    HW1 4862   5.600   1.390   6.399
 1321SOL    HW2 4863   5.665   1.531   6.350
 1322SOL     OW 4864   3.582   1.053   4.058
 1322SOL    HW1 4865   3.564   1.143   4.018
 1322SOL    HW2 4866   3.495   1.006   4.074
 1323SOL     OW 4867   4.971   1.163   5.789
 1323SOL    HW1 4868   4.874   1.166   5.814
 1323SOL    HW2 4869   5.011   1.078   5.824
 1324SOL     OW 4870   1.403   3.101   0.470
 1324SOL    HW1 4871   1.408   3.192   0.429
 1324SOL    HW2 4872   1.308   3.082   0.497
 1325SOL     OW 4873   2.046   7.000   2.816
 1325SOL    HW1 4874   2.124   7.013   2.754
 1325SOL    HW2 4875   1.962   6.998   2.763
 1326SOL     OW 4876   5.064   3.472   5.058
 1326SOL    HW1 4877   4.967   3.493   5.045
 1326SOL    HW2 4878   5.103   3.443   4.971
 1327SOL     OW 4879   1.485   4.672   2.111
 1327SOL    HW1 4880   1.576   4.686   2.150
 1327SOL    HW2 4881   1.490   4.680   2.011
 1328SOL     OW 4882   1.402   3.152   0.935
 1328SOL    HW1 4883   1.305   3.147   0.913
 1328SOL    HW2 4884   1.430   3.068   0.983
 1329SOL     OW 4885   0.284   2.386   1.268
 1329SOL    HW1 4886   0.282   2.309   1.332
 1329SOL    HW2 4887   0.233   2.362   1.185
 1330SOL     OW 4888   0.507   1.411   1.793
 1330SOL    HW1 4889   0.524   1.429   1.890
 1330SOL    HW2 4890   0.409   1.412   1.775
 1331SOL     OW 4891   5.116   2.486   3.522
 1331SOL    HW1 4892   5.146   2.391   3.531
 1331SOL    HW2 4893   5.069   2.497   3.435
 1332SOL     OW 4894   2.803   0.343   6.490
 1332SOL    HW1 4895   2.826   0.424   6.435
 1332SOL    HW2 4896   2.838   0.356   6.583
 1333SOL     OW 4897   4.128   3.942   5.296
 1333SOL    HW1 4898   4.183   3.865   5.263
 1333SOL    HW2 4899   4.070   3.975   5.223
 1334SOL     OW 4900   6.366   1.778   4.385
 1334SOL    HW1 4901   6.267   1.767   4.381
 1334SOL    HW2 4902   6.392   1.863   4.340
 1335SOL     OW 4903   2.748   2.018   3.156
 1335SOL    HW1 4904   2.811   2.089   3.186
 1335SOL    HW2 4905   2.656   2.056   3.146
 1336SOL     OW 4906   1.939   2.259   5.562
 1336SOL    HW1 4907   1.948   2.292   5.468
 1336SOL    HW2 4908   2.025   2.218   5.591
 1337SOL     OW 4909   1.923   2.359   4.831
 1337SOL    HW1 4910   1.912   2.454   4.801
 1337SOL    HW2 4911   1.914   2.298   4.752
 1338SOL     OW 4912   5.750   2.015   5.027
 1338SOL    HW1 4913   5.755   1.915   5.027
 1338SOL    HW2 4914   5.842   2.052   5.012
 1339SOL     OW 4915   0.339   1.610   6.553
 1339SOL    HW1 4916   0.296   1.573   6.635
 1339SOL    HW2 4917   0.407   1.546   6.519
 1340SOL     OW 4918   0.029   2.020   2.938
 1340SOL    HW1 4919   0.032   1.922   2.916
 1340SOL    HW2 4920   0.084   2.071   2.872
 1341SOL     OW 4921   5.082   0.200   6.195
 1341SOL    HW1 4922   5.075   0.105   6.226
 1341SOL    HW2 4923   5.127   0.203   6.106
 1342SOL     OW 4924   1.687   5.605   5.990
 1342SOL    HW1 4925   1.681   5.530   6.055
 1342SOL    HW2 4926   1.782   5.619   5.964
 1343SOL     OW 4927   4.738   5.997   3.173
 1343SOL    HW1 4928   4.825   5.971   3.131
 1343SOL    HW2 4929   4.671   5.925   3.158
 1344SOL     OW 4930   0.034   5.080   4.607
 1344SOL    HW1 4931   7.005   5.138   4.670
 1344SOL    HW2 4932   7.015   4.989   4.604
 1345SOL     OW 4933   1.505   0.597   2.643
 1345SOL    HW1 4934   1.594   0.557   2.620
 1345SOL    HW2 4935   1.437   0.567   2.576
 1346SOL     OW 4936   0.750   5.958   4.395
 1346SOL    HW1 4937   0.688   6.035   4.377
 1346SOL    HW2 4938   0.696   5.876   4.413
 1347SOL     OW 4939   6.221   6.345   4.764
 1347SOL    HW1 4940   6.177   6.260   4.736
 1347SOL    HW2 4941   6.195   6.419   4.701
 1348SOL     OW 4942   5.474   5.337   2.426
 1348SOL    HW1 4943   5.483   5.318   2.328
 1348SOL    HW2 4944   5.379   5.326   2.453
 1349SOL     OW 4945   4.342   2.619   5.854
 1349SOL    HW1 4946   4.276   2.693   5.868
 1349SOL    HW2 4947   4.294   2.533   5.839
 1350SOL     OW 4948   5.495   4.816   5.997
 1350SOL    HW1 4949   5.501   4.752   5.920
 1350SOL    HW2 4950   5.424   4.784   6.061
 1351SOL     OW 4951   6.345   1.196   3.521
 1351SOL    HW1 4952   6.322   1.262   3.593
 1351SOL    HW2 4953   6.406   1.126   3.559
 1352SOL     OW 4954   6.763   6.727   2.910
 1352SOL    HW1 4955   6.857   6.707   2.883
 1352SOL    HW2 4956   6.742   6.677   2.995
 1353SOL     OW 4957   0.048   3.284   6.858
 1353SOL    HW1 4958   0.135   3.288   6.810
 1353SOL    HW2 4959   0.031   3.190   6.889
 1354SOL     OW 4960   1.144   3.127   0.548
 1354SOL    HW1 4961   1.150   3.209   0.606
 1354SOL    HW2 4962   1.058   3.129   0.497
 1355SOL     OW 4963   6.328   2.448   5.315
 1355SOL    HW1 4964   6.373   2.512   5.377
 1355SOL    HW2 4965   6.303   2.496   5.231
 1356SOL     OW 4966   2.912   3.653   2.799
 1356SOL    HW1 4967   2.958   3.724   2.851
 1356SOL    HW2 4968   2.818   3.680   2.780
 1357SOL     OW 4969   1.323   3.456   5.402
 1357SOL    HW1 4970   1.346   3.364   5.434
 1357SOL    HW2 4971   1.405   3.501   5.367
 1358SOL     OW 4972   4.067   1.127   5.611
 1358SOL    HW1 4973   4.155   1.114   5.564
 1358SOL    HW2 4974   4.051   1.050   5.673
 1359SOL     OW 4975   5.840   4.398   1.762
 1359SOL    HW1 4976   5.897   4.340   1.819
 1359SOL    HW2 4977   5.897   4.465   1.714
 1360SOL     OW 4978   3.977   2.603   0.270
 1360SOL    HW1 4979   4.054   2.595   0.208
 1360SOL    HW2 4980   3.991   2.680   0.332
 1361SOL     OW 4981   0.259   5.565   5.236
 1361SOL    HW1 4982   0.226   5.584   5.144
 1361SOL    HW2 4983   0.217   5.628   5.301
 1362SOL     OW 4984   2.923   3.704   4.618
 1362SOL    HW1 4985   2.882   3.775   4.560
 1362SOL    HW2 4986   2.907   3.727   4.714
 1363SOL     OW 4987   0.037   5.350   3.917
 1363SOL    HW1 4988   0.052   5.437   3.869
 1363SOL    HW2 4989   0.124   5.301   3.925
 1364SOL     OW 4990   6.675   2.282   1.222
 1364SOL    HW1 4991   6.632   2.348   1.284
 1364SOL    HW2 4992   6.608   2.212   1.197
 1365SOL     OW 4993   0.505   2.589   5.766
 1365SOL    HW1 4994   0.551   2.642   5.695
 1365SOL    HW2 4995   0.463   2.651   5.832
 1366SOL     OW 4996   0.759   4.613   0.029
 1366SOL    HW1 4997   0.684   4.655   0.080
 1366SOL    HW2 4998   0.770   4.518   0.057
 1367SOL     OW 4999   1.589   6.786   2.463
 1367SOL    HW1 5000   1.547   6.711   2.514
 1367SOL    HW2 5001   1.671   6.752   2.417
 1368SOL     OW 5002   6.861   0.446   3.771
 1368SOL    HW1 5003   6.791   0.454   3.700
 1368SOL    HW2 5004   6.824   0.477   3.858
 1369SOL     OW 5005   2.450   0.204   2.163
 1369SOL    HW1 5006   2.365   0.255   2.145
 1369SOL    HW2 5007   2.472   0.147   2.084
 1370SOL     OW 5008   4.215   1.567   2.351
 1370SOL    HW1 5009   4.181   1.490   2.297
 1370SOL    HW2 5010   4.156   1.582   2.430
 1371SOL     OW 5011   6.057   1.395   4.810
 1371SOL    HW1 5012   6.156   1.399   4.798
 1371SOL    HW2 5013   6.025   1.303   4.786
 1372SOL     OW 5014   0.916   2.640   0.518
 1372SOL    HW1 5015   0.870   2.705   0.578
 1372SOL    HW2 5016   0.990   2.686   0.469
 1373SOL     OW 5017   4.676   2.285   6.805
 1373SOL    HW1 5018   4.661   2.196   6.763
 1373SOL    HW2 5019   4.748   2.278   6.874
 1374SOL     OW 5020   4.732   1.779   0.049
 1374SOL    HW1 5021   4.796   1.712   0.088
 1374SOL    HW2 5022   4.651   1.785   0.107
 1375SOL     OW 5023   0.127   5.120   6.435
 1375SOL    HW1 5024   0.031   5.094   6.445
 1375SOL    HW2 5025   0.172   5.059   6.370
 1376SOL     OW 5026   4.577   4.777   5.013
 1376SOL    HW1 5027   4.527   4.852   4.969
 1376SOL    HW2 5028   4.667   4.810   5.042
 1377SOL     OW 5029   0.769   2.996   5.312
 1377SOL    HW1 5030   0.766   2.985   5.411
 1377SOL    HW2 5031   0.815   3.083   5.290
 1378SOL     OW 5032   5.895   1.391   5.096
 1378SOL    HW1 5033   5.934   1.369   5.006
 1378SOL    HW2 5034   5.944   1.340   5.166
 1379SOL     OW 5035   3.883   6.637   3.073
 1379SOL    HW1 5036   3.917   6.646   3.166
 1379SOL    HW2 5037   3.842   6.547   3.060
 1380SOL     OW 5038   0.442   6.926   2.771
 1380SOL    HW1 5039   0.529   6.930   2.722
 1380SOL    HW2 5040   0.421   7.017   2.809
 1381SOL     OW 5041   5.940   2.097   6.704
 1381SOL    HW1 5042   5.866   2.067   6.764
 1381SOL    HW2 5043   5.997   2.018   6.680
 1382SOL     OW 5044   4.824   3.254   0.504
 1382SOL    HW1 5045   4.857   3.282   0.414
 1382SOL    HW2 5046   4.895   3.201   0.550
 1383SOL     OW 5047   0.912   0.142   2.063
 1383SOL    HW1 5048   0.860   0.081   2.003
 1383SOL    HW2 5049   0.903   0.236   2.032
 1384SOL     OW 5050   4.984   0.430   2.053
 1384SOL    HW1 5051   5.031   0.374   1.984
 1384SOL    HW2 5052   5.025   0.522   2.054
 1385SOL     OW 5053   2.088   4.518   3.537
 1385SOL    HW1 5054   2.104   4.610   3.573
 1385SOL    HW2 5055   2.027   4.469   3.599
 1386SOL     OW 5056   3.058   0.366   4.311
 1386SOL    HW1 5057   2.967   0.403   4.296
 1386SOL    HW2 5058   3.052   0.280   4.362
 1387SOL     OW 5059   3.559   6.109   2.900
 1387SOL    HW1 5060   3.562   6.012   2.921
 1387SOL    HW2 5061   3.653   6.143   2.888
 1388SOL     OW 5062   0.469   0.143   2.908
 1388SOL    HW1 5063   0.511   0.206   2.842
 1388SOL    HW2 5064   0.512   0.154   2.997
 1389SOL     OW 5065   6.639   1.374   4.254
 1389SOL    HW1 5066   6.686   1.297   4.211
 1389SOL    HW2 5067   6.680   1.460   4.223
 1390SOL     OW 5068   6.448   3.106   6.080
 1390SOL    HW1 5069   6.514   3.173   6.045
 1390SOL    HW2 5070   6.355   3.137   6.061
 1391SOL     OW 5071   5.802   6.873   5.593
 1391SOL    HW1 5072   5.833   6.966   5.613
 1391SOL    HW2 5073   5.733   6.846   5.659
 1392SOL     OW 5074   5.438   6.735   6.066
 1392SOL    HW1 5075   5.384   6.667   6.017
 1392SOL    HW2 5076   5.395   6.754   6.154
 1393SOL     OW 5077   6.676   3.825   6.331
 1393SOL    HW1 5078   6.622   3.887   6.276
 1393SOL    HW2 5079   6.675   3.734   6.289
 1394SOL     OW 5080   3.445   5.800   4.994
 1394SOL    HW1 5081   3.484   5.891   4.992
 1394SOL    HW2 5082   3.454   5.757   4.904
 1395SOL     OW 5083   1.528   4.151   4.666
 1395SOL    HW1 5084   1.537   4.093   4.747
 1395SOL    HW2 5085   1.597   4.124   4.598
 1396SOL     OW 5086   0.449   0.706   4.826
 1396SOL    HW1 5087   0.405   0.708   4.915
 1396SOL    HW2 5088   0.380   0.721   4.755
 1397SOL     OW 5089   0.329   6.223   4.776
 1397SOL    HW1 5090   0.231   6.239   4.768
 1397SOL    HW2 5091   0.377   6.267   4.700
 1398SOL     OW 5092   2.699   1.056   6.683
 1398SOL    HW1 5093   2.732   1.149   6.694
 1398SOL    HW2 5094   2.599   1.054   6.691
 1399SOL     OW 5095   3.902   5.780   0.475
 1399SOL    HW1 5096   3.945   5.704   0.523
 1399SOL    HW2 5097   3.878   5.752   0.382
 1400SOL     OW 5098   0.441   1.550   4.361
 1400SOL    HW1 5099   0.531   1.523   4.396
 1400SOL    HW2 5100   0.447   1.561   4.262
 1401SOL     OW 5101   5.692   0.481   4.275
 1401SOL    HW1 5102   5.669   0.573   4.308
 1401SOL    HW2 5103   5.789   0.478   4.251
 1402SOL     OW 5104   5.727   4.341   6.534
 1402SOL    HW1 5105   5.629   4.329   6.516
 1402SOL    HW2 5106   5.742   4.432   6.573
 1403SOL     OW 5107   2.044   1.979   1.036
 1403SOL    HW1 5108   2.013   1.953   0.944
 1403SOL    HW2 5109   2.109   2.054   1.029
 1404SOL     OW 5110   6.806   0.590   0.072
 1404SOL    HW1 5111   6.764   0.553   0.154
 1404SOL    HW2 5112   6.774   0.538   7.014
 1405SOL     OW 5113   2.842   4.179   1.240
 1405SOL    HW1 5114   2.791   4.173   1.154
 1405SOL    HW2 5115   2.839   4.090   1.287
 1406SOL     OW 5116   1.655   5.640   1.139
 1406SOL    HW1 5117   1.637   5.626   1.042
 1406SOL    HW2 5118   1.753   5.628   1.156
 1407SOL     OW 5119   0.975   3.848   3.415
 1407SOL    HW1 5120   1.065   3.804   3.421
 1407SOL    HW2 5121   0.983   3.935   3.368
 1408SOL     OW 5122   5.560   0.234   6.536
 1408SOL    HW1 5123   5.581   0.202   6.628
 1408SOL    HW2 5124   5.632   0.205   6.473
 1409SOL     OW 5125   0.530   0.464   5.355
 1409SOL    HW1 5126   0.575   0.534   5.300
 1409SOL    HW2 5127   0.498   0.504   5.441
 1410SOL     OW 5128   1.904   4.317   6.357
 1410SOL    HW1 5129   1.824   4.345   6.411
 1410SOL    HW2 5130   1.924   4.221   6.375
 1411SOL     OW 5131   3.562   6.135   0.109
 1411SOL    HW1 5132   3.495   6.116   0.037
 1411SOL    HW2 5133   3.518   6.122   0.198
 1412SOL     OW 5134   0.831   4.103   1.046
 1412SOL    HW1 5135   0.877   4.050   1.118
 1412SOL    HW2 5136   0.898   4.128   0.975
 1413SOL     OW 5137   2.315   1.256   4.530
 1413SOL    HW1 5138   2.405   1.212   4.538
 1413SOL    HW2 5139   2.270   1.257   4.619
 1414SOL     OW 5140   2.250   1.429   1.721
 1414SOL    HW1 5141   2.297   1.360   1.666
 1414SOL    HW2 5142   2.301   1.444   1.806
 1415SOL     OW 5143   3.013   1.408   3.999
 1415SOL    HW1 5144   3.005   1.500   3.960
 1415SOL    HW2 5145   2.996   1.341   3.927
 1416SOL     OW 5146   4.122   6.401   4.532
 1416SOL    HW1 5147   4.047   6.346   4.494
 1416SOL    HW2 5148   4.148   6.471   4.466
 1417SOL     OW 5149   3.109   2.612   6.897
 1417SOL    HW1 5150   3.088   2.519   6.929
 1417SOL    HW2 5151   3.186   2.608   6.833
 1418SOL     OW 5152   2.885   3.429   1.407
 1418SOL    HW1 5153   2.979   3.448   1.380
 1418SOL    HW2 5154   2.824   3.446   1.329
 1419SOL     OW 5155   3.339   6.284   4.345
 1419SOL    HW1 5156   3.285   6.368   4.339
 1419SOL    HW2 5157   3.434   6.303   4.321
 1420SOL     OW 5158   3.718   5.835   3.127
 1420SOL    HW1 5159   3.746   5.746   3.165
 1420SOL    HW2 5160   3.619   5.844   3.137
 1421SOL     OW 5161   1.133   4.066   4.341
 1421SOL    HW1 5162   1.139   4.141   4.275
 1421SOL    HW2 5163   1.077   4.094   4.419
 1422SOL     OW 5164   2.294   3.978   6.536
 1422SOL    HW1 5165   2.263   3.993   6.442
 1422SOL    HW2 5166   2.313   4.066   6.580
 1423SOL     OW 5167   4.358   0.498   4.360
 1423SOL    HW1 5168   4.436   0.517   4.300
 1423SOL    HW2 5169   4.352   0.400   4.377
 1424SOL     OW 5170   6.953   3.732   6.762
 1424SOL    HW1 5171   6.998   3.655   6.717
 1424SOL    HW2 5172   6.867   3.703   6.803
 1425SOL     OW 5173   2.154   5.487   5.338
 1425SOL    HW1 5174   2.055   5.481   5.334
 1425SOL    HW2 5175   2.182   5.534   5.421
 1426SOL     OW 5176   2.505   2.245   6.497
 1426SOL    HW1 5177   2.523   2.175   6.427
 1426SOL    HW2 5178   2.507   2.336   6.455
 1427SOL     OW 5179   6.714   6.742   4.250
 1427SOL    HW1 5180   6.701   6.788   4.162
 1427SOL    HW2 5181   6.812   6.732   4.268
 1428SOL     OW 5182   1.013   2.315   1.516
 1428SOL    HW1 5183   0.933   2.375   1.515
 1428SOL    HW2 5184   1.036   2.288   1.423
 1429SOL     OW 5185   5.196   1.697   0.123
 1429SOL    HW1 5186   5.175   1.648   0.039
 1429SOL    HW2 5187   5.242   1.635   0.187
 1430SOL     OW 5188   2.248   4.871   3.936
 1430SOL    HW1 5189   2.264   4.906   4.028
 1430SOL    HW2 5190   2.329   4.889   3.879
 1431SOL     OW 5191   2.961   2.434   0.224
 1431SOL    HW1 5192   2.985   2.384   0.141
 1431SOL    HW2 5193   2.945   2.369   0.298
 1432SOL     OW 5194   2.954   1.263   1.159
 1432SOL    HW1 5195   3.012   1.343   1.142
 1432SOL    HW2 5196   2.905   1.239   1.076
 1433SOL     OW 5197   5.033   1.062   5.293
 1433SOL    HW1 5198   5.059   1.108   5.208
 1433SOL    HW2 5199   5.052   1.122   5.371
 1434SOL     OW 5200   0.779   0.843   6.536
 1434SOL    HW1 5201   0.875   0.870   6.545
 1434SOL    HW2 5202   0.774   0.746   6.512
 1435SOL     OW 5203   6.602   0.024   3.105
 1435SOL    HW1 5204   6.518   0.072   3.128
 1435SOL    HW2 5205   6.599   7.017   3.010
 1436SOL     OW 5206   5.577   4.290   6.964
 1436SOL    HW1 5207   5.577   4.253   0.034
 1436SOL    HW2 5208   5.593   4.217   6.898
 1437SOL     OW 5209   3.641   1.732   5.979
 1437SOL    HW1 5210   3.668   1.652   6.032
 1437SOL    HW2 5211   3.659   1.815   6.032
 1438SOL     OW 5212   2.378   0.164   1.406
 1438SOL    HW1 5213   2.459   0.150   1.463
 1438SOL    HW2 5214   2.407   0.184   1.312
 1439SOL     OW 5215   6.929   4.708   0.546
 1439SOL    HW1 5216   7.015   4.739   0.588
 1439SOL    HW2 5217   6.865   4.784   0.541
 1440SOL     OW 5218   3.085   2.792   6.074
 1440SOL    HW1 5219   3.067   2.735   6.154
 1440SOL    HW2 5220   3.026   2.872   6.076
 1441SOL     OW 5221   6.129   2.989   3.748
 1441SOL    HW1 5222   6.145   3.080   3.710
 1441SOL    HW2 5223   6.203   2.966   3.812
 1442SOL     OW 5224   6.208   5.354   6.983
 1442SOL    HW1 5225   6.115   5.354   6.948
 1442SOL    HW2 5226   6.271   5.324   6.911
 1443SOL     OW 5227   0.383   2.854   4.454
 1443SOL    HW1 5228   0.433   2.842   4.368
 1443SOL    HW2 5229   0.335   2.769   4.477
 1444SOL     OW 5230   3.989   6.013   1.228
 1444SOL    HW1 5231   4.004   5.925   1.184
 1444SOL    HW2 5232   3.964   6.081   1.159
 1445SOL     OW 5233   0.357   2.431   1.758
 1445SOL    HW1 5234   0.259   2.427   1.741
 1445SOL    HW2 5235   0.396   2.509   1.709
 1446SOL     OW 5236   4.865   2.224   7.012
 1446SOL    HW1 5237   4.920   2.233   0.073
 1446SOL    HW2 5238   4.852   2.127   6.992
 1447SOL     OW 5239   5.998   6.594   6.084
 1447SOL    HW1 5240   6.098   6.585   6.091
 1447SOL    HW2 5241   5.966   6.540   6.006
 1448SOL     OW 5242   6.434   2.797   0.186
 1448SOL    HW1 5243   6.478   2.708   0.183
 1448SOL    HW2 5244   6.393   2.817   0.097
 1449SOL     OW 5245   0.260   1.415   0.146
 1449SOL    HW1 5246   0.200   1.380   0.074
 1449SOL    HW2 5247   0.215   1.404   0.235
 1450SOL     OW 5248   0.776   2.041   1.833
 1450SOL    HW1 5249   0.708   2.011   1.765
 1450SOL    HW2 5250   0.737   2.115   1.888
 1451SOL     OW 5251   2.195   0.847   2.533
 1451SOL    HW1 5252   2.151   0.802   2.455
 1451SOL    HW2 5253   2.293   0.856   2.515
 1452SOL     OW 5254   4.101   1.237   4.399
 1452SOL    HW1 5255   4.043   1.264   4.323
 1452SOL    HW2 5256   4.197   1.252   4.376
 1453SOL     OW 5257   6.902   3.962   5.422
 1453SOL    HW1 5258   6.973   3.955   5.351
 1453SOL    HW2 5259   6.883   3.871   5.459
 1454SOL     OW 5260   6.517   2.710   2.979
 1454SOL    HW1 5261   6.593   2.665   3.027
 1454SOL    HW2 5262   6.478   2.646   2.912
 1455SOL     OW 5263   1.381   0.279   1.800
 1455SOL    HW1 5264   1.369   0.302   1.703
 1455SOL    HW2 5265   1.446   0.203   1.808
 1456SOL     OW 5266   6.347   6.861   5.360
 1456SOL    HW1 5267   6.273   6.922   5.335
 1456SOL    HW2 5268   6.435   6.901   5.331
 1457SOL     OW 5269   1.333   6.800   1.478
 1457SOL    HW1 5270   1.326   6.715   1.530
 1457SOL    HW2 5271   1.354   6.779   1.383
 1458SOL     OW 5272   5.781   5.802   3.306
 1458SOL    HW1 5273   5.806   5.794   3.210
 1458SOL    HW2 5274   5.862   5.793   3.363
 1459SOL     OW 5275   2.859   5.093   5.449
 1459SOL    HW1 5276   2.899   5.015   5.496
 1459SOL    HW2 5277   2.772   5.118   5.493
 1460SOL     OW 5278   7.009   5.441   5.611
 1460SOL    HW1 5279   0.018   5.347   5.622
 1460SOL    HW2 5280   6.909   5.444   5.618
 1461SOL     OW 5281   0.236   4.928   3.740
 1461SOL    HW1 5282   0.225   4.833   3.771
 1461SOL    HW2 5283   0.306   4.973   3.796
 1462SOL     OW 5284   1.121   0.953   6.314
 1462SOL    HW1 5285   1.116   0.956   6.414
 1462SOL    HW2 5286   1.204   0.998   6.283
 1463SOL     OW 5287   0.135   5.433   6.924
 1463SOL    HW1 5288   0.215   5.373   6.917
 1463SOL    HW2 5289   0.052   5.381   6.907
 1464SOL     OW 5290   5.838   6.728   0.763
 1464SOL    HW1 5291   5.892   6.789   0.822
 1464SOL    HW2 5292   5.745   6.721   0.798
 1465SOL     OW 5293   1.918   1.529   3.633
 1465SOL    HW1 5294   2.016   1.546   3.637
 1465SOL    HW2 5295   1.870   1.612   3.606
 1466SOL     OW 5296   1.540   1.559   2.309
 1466SOL    HW1 5297   1.472   1.623   2.274
 1466SOL    HW2 5298   1.505   1.465   2.298
 1467SOL     OW 5299   2.394   2.007   1.772
 1467SOL    HW1 5300   2.467   2.027   1.838
 1467SOL    HW2 5301   2.383   1.907   1.764
 1468SOL     OW 5302   5.524   5.508   2.941
 1468SOL    HW1 5303   5.557   5.522   2.848
 1468SOL    HW2 5304   5.599   5.475   2.999
 1469SOL     OW 5305   0.664   0.891   2.381
 1469SOL    HW1 5306   0.723   0.901   2.300
 1469SOL    HW2 5307   0.691   0.809   2.432
 1470SOL     OW 5308   1.783   1.621   2.448
 1470SOL    HW1 5309   1.837   1.550   2.494
 1470SOL    HW2 5310   1.699   1.581   2.412
 1471SOL     OW 5311   0.923   0.486   0.477
 1471SOL    HW1 5312   1.011   0.464   0.434
 1471SOL    HW2 5313   0.932   0.483   0.576
 1472SOL     OW 5314   3.863   6.147   5.140
 1472SOL    HW1 5315   3.793   6.108   5.201
 1472SOL    HW2 5316   3.879   6.243   5.165
 1473SOL     OW 5317   5.549   6.423   4.198
 1473SOL    HW1 5318   5.451   6.442   4.208
 1473SOL    HW2 5319   5.601   6.501   4.231
 1474SOL     OW 5320   5.836   5.427   3.132
 1474SOL    HW1 5321   5.751   5.413   3.182
 1474SOL    HW2 5322   5.875   5.339   3.107
 1475SOL     OW 5323   6.314   0.248   1.893
 1475SOL    HW1 5324   6.372   0.175   1.859
 1475SOL    HW2 5325   6.340   0.272   1.986
 1476SOL     OW 5326   2.470   1.296   1.603
 1476SOL    HW1 5327   2.458   1.245   1.517
 1476SOL    HW2 5328   2.514   1.383   1.583
 1477SOL     OW 5329   3.480   0.942   6.369
 1477SOL    HW1 5330   3.455   0.895   6.454
 1477SOL    HW2 5331   3.548   1.013   6.389
 1478SOL     OW 5332   5.865   5.612   0.143
 1478SOL    HW1 5333   5.780   5.659   0.116
 1478SOL    HW2 5334   5.842   5.525   0.187
 1479SOL     OW 5335   1.586   3.139   0.212
 1479SOL    HW1 5336   1.619   3.107   0.300
 1479SOL    HW2 5337   1.571   3.238   0.216
 1480SOL     OW 5338   3.556   0.070   6.016
 1480SOL    HW1 5339   3.482   0.136   6.013
 1480SOL    HW2 5340   3.639   0.114   6.052
 1481SOL     OW 5341   6.624   2.716   5.400
 1481SOL    HW1 5342   6.680   2.671   5.330
 1481SOL    HW2 5343   6.679   2.732   5.482
 1482SOL     OW 5344   4.791   2.560   1.573
 1482SOL    HW1 5345   4.704   2.520   1.547
 1482SOL    HW2 5346   4.805   2.647   1.525
 1483SOL     OW 5347   5.786   2.105   6.386
 1483SOL    HW1 5348   5.758   2.185   6.332
 1483SOL    HW2 5349   5.746   2.111   6.477
 1484SOL     OW 5350   5.823   4.987   3.825
 1484SOL    HW1 5351   5.896   4.922   3.802
 1484SOL    HW2 5352   5.756   4.989   3.751
 1485SOL     OW 5353   3.185   1.861   3.135
 1485SOL    HW1 5354   3.135   1.810   3.065
 1485SOL    HW2 5355   3.178   1.959   3.118
 1486SOL     OW 5356   4.690   2.048   3.136
 1486SOL    HW1 5357   4.727   2.112   3.203
 1486SOL    HW2 5358   4.747   2.049   3.053
 1487SOL     OW 5359   6.645   2.834   6.624
 1487SOL    HW1 5360   6.688   2.812   6.536
 1487SOL    HW2 5361   6.593   2.918   6.615
 1488SOL     OW 5362   5.321   1.816   3.691
 1488SOL    HW1 5363   5.394   1.754   3.719
 1488SOL    HW2 5364   5.295   1.797   3.597
 1489SOL     OW 5365   3.540   5.284   4.211
 1489SOL    HW1 5366   3.602   5.327   4.276
 1489SOL    HW2 5367   3.517   5.192   4.243
 1490SOL     OW 5368   1.237   2.957   1.237
 1490SOL    HW1 5369   1.163   2.951   1.304
 1490SOL    HW2 5370   1.290   3.040   1.252
 1491SOL     OW 5371   6.486   3.642   3.738
 1491SOL    HW1 5372   6.534   3.730   3.728
 1491SOL    HW2 5373   6.445   3.618   3.650
 1492SOL     OW 5374   5.590   1.235   2.474
 1492SOL    HW1 5375   5.503   1.209   2.515
 1492SOL    HW2 5376   5.665   1.193   2.527
 1493SOL     OW 5377   4.328   0.224   4.384
 1493SOL    HW1 5378   4.263   0.169   4.438
 1493SOL    HW2 5379   4.417   0.178   4.382
 1494SOL     OW 5380   6.068   1.868   5.872
 1494SOL    HW1 5381   6.058   1.894   5.968
 1494SOL    HW2 5382   5.996   1.804   5.846
 1495SOL     OW 5383   6.673   2.589   5.163
 1495SOL    HW1 5384   6.642   2.502   5.125
 1495SOL    HW2 5385   6.671   2.659   5.092
 1496SOL     OW 5386   0.634   1.246   1.580
 1496SOL    HW1 5387   0.729   1.258   1.553
 1496SOL    HW2 5388   0.607   1.319   1.642
 1497SOL     OW 5389   6.773   3.193   3.309
 1497SOL    HW1 5390   6.737   3.219   3.220
 1497SOL    HW2 5391   6.808   3.274   3.356
 1498SOL     OW 5392   1.791   4.952   5.793
 1498SOL    HW1 5393   1.808   4.856   5.773
 1498SOL    HW2 5394   1.873   4.994   5.831
 1499SOL     OW 5395   1.027   3.340   6.606
 1499SOL    HW1 5396   1.114   3.369   6.566
 1499SOL    HW2 5397   0.986   3.268   6.550
 1500SOL     OW 5398   6.658   5.978   0.102
 1500SOL    HW1 5399   6.652   5.938   0.010
 1500SOL    HW2 5400   6.690   6.072   0.094
 1501SOL     OW 5401   5.776   2.106   6.039
 1501SOL    HW1 5402   5.797   2.199   6.073
 1501SOL    HW2 5403   5.852   2.045   6.061
 1502SOL     OW 5404   5.482   0.764   1.124
 1502SOL    HW1 5405   5.435   0.830   1.066
 1502SOL    HW2 5406   5.417   0.725   1.190
 1503SOL     OW 5407   2.110   2.351   1.805
 1503SOL    HW1 5408   2.114   2.262   1.850
 1503SOL    HW2 5409   2.049   2.412   1.856
 1504SOL     OW 5410   0.593   0.212   5.357
 1504SOL    HW1 5411   0.581   0.311   5.366
 1504SOL    HW2 5412   0.523   0.165   5.411
 1505SOL     OW 5413   6.011   0.891   5.694
 1505SOL    HW1 5414   6.095   0.840   5.677
 1505SOL    HW2 5415   5.971   0.862   5.781
 1506SOL     OW 5416   1.739   5.383   0.937
 1506SOL    HW1 5417   1.642   5.359   0.942
 1506SOL    HW2 5418   1.756   5.464   0.994
 1507SOL     OW 5419   0.871   1.960   5.631
 1507SOL    HW1 5420   0.808   2.000   5.698
 1507SOL    HW2 5421   0.819   1.910   5.562
 1508SOL     OW 5422   6.688   0.537   1.914
 1508SOL    HW1 5423   6.601   0.539   1.963
 1508SOL    HW2 5424   6.756   0.489   1.969
 1509SOL     OW 5425   4.626   2.479   5.890
 1509SOL    HW1 5426   4.651   2.401   5.833
 1509SOL    HW2 5427   4.531   2.504   5.871
 1510SOL     OW 5428   5.069   2.742   4.878
 1510SOL    HW1 5429   4.976   2.752   4.841
 1510SOL    HW2 5430   5.126   2.695   4.811
 1511SOL     OW 5431   3.039   3.114   1.988
 1511SOL    HW1 5432   3.121   3.172   1.993
 1511SOL    HW2 5433   3.061   3.032   1.935
 1512SOL     OW 5434   0.850   4.830   1.570
 1512SOL    HW1 5435   0.946   4.810   1.592
 1512SOL    HW2 5436   0.803   4.860   1.653
 1513SOL     OW 5437   3.058   0.424   3.385
 1513SOL    HW1 5438   3.030   0.329   3.373
 1513SOL    HW2 5439   3.132   0.446   3.321
 1514SOL     OW 5440   4.238   2.151   5.980
 1514SOL    HW1 5441   4.167   2.083   5.964
 1514SOL    HW2 5442   4.250   2.165   6.078
 1515SOL     OW 5443   5.895   2.267   4.652
 1515SOL    HW1 5444   5.837   2.194   4.616
 1515SOL    HW2 5445   5.921   2.246   4.746
 1516SOL     OW 5446   0.016   0.081   0.649
 1516SOL    HW1 5447   6.947   0.044   0.668
 1516SOL    HW2 5448   0.030   0.086   0.550
 1517SOL     OW 5449   4.285   6.225   3.867
 1517SOL    HW1 5450   4.339   6.231   3.951
 1517SOL    HW2 5451   4.337   6.176   3.797
 1518SOL     OW 5452   0.997   3.342   0.084
 1518SOL    HW1 5453   0.903   3.352   0.116
 1518SOL    HW2 5454   1.040   3.432   0.075
 1519SOL     OW 5455   6.025   4.984   2.321
 1519SOL    HW1 5456   6.041   5.015   2.227
 1519SOL    HW2 5457   5.984   5.059   2.373
 1520SOL     OW 5458   0.601   3.797   2.635
 1520SOL    HW1 5459   0.697   3.820   2.615
 1520SOL    HW2 5460   0.555   3.877   2.673
 1521SOL     OW 5461   2.275   4.214   0.376
 1521SOL    HW1 5462   2.231   4.264   0.451
 1521SOL    HW2 5463   2.237   4.244   0.289
 1522SOL     OW 5464   6.330   6.709   5.084
 1522SOL    HW1 5465   6.291   6.729   5.174
 1522SOL    HW2 5466   6.295   6.620   5.052
 1523SOL     OW 5467   4.839   4.862   6.773
 1523SOL    HW1 5468   4.912   4.924   6.746
 1523SOL    HW2 5469   4.878   4.787   6.827
 1524SOL     OW 5470   1.395   2.333   2.366
 1524SOL    HW1 5471   1.352   2.419   2.339
 1524SOL    HW2 5472   1.495   2.342   2.360
 1525SOL     OW 5473   6.537   2.220   0.632
 1525SOL    HW1 5474   6.476   2.276   0.690
 1525SOL    HW2 5475   6.626   2.265   0.626
 1526SOL     OW 5476   0.417   6.622   0.166
 1526SOL    HW1 5477   0.414   6.603   0.067
 1526SOL    HW2 5478   0.345   6.687   0.190
 1527SOL     OW 5479   3.682   1.148   5.484
 1527SOL    HW1 5480   3.611   1.149   5.415
 1527SOL    HW2 5481   3.771   1.129   5.441
 1528SOL     OW 5482   5.081   5.990   2.446
 1528SOL    HW1 5483   5.173   6.011   2.478
 1528SOL    HW2 5484   5.053   6.058   2.378
 1529SOL     OW 5485   4.044   0.181   0.521
 1529SOL    HW1 5486   3.953   0.194   0.481
 1529SOL    HW2 5487   4.034   0.136   0.610
 1530SOL     OW 5488   3.420   1.370   2.444
 1530SOL    HW1 5489   3.508   1.370   2.397
 1530SOL    HW2 5490   3.433   1.399   2.539
 1531SOL     OW 5491   5.123   1.157   4.680
 1531SOL    HW1 5492   5.105   1.128   4.774
 1531SOL    HW2 5493   5.128   1.257   4.676
 1532SOL     OW 5494   2.667   3.777   5.862
 1532SOL    HW1 5495   2.765   3.768   5.845
 1532SOL    HW2 5496   2.642   3.874   5.858
 1533SOL     OW 5497   6.689   3.249   0.425
 1533SOL    HW1 5498   6.618   3.280   0.488
 1533SOL    HW2 5499   6.656   3.169   0.374
 1534SOL     OW 5500   1.553   4.938   6.259
 1534SOL    HW1 5501   1.540   4.848   6.301
 1534SOL    HW2 5502   1.566   4.927   6.161
 1535SOL     OW 5503   4.959   6.575   4.259
 1535SOL    HW1 5504   4.986   6.657   4.207
 1535SOL    HW2 5505   4.946   6.600   4.355
 1536SOL     OW 5506   4.326   4.332   5.360
 1536SOL    HW1 5507   4.410   4.285   5.385
 1536SOL    HW2 5508   4.340   4.385   5.276
 1537SOL     OW 5509   3.916   6.112   3.412
 1537SOL    HW1 5510   3.904   6.166   3.495
 1537SOL    HW2 5511   3.924   6.015   3.437
 1538SOL     OW 5512   3.867   6.438   5.188
 1538SOL    HW1 5513   3.888   6.514   5.127
 1538SOL    HW2 5514   3.840   6.473   5.278
 1539SOL     OW 5515   4.317   3.656   1.575
 1539SOL    HW1 5516   4.389   3.696   1.631
 1539SOL    HW2 5517   4.282   3.725   1.511
 1540SOL     OW 5518   1.860   6.135   6.357
 1540SOL    HW1 5519   1.826   6.222   6.320
 1540SOL    HW2 5520   1.879   6.072   6.282
 1541SOL     OW 5521   3.528   2.857   2.317
 1541SOL    HW1 5522   3.627   2.846   2.318
 1541SOL    HW2 5523   3.493   2.862   2.410
 1542SOL     OW 5524   6.604   5.839   1.777
 1542SOL    HW1 5525   6.658   5.793   1.846
 1542SOL    HW2 5526   6.604   5.938   1.794
 1543SOL     OW 5527   3.449   4.010   4.958
 1543SOL    HW1 5528   3.450   3.979   4.863
 1543SOL    HW2 5529   3.506   4.091   4.967
 1544SOL     OW 5530   3.449   3.841   2.936
 1544SOL    HW1 5531   3.464   3.926   2.988
 1544SOL    HW2 5532   3.430   3.766   2.999
 1545SOL     OW 5533   5.363   0.902   3.971
 1545SOL    HW1 5534   5.272   0.913   4.012
 1545SOL    HW2 5535   5.425   0.969   4.011
 1546SOL     OW 5536   4.469   6.885   5.686
 1546SOL    HW1 5537   4.380   6.880   5.731
 1546SOL    HW2 5538   4.531   6.943   5.740
 1547SOL     OW 5539   1.573   3.570   3.153
 1547SOL    HW1 5540   1.613   3.550   3.063
 1547SOL    HW2 5541   1.646   3.586   3.219
 1548SOL     OW 5542   4.714   4.184   5.787
 1548SOL    HW1 5543   4.809   4.156   5.770
 1548SOL    HW2 5544   4.709   4.236   5.872
 1549SOL     OW 5545   3.700   0.911   3.140
 1549SOL    HW1 5546   3.667   0.934   3.049
 1549SOL    HW2 5547   3.753   0.987   3.177
 1550SOL     OW 5548   2.374   4.913   5.969
 1550SOL    HW1 5549   2.473   4.931   5.965
 1550SOL    HW2 5550   2.359   4.814   5.967
 1551SOL     OW 5551   1.863   4.130   6.909
 1551SOL    HW1 5552   1.880   4.156   6.814
 1551SOL    HW2 5553   1.865   4.030   6.917
 1552SOL     OW 5554   0.120   6.997   0.877
 1552SOL    HW1 5555   0.174   6.917   0.850
 1552SOL    HW2 5556   0.094   0.027   0.795
 1553SOL     OW 5557   7.007   0.931   5.876
 1553SOL    HW1 5558   6.987   0.911   5.972
 1553SOL    HW2 5559   6.982   0.852   5.819
 1554SOL     OW 5560   3.710   1.715   3.472
 1554SOL    HW1 5561   3.667   1.711   3.562
 1554SOL    HW2 5562   3.741   1.808   3.453
 1555SOL     OW 5563   5.104   1.785   0.374
 1555SOL    HW1 5564   5.055   1.705   0.405
 1555SOL    HW2 5565   5.132   1.773   0.278
 1556SOL     OW 5566   3.283   1.068   0.722
 1556SOL    HW1 5567   3.283   1.103   0.815
 1556SOL    HW2 5568   3.198   1.095   0.676
 1557SOL     OW 5569   2.513   1.077   6.349
 1557SOL    HW1 5570   2.577   1.140   6.393
 1557SOL    HW2 5571   2.420   1.115   6.353
 1558SOL     OW 5572   5.297   1.359   4.158
 1558SOL    HW1 5573   5.273   1.311   4.242
 1558SOL    HW2 5574   5.373   1.422   4.176
 1559SOL     OW 5575   6.963   2.643   0.264
 1559SOL    HW1 5576   6.928   2.552   0.239
 1559SOL    HW2 5577   0.041   2.640   0.269
 1560SOL     OW 5578   3.068   1.721   5.921
 1560SOL    HW1 5579   3.042   1.786   5.849
 1560SOL    HW2 5580   3.023   1.633   5.904
 1561SOL     OW 5581   0.001   6.160   2.604
 1561SOL    HW1 5582   0.012   6.246   2.552
 1561SOL    HW2 5583   7.017   6.084   2.540
 1562SOL     OW 5584   4.021   6.246   1.622
 1562SOL    HW1 5585   3.971   6.214   1.541
 1562SOL    HW2 5586   3.993   6.192   1.701
 1563SOL     OW 5587   2.297   0.789   6.085
 1563SOL    HW1 5588   2.245   0.860   6.038
 1563SOL    HW2 5589   2.267   0.783   6.181
 1564SOL     OW 5590   0.988   2.547   2.588
 1564SOL    HW1 5591   1.088   2.544   2.587
 1564SOL    HW2 5592   0.957   2.616   2.654
 1565SOL     OW 5593   4.376   5.175   3.895
 1565SOL    HW1 5594   4.463   5.221   3.914
 1565SOL    HW2 5595   4.300   5.231   3.928
 1566SOL     OW 5596   5.555   5.009   4.321
 1566SOL    HW1 5597   5.473   5.066   4.318
 1566SOL    HW2 5598   5.621   5.042   4.254
 1567SOL     OW 5599   6.351   6.074   0.236
 1567SOL    HW1 5600   6.442   6.035   0.250
 1567SOL    HW2 5601   6.282   6.006   0.261
 1568SOL     OW 5602   2.450   5.834   1.461
 1568SOL    HW1 5603   2.419   5.791   1.546
 1568SOL    HW2 5604   2.389   5.910   1.438
 1569SOL     OW 5605   2.826   6.765   3.721
 1569SOL    HW1 5606   2.851   6.682   3.672
 1569SOL    HW2 5607   2.782   6.829   3.659
 1570SOL     OW 5608   2.426   6.737   0.698
 1570SOL    HW1 5609   2.470   6.655   0.663
 1570SOL    HW2 5610   2.328   6.735   0.677
 1571SOL     OW 5611   6.059   1.495   2.743
 1571SOL    HW1 5612   6.001   1.576   2.748
 1571SOL    HW2 5613   6.135   1.513   2.680
 1572SOL     OW 5614   1.391   5.671   0.523
 1572SOL    HW1 5615   1.466   5.611   0.549
 1572SOL    HW2 5616   1.312   5.615   0.497
 1573SOL     OW 5617   6.357   3.621   1.919
 1573SOL    HW1 5618   6.262   3.624   1.950
 1573SOL    HW2 5619   6.416   3.591   1.994
 1574SOL     OW 5620   6.711   1.123   3.519
 1574SOL    HW1 5621   6.638   1.106   3.453
 1574SOL    HW2 5622   6.693   1.210   3.566
 1575SOL     OW 5623   2.148   2.490   1.349
 1575SOL    HW1 5624   2.087   2.520   1.423
 1575SOL    HW2 5625   2.152   2.390   1.349
 1576SOL     OW 5626   0.875   0.554   2.591
 1576SOL    HW1 5627   0.957   0.522   2.543
 1576SOL    HW2 5628   0.888   0.650   2.617
 1577SOL     OW 5629   2.666   0.344   5.732
 1577SOL    HW1 5630   2.643   0.255   5.771
 1577SOL    HW2 5631   2.583   0.390   5.702
 1578SOL     OW 5632   5.282   2.541   5.883
 1578SOL    HW1 5633   5.347   2.618   5.884
 1578SOL    HW2 5634   5.191   2.575   5.905
 1579SOL     OW 5635   0.251   1.878   2.008
 1579SOL    HW1 5636   0.299   1.965   2.013
 1579SOL    HW2 5637   0.318   1.804   1.991
 1580SOL     OW 5638   3.295   4.004   4.060
 1580SOL    HW1 5639   3.318   3.908   4.074
 1580SOL    HW2 5640   3.313   4.056   4.143
 1581SOL     OW 5641   6.341   4.489   4.697
 1581SOL    HW1 5642   6.388   4.456   4.615
 1581SOL    HW2 5643   6.268   4.552   4.670
 1582SOL     OW 5644   2.045   0.045   4.013
 1582SOL    HW1 5645   2.017   0.079   3.923
 1582SOL    HW2 5646   2.140   0.013   4.008
 1583SOL     OW 5647   1.068   5.267   2.558
 1583SOL    HW1 5648   1.039   5.330   2.486
 1583SOL    HW2 5649   1.027   5.294   2.645
 1584SOL     OW 5650   0.601   6.135   6.389
 1584SOL    HW1 5651   0.628   6.217   6.339
 1584SOL    HW2 5652   0.608   6.151   6.488
 1585SOL     OW 5653   4.427   1.995   3.394
 1585SOL    HW1 5654   4.350   1.932   3.392
 1585SOL    HW2 5655   4.513   1.944   3.397
 1586SOL     OW 5656   3.212   4.941   2.043
 1586SOL    HW1 5657   3.251   4.929   2.134
 1586SOL    HW2 5658   3.284   4.971   1.980
 1587SOL     OW 5659   2.856   5.959   6.042
 1587SOL    HW1 5660   2.881   5.926   5.950
 1587SOL    HW2 5661   2.852   5.881   6.104
 1588SOL     OW 5662   3.636   1.055   2.928
 1588SOL    HW1 5663   3.577   1.136   2.937
 1588SOL    HW2 5664   3.731   1.085   2.920
 1589SOL     OW 5665   6.962   3.074   2.116
 1589SOL    HW1 5666   6.928   3.041   2.028
 1589SOL    HW2 5667   6.885   3.086   2.179
 1590SOL     OW 5668   4.051   0.415   4.888
 1590SOL    HW1 5669   4.037   0.473   4.808
 1590SOL    HW2 5670   4.070   0.474   4.967
 1591SOL     OW 5671   0.122   5.340   1.862
 1591SOL    HW1 5672   0.058   5.292   1.802
 1591SOL    HW2 5673   0.207   5.357   1.812
 1592SOL     OW 5674   2.171   3.616   0.003
 1592SOL    HW1 5675   2.133   3.620   6.933
 1592SOL    HW2 5676   2.133   3.538   0.052
 1593SOL     OW 5677   1.027   6.377   5.431
 1593SOL    HW1 5678   0.952   6.333   5.480
 1593SOL    HW2 5679   0.990   6.436   5.359
 1594SOL     OW 5680   0.846   6.197   1.699
 1594SOL    HW1 5681   0.911   6.261   1.656
 1594SOL    HW2 5682   0.815   6.131   1.630
 1595SOL     OW 5683   1.972   4.876   0.426
 1595SOL    HW1 5684   2.038   4.951   0.428
 1595SOL    HW2 5685   1.927   4.869   0.515
 1596SOL     OW 5686   0.099   2.327   4.034
 1596SOL    HW1 5687   0.102   2.359   4.128
 1596SOL    HW2 5688   0.191   2.328   3.995
 1597SOL     OW 5689   1.226   6.662   0.224
 1597SOL    HW1 5690   1.130   6.658   0.249
 1597SOL    HW2 5691   1.242   6.606   0.143
 1598SOL     OW 5692   0.046   4.581   5.563
 1598SOL    HW1 5693   0.124   4.581   5.624
 1598SOL    HW2 5694   7.010   4.660   5.583
 1599SOL     OW 5695   4.535   5.295   4.440
 1599SOL    HW1 5696   4.512   5.313   4.536
 1599SOL    HW2 5697   4.563   5.200   4.429
 1600SOL     OW 5698   3.547   1.190   3.246
 1600SOL    HW1 5699   3.644   1.169   3.259
 1600SOL    HW2 5700   3.492   1.110   3.271
 1601SOL     OW 5701   6.571   5.846   4.444
 1601SOL    HW1 5702   6.658   5.879   4.406
 1601SOL    HW2 5703   6.558   5.884   4.535
 1602SOL     OW 5704   4.147   5.709   4.005
 1602SOL    HW1 5705   4.126   5.617   4.039
 1602SOL    HW2 5706   4.202   5.702   3.922
 1603SOL     OW 5707   1.664   6.253   3.231
 1603SOL    HW1 5708   1.714   6.262   3.145
 1603SOL    HW2 5709   1.721   6.208   3.299
 1604SOL     OW 5710   5.321   4.254   1.102
 1604SOL    HW1 5711   5.370   4.183   1.152
 1604SOL    HW2 5712   5.292   4.219   1.013
 1605SOL     OW 5713   6.543   5.113   1.384
 1605SOL    HW1 5714   6.455   5.100   1.429
 1605SOL    HW2 5715   6.587   5.024   1.369
 1606SOL     OW 5716   4.036   0.117   5.396
 1606SOL    HW1 5717   4.071   0.171   5.473
 1606SOL    HW2 5718   4.109   0.104   5.329
 1607SOL     OW 5719   4.282   1.541   0.997
 1607SOL    HW1 5720   4.260   1.624   0.945
 1607SOL    HW2 5721   4.198   1.499   1.031
 1608SOL     OW 5722   0.882   1.250   3.602
 1608SOL    HW1 5723   0.787   1.229   3.626
 1608SOL    HW2 5724   0.941   1.177   3.634
 1609SOL     OW 5725   4.500   0.012   0.089
 1609SOL    HW1 5726   4.485   0.074   0.166
 1609SOL    HW2 5727   4.413   7.016   0.043
 1610SOL     OW 5728   6.248   4.530   6.626
 1610SOL    HW1 5729   6.231   4.495   6.718
 1610SOL    HW2 5730   6.187   4.485   6.561
 1611SOL     OW 5731   2.851   3.902   0.804
 1611SOL    HW1 5732   2.827   3.904   0.707
 1611SOL    HW2 5733   2.902   3.818   0.824
 1612SOL     OW 5734   2.634   0.162   6.984
 1612SOL    HW1 5735   2.723   0.205   7.002
 1612SOL    HW2 5736   2.647   0.078   6.932
 1613SOL     OW 5737   1.190   5.726   2.114
 1613SOL    HW1 5738   1.173   5.646   2.057
 1613SOL    HW2 5739   1.162   5.808   2.066
 1614SOL     OW 5740   4.966   3.149   6.723
 1614SOL    HW1 5741   5.060   3.118   6.735
 1614SOL    HW2 5742   4.906   3.070   6.714
 1615SOL     OW 5743   5.994   5.780   0.654
 1615SOL    HW1 5744   5.989   5.681   0.642
 1615SOL    HW2 5745   5.940   5.825   0.582
 1616SOL     OW 5746   3.283   1.313   5.324
 1616SOL    HW1 5747   3.262   1.311   5.226
 1616SOL    HW2 5748   3.210   1.360   5.373
 1617SOL     OW 5749   5.711   6.487   2.700
 1617SOL    HW1 5750   5.733   6.546   2.777
 1617SOL    HW2 5751   5.740   6.532   2.615
 1618SOL     OW 5752   1.366   5.463   2.299
 1618SOL    HW1 5753   1.364   5.562   2.308
 1618SOL    HW2 5754   1.296   5.434   2.233
 1619SOL     OW 5755   1.000   4.032   1.642
 1619SOL    HW1 5756   0.928   4.099   1.624
 1619SOL    HW2 5757   1.003   3.966   1.568
 1620SOL     OW 5758   2.804   4.722   1.707
 1620SOL    HW1 5759   2.766   4.777   1.782
 1620SOL    HW2 5760   2.861   4.649   1.745
 1621SOL     OW 5761   6.808   1.025   0.804
 1621SOL    HW1 5762   6.758   1.034   0.718
 1621SOL    HW2 5763   6.767   0.952   0.859
 1622SOL     OW 5764   0.450   3.083   4.836
 1622SOL    HW1 5765   0.383   3.008   4.845
 1622SOL    HW2 5766   0.499   3.094   4.922
 1623SOL     OW 5767   2.313   2.937   4.807
 1623SOL    HW1 5768   2.234   2.877   4.812
 1623SOL    HW2 5769   2.338   2.968   4.899
 1624SOL     OW 5770   2.923   1.214   5.394
 1624SOL    HW1 5771   2.943   1.312   5.383
 1624SOL    HW2 5772   2.825   1.199   5.379
 1625SOL     OW 5773   1.574   5.192   0.234
 1625SOL    HW1 5774   1.672   5.200   0.253
 1625SOL    HW2 5775   1.526   5.159   0.315
 1626SOL     OW 5776   4.456   1.472   6.808
 1626SOL    HW1 5777   4.480   1.427   6.722
 1626SOL    HW2 5778   4.509   1.556   6.819
 1627SOL     OW 5779   6.371   3.023   3.492
 1627SOL    HW1 5780   6.423   3.099   3.532
 1627SOL    HW2 5781   6.274   3.046   3.493
 1628SOL     OW 5782   4.867   4.619   6.963
 1628SOL    HW1 5783   4.827   4.577   0.022
 1628SOL    HW2 5784   4.961   4.585   6.950
 1629SOL     OW 5785   3.047   0.667   3.905
 1629SOL    HW1 5786   3.116   0.688   3.835
 1629SOL    HW2 5787   3.090   0.613   3.978
 1630SOL     OW 5788   1.482   4.548   5.620
 1630SOL    HW1 5789   1.399   4.525   5.671
 1630SOL    HW2 5790   1.471   4.637   5.577
 1631SOL     OW 5791   1.101   2.825   0.365
 1631SOL    HW1 5792   1.196   2.845   0.342
 1631SOL    HW2 5793   1.041   2.861   0.293
 1632SOL     OW 5794   5.884   2.469   0.576
 1632SOL    HW1 5795   5.886   2.543   0.643
 1632SOL    HW2 5796   5.978   2.440   0.556
 1633SOL     OW 5797   5.751   4.026   4.294
 1633SOL    HW1 5798   5.736   3.936   4.333
 1633SOL    HW2 5799   5.664   4.072   4.279
 1634SOL     OW 5800   3.977   5.737   4.790
 1634SOL    HW1 5801   4.068   5.740   4.748
 1634SOL    HW2 5802   3.920   5.671   4.742
 1635SOL     OW 5803   0.053   4.880   6.999
 1635SOL    HW1 5804   7.005   4.918   6.940
 1635SOL    HW2 5805   0.041   4.913   0.070
 1636SOL     OW 5806   2.707   4.357   1.701
 1636SOL    HW1 5807   2.675   4.411   1.623
 1636SOL    HW2 5808   2.789   4.399   1.739
 1637SOL     OW 5809   0.591   0.575   2.876
 1637SOL    HW1 5810   0.574   0.546   2.970
 1637SOL    HW2 5811   0.529   0.649   2.852
 1638SOL     OW 5812   6.557   4.387   3.914
 1638SOL    HW1 5813   6.542   4.358   4.009
 1638SOL    HW2 5814   6.523   4.481   3.903
 1639SOL     OW 5815   5.003   7.019   2.242
 1639SOL    HW1 5816   5.029   6.999   2.147
 1639SOL    HW2 5817   4.993   0.096   2.253
 1640SOL     OW 5818   6.194   0.576   0.318
 1640SOL    HW1 5819   6.210   0.549   0.223
 1640SOL    HW2 5820   6.275   0.621   0.354
 1641SOL     OW 5821   4.553   1.789   3.079
 1641SOL    HW1 5822   4.642   1.746   3.091
 1641SOL    HW2 5823   4.555   1.882   3.116
 1642SOL     OW 5824   6.262   3.631   6.459
 1642SOL    HW1 5825   6.253   3.727   6.487
 1642SOL    HW2 5826   6.172   3.588   6.456
 1643SOL     OW 5827   2.888   4.784   4.702
 1643SOL    HW1 5828   2.845   4.697   4.727
 1643SOL    HW2 5829   2.818   4.854   4.692
 1644SOL     OW 5830   6.088   3.636   0.271
 1644SOL    HW1 5831   6.165   3.601   0.323
 1644SOL    HW2 5832   6.016   3.567   0.266
 1645SOL     OW 5833   3.383   4.622   6.313
 1645SOL    HW1 5834   3.395   4.548   6.247
 1645SOL    HW2 5835   3.470   4.641   6.358
 1646SOL     OW 5836   2.895   6.559   0.079
 1646SOL    HW1 5837   2.988   6.585   0.103
 1646SOL    HW2 5838   2.840   6.641   0.064
 1647SOL     OW 5839   5.837   3.074   4.880
 1647SOL    HW1 5840   5.934   3.094   4.883
 1647SOL    HW2 5841   5.812   3.013   4.956
 1648SOL     OW 5842   5.279   5.920   0.766
 1648SOL    HW1 5843   5.300   5.964   0.853
 1648SOL    HW2 5844   5.182   5.895   0.764
 1649SOL     OW 5845   3.379   1.248   4.204
 1649SOL    HW1 5846   3.456   1.188   4.223
 1649SOL    HW2 5847   3.318   1.249   4.284
 1650SOL     OW 5848   1.844   6.285   5.949
 1650SOL    HW1 5849   1.905   6.271   6.027
 1650SOL    HW2 5850   1.834   6.199   5.899
 1651SOL     OW 5851   0.823   1.625   1.790
 1651SOL    HW1 5852   0.911   1.580   1.775
 1651SOL    HW2 5853   0.827   1.682   1.872
 1652SOL     OW 5854   1.282   3.486   2.034
 1652SOL    HW1 5855   1.182   3.480   2.040
 1652SOL    HW2 5856   1.319   3.511   2.123
 1653SOL     OW 5857   0.351   6.518   0.908
 1653SOL    HW1 5858   0.385   6.464   0.830
 1653SOL    HW2 5859   0.346   6.614   0.881
 1654SOL     OW 5860   0.633   3.807   1.709
 1654SOL    HW1 5861   0.677   3.774   1.793
 1654SOL    HW2 5862   0.651   3.905   1.699
 1655SOL     OW 5863   0.801   2.024   5.051
 1655SOL    HW1 5864   0.871   2.091   5.024
 1655SOL    HW2 5865   0.743   2.064   5.122
 1656SOL     OW 5866   2.347   4.445   2.609
 1656SOL    HW1 5867   2.401   4.519   2.569
 1656SOL    HW2 5868   2.280   4.483   2.673
 1657SOL     OW 5869   0.288   1.172   3.917
 1657SOL    HW1 5870   0.327   1.245   3.973
 1657SOL    HW2 5871   0.213   1.128   3.967
 1658SOL     OW 5872   0.151   6.142   1.034
 1658SOL    HW1 5873   0.121   6.209   0.966
 1658SOL    HW2 5874   0.218   6.184   1.095
 1659SOL     OW 5875   3.771   7.011   6.470
 1659SOL    HW1 5876   3.862   7.017   6.428
 1659SOL    HW2 5877   3.724   6.929   6.436
 1660SOL     OW 5878   1.291   5.291   3.809
 1660SOL    HW1 5879   1.290   5.211   3.749
 1660SOL    HW2 5880   1.213   5.349   3.789
 1661SOL     OW 5881   2.585   0.070   1.111
 1661SOL    HW1 5882   2.515   0.141   1.099
 1661SOL    HW2 5883   2.549   7.019   1.167
 1662SOL     OW 5884   6.587   0.356   4.362
 1662SOL    HW1 5885   6.559   0.275   4.414
 1662SOL    HW2 5886   6.552   0.438   4.407
 1663SOL     OW 5887   4.773   6.285   3.071
 1663SOL    HW1 5888   4.836   6.260   2.998
 1663SOL    HW2 5889   4.752   6.203   3.125
 1664SOL     OW 5890   2.155   6.943   4.789
 1664SOL    HW1 5891   2.113   6.868   4.738
 1664SOL    HW2 5892   2.186   7.014   4.725
 1665SOL     OW 5893   0.226   2.384   2.996
 1665SOL    HW1 5894   0.224   2.468   2.942
 1665SOL    HW2 5895   0.150   2.384   3.061
 1666SOL     OW 5896   5.773   2.101   6.927
 1666SOL    HW1 5897   5.719   2.031   6.975
 1666SOL    HW2 5898   5.717   2.183   6.915
 1667SOL     OW 5899   6.677   5.921   1.441
 1667SOL    HW1 5900   6.727   5.834   1.437
 1667SOL    HW2 5901   6.706   5.980   1.366
 1668SOL     OW 5902   5.417   6.421   4.557
 1668SOL    HW1 5903   5.357   6.352   4.598
 1668SOL    HW2 5904   5.501   6.377   4.526
 1669SOL     OW 5905   6.491   5.285   6.255
 1669SOL    HW1 5906   6.452   5.365   6.302
 1669SOL    HW2 5907   6.419   5.217   6.240
 1670SOL     OW 5908   0.523   4.089   6.123
 1670SOL    HW1 5909   0.615   4.051   6.131
 1670SOL    HW2 5910   0.528   4.189   6.123
 1671SOL     OW 5911   5.835   1.054   2.578
 1671SOL    HW1 5912   5.768   1.015   2.642
 1671SOL    HW2 5913   5.898   1.113   2.628
 1672SOL     OW 5914   1.706   2.662   0.722
 1672SOL    HW1 5915   1.698   2.761   0.713
 1672SOL    HW2 5916   1.724   2.638   0.817
 1673SOL     OW 5917   1.457   1.614   4.592
 1673SOL    HW1 5918   1.416   1.604   4.501
 1673SOL    HW2 5919   1.397   1.572   4.660
 1674SOL     OW 5920   0.761   3.153   2.106
 1674SOL    HW1 5921   0.697   3.178   2.032
 1674SOL    HW2 5922   0.854   3.177   2.079
 1675SOL     OW 5923   5.558   0.143   0.643
 1675SOL    HW1 5924   5.480   0.173   0.588
 1675SOL    HW2 5925   5.641   0.142   0.586
 1676SOL     OW 5926   2.439   2.653   2.379
 1676SOL    HW1 5927   2.501   2.730   2.395
 1676SOL    HW2 5928   2.464   2.607   2.294
 1677SOL     OW 5929   3.201   3.506   4.718
 1677SOL    HW1 5930   3.221   3.604   4.709
 1677SOL    HW2 5931   3.116   3.485   4.671
 1678SOL     OW 5932   5.567   4.247   4.174
 1678SOL    HW1 5933   5.489   4.299   4.208
 1678SOL    HW2 5934   5.536   4.160   4.137
 1679SOL     OW 5935   2.256   2.797   4.423
 1679SOL    HW1 5936   2.292   2.766   4.511
 1679SOL    HW2 5937   2.324   2.781   4.352
 1680SOL     OW 5938   0.256   2.907   4.876
 1680SOL    HW1 5939   0.233   2.869   4.965
 1680SOL    HW2 5940   0.180   2.961   4.841
 1681SOL     OW 5941   6.988   5.533   0.127
 1681SOL    HW1 5942   0.034   5.528   0.054
 1681SOL    HW2 5943   6.937   5.619   0.120
 1682SOL     OW 5944   1.612   1.345   4.612
 1682SOL    HW1 5945   1.549   1.417   4.587
 1682SOL    HW2 5946   1.706   1.379   4.605
 1683SOL     OW 5947   5.018   5.375   1.504
 1683SOL    HW1 5948   5.010   5.279   1.476
 1683SOL    HW2 5949   5.020   5.434   1.423
 1684SOL     OW 5950   0.899   5.781   2.390
 1684SOL    HW1 5951   0.800   5.771   2.402
 1684SOL    HW2 5952   0.920   5.875   2.364
 1685SOL     OW 5953   2.538   1.056   4.265
 1685SOL    HW1 5954   2.575   1.142   4.231
 1685SOL    HW2 5955   2.439   1.054   4.254
 1686SOL     OW 5956   2.858   6.219   4.547
 1686SOL    HW1 5957   2.880   6.179   4.636
 1686SOL    HW2 5958   2.815   6.149   4.489
 1687SOL     OW 5959   1.977   3.474   1.496
 1687SOL    HW1 5960   2.043   3.473   1.572
 1687SOL    HW2 5961   1.899   3.417   1.519
 1688SOL     OW 5962   2.300   2.804   4.051
 1688SOL    HW1 5963   2.354   2.755   4.119
 1688SOL    HW2 5964   2.274   2.741   3.977
 1689SOL     OW 5965   6.172   1.514   2.993
 1689SOL    HW1 5966   6.130   1.598   3.027
 1689SOL    HW2 5967   6.144   1.499   2.898
 1690SOL     OW 5968   1.872   2.512   3.905
 1690SOL    HW1 5969   1.940   2.465   3.849
 1690SOL    HW2 5970   1.826   2.446   3.964
 1691SOL     OW 5971   6.122   3.777   3.487
 1691SOL    HW1 5972   6.026   3.760   3.463
 1691SOL    HW2 5973   6.143   3.873   3.471
 1692SOL     OW 5974   5.384   6.494   1.696
 1692SOL    HW1 5975   5.331   6.486   1.780
 1692SOL    HW2 5976   5.328   6.534   1.624
 1693SOL     OW 5977   6.959   2.234   1.914
 1693SOL    HW1 5978   0.008   2.186   1.862
 1693SOL    HW2 5979   6.902   2.167   1.961
 1694SOL     OW 5980   5.864   0.798   2.244
 1694SOL    HW1 5981   5.900   0.879   2.290
 1694SOL    HW2 5982   5.775   0.818   2.204
 1695SOL     OW 5983   3.854   0.867   5.523
 1695SOL    HW1 5984   3.891   0.941   5.467
 1695SOL    HW2 5985   3.928   0.825   5.576
 1696SOL     OW 5986   4.164   4.969   0.732
 1696SOL    HW1 5987   4.200   4.876   0.741
 1696SOL    HW2 5988   4.238   5.030   0.701
 1697SOL     OW 5989   5.856   0.903   0.840
 1697SOL    HW1 5990   5.827   0.808   0.846
 1697SOL    HW2 5991   5.810   0.957   0.911
 1698SOL     OW 5992   3.766   0.505   6.984
 1698SOL    HW1 5993   3.705   0.481   6.909
 1698SOL    HW2 5994   3.861   0.487   6.957
 1699SOL     OW 5995   2.213   0.814   0.587
 1699SOL    HW1 5996   2.252   0.876   0.655
 1699SOL    HW2 5997   2.194   0.725   0.629
 1700SOL     OW 5998   6.109   3.154   3.994
 1700SOL    HW1 5999   6.094   3.140   4.092
 1700SOL    HW2 6000   6.149   3.244   3.979
 1701SOL     OW 6001   4.691   4.304   6.374
 1701SOL    HW1 6002   4.684   4.377   6.306
 1701SOL    HW2 6003   4.620   4.315   6.443
 1702SOL     OW 6004   6.293   1.806   0.501
 1702SOL    HW1 6005   6.318   1.777   0.593
 1702SOL    HW2 6006   6.196   1.790   0.486
 1703SOL     OW 6007   2.873   2.627   1.674
 1703SOL    HW1 6008   2.903   2.581   1.757
 1703SOL    HW2 6009   2.797   2.576   1.633
 1704SOL     OW 6010   1.056   2.308   1.256
 1704SOL    HW1 6011   1.076   2.220   1.211
 1704SOL    HW2 6012   1.007   2.367   1.192
 1705SOL     OW 6013   3.088   1.431   2.120
 1705SOL    HW1 6014   3.153   1.451   2.194
 1705SOL    HW2 6015   3.009   1.492   2.129
 1706SOL     OW 6016   5.111   1.116   2.343
 1706SOL    HW1 6017   5.140   1.113   2.247
 1706SOL    HW2 6018   5.081   1.209   2.365
 1707SOL     OW 6019   5.065   1.792   2.351
 1707SOL    HW1 6020   5.150   1.743   2.368
 1707SOL    HW2 6021   5.029   1.769   2.261
 1708SOL     OW 6022   5.093   5.511   1.803
 1708SOL    HW1 6023   5.119   5.598   1.761
 1708SOL    HW2 6024   5.049   5.453   1.734
 1709SOL     OW 6025   3.237   6.340   2.650
 1709SOL    HW1 6026   3.300   6.386   2.712
 1709SOL    HW2 6027   3.245   6.241   2.659
 1710SOL     OW 6028   5.426   4.797   3.671
 1710SOL    HW1 6029   5.439   4.815   3.769
 1710SOL    HW2 6030   5.424   4.698   3.655
 1711SOL     OW 6031   1.431   4.327   4.429
 1711SOL    HW1 6032   1.390   4.418   4.440
 1711SOL    HW2 6033   1.528   4.331   4.453
 1712SOL     OW 6034   6.591   2.163   5.265
 1712SOL    HW1 6035   6.522   2.158   5.338
 1712SOL    HW2 6036   6.547   2.150   5.176
 1713SOL     OW 6037   4.143   2.713   1.344
 1713SOL    HW1 6038   4.166   2.629   1.393
 1713SOL    HW2 6039   4.104   2.690   1.254
 1714SOL     OW 6040   3.768   1.408   5.597
 1714SOL    HW1 6041   3.754   1.318   5.554
 1714SOL    HW2 6042   3.698   1.421   5.667
 1715SOL     OW 6043   0.432   5.254   3.610
 1715SOL    HW1 6044   0.503   5.259   3.540
 1715SOL    HW2 6045   0.342   5.253   3.565
 1716SOL     OW 6046   5.173   6.914   3.220
 1716SOL    HW1 6047   5.164   7.010   3.194
 1716SOL    HW2 6048   5.094   6.888   3.277
 1717SOL     OW 6049   2.590   6.324   5.723
 1717SOL    HW1 6050   2.676   6.346   5.768
 1717SOL    HW2 6051   2.514   6.362   5.776
 1718SOL     OW 6052   2.371   1.532   1.187
 1718SOL    HW1 6053   2.352   1.467   1.260
 1718SOL    HW2 6054   2.448   1.590   1.213
 1719SOL     OW 6055   1.722   3.468   0.914
 1719SOL    HW1 6056   1.809   3.432   0.879
 1719SOL    HW2 6057   1.700   3.424   1.001
 1720SOL     OW 6058   6.929   3.248   0.282
 1720SOL    HW1 6059   6.951   3.333   0.234
 1720SOL    HW2 6060   6.843   3.258   0.331
 1721SOL     OW 6061   1.724   6.659   1.320
 1721SOL    HW1 6062   1.772   6.576   1.345
 1721SOL    HW2 6063   1.676   6.697   1.399
 1722SOL     OW 6064   3.352   1.303   3.734
 1722SOL    HW1 6065   3.334   1.385   3.789
 1722SOL    HW2 6066   3.335   1.221   3.789
 1723SOL     OW 6067   6.007   2.060   2.181
 1723SOL    HW1 6068   5.994   2.149   2.138
 1723SOL    HW2 6069   5.918   2.018   2.197
 1724SOL     OW 6070   6.828   2.564   1.379
 1724SOL    HW1 6071   6.920   2.543   1.347
 1724SOL    HW2 6072   6.820   2.663   1.393
 1725SOL     OW 6073   1.999   5.327   6.416
 1725SOL    HW1 6074   2.074   5.261   6.416
 1725SOL    HW2 6075   2.013   5.395   6.344
 1726SOL     OW 6076   5.936   4.694   4.882
 1726SOL    HW1 6077   5.897   4.658   4.966
 1726SOL    HW2 6078   5.928   4.794   4.882
 1727SOL     OW 6079   3.284   2.921   4.256
 1727SOL    HW1 6080   3.292   3.021   4.261
 1727SOL    HW2 6081   3.226   2.896   4.178
 1728SOL     OW 6082   4.995   4.759   4.931
 1728SOL    HW1 6083   4.959   4.677   4.976
 1728SOL    HW2 6084   4.938   4.838   4.955
 1729SOL     OW 6085   1.897   4.358   2.947
 1729SOL    HW1 6086   1.814   4.412   2.933
 1729SOL    HW2 6087   1.944   4.345   2.860
 1730SOL     OW 6088   1.071   6.620   5.863
 1730SOL    HW1 6089   1.069   6.534   5.914
 1730SOL    HW2 6090   1.165   6.654   5.859
 1731SOL     OW 6091   6.914   4.033   3.488
 1731SOL    HW1 6092   6.949   4.083   3.409
 1731SOL    HW2 6093   6.985   4.028   3.558
 1732SOL     OW 6094   2.754   5.096   5.185
 1732SOL    HW1 6095   2.819   5.100   5.261
 1732SOL    HW2 6096   2.776   5.017   5.127
 1733SOL     OW 6097   2.131   4.734   1.981
 1733SOL    HW1 6098   2.085   4.815   2.016
 1733SOL    HW2 6099   2.114   4.725   1.883
 1734SOL     OW 6100   4.400   3.176   1.215
 1734SOL    HW1 6101   4.410   3.245   1.287
 1734SOL    HW2 6102   4.337   3.105   1.246
 1735SOL     OW 6103   4.914   5.866   0.404
 1735SOL    HW1 6104   4.831   5.863   0.460
 1735SOL    HW2 6105   4.893   5.906   0.315
 1736SOL     OW 6106   3.569   3.685   0.516
 1736SOL    HW1 6107   3.646   3.625   0.536
 1736SOL    HW2 6108   3.591   3.778   0.545
 1737SOL     OW 6109   3.205   1.253   4.438
 1737SOL    HW1 6110   3.216   1.334   4.495
 1737SOL    HW2 6111   3.178   1.175   4.494
 1738SOL     OW 6112   1.762   2.747   4.226
 1738SOL    HW1 6113   1.672   2.719   4.258
 1738SOL    HW2 6114   1.790   2.831   4.274
 1739SOL     OW 6115   0.410   2.033   5.379
 1739SOL    HW1 6116   0.425   2.073   5.470
 1739SOL    HW2 6117   0.418   1.934   5.385
 1740SOL     OW 6118   0.070   1.985   5.638
 1740SOL    HW1 6119   0.080   1.889   5.664
 1740SOL    HW2 6120   0.036   1.991   5.544
 1741SOL     OW 6121   2.026   0.392   3.394
 1741SOL    HW1 6122   1.930   0.380   3.416
 1741SOL    HW2 6123   2.082   0.370   3.474
 1742SOL     OW 6124   5.750   0.595   6.567
 1742SOL    HW1 6125   5.812   0.523   6.599
 1742SOL    HW2 6126   5.660   0.582   6.608
 1743SOL     OW 6127   0.973   2.029   1.626
 1743SOL    HW1 6128   0.921   2.013   1.710
 1743SOL    HW2 6129   0.959   2.124   1.596
 1744SOL     OW 6130   6.642   2.158   2.436
 1744SOL    HW1 6131   6.608   2.250   2.450
 1744SOL    HW2 6132   6.575   2.104   2.386
 1745SOL     OW 6133   5.619   5.844   2.280
 1745SOL    HW1 6134   5.580   5.754   2.263
 1745SOL    HW2 6135   5.589   5.907   2.208
 1746SOL     OW 6136   1.301   3.689   4.491
 1746SOL    HW1 6137   1.350   3.631   4.556
 1746SOL    HW2 6138   1.360   3.765   4.464
 1747SOL     OW 6139   4.814   1.681   3.033
 1747SOL    HW1 6140   4.887   1.736   3.074
 1747SOL    HW2 6141   4.853   1.597   2.994
 1748SOL     OW 6142   1.390   0.835   5.055
 1748SOL    HW1 6143   1.331   0.755   5.044
 1748SOL    HW2 6144   1.342   0.917   5.024
 1749SOL     OW 6145   2.623   0.623   4.745
 1749SOL    HW1 6146   2.697   0.575   4.698
 1749SOL    HW2 6147   2.536   0.579   4.724
 1750SOL     OW 6148   5.194   6.263   3.951
 1750SOL    HW1 6149   5.270   6.199   3.959
 1750SOL    HW2 6150   5.172   6.300   4.042
 1751SOL     OW 6151   3.974   6.512   4.250
 1751SOL    HW1 6152   3.939   6.424   4.279
 1751SOL    HW2 6153   4.043   6.498   4.179
 1752SOL     OW 6154   6.471   1.984   1.917
 1752SOL    HW1 6155   6.398   1.916   1.926
 1752SOL    HW2 6156   6.449   2.046   1.843
 1753SOL     OW 6157   6.707   1.048   1.118
 1753SOL    HW1 6158   6.758   1.058   1.203
 1753SOL    HW2 6159   6.624   1.105   1.122
 1754SOL     OW 6160   1.408   4.536   6.759
 1754SOL    HW1 6161   1.314   4.566   6.775
 1754SOL    HW2 6162   1.408   4.448   6.713
 1755SOL     OW 6163   6.855   6.026   1.807
 1755SOL    HW1 6164   6.885   5.972   1.729
 1755SOL    HW2 6165   6.931   6.034   1.872
 1756SOL     OW 6166   4.308   6.071   6.001
 1756SOL    HW1 6167   4.352   6.037   5.918
 1756SOL    HW2 6168   4.348   6.159   6.027
 1757SOL     OW 6169   2.264   5.166   4.981
 1757SOL    HW1 6170   2.258   5.071   4.950
 1757SOL    HW2 6171   2.348   5.179   5.034
 1758SOL     OW 6172   2.258   0.296   3.904
 1758SOL    HW1 6173   2.327   0.224   3.909
 1758SOL    HW2 6174   2.249   0.340   3.994
 1759SOL     OW 6175   1.626   6.470   5.956
 1759SOL    HW1 6176   1.579   6.471   5.867
 1759SOL    HW2 6177   1.703   6.407   5.951
 1760SOL     OW 6178   5.198   1.420   3.077
 1760SOL    HW1 6179   5.260   1.345   3.098
 1760SOL    HW2 6180   5.104   1.386   3.074
 1761SOL     OW 6181   0.085   0.509   0.764
 1761SOL    HW1 6182   0.058   0.590   0.816
 1761SOL    HW2 6183   0.013   0.440   0.769
 1762SOL     OW 6184   0.165   1.092   4.848
 1762SOL    HW1 6185   0.231   1.126   4.781
 1762SOL    HW2 6186   0.080   1.068   4.802
 1763SOL     OW 6187   1.433   3.758   4.103
 1763SOL    HW1 6188   1.347   3.716   4.073
 1763SOL    HW2 6189   1.436   3.853   4.073
 1764SOL     OW 6190   2.033   3.459   2.441
 1764SOL    HW1 6191   2.049   3.363   2.464
 1764SOL    HW2 6192   1.953   3.492   2.490
 1765SOL     OW 6193   3.838   0.569   0.941
 1765SOL    HW1 6194   3.913   0.625   0.977
 1765SOL    HW2 6195   3.841   0.570   0.841
 1766SOL     OW 6196   5.426   4.346   2.569
 1766SOL    HW1 6197   5.390   4.407   2.498
 1766SOL    HW2 6198   5.381   4.257   2.563
 1767SOL     OW 6199   0.346   3.651   2.603
 1767SOL    HW1 6200   0.427   3.707   2.618
 1767SOL    HW2 6201   0.368   3.555   2.623
 1768SOL     OW 6202   3.947   1.710   6.670
 1768SOL    HW1 6203   3.949   1.724   6.571
 1768SOL    HW2 6204   4.018   1.645   6.696
 1769SOL     OW 6205   4.689   1.777   6.284
 1769SOL    HW1 6206   4.618   1.809   6.346
 1769SOL    HW2 6207   4.719   1.852   6.225
 1770SOL     OW 6208   6.953   4.503   4.463
 1770SOL    HW1 6209   7.014   4.472   4.536
 1770SOL    HW2 6210   6.961   4.441   4.385
 1771SOL     OW 6211   2.260   5.356   0.471
 1771SOL    HW1 6212   2.236   5.453   0.460
 1771SOL    HW2 6213   2.350   5.340   0.429
 1772SOL     OW 6214   3.401   0.009   3.169
 1772SOL    HW1 6215   3.474   6.978   3.214
 1772SOL    HW2 6216   3.345   6.971   3.113
 1773SOL     OW 6217   3.097   3.788   6.415
 1773SOL    HW1 6218   3.067   3.731   6.338
 1773SOL    HW2 6219   3.190   3.821   6.398
 1774SOL     OW 6220   4.472   0.329   1.952
 1774SOL    HW1 6221   4.500   0.282   1.868
 1774SOL    HW2 6222   4.523   0.292   2.029
 1775SOL     OW 6223   1.710   5.020   5.241
 1775SOL    HW1 6224   1.810   5.017   5.236
 1775SOL    HW2 6225   1.680   4.976   5.325
 1776SOL     OW 6226   5.080   1.015   6.136
 1776SOL    HW1 6227   5.097   1.098   6.189
 1776SOL    HW2 6228   5.016   0.957   6.185
 1777SOL     OW 6229   3.177   5.720   5.617
 1777SOL    HW1 6230   3.137   5.772   5.692
 1777SOL    HW2 6231   3.194   5.626   5.647
 1778SOL     OW 6232   4.447   2.171   4.190
 1778SOL    HW1 6233   4.523   2.108   4.181
 1778SOL    HW2 6234   4.481   2.260   4.222
 1779SOL     OW 6235   3.417   1.414   4.893
 1779SOL    HW1 6236   3.332   1.454   4.928
 1779SOL    HW2 6237   3.423   1.318   4.921
 1780SOL     OW 6238   1.983   4.009   6.102
 1780SOL    HW1 6239   1.889   4.009   6.136
 1780SOL    HW2 6240   1.984   4.040   6.007
 1781SOL     OW 6241   5.098   4.714   3.461
 1781SOL    HW1 6242   5.144   4.794   3.500
 1781SOL    HW2 6243   5.028   4.682   3.524
 1782SOL     OW 6244   2.868   1.440   3.462
 1782SOL    HW1 6245   2.904   1.441   3.368
 1782SOL    HW2 6246   2.940   1.469   3.525
 1783SOL     OW 6247   2.313   3.746   6.028
 1783SOL    HW1 6248   2.247   3.755   5.953
 1783SOL    HW2 6249   2.347   3.652   6.032
 1784SOL     OW 6250   2.353   0.974   2.292
 1784SOL    HW1 6251   2.408   0.967   2.209
 1784SOL    HW2 6252   2.409   1.012   2.366
 1785SOL     OW 6253   5.527   5.740   3.726
 1785SOL    HW1 6254   5.540   5.746   3.626
 1785SOL    HW2 6255   5.446   5.792   3.752
 1786SOL     OW 6256   1.158   3.848   0.151
 1786SOL    HW1 6257   1.201   3.843   0.241
 1786SOL    HW2 6258   1.226   3.876   0.083
 1787SOL     OW 6259   2.124   0.782   5.241
 1787SOL    HW1 6260   2.220   0.767   5.214
 1787SOL    HW2 6261   2.109   0.743   5.331
 1788SOL     OW 6262   3.560   4.266   6.807
 1788SOL    HW1 6263   3.572   4.332   6.732
 1788SOL    HW2 6264   3.518   4.313   6.885
 1789SOL     OW 6265   5.910   2.374   2.156
 1789SOL    HW1 6266   5.815   2.345   2.161
 1789SOL    HW2 6267   5.915   2.470   2.131
 1790SOL     OW 6268   3.965   6.766   4.330
 1790SOL    HW1 6269   3.925   6.790   4.418
 1790SOL    HW2 6270   3.963   6.667   4.319
 1791SOL     OW 6271   0.268   1.316   4.295
 1791SOL    HW1 6272   0.283   1.404   4.340
 1791SOL    HW2 6273   0.336   1.302   4.224
 1792SOL     OW 6274   0.911   1.086   4.630
 1792SOL    HW1 6275   0.871   1.133   4.709
 1792SOL    HW2 6276   0.950   0.999   4.658
 1793SOL     OW 6277   6.118   0.584   3.709
 1793SOL    HW1 6278   6.072   0.543   3.630
 1793SOL    HW2 6279   6.157   0.512   3.766
 1794SOL     OW 6280   4.908   6.378   5.962
 1794SOL    HW1 6281   4.919   6.300   6.022
 1794SOL    HW2 6282   4.917   6.349   5.866
 1795SOL     OW 6283   6.231   5.010   1.914
 1795SOL    HW1 6284   6.330   4.997   1.920
 1795SOL    HW2 6285   6.196   5.046   2.001
 1796SOL     OW 6286   2.419   0.712   4.015
 1796SOL    HW1 6287   2.503   0.767   4.014
 1796SOL    HW2 6288   2.341   0.771   4.033
 1797SOL     OW 6289   1.349   6.799   5.968
 1797SOL    HW1 6290   1.336   6.873   5.901
 1797SOL    HW2 6291   1.269   6.796   6.029
 1798SOL     OW 6292   4.804   2.914   5.050
 1798SOL    HW1 6293   4.860   2.919   5.133
 1798SOL    HW2 6294   4.827   2.989   4.989
 1799SOL     OW 6295   5.764   2.423   6.598
 1799SOL    HW1 6296   5.805   2.471   6.520
 1799SOL    HW2 6297   5.739   2.330   6.571
 1800SOL     OW 6298   4.988   4.332   3.704
 1800SOL    HW1 6299   5.013   4.339   3.801
 1800SOL    HW2 6300   5.066   4.359   3.648
 1801SOL     OW 6301   0.876   1.601   2.930
 1801SOL    HW1 6302   0.905   1.506   2.941
 1801SOL    HW2 6303   0.787   1.603   2.883
 1802SOL     OW 6304   6.281   5.869   3.017
 1802SOL    HW1 6305   6.358   5.858   3.080
 1802SOL    HW2 6306   6.201   5.820   3.052
 1803SOL     OW 6307   0.039   6.468   1.588
 1803SOL    HW1 6308   0.095   6.545   1.618
 1803SOL    HW2 6309   6.991   6.449   1.657
 1804SOL     OW 6310   3.434   3.144   5.396
 1804SOL    HW1 6311   3.514   3.155   5.454
 1804SOL    HW2 6312   3.361   3.100   5.448
 1805SOL     OW 6313   0.915   4.383   6.224
 1805SOL    HW1 6314   0.945   4.400   6.130
 1805SOL    HW2 6315   0.994   4.369   6.283
 1806SOL     OW 6316   1.989   2.082   1.605
 1806SOL    HW1 6317   1.960   2.171   1.642
 1806SOL    HW2 6318   2.052   2.038   1.669
 1807SOL     OW 6319   6.078   2.649   6.206
 1807SOL    HW1 6320   6.048   2.676   6.115
 1807SOL    HW2 6321   6.009   2.589   6.248
 1808SOL     OW 6322   5.770   4.459   4.477
 1808SOL    HW1 6323   5.826   4.540   4.465
 1808SOL    HW2 6324   5.816   4.380   4.437
 1809SOL     OW 6325   2.519   2.525   4.785
 1809SOL    HW1 6326   2.575   2.556   4.862
 1809SOL    HW2 6327   2.439   2.476   4.819
 1810SOL     OW 6328   1.491   0.009   5.032
 1810SOL    HW1 6329   1.474   6.967   4.957
 1810SOL    HW2 6330   1.412   0.011   5.092
 1811SOL     OW 6331   4.685   4.738   2.879
 1811SOL    HW1 6332   4.758   4.671   2.869
 1811SOL    HW2 6333   4.718   4.828   2.853
 1812SOL     OW 6334   5.073   6.958   5.915
 1812SOL    HW1 6335   5.161   7.005   5.922
 1812SOL    HW2 6336   5.086   6.861   5.937
 1813SOL     OW 6337   5.007   5.442   1.228
 1813SOL    HW1 6338   4.977   5.347   1.225
 1813SOL    HW2 6339   5.107   5.446   1.225
 1814SOL     OW 6340   6.363   0.430   0.538
 1814SOL    HW1 6341   6.292   0.363   0.557
 1814SOL    HW2 6342   6.340   0.517   0.581
 1815SOL     OW 6343   6.015   0.679   2.796
 1815SOL    HW1 6344   6.076   0.751   2.829
 1815SOL    HW2 6345   6.051   0.640   2.712
 1816SOL     OW 6346   2.885   4.694   0.574
 1816SOL    HW1 6347   2.951   4.671   0.646
 1816SOL    HW2 6348   2.834   4.776   0.601
 1817SOL     OW 6349   3.774   0.056   3.416
 1817SOL    HW1 6350   3.773   0.130   3.483
 1817SOL    HW2 6351   3.694   0.063   3.356
 1818SOL     OW 6352   2.251   6.312   1.284
 1818SOL    HW1 6353   2.313   6.238   1.259
 1818SOL    HW2 6354   2.179   6.320   1.215
 1819SOL     OW 6355   1.069   6.058   1.789
 1819SOL    HW1 6356   1.105   5.981   1.736
 1819SOL    HW2 6357   0.982   6.088   1.749
 1820SOL     OW 6358   3.455   0.548   2.349
 1820SOL    HW1 6359   3.368   0.525   2.304
 1820SOL    HW2 6360   3.530   0.528   2.286
 1821SOL     OW 6361   3.013   0.536   1.197
 1821SOL    HW1 6362   3.083   0.505   1.261
 1821SOL    HW2 6363   3.025   0.634   1.180
 1822SOL     OW 6364   1.115   2.580   1.363
 1822SOL    HW1 6365   1.211   2.602   1.344
 1822SOL    HW2 6366   1.103   2.481   1.362
 1823SOL     OW 6367   3.340   6.035   2.758
 1823SOL    HW1 6368   3.366   5.975   2.682
 1823SOL    HW2 6369   3.420   6.053   2.815
 1824SOL     OW 6370   3.925   3.916   0.672
 1824SOL    HW1 6371   3.828   3.916   0.700
 1824SOL    HW2 6372   3.942   3.838   0.612
 1825SOL     OW 6373   1.366   2.394   5.198
 1825SOL    HW1 6374   1.425   2.315   5.185
 1825SOL    HW2 6375   1.402   2.450   5.273
 1826SOL     OW 6376   3.006   1.886   1.703
 1826SOL    HW1 6377   3.087   1.926   1.659
 1826SOL    HW2 6378   3.010   1.786   1.693
 1827SOL     OW 6379   6.604   5.309   1.235
 1827SOL    HW1 6380   6.588   5.240   1.305
 1827SOL    HW2 6381   6.680   5.280   1.176
 1828SOL     OW 6382   1.710   2.675   0.350
 1828SOL    HW1 6383   1.798   2.632   0.371
 1828SOL    HW2 6384   1.701   2.686   0.251
 1829SOL     OW 6385   3.588   0.643   3.220
 1829SOL    HW1 6386   3.646   0.717   3.186
 1829SOL    HW2 6387   3.596   0.563   3.160
 1830SOL     OW 6388   5.939   5.931   4.656
 1830SOL    HW1 6389   5.845   5.961   4.668
 1830SOL    HW2 6390   5.963   5.865   4.727
 1831SOL     OW 6391   5.585   6.712   1.743
 1831SOL    HW1 6392   5.683   6.727   1.727
 1831SOL    HW2 6393   5.570   6.618   1.771
 1832SOL     OW 6394   4.380   2.379   0.782
 1832SOL    HW1 6395   4.308   2.443   0.755
 1832SOL    HW2 6396   4.469   2.420   0.763
 1833SOL     OW 6397   5.396   0.785   1.511
 1833SOL    HW1 6398   5.451   0.826   1.584
 1833SOL    HW2 6399   5.426   0.691   1.495
 1834SOL     OW 6400   2.461   3.874   0.541
 1834SOL    HW1 6401   2.377   3.851   0.492
 1834SOL    HW2 6402   2.539   3.830   0.497
 1835SOL     OW 6403   0.398   4.612   1.849
 1835SOL    HW1 6404   0.406   4.697   1.797
 1835SOL    HW2 6405   0.366   4.633   1.942
 1836SOL     OW 6406   5.247   2.536   1.296
 1836SOL    HW1 6407   5.160   2.536   1.346
 1836SOL    HW2 6408   5.229   2.523   1.198
 1837SOL     OW 6409   0.687   6.649   5.178
 1837SOL    HW1 6410   0.649   6.620   5.090
 1837SOL    HW2 6411   0.676   6.748   5.188
 1838SOL     OW 6412   6.503   1.255   5.207
 1838SOL    HW1 6413   6.572   1.327   5.202
 1838SOL    HW2 6414   6.416   1.293   5.237
 1839SOL     OW 6415   0.310   1.317   5.549
 1839SOL    HW1 6416   0.347   1.298   5.640
 1839SOL    HW2 6417   0.218   1.279   5.542
 1840SOL     OW 6418   3.931   0.011   1.658
 1840SOL    HW1 6419   3.834   0.024   1.679
 1840SOL    HW2 6420   3.940   6.988   1.570
 1841SOL     OW 6421   2.174   1.093   3.353
 1841SOL    HW1 6422   2.191   1.035   3.273
 1841SOL    HW2 6423   2.129   1.039   3.424
 1842SOL     OW 6424   1.541   5.507   0.262
 1842SOL    HW1 6425   1.559   5.409   0.252
 1842SOL    HW2 6426   1.521   5.547   0.173
 1843SOL     OW 6427   6.276   0.998   4.705
 1843SOL    HW1 6428   6.287   1.033   4.798
 1843SOL    HW2 6429   6.179   0.998   4.681
 1844SOL     OW 6430   3.121   6.477   5.089
 1844SOL    HW1 6431   3.091   6.411   5.021
 1844SOL    HW2 6432   3.201   6.528   5.054
 1845SOL     OW 6433   3.047   6.420   4.601
 1845SOL    HW1 6434   2.966   6.369   4.572
 1845SOL    HW2 6435   3.047   6.510   4.559
 1846SOL     OW 6436   3.781   1.102   2.293
 1846SOL    HW1 6437   3.869   1.126   2.333
 1846SOL    HW2 6438   3.740   1.184   2.253
 1847SOL     OW 6439   1.163   0.614   6.028
 1847SOL    HW1 6440   1.197   0.597   5.935
 1847SOL    HW2 6441   1.239   0.640   6.087
 1848SOL     OW 6442   2.093   6.317   3.321
 1848SOL    HW1 6443   2.136   6.407   3.332
 1848SOL    HW2 6444   1.996   6.328   3.300
 1849SOL     OW 6445   4.281   2.736   1.705
 1849SOL    HW1 6446   4.370   2.780   1.690
 1849SOL    HW2 6447   4.294   2.654   1.762
 1850SOL     OW 6448   0.150   2.546   2.580
 1850SOL    HW1 6449   0.108   2.609   2.515
 1850SOL    HW2 6450   0.224   2.591   2.628
 1851SOL     OW 6451   0.863   3.540   6.696
 1851SOL    HW1 6452   0.931   3.472   6.669
 1851SOL    HW2 6453   0.810   3.506   6.773
 1852SOL     OW 6454   6.603   4.735   2.696
 1852SOL    HW1 6455   6.626   4.641   2.721
 1852SOL    HW2 6456   6.544   4.734   2.615
 1853SOL     OW 6457   0.519   2.626   3.595
 1853SOL    HW1 6458   0.450   2.597   3.529
 1853SOL    HW2 6459   0.476   2.639   3.685
 1854SOL     OW 6460   2.214   5.439   3.003
 1854SOL    HW1 6461   2.160   5.508   3.052
 1854SOL    HW2 6462   2.257   5.480   2.923
 1855SOL     OW 6463   5.268   3.959   5.210
 1855SOL    HW1 6464   5.268   3.885   5.278
 1855SOL    HW2 6465   5.230   3.924   5.124
 1856SOL     OW 6466   5.244   3.977   6.066
 1856SOL    HW1 6467   5.148   4.002   6.083
 1856SOL    HW2 6468   5.254   3.878   6.075
 1857SOL     OW 6469   3.920   2.128   0.017
 1857SOL    HW1 6470   3.893   2.062   6.970
 1857SOL    HW2 6471   3.929   2.082   0.105
 1858SOL     OW 6472   5.654   3.561   2.915
 1858SOL    HW1 6473   5.668   3.645   2.969
 1858SOL    HW2 6474   5.690   3.483   2.965
 1859SOL     OW 6475   5.048   1.993   3.946
 1859SOL    HW1 6476   5.144   1.988   3.975
 1859SOL    HW2 6477   5.017   2.088   3.950
 1860SOL     OW 6478   0.834   0.744   4.994
 1860SOL    HW1 6479   0.785   0.678   4.936
 1860SOL    HW2 6480   0.768   0.806   5.037
 1861SOL     OW 6481   6.107   0.001   2.587
 1861SOL    HW1 6482   6.199   0.038   2.570
 1861SOL    HW2 6483   6.088   6.951   2.521
 1862SOL     OW 6484   3.128   0.648   6.310
 1862SOL    HW1 6485   3.115   0.747   6.323
 1862SOL    HW2 6486   3.116   0.625   6.214
 1863SOL     OW 6487   0.162   2.727   3.744
 1863SOL    HW1 6488   0.110   2.694   3.823
 1863SOL    HW2 6489   0.142   2.668   3.665
 1864SOL     OW 6490   2.224   6.044   4.702
 1864SOL    HW1 6491   2.168   6.047   4.784
 1864SOL    HW2 6492   2.288   6.121   4.702
 1865SOL     OW 6493   3.984   0.286   0.115
 1865SOL    HW1 6494   4.067   0.248   0.074
 1865SOL    HW2 6495   4.009   0.341   0.195
 1866SOL     OW 6496   6.252   5.165   3.708
 1866SOL    HW1 6497   6.276   5.113   3.626
 1866SOL    HW2 6498   6.153   5.167   3.718
 1867SOL     OW 6499   1.380   3.862   0.671
 1867SOL    HW1 6500   1.283   3.862   0.696
 1867SOL    HW2 6501   1.425   3.784   0.714
 1868SOL     OW 6502   4.747   3.786   6.891
 1868SOL    HW1 6503   4.683   3.790   6.814
 1868SOL    HW2 6504   4.767   3.879   6.923
 1869SOL     OW 6505   0.087   3.528   4.775
 1869SOL    HW1 6506   0.185   3.546   4.778
 1869SOL    HW2 6507   0.052   3.516   4.868
 1870SOL     OW 6508   1.251   3.372   5.147
 1870SOL    HW1 6509   1.328   3.416   5.100
 1870SOL    HW2 6510   1.248   3.404   5.242
 1871SOL     OW 6511   0.474   0.667   6.975
 1871SOL    HW1 6512   0.473   0.570   6.952
 1871SOL    HW2 6513   0.546   0.685   0.020
 1872SOL     OW 6514   4.478   1.768   0.130
 1872SOL    HW1 6515   4.446   1.727   0.215
 1872SOL    HW2 6516   4.407   1.759   0.060
 1873SOL     OW 6517   6.298   0.966   5.880
 1873SOL    HW1 6518   6.389   0.959   5.920
 1873SOL    HW2 6519   6.292   0.906   5.800
 1874SOL     OW 6520   2.035   1.072   6.766
 1874SOL    HW1 6521   2.041   1.163   6.725
 1874SOL    HW2 6522   1.966   1.072   6.838
 1875SOL     OW 6523   6.455   0.797   0.710
 1875SOL    HW1 6524   6.442   0.783   0.808
 1875SOL    HW2 6525   6.521   0.730   0.676
 1876SOL     OW 6526   3.848   6.051   5.823
 1876SOL    HW1 6527   3.813   6.058   5.917
 1876SOL    HW2 6528   3.901   6.133   5.801
 1877SOL     OW 6529   0.542   1.457   3.514
 1877SOL    HW1 6530   0.487   1.524   3.564
 1877SOL    HW2 6531   0.633   1.452   3.556
 1878SOL     OW 6532   0.013   2.427   4.294
 1878SOL    HW1 6533   0.055   2.400   4.380
 1878SOL    HW2 6534   6.963   2.361   4.270
 1879SOL     OW 6535   2.323   5.706   3.426
 1879SOL    HW1 6536   2.348   5.647   3.349
 1879SOL    HW2 6537   2.278   5.652   3.497
 1880SOL     OW 6538   0.382   1.598   3.171
 1880SOL    HW1 6539   0.478   1.626   3.163
 1880SOL    HW2 6540   0.377   1.498   3.175
 1881SOL     OW 6541   1.453   2.169   3.475
 1881SOL    HW1 6542   1.506   2.228   3.414
 1881SOL    HW2 6543   1.407   2.098   3.421
 1882SOL     OW 6544   1.028   4.050   6.470
 1882SOL    HW1 6545   0.954   4.114   6.488
 1882SOL    HW2 6546   1.084   4.039   6.552
 1883SOL     OW 6547   0.809   3.289   3.403
 1883SOL    HW1 6548   0.719   3.289   3.447
 1883SOL    HW2 6549   0.819   3.374   3.350
 1884SOL     OW 6550   6.147   2.399   0.593
 1884SOL    HW1 6551   6.178   2.322   0.649
 1884SOL    HW2 6552   6.185   2.484   0.629
 1885SOL     OW 6553   6.981   2.116   6.664
 1885SOL    HW1 6554   0.038   2.175   6.676
 1885SOL    HW2 6555   6.945   2.089   6.753
 1886SOL     OW 6556   2.578   1.257   1.232
 1886SOL    HW1 6557   2.531   1.191   1.174
 1886SOL    HW2 6558   2.653   1.212   1.280
 1887SOL     OW 6559   0.295   5.312   6.397
 1887SOL    HW1 6560   0.234   5.235   6.418
 1887SOL    HW2 6561   0.242   5.397   6.396
 1888SOL     OW 6562   2.874   2.248   6.331
 1888SOL    HW1 6563   2.786   2.255   6.284
 1888SOL    HW2 6564   2.884   2.157   6.372
 1889SOL     OW 6565   5.561   2.505   6.076
 1889SOL    HW1 6566   5.535   2.427   6.019
 1889SOL    HW2 6567   5.493   2.577   6.067
 1890SOL     OW 6568   1.463   5.934   5.185
 1890SOL    HW1 6569   1.364   5.943   5.177
 1890SOL    HW2 6570   1.489   5.940   5.282
 1891SOL     OW 6571   5.272   3.013   3.948
 1891SOL    HW1 6572   5.352   2.953   3.953
 1891SOL    HW2 6573   5.212   2.981   3.874
 1892SOL     OW 6574   4.039   0.475   0.644
 1892SOL    HW1 6575   4.100   0.533   0.589
 1892SOL    HW2 6576   3.963   0.443   0.588
 1893SOL     OW 6577   3.481   1.955   5.793
 1893SOL    HW1 6578   3.539   1.912   5.862
 1893SOL    HW2 6579   3.506   2.052   5.784
 1894SOL     OW 6580   3.795   3.851   2.732
 1894SOL    HW1 6581   3.845   3.822   2.814
 1894SOL    HW2 6582   3.850   3.833   2.651
 1895SOL     OW 6583   5.357   1.157   2.569
 1895SOL    HW1 6584   5.322   1.098   2.497
 1895SOL    HW2 6585   5.380   1.102   2.649
 1896SOL     OW 6586   0.858   0.558   2.854
 1896SOL    HW1 6587   0.762   0.583   2.863
 1896SOL    HW2 6588   0.874   0.522   2.762
 1897SOL     OW 6589   0.704   5.035   2.630
 1897SOL    HW1 6590   0.790   5.023   2.579
 1897SOL    HW2 6591   0.629   5.049   2.566
 1898SOL     OW 6592   3.393   4.912   2.257
 1898SOL    HW1 6593   3.412   4.950   2.347
 1898SOL    HW2 6594   3.461   4.842   2.236
 1899SOL     OW 6595   0.402   2.010   2.679
 1899SOL    HW1 6596   0.481   2.058   2.718
 1899SOL    HW2 6597   0.319   2.062   2.699
 1900SOL     OW 6598   1.079   0.409   5.284
 1900SOL    HW1 6599   1.137   0.352   5.225
 1900SOL    HW2 6600   0.988   0.416   5.244
 1901SOL     OW 6601   2.201   0.957   1.478
 1901SOL    HW1 6602   2.194   1.000   1.568
 1901SOL    HW2 6603   2.162   1.018   1.409
 1902SOL     OW 6604   2.292   2.433   4.929
 1902SOL    HW1 6605   2.238   2.351   4.911
 1902SOL    HW2 6606   2.339   2.424   5.017
 1903SOL     OW 6607   6.210   3.398   3.977
 1903SOL    HW1 6608   6.143   3.465   3.945
 1903SOL    HW2 6609   6.228   3.413   4.075
 1904SOL     OW 6610   5.925   6.882   4.318
 1904SOL    HW1 6611   5.849   6.898   4.381
 1904SOL    HW2 6612   5.888   6.848   4.231
 1905SOL     OW 6613   1.643   1.048   4.002
 1905SOL    HW1 6614   1.652   0.962   4.053
 1905SOL    HW2 6615   1.730   1.070   3.958
 1906SOL     OW 6616   2.575   0.178   5.195
 1906SOL    HW1 6617   2.593   0.250   5.128
 1906SOL    HW2 6618   2.594   0.212   5.287
 1907SOL     OW 6619   3.640   6.902   3.238
 1907SOL    HW1 6620   3.724   6.919   3.186
 1907SOL    HW2 6621   3.660   6.838   3.312
 1908SOL     OW 6622   3.840   0.953   4.601
 1908SOL    HW1 6623   3.935   0.982   4.603
 1908SOL    HW2 6624   3.802   0.969   4.510
 1909SOL     OW 6625   1.128   3.844   2.662
 1909SOL    HW1 6626   1.191   3.913   2.698
 1909SOL    HW2 6627   1.181   3.765   2.630
 1910SOL     OW 6628   0.654   2.813   6.930
 1910SOL    HW1 6629   0.628   2.806   0.004
 1910SOL    HW2 6630   0.625   2.902   6.894
 1911SOL     OW 6631   5.778   3.373   5.314
 1911SOL    HW1 6632   5.743   3.401   5.403
 1911SOL    HW2 6633   5.724   3.416   5.242
 1912SOL     OW 6634   3.140   0.174   1.302
 1912SOL    HW1 6635   3.092   0.157   1.216
 1912SOL    HW2 6636   3.074   0.181   1.377
 1913SOL     OW 6637   0.935   5.628   5.358
 1913SOL    HW1 6638   0.894   5.674   5.436
 1913SOL    HW2 6639   1.014   5.681   5.325
 1914SOL     OW 6640   3.372   2.829   6.440
 1914SOL    HW1 6641   3.324   2.797   6.521
 1914SOL    HW2 6642   3.408   2.750   6.390
 1915SOL     OW 6643   3.615   1.999   5.555
 1915SOL    HW1 6644   3.534   1.974   5.608
 1915SOL    HW2 6645   3.696   1.962   5.600
 1916SOL     OW 6646   3.206   6.062   1.081
 1916SOL    HW1 6647   3.151   6.142   1.102
 1916SOL    HW2 6648   3.299   6.091   1.058
 1917SOL     OW 6649   3.134   3.082   4.766
 1917SOL    HW1 6650   3.151   3.050   4.673
 1917SOL    HW2 6651   3.198   3.039   4.829
 1918SOL     OW 6652   0.663   1.404   6.876
 1918SOL    HW1 6653   0.715   1.340   6.820
 1918SOL    HW2 6654   0.595   1.354   6.930
 1919SOL     OW 6655   2.599   0.546   1.286
 1919SOL    HW1 6656   2.500   0.548   1.302
 1919SOL    HW2 6657   2.629   0.636   1.253
 1920SOL     OW 6658   1.355   4.989   2.805
 1920SOL    HW1 6659   1.378   4.984   2.708
 1920SOL    HW2 6660   1.261   5.019   2.815
 1921SOL     OW 6661   1.767   4.795   0.256
 1921SOL    HW1 6662   1.810   4.756   0.175
 1921SOL    HW2 6663   1.830   4.858   0.301
 1922SOL     OW 6664   3.191   4.305   0.736
 1922SOL    HW1 6665   3.196   4.215   0.780
 1922SOL    HW2 6666   3.105   4.313   0.686
 1923SOL     OW 6667   3.161   0.528   5.762
 1923SOL    HW1 6668   3.094   0.527   5.688
 1923SOL    HW2 6669   3.225   0.604   5.748
 1924SOL     OW 6670   5.128   5.088   1.778
 1924SOL    HW1 6671   5.192   5.162   1.760
 1924SOL    HW2 6672   5.168   5.025   1.846
 1925SOL     OW 6673   1.961   4.041   0.799
 1925SOL    HW1 6674   1.986   4.036   0.895
 1925SOL    HW2 6675   2.042   4.068   0.745
 1926SOL     OW 6676   1.376   0.052   2.967
 1926SOL    HW1 6677   1.352   0.071   2.872
 1926SOL    HW2 6678   1.476   0.052   2.977
 1927SOL     OW 6679   3.316   4.177   6.030
 1927SOL    HW1 6680   3.330   4.184   5.931
 1927SOL    HW2 6681   3.346   4.261   6.074
 1928SOL     OW 6682   6.623   4.521   5.739
 1928SOL    HW1 6683   6.668   4.432   5.740
 1928SOL    HW2 6684   6.525   4.508   5.726
 1929SOL     OW 6685   1.261   5.346   1.786
 1929SOL    HW1 6686   1.314   5.410   1.842
 1929SOL    HW2 6687   1.297   5.254   1.798
 1930SOL     OW 6688   3.547   3.814   6.573
 1930SOL    HW1 6689   3.639   3.838   6.543
 1930SOL    HW2 6690   3.523   3.869   6.653
 1931SOL     OW 6691   0.496   2.795   2.349
 1931SOL    HW1 6692   0.534   2.888   2.346
 1931SOL    HW2 6693   0.548   2.740   2.413
 1932SOL     OW 6694   5.108   3.527   3.596
 1932SOL    HW1 6695   5.137   3.619   3.624
 1932SOL    HW2 6696   5.130   3.512   3.500
 1933SOL     OW 6697   2.589   4.556   0.700
 1933SOL    HW1 6698   2.569   4.559   0.602
 1933SOL    HW2 6699   2.643   4.637   0.725
 1934SOL     OW 6700   0.856   0.253   4.935
 1934SOL    HW1 6701   0.859   0.304   5.021
 1934SOL    HW2 6702   0.789   0.179   4.942
 1935SOL     OW 6703   3.546   6.310   4.048
 1935SOL    HW1 6704   3.584   6.402   4.046
 1935SOL    HW2 6705   3.608   6.248   4.096
 1936SOL     OW 6706   6.526   3.694   4.148
 1936SOL    HW1 6707   6.619   3.732   4.146
 1936SOL    HW2 6708   6.486   3.711   4.238
 1937SOL     OW 6709   4.412   0.402   0.759
 1937SOL    HW1 6710   4.420   0.346   0.676
 1937SOL    HW2 6711   4.321   0.444   0.763
 1938SOL     OW 6712   2.682   1.123   1.757
 1938SOL    HW1 6713   2.775   1.153   1.733
 1938SOL    HW2 6714   2.626   1.121   1.674
 1939SOL     OW 6715   6.616   0.407   4.711
 1939SOL    HW1 6716   6.612   0.459   4.796
 1939SOL    HW2 6717   6.619   0.470   4.633
 1940SOL     OW 6718   4.817   5.189   0.473
 1940SOL    HW1 6719   4.893   5.174   0.537
 1940SOL    HW2 6720   4.793   5.286   0.472
 1941SOL     OW 6721   6.875   4.430   3.757
 1941SOL    HW1 6722   6.930   4.372   3.817
 1941SOL    HW2 6723   6.783   4.438   3.794
 1942SOL     OW 6724   5.610   0.183   1.455
 1942SOL    HW1 6725   5.537   0.118   1.433
 1942SOL    HW2 6726   5.674   0.187   1.378
 1943SOL     OW 6727   2.989   6.316   2.250
 1943SOL    HW1 6728   2.919   6.247   2.267
 1943SOL    HW2 6729   3.059   6.312   2.322
 1944SOL     OW 6730   5.891   2.223   0.232
 1944SOL    HW1 6731   5.909   2.300   0.170
 1944SOL    HW2 6732   5.968   2.213   0.295
 1945SOL     OW 6733   3.184   5.764   1.704
 1945SOL    HW1 6734   3.098   5.715   1.706
 1945SOL    HW2 6735   3.188   5.822   1.623
 1946SOL     OW 6736   6.136   0.039   1.439
 1946SOL    HW1 6737   6.214   0.096   1.413
 1946SOL    HW2 6738   6.070   0.095   1.490
 1947SOL     OW 6739   5.000   6.957   5.078
 1947SOL    HW1 6740   4.901   6.958   5.071
 1947SOL    HW2 6741   5.040   6.935   4.990
 1948SOL     OW 6742   5.601   5.460   4.140
 1948SOL    HW1 6743   5.533   5.396   4.175
 1948SOL    HW2 6744   5.582   5.479   4.043
 1949SOL     OW 6745   3.167   4.252   6.543
 1949SOL    HW1 6746   3.183   4.350   6.551
 1949SOL    HW2 6747   3.240   4.210   6.489
 1950SOL     OW 6748   4.187   4.394   0.245
 1950SOL    HW1 6749   4.145   4.485   0.249
 1950SOL    HW2 6750   4.286   4.404   0.241
 1951SOL     OW 6751   5.837   3.377   6.983
 1951SOL    HW1 6752   5.910   3.309   6.992
 1951SOL    HW2 6753   5.754   3.342   0.005
 1952SOL     OW 6754   4.848   2.572   0.404
 1952SOL    HW1 6755   4.812   2.588   0.313
 1952SOL    HW2 6756   4.936   2.618   0.414
 1953SOL     OW 6757   6.046   1.730   6.312
 1953SOL    HW1 6758   6.085   1.647   6.272
 1953SOL    HW2 6759   5.948   1.717   6.326
 1954SOL     OW 6760   5.457   1.264   3.113
 1954SOL    HW1 6761   5.555   1.270   3.131
 1954SOL    HW2 6762   5.421   1.180   3.154
 1955SOL     OW 6763   0.936   1.748   2.556
 1955SOL    HW1 6764   0.956   1.769   2.652
 1955SOL    HW2 6765   0.864   1.678   2.552
 1956SOL     OW 6766   5.045   6.660   2.759
 1956SOL    HW1 6767   5.024   6.582   2.819
 1956SOL    HW2 6768   5.011   6.743   2.802
 1957SOL     OW 6769   5.947   4.874   4.223
 1957SOL    HW1 6770   5.952   4.902   4.319
 1957SOL    HW2 6771   5.862   4.906   4.183
 1958SOL     OW 6772   5.015   2.456   2.876
 1958SOL    HW1 6773   4.990   2.366   2.912
 1958SOL    HW2 6774   5.101   2.486   2.916
 1959SOL     OW 6775   0.557   1.078   4.875
 1959SOL    HW1 6776   0.486   1.137   4.914
 1959SOL    HW2 6777   0.547   1.076   4.775
 1960SOL     OW 6778   6.983   4.552   1.866
 1960SOL    HW1 6779   0.045   4.513   1.904
 1960SOL    HW2 6780   6.908   4.487   1.879
 1961SOL     OW 6781   5.828   4.311   4.141
 1961SOL    HW1 6782   5.732   4.291   4.157
 1961SOL    HW2 6783   5.868   4.238   4.085
 1962SOL     OW 6784   1.655   6.300   3.801
 1962SOL    HW1 6785   1.642   6.397   3.825
 1962SOL    HW2 6786   1.639   6.244   3.882
 1963SOL     OW 6787   0.869   1.789   1.472
 1963SOL    HW1 6788   0.881   1.863   1.538
 1963SOL    HW2 6789   0.784   1.741   1.491
 1964SOL     OW 6790   4.460   4.215   0.554
 1964SOL    HW1 6791   4.525   4.289   0.533
 1964SOL    HW2 6792   4.487   4.171   0.639
 1965SOL     OW 6793   1.744   3.234   4.571
 1965SOL    HW1 6794   1.783   3.243   4.663
 1965SOL    HW2 6795   1.758   3.319   4.521
 1966SOL     OW 6796   6.869   6.317   0.372
 1966SOL    HW1 6797   6.808   6.380   0.421
 1966SOL    HW2 6798   6.914   6.257   0.438
 1967SOL     OW 6799   5.557   2.604   5.547
 1967SOL    HW1 6800   5.547   2.669   5.472
 1967SOL    HW2 6801   5.632   2.633   5.606
 1968SOL     OW 6802   2.312   6.831   6.520
 1968SOL    HW1 6803   2.272   6.739   6.524
 1968SOL    HW2 6804   2.240   6.899   6.532
 1969SOL     OW 6805   0.860   1.485   2.381
 1969SOL    HW1 6806   0.933   1.421   2.406
 1969SOL    HW2 6807   0.889   1.538   2.301
 1970SOL     OW 6808   2.666   6.354   6.170
 1970SOL    HW1 6809   2.743   6.381   6.228
 1970SOL    HW2 6810   2.632   6.433   6.120
 1971SOL     OW 6811   6.998   0.481   5.448
 1971SOL    HW1 6812   0.008   0.436   5.531
 1971SOL    HW2 6813   0.011   0.434   5.367
 1972SOL     OW 6814   5.355   2.267   1.948
 1972SOL    HW1 6815   5.263   2.306   1.937
 1972SOL    HW2 6816   5.419   2.340   1.969
 1973SOL     OW 6817   3.159   2.158   0.327
 1973SOL    HW1 6818   3.220   2.223   0.282
 1973SOL    HW2 6819   3.203   2.069   0.332
 1974SOL     OW 6820   5.840   6.849   5.022
 1974SOL    HW1 6821   5.925   6.850   4.970
 1974SOL    HW2 6822   5.809   6.943   5.038
 1975SOL     OW 6823   2.149   1.718   3.996
 1975SOL    HW1 6824   2.105   1.642   4.044
 1975SOL    HW2 6825   2.236   1.739   4.040
 1976SOL     OW 6826   0.407   6.456   0.417
 1976SOL    HW1 6827   0.309   6.448   0.403
 1976SOL    HW2 6828   0.447   6.515   0.347
 1977SOL     OW 6829   0.510   3.058   4.569
 1977SOL    HW1 6830   0.475   2.976   4.522
 1977SOL    HW2 6831   0.467   3.064   4.659
 1978SOL     OW 6832   1.732   0.043   2.832
 1978SOL    HW1 6833   1.705   0.028   2.927
 1978SOL    HW2 6834   1.731   0.141   2.812
 1979SOL     OW 6835   6.327   4.356   6.139
 1979SOL    HW1 6836   6.374   4.431   6.185
 1979SOL    HW2 6837   6.393   4.305   6.083
 1980SOL     OW 6838   2.680   0.151   4.367
 1980SOL    HW1 6839   2.589   0.115   4.389
 1980SOL    HW2 6840   2.676   0.204   4.282
 1981SOL     OW 6841   6.795   2.094   2.091
 1981SOL    HW1 6842   6.710   2.141   2.116
 1981SOL    HW2 6843   6.775   1.999   2.065
 1982SOL     OW 6844   0.216   4.178   4.983
 1982SOL    HW1 6845   0.176   4.267   4.961
 1982SOL    HW2 6846   0.159   4.106   4.943
 1983SOL     OW 6847   1.261   1.252   2.603
 1983SOL    HW1 6848   1.358   1.246   2.625
 1983SOL    HW2 6849   1.208   1.214   2.678
 1984SOL     OW 6850   5.382   1.399   5.686
 1984SOL    HW1 6851   5.315   1.371   5.755
 1984SOL    HW2 6852   5.373   1.340   5.606
 1985SOL     OW 6853   1.328   6.379   2.370
 1985SOL    HW1 6854   1.302   6.287   2.398
 1985SOL    HW2 6855   1.258   6.444   2.398
 1986SOL     OW 6856   1.845   1.704   6.959
 1986SOL    HW1 6857   1.871   1.618   7.003
 1986SOL    HW2 6858   1.920   1.769   6.965
 1987SOL     OW 6859   1.750   2.452   2.442
 1987SOL    HW1 6860   1.776   2.549   2.440
 1987SOL    HW2 6861   1.821   2.398   2.397
 1988SOL     OW 6862   6.047   4.206   1.108
 1988SOL    HW1 6863   5.999   4.280   1.060
 1988SOL    HW2 6864   6.038   4.219   1.207
 1989SOL     OW 6865   2.679   5.514   4.677
 1989SOL    HW1 6866   2.617   5.511   4.755
 1989SOL    HW2 6867   2.754   5.449   4.691
 1990SOL     OW 6868   3.539   6.367   0.485
 1990SOL    HW1 6869   3.512   6.275   0.456
 1990SOL    HW2 6870   3.462   6.430   0.473
 1991SOL     OW 6871   3.448   5.096   6.932
 1991SOL    HW1 6872   3.493   5.062   7.016
 1991SOL    HW2 6873   3.401   5.020   6.888
 1992SOL     OW 6874   1.039   0.759   0.466
 1992SOL    HW1 6875   1.082   0.710   0.541
 1992SOL    HW2 6876   1.018   0.695   0.392
 1993SOL     OW 6877   3.686   2.850   5.312
 1993SOL    HW1 6878   3.622   2.813   5.379
 1993SOL    HW2 6879   3.651   2.836   5.220
 1994SOL     OW 6880   0.465   1.067   0.686
 1994SOL    HW1 6881   0.565   1.058   0.682
 1994SOL    HW2 6882   0.440   1.130   0.759
 1995SOL     OW 6883   5.203   2.204   3.518
 1995SOL    HW1 6884   5.219   2.205   3.617
 1995SOL    HW2 6885   5.274   2.151   3.473
 1996SOL     OW 6886   2.072   3.589   0.739
 1996SOL    HW1 6887   2.054   3.679   0.699
 1996SOL    HW2 6888   1.990   3.554   0.783
 1997SOL     OW 6889   3.355   1.395   4.626
 1997SOL    HW1 6890   3.376   1.398   4.724
 1997SOL    HW2 6891   3.440   1.385   4.574
 1998SOL     OW 6892   1.894   4.711   6.383
 1998SOL    HW1 6893   1.920   4.690   6.289
 1998SOL    HW2 6894   1.964   4.679   6.446
 1999SOL     OW 6895   2.489   6.802   0.064
 1999SOL    HW1 6896   2.577   6.851   0.060
 1999SOL    HW2 6897   2.441   6.826   0.148
 2000SOL     OW 6898   4.127   2.244   5.400
 2000SOL    HW1 6899   4.129   2.186   5.482
 2000SOL    HW2 6900   4.049   2.306   5.404
 2001SOL     OW 6901   3.164   0.834   1.792
 2001SOL    HW1 6902   3.091   0.845   1.859
 2001SOL    HW2 6903   3.125   0.827   1.701
 2002SOL     OW 6904   0.514   4.774   6.520
 2002SOL    HW1 6905   0.488   4.814   6.432
 2002SOL    HW2 6906   0.459   4.814   6.593
 2003SOL     OW 6907   6.269   5.672   2.357
 2003SOL    HW1 6908   6.327   5.714   2.287
 2003SOL    HW2 6909   6.180   5.719   2.360
 2004SOL     OW 6910   5.187   1.295   5.861
 2004SOL    HW1 6911   5.099   1.256   5.837
 2004SOL    HW2 6912   5.239   1.230   5.917
 2005SOL     OW 6913   0.737   5.138   0.350
 2005SOL    HW1 6914   0.643   5.109   0.333
 2005SOL    HW2 6915   0.737   5.209   0.421
 2006SOL     OW 6916   5.002   6.815   4.133
 2006SOL    HW1 6917   5.030   6.842   4.041
 2006SOL    HW2 6918   5.072   6.844   4.199
 2007SOL     OW 6919   4.899   4.768   1.009
 2007SOL    HW1 6920   4.819   4.781   1.067
 2007SOL    HW2 6921   4.880   4.802   0.917
 2008SOL     OW 6922   3.086   4.911   3.846
 2008SOL    HW1 6923   3.020   4.961   3.902
 2008SOL    HW2 6924   3.173   4.905   3.894
 2009SOL     OW 6925   6.129   1.082   2.093
 2009SOL    HW1 6926   6.139   1.005   2.031
 2009SOL    HW2 6927   6.050   1.066   2.153
 2010SOL     OW 6928   1.973   1.919   0.783
 2010SOL    HW1 6929   1.989   1.870   0.697
 2010SOL    HW2 6930   1.912   1.997   0.766
 2011SOL     OW 6931   6.811   6.559   4.711
 2011SOL    HW1 6932   6.762   6.564   4.798
 2011SOL    HW2 6933   6.875   6.636   4.705
 2012SOL     OW 6934   1.672   3.747   2.206
 2012SOL    HW1 6935   1.598   3.768   2.270
 2012SOL    HW2 6936   1.643   3.771   2.113
 2013SOL     OW 6937   6.316   2.278   3.288
 2013SOL    HW1 6938   6.331   2.309   3.195
 2013SOL    HW2 6939   6.404   2.258   3.331
 2014SOL     OW 6940   2.354   5.164   3.819
 2014SOL    HW1 6941   2.392   5.073   3.801
 2014SOL    HW2 6942   2.262   5.169   3.780
 2015SOL     OW 6943   1.850   0.826   6.535
 2015SOL    HW1 6944   1.783   0.866   6.597
 2015SOL    HW2 6945   1.848   0.727   6.542
 2016SOL     OW 6946   1.147   6.143   5.522
 2016SOL    HW1 6947   1.102   6.215   5.469
 2016SOL    HW2 6948   1.078   6.083   5.563
 2017SOL     OW 6949   3.594   6.840   4.383
 2017SOL    HW1 6950   3.588   6.764   4.319
 2017SOL    HW2 6951   3.600   6.926   4.332
 2018SOL     OW 6952   5.518   0.285   5.573
 2018SOL    HW1 6953   5.586   0.356   5.589
 2018SOL    HW2 6954   5.528   0.248   5.481
 2019SOL     OW 6955   5.188   2.763   6.592
 2019SOL    HW1 6956   5.196   2.712   6.678
 2019SOL    HW2 6957   5.211   2.859   6.609
 2020SOL     OW 6958   1.532   6.683   5.140
 2020SOL    HW1 6959   1.458   6.719   5.083
 2020SOL    HW2 6960   1.533   6.583   5.133
 2021SOL     OW 6961   0.591   5.745   4.450
 2021SOL    HW1 6962   0.529   5.823   4.450
 2021SOL    HW2 6963   0.542   5.662   4.476
 2022SOL     OW 6964   1.724   3.578   3.385
 2022SOL    HW1 6965   1.789   3.652   3.368
 2022SOL    HW2 6966   1.772   3.501   3.429
 2023SOL     OW 6967   6.660   0.992   6.680
 2023SOL    HW1 6968   6.621   1.058   6.745
 2023SOL    HW2 6969   6.745   0.955   6.717
 2024SOL     OW 6970   0.424   6.746   3.658
 2024SOL    HW1 6971   0.343   6.782   3.704
 2024SOL    HW2 6972   0.397   6.699   3.574
 2025SOL     OW 6973   2.835   1.781   3.022
 2025SOL    HW1 6974   2.807   1.854   3.084
 2025SOL    HW2 6975   2.859   1.819   2.933
 2026SOL     OW 6976   0.404   2.955   5.641
 2026SOL    HW1 6977   0.342   2.883   5.610
 2026SOL    HW2 6978   0.360   3.007   5.714
 2027SOL     OW 6979   1.003   0.038   0.073
 2027SOL    HW1 6980   0.997   0.056   0.171
 2027SOL    HW2 6981   0.911   0.020   0.037
 2028SOL     OW 6982   3.234   6.356   5.421
 2028SOL    HW1 6983   3.178   6.360   5.338
 2028SOL    HW2 6984   3.245   6.261   5.450
 2029SOL     OW 6985   6.587   1.038   0.634
 2029SOL    HW1 6986   6.639   0.991   0.562
 2029SOL    HW2 6987   6.509   0.981   0.661
 2030SOL     OW 6988   2.599   1.052   2.981
 2030SOL    HW1 6989   2.530   1.089   3.043
 2030SOL    HW2 6990   2.585   1.089   2.889
 2031SOL     OW 6991   6.240   5.670   1.145
 2031SOL    HW1 6992   6.189   5.613   1.210
 2031SOL    HW2 6993   6.334   5.638   1.139
 2032SOL     OW 6994   4.868   0.244   2.264
 2032SOL    HW1 6995   4.876   0.268   2.361
 2032SOL    HW2 6996   4.929   0.303   2.210
 2033SOL     OW 6997   3.007   3.809   6.020
 2033SOL    HW1 6998   3.023   3.908   6.028
 2033SOL    HW2 6999   2.981   3.788   5.926
 2034SOL     OW 7000   2.874   5.454   5.456
 2034SOL    HW1 7001   2.797   5.391   5.460
 2034SOL    HW2 7002   2.927   5.437   5.373
 2035SOL     OW 7003   0.188   6.952   3.440
 2035SOL    HW1 7004   0.161   6.873   3.385
 2035SOL    HW2 7005   0.209   0.007   3.381
 2036SOL     OW 7006   1.304   4.049   2.422
 2036SOL    HW1 7007   1.217   4.096   2.409
 2036SOL    HW2 7008   1.303   3.999   2.509
 2037SOL     OW 7009   6.823   3.228   5.458
 2037SOL    HW1 7010   6.784   3.214   5.367
 2037SOL    HW2 7011   6.771   3.173   5.524
 2038SOL     OW 7012   1.808   2.396   0.345
 2038SOL    HW1 7013   1.758   2.340   0.411
 2038SOL    HW2 7014   1.853   2.336   0.278
 2039SOL     OW 7015   0.057   5.085   3.593
 2039SOL    HW1 7016   6.991   5.096   3.639
 2039SOL    HW2 7017   0.112   5.017   3.643
 2040SOL     OW 7018   3.136   3.282   5.728
 2040SOL    HW1 7019   3.038   3.270   5.719
 2040SOL    HW2 7020   3.158   3.317   5.819
 2041SOL     OW 7021   0.471   6.113   5.829
 2041SOL    HW1 7022   0.403   6.186   5.834
 2041SOL    HW2 7023   0.505   6.092   5.920
 2042SOL     OW 7024   4.844   5.953   0.065
 2042SOL    HW1 7025   4.884   5.869   0.029
 2042SOL    HW2 7026   4.818   6.013   7.011
 2043SOL     OW 7027   6.827   3.404   3.450
 2043SOL    HW1 7028   6.814   3.392   3.549
 2043SOL    HW2 7029   6.892   3.479   3.435
 2044SOL     OW 7030   6.398   6.992   1.908
 2044SOL    HW1 7031   6.344   6.968   1.828
 2044SOL    HW2 7032   6.345   6.973   1.991
 2045SOL     OW 7033   2.020   5.025   4.008
 2045SOL    HW1 7034   1.965   5.023   3.924
 2045SOL    HW2 7035   2.114   4.998   3.987
 2046SOL     OW 7036   6.852   2.138   3.700
 2046SOL    HW1 7037   6.870   2.119   3.603
 2046SOL    HW2 7038   6.758   2.171   3.710
 2047SOL     OW 7039   6.888   2.791   6.848
 2047SOL    HW1 7040   6.900   2.707   6.794
 2047SOL    HW2 7041   6.868   2.867   6.786
 2048SOL     OW 7042   1.478   6.304   6.129
 2048SOL    HW1 7043   1.403   6.242   6.106
 2048SOL    HW2 7044   1.496   6.364   6.051
 2049SOL     OW 7045   6.166   1.370   5.205
 2049SOL    HW1 7046   6.177   1.436   5.131
 2049SOL    HW2 7047   6.166   1.277   5.168
 2050SOL     OW 7048   6.574   2.224   3.779
 2050SOL    HW1 7049   6.564   2.240   3.877
 2050SOL    HW2 7050   6.550   2.307   3.729
 2051SOL     OW 7051   1.162   5.521   0.309
 2051SOL    HW1 7052   1.143   5.522   0.407
 2051SOL    HW2 7053   1.215   5.439   0.287
 2052SOL     OW 7054   1.468   3.628   1.135
 2052SOL    HW1 7055   1.517   3.683   1.203
 2052SOL    HW2 7056   1.499   3.655   1.043
 2053SOL     OW 7057   5.897   6.483   4.242
 2053SOL    HW1 7058   5.951   6.483   4.326
 2053SOL    HW2 7059   5.813   6.535   4.256
 2054SOL     OW 7060   3.528   4.090   3.032
 2054SOL    HW1 7061   3.571   4.087   3.122
 2054SOL    HW2 7062   3.597   4.109   2.962
 2055SOL     OW 7063   6.215   3.207   3.610
 2055SOL    HW1 7064   6.291   3.219   3.673
 2055SOL    HW2 7065   6.226   3.270   3.533
 2056SOL     OW 7066   4.132   5.866   2.448
 2056SOL    HW1 7067   4.152   5.953   2.493
 2056SOL    HW2 7068   4.096   5.884   2.356
 2057SOL     OW 7069   5.569   4.239   5.879
 2057SOL    HW1 7070   5.651   4.199   5.839
 2057SOL    HW2 7071   5.533   4.310   5.818
 2058SOL     OW 7072   0.252   1.507   3.450
 2058SOL    HW1 7073   0.191   1.571   3.404
 2058SOL    HW2 7074   0.343   1.510   3.407
 2059SOL     OW 7075   1.947   5.888   6.750
 2059SOL    HW1 7076   1.864   5.933   6.784
 2059SOL    HW2 7077   1.968   5.924   6.659
 2060SOL     OW 7078   0.762   4.506   1.942
 2060SOL    HW1 7079   0.688   4.512   1.875
 2060SOL    HW2 7080   0.830   4.440   1.912
 2061SOL     OW 7081   1.181   2.234   2.836
 2061SOL    HW1 7082   1.241   2.175   2.889
 2061SOL    HW2 7083   1.124   2.179   2.775
 2062SOL     OW 7084   5.998   6.136   4.202
 2062SOL    HW1 7085   6.044   6.136   4.113
 2062SOL    HW2 7086   5.986   6.041   4.233
 2063SOL     OW 7087   1.848   6.708   6.271
 2063SOL    HW1 7088   1.831   6.711   6.370
 2063SOL    HW2 7089   1.761   6.721   6.223
 2064SOL     OW 7090   0.938   2.753   5.588
 2064SOL    HW1 7091   0.920   2.656   5.574
 2064SOL    HW2 7092   1.033   2.773   5.563
 2065SOL     OW 7093   6.220   2.743   5.248
 2065SOL    HW1 7094   6.124   2.767   5.234
 2065SOL    HW2 7095   6.277   2.823   5.232
 2066SOL     OW 7096   0.527   4.490   4.439
 2066SOL    HW1 7097   0.484   4.411   4.483
 2066SOL    HW2 7098   0.608   4.517   4.490
 2067SOL     OW 7099   6.089   5.278   1.269
 2067SOL    HW1 7100   6.102   5.180   1.283
 2067SOL    HW2 7101   6.171   5.328   1.295
 2068SOL     OW 7102   2.378   0.084   4.409
 2068SOL    HW1 7103   2.304   0.112   4.470
 2068SOL    HW2 7104   2.350   0.003   4.357
 2069SOL     OW 7105   6.921   1.869   3.774
 2069SOL    HW1 7106   6.949   1.842   3.682
 2069SOL    HW2 7107   6.884   1.962   3.771
 2070SOL     OW 7108   0.825   1.083   1.352
 2070SOL    HW1 7109   0.801   0.992   1.387
 2070SOL    HW2 7110   0.855   1.141   1.427
 2071SOL     OW 7111   6.724   0.223   6.075
 2071SOL    HW1 7112   6.706   0.175   6.161
 2071SOL    HW2 7113   6.815   0.263   6.078
 2072SOL     OW 7114   4.513   5.913   4.177
 2072SOL    HW1 7115   4.455   5.949   4.104
 2072SOL    HW2 7116   4.521   5.982   4.250
 2073SOL     OW 7117   4.374   0.182   5.249
 2073SOL    HW1 7118   4.314   0.257   5.221
 2073SOL    HW2 7119   4.325   0.096   5.241
 2074SOL     OW 7120   2.053   2.584   6.616
 2074SOL    HW1 7121   2.152   2.592   6.622
 2074SOL    HW2 7122   2.009   2.659   6.664
 2075SOL     OW 7123   6.804   2.751   3.153
 2075SOL    HW1 7124   6.802   2.661   3.197
 2075SOL    HW2 7125   6.758   2.818   3.211
 2076SOL     OW 7126   5.955   0.314   6.239
 2076SOL    HW1 7127   5.996   0.224   6.223
 2076SOL    HW2 7128   5.856   0.306   6.234
 2077SOL     OW 7129   5.806   2.128   3.296
 2077SOL    HW1 7130   5.873   2.144   3.368
 2077SOL    HW2 7131   5.722   2.179   3.316
 2078SOL     OW 7132   1.167   5.635   5.688
 2078SOL    HW1 7133   1.177   5.537   5.706
 2078SOL    HW2 7134   1.210   5.657   5.600
 2079SOL     OW 7135   5.686   1.900   3.225
 2079SOL    HW1 7136   5.741   1.983   3.232
 2079SOL    HW2 7137   5.597   1.923   3.185
 2080SOL     OW 7138   1.746   0.062   5.107
 2080SOL    HW1 7139   1.808   0.039   5.032
 2080SOL    HW2 7140   1.651   0.053   5.077
 2081SOL     OW 7141   1.354   5.562   4.475
 2081SOL    HW1 7142   1.297   5.623   4.529
 2081SOL    HW2 7143   1.450   5.588   4.485
 2082SOL     OW 7144   0.805   6.544   3.118
 2082SOL    HW1 7145   0.880   6.610   3.127
 2082SOL    HW2 7146   0.746   6.571   3.042
 2083SOL     OW 7147   6.931   4.814   5.657
 2083SOL    HW1 7148   6.961   4.892   5.711
 2083SOL    HW2 7149   6.833   4.822   5.638
 2084SOL     OW 7150   0.447   4.618   3.555
 2084SOL    HW1 7151   0.539   4.581   3.569
 2084SOL    HW2 7152   0.395   4.614   3.640
 2085SOL     OW 7153   4.616   0.483   0.118
 2085SOL    HW1 7154   4.703   0.436   0.109
 2085SOL    HW2 7155   4.572   0.490   0.028
 2086SOL     OW 7156   3.853   6.541   6.099
 2086SOL    HW1 7157   3.877   6.594   6.018
 2086SOL    HW2 7158   3.819   6.451   6.072
 2087SOL     OW 7159   5.005   0.680   1.343
 2087SOL    HW1 7160   4.905   0.679   1.353
 2087SOL    HW2 7161   5.034   0.770   1.311
 2088SOL     OW 7162   1.550   5.660   0.024
 2088SOL    HW1 7163   1.583   5.743   0.070
 2088SOL    HW2 7164   1.450   5.661   0.021
 2089SOL     OW 7165   5.362   2.995   6.187
 2089SOL    HW1 7166   5.423   3.069   6.158
 2089SOL    HW2 7167   5.313   2.960   6.107
 2090SOL     OW 7168   4.509   3.846   5.938
 2090SOL    HW1 7169   4.457   3.920   5.896
 2090SOL    HW2 7170   4.482   3.837   6.034
 2091SOL     OW 7171   0.640   5.090   0.749
 2091SOL    HW1 7172   0.607   5.080   0.843
 2091SOL    HW2 7173   0.740   5.092   0.749
 2092SOL     OW 7174   5.302   4.289   0.159
 2092SOL    HW1 7175   5.390   4.325   0.191
 2092SOL    HW2 7176   5.287   4.198   0.196
 2093SOL     OW 7177   2.531   2.062   0.980
 2093SOL    HW1 7178   2.536   2.142   0.921
 2093SOL    HW2 7179   2.465   1.997   0.943
 2094SOL     OW 7180   6.324   2.110   2.728
 2094SOL    HW1 7181   6.362   2.051   2.656
 2094SOL    HW2 7182   6.224   2.103   2.727
 2095SOL     OW 7183   6.000   0.058   5.543
 2095SOL    HW1 7184   6.096   0.032   5.555
 2095SOL    HW2 7185   5.974   0.125   5.613
 2096SOL     OW 7186   4.779   4.038   3.072
 2096SOL    HW1 7187   4.761   4.092   2.990
 2096SOL    HW2 7188   4.848   3.968   3.052
 2097SOL     OW 7189   2.663   3.768   6.518
 2097SOL    HW1 7190   2.700   3.676   6.513
 2097SOL    HW2 7191   2.670   3.812   6.428
 2098SOL     OW 7192   4.142   6.217   2.116
 2098SOL    HW1 7193   4.225   6.230   2.062
 2098SOL    HW2 7194   4.062   6.236   2.058
 2099SOL     OW 7195   3.591   2.416   6.345
 2099SOL    HW1 7196   3.668   2.448   6.290
 2099SOL    HW2 7197   3.581   2.474   6.425
 2100SOL     OW 7198   5.510   2.229   6.845
 2100SOL    HW1 7199   5.435   2.235   6.779
 2100SOL    HW2 7200   5.508   2.309   6.905
 2101SOL     OW 7201   0.983   6.579   1.555
 2101SOL    HW1 7202   0.941   6.619   1.637
 2101SOL    HW2 7203   0.959   6.635   1.475
 2102SOL     OW 7204   5.518   4.802   2.405
 2102SOL    HW1 7205   5.563   4.728   2.454
 2102SOL    HW2 7206   5.473   4.863   2.471
 2103SOL     OW 7207   3.153   3.879   6.762
 2103SOL    HW1 7208   3.056   3.879   6.737
 2103SOL    HW2 7209   3.208   3.871   6.679
 2104SOL     OW 7210   1.653   4.329   1.767
 2104SOL    HW1 7211   1.626   4.411   1.717
 2104SOL    HW2 7212   1.603   4.325   1.853
 2105SOL     OW 7213   5.485   5.092   6.000
 2105SOL    HW1 7214   5.478   4.992   6.010
 2105SOL    HW2 7215   5.555   5.113   5.932
 2106SOL     OW 7216   5.194   3.900   0.825
 2106SOL    HW1 7217   5.195   3.841   0.905
 2106SOL    HW2 7218   5.119   3.873   0.765
 2107SOL     OW 7219   6.340   2.274   5.103
 2107SOL    HW1 7220   6.351   2.307   5.197
 2107SOL    HW2 7221   6.286   2.189   5.104
 2108SOL     OW 7222   6.130   5.341   5.091
 2108SOL    HW1 7223   6.198   5.394   5.041
 2108SOL    HW2 7224   6.070   5.294   5.025
 2109SOL     OW 7225   4.570   5.767   2.094
 2109SOL    HW1 7226   4.541   5.826   2.169
 2109SOL    HW2 7227   4.534   5.802   2.007
 2110SOL     OW 7228   2.614   0.849   0.234
 2110SOL    HW1 7229   2.587   0.812   0.323
 2110SOL    HW2 7230   2.650   0.775   0.177
 2111SOL     OW 7231   2.317   2.917   0.114
 2111SOL    HW1 7232   2.356   2.950   0.200
 2111SOL    HW2 7233   2.226   2.957   0.102
 2112SOL     OW 7234   5.164   2.722   0.839
 2112SOL    HW1 7235   5.221   2.714   0.921
 2112SOL    HW2 7236   5.195   2.656   0.771
 2113SOL     OW 7237   2.787   2.044   4.016
 2113SOL    HW1 7238   2.701   2.085   3.986
 2113SOL    HW2 7239   2.781   1.945   4.008
 2114SOL     OW 7240   2.563   2.019   6.776
 2114SOL    HW1 7241   2.490   2.083   6.752
 2114SOL    HW2 7242   2.650   2.052   6.739
 2115SOL     OW 7243   0.807   4.479   3.310
 2115SOL    HW1 7244   0.773   4.514   3.222
 2115SOL    HW2 7245   0.827   4.556   3.370
 2116SOL     OW 7246   0.546   4.218   2.904
 2116SOL    HW1 7247   0.587   4.227   2.994
 2116SOL    HW2 7248   0.495   4.302   2.882
 2117SOL     OW 7249   6.706   4.804   1.669
 2117SOL    HW1 7250   6.664   4.842   1.751
 2117SOL    HW2 7251   6.801   4.778   1.689
 2118SOL     OW 7252   6.349   2.852   3.150
 2118SOL    HW1 7253   6.418   2.810   3.090
 2118SOL    HW2 7254   6.258   2.837   3.112
 2119SOL     OW 7255   1.407   0.020   1.002
 2119SOL    HW1 7256   1.372   0.030   1.095
 2119SOL    HW2 7257   1.391   6.948   0.970
 2120SOL     OW 7258   0.552   4.121   3.666
 2120SOL    HW1 7259   0.575   4.045   3.726
 2120SOL    HW2 7260   0.636   4.163   3.631
 2121SOL     OW 7261   1.261   3.039   5.862
 2121SOL    HW1 7262   1.337   2.998   5.913
 2121SOL    HW2 7263   1.297   3.098   5.790
 2122SOL     OW 7264   5.776   4.751   6.067
 2122SOL    HW1 7265   5.678   4.765   6.080
 2122SOL    HW2 7266   5.826   4.831   6.099
 2123SOL     OW 7267   6.724   5.123   2.162
 2123SOL    HW1 7268   6.775   5.202   2.196
 2123SOL    HW2 7269   6.645   5.106   2.220
 2124SOL     OW 7270   3.079   1.946   0.990
 2124SOL    HW1 7271   3.106   2.042   0.993
 2124SOL    HW2 7272   3.072   1.910   1.083
 2125SOL     OW 7273   2.085   0.345   2.458
 2125SOL    HW1 7274   2.062   0.248   2.464
 2125SOL    HW2 7275   2.095   0.383   2.549
 2126SOL     OW 7276   3.804   2.374   6.653
 2126SOL    HW1 7277   3.848   2.461   6.633
 2126SOL    HW2 7278   3.822   2.310   6.578
 2127SOL     OW 7279   1.092   2.051   5.207
 2127SOL    HW1 7280   1.099   2.079   5.302
 2127SOL    HW2 7281   1.077   1.953   5.202
 2128SOL     OW 7282   6.567   3.029   3.740
 2128SOL    HW1 7283   6.581   2.953   3.676
 2128SOL    HW2 7284   6.495   3.004   3.805
 2129SOL     OW 7285   4.819   3.300   5.109
 2129SOL    HW1 7286   4.779   3.388   5.081
 2129SOL    HW2 7287   4.749   3.246   5.156
 2130SOL     OW 7288   3.366   0.155   2.903
 2130SOL    HW1 7289   3.450   0.110   2.933
 2130SOL    HW2 7290   3.299   0.154   2.977
 2131SOL     OW 7291   4.570   1.465   0.096
 2131SOL    HW1 7292   4.583   1.535   0.167
 2131SOL    HW2 7293   4.553   1.377   0.139
 2132SOL     OW 7294   3.877   1.390   0.842
 2132SOL    HW1 7295   3.900   1.394   0.745
 2132SOL    HW2 7296   3.905   1.302   0.879
 2133SOL     OW 7297   3.127   3.138   1.329
 2133SOL    HW1 7298   3.154   3.044   1.349
 2133SOL    HW2 7299   3.028   3.143   1.317
 2134SOL     OW 7300   1.045   0.691   5.260
 2134SOL    HW1 7301   0.995   0.726   5.339
 2134SOL    HW2 7302   1.065   0.594   5.273
 2135SOL     OW 7303   1.754   3.199   5.022
 2135SOL    HW1 7304   1.673   3.170   4.971
 2135SOL    HW2 7305   1.828   3.134   5.007
 2136SOL     OW 7306   0.780   4.116   4.524
 2136SOL    HW1 7307   0.730   4.191   4.568
 2136SOL    HW2 7308   0.878   4.129   4.539
 2137SOL     OW 7309   0.179   5.949   4.096
 2137SOL    HW1 7310   0.114   5.885   4.137
 2137SOL    HW2 7311   0.157   6.042   4.126
 2138SOL     OW 7312   0.198   0.912   2.168
 2138SOL    HW1 7313   0.258   0.941   2.093
 2138SOL    HW2 7314   0.246   0.844   2.224
 2139SOL     OW 7315   3.232   1.045   2.572
 2139SOL    HW1 7316   3.263   1.023   2.664
 2139SOL    HW2 7317   3.193   0.963   2.529
 2140SOL     OW 7318   3.599   6.071   3.844
 2140SOL    HW1 7319   3.685   6.104   3.805
 2140SOL    HW2 7320   3.616   6.028   3.932
 2141SOL     OW 7321   6.347   4.754   1.387
 2141SOL    HW1 7322   6.400   4.707   1.458
 2141SOL    HW2 7323   6.285   4.820   1.430
 2142SOL     OW 7324   1.379   2.054   2.901
 2142SOL    HW1 7325   1.349   1.973   2.951
 2142SOL    HW2 7326   1.477   2.049   2.885
 2143SOL     OW 7327   2.919   4.377   1.442
 2143SOL    HW1 7328   2.874   4.301   1.395
 2143SOL    HW2 7329   2.950   4.347   1.532
 2144SOL     OW 7330   1.402   5.651   3.718
 2144SOL    HW1 7331   1.311   5.630   3.755
 2144SOL    HW2 7332   1.438   5.733   3.762
 2145SOL     OW 7333   3.860   5.955   4.323
 2145SOL    HW1 7334   3.950   5.919   4.299
 2145SOL    HW2 7335   3.813   5.891   4.383
 2146SOL     OW 7336   2.800   3.908   1.286
 2146SOL    HW1 7337   2.745   3.864   1.216
 2146SOL    HW2 7338   2.897   3.898   1.263
 2147SOL     OW 7339   6.965   1.206   6.675
 2147SOL    HW1 7340   6.907   1.285   6.656
 2147SOL    HW2 7341   6.923   1.124   6.637
 2148SOL     OW 7342   5.111   2.675   4.484
 2148SOL    HW1 7343   5.197   2.671   4.534
 2148SOL    HW2 7344   5.128   2.675   4.386
 2149SOL     OW 7345   3.880   1.811   1.479
 2149SOL    HW1 7346   3.956   1.864   1.442
 2149SOL    HW2 7347   3.825   1.774   1.404
 2150SOL     OW 7348   2.777   1.976   2.301
 2150SOL    HW1 7349   2.848   1.942   2.363
 2150SOL    HW2 7350   2.689   1.935   2.325
 2151SOL     OW 7351   1.881   1.201   4.282
 2151SOL    HW1 7352   1.853   1.297   4.283
 2151SOL    HW2 7353   1.879   1.167   4.188
 2152SOL     OW 7354   3.757   6.462   1.670
 2152SOL    HW1 7355   3.668   6.480   1.713
 2152SOL    HW2 7356   3.816   6.541   1.685
 2153SOL     OW 7357   3.399   0.884   3.251
 2153SOL    HW1 7358   3.397   0.890   3.151
 2153SOL    HW2 7359   3.492   0.863   3.281
 2154SOL     OW 7360   4.843   0.491   4.743
 2154SOL    HW1 7361   4.934   0.531   4.742
 2154SOL    HW2 7362   4.779   0.554   4.786
 2155SOL     OW 7363   1.652   5.968   0.374
 2155SOL    HW1 7364   1.636   5.951   0.277
 2155SOL    HW2 7365   1.695   5.888   0.415
 2156SOL     OW 7366   2.119   0.640   3.300
 2156SOL    HW1 7367   2.125   0.543   3.322
 2156SOL    HW2 7368   2.034   0.677   3.338
 2157SOL     OW 7369   6.149   1.000   3.102
 2157SOL    HW1 7370   6.225   1.001   3.168
 2157SOL    HW2 7371   6.121   1.094   3.083
 2158SOL     OW 7372   3.401   6.242   0.878
 2158SOL    HW1 7373   3.498   6.263   0.866
 2158SOL    HW2 7374   3.347   6.292   0.810
 2159SOL     OW 7375   2.395   6.185   5.364
 2159SOL    HW1 7376   2.455   6.238   5.305
 2159SOL    HW2 7377   2.442   6.162   5.449
 2160SOL     OW 7378   4.743   3.853   0.752
 2160SOL    HW1 7379   4.799   3.778   0.787
 2160SOL    HW2 7380   4.672   3.876   0.819
 2161SOL     OW 7381   5.077   4.139   3.077
 2161SOL    HW1 7382   5.060   4.208   3.006
 2161SOL    HW2 7383   5.044   4.050   3.046
 2162SOL     OW 7384   2.629   0.687   0.647
 2162SOL    HW1 7385   2.611   0.622   0.721
 2162SOL    HW2 7386   2.726   0.685   0.623
 2163SOL     OW 7387   6.909   3.954   6.571
 2163SOL    HW1 7388   6.873   3.885   6.633
 2163SOL    HW2 7389   6.930   3.912   6.482
 2164SOL     OW 7390   2.119   2.897   0.396
 2164SOL    HW1 7391   2.054   2.922   0.468
 2164SOL    HW2 7392   2.075   2.908   0.307
 2165SOL     OW 7393   0.587   1.571   2.855
 2165SOL    HW1 7394   0.609   1.590   2.759
 2165SOL    HW2 7395   0.542   1.652   2.895
 2166SOL     OW 7396   1.652   2.355   5.434
 2166SOL    HW1 7397   1.575   2.369   5.497
 2166SOL    HW2 7398   1.649   2.262   5.397
 2167SOL     OW 7399   1.551   1.267   3.704
 2167SOL    HW1 7400   1.460   1.276   3.663
 2167SOL    HW2 7401   1.549   1.301   3.798
 2168SOL     OW 7402   0.839   1.755   3.371
 2168SOL    HW1 7403   0.871   1.695   3.444
 2168SOL    HW2 7404   0.768   1.709   3.317
 2169SOL     OW 7405   5.478   2.222   5.566
 2169SOL    HW1 7406   5.412   2.288   5.603
 2169SOL    HW2 7407   5.557   2.272   5.529
 2170SOL     OW 7408   6.347   5.775   5.361
 2170SOL    HW1 7409   6.310   5.763   5.453
 2170SOL    HW2 7410   6.318   5.699   5.303
 2171SOL     OW 7411   0.007   3.600   1.685
 2171SOL    HW1 7412   6.958   3.613   1.616
 2171SOL    HW2 7413   0.097   3.603   1.641
 2172SOL     OW 7414   2.190   2.259   0.262
 2172SOL    HW1 7415   2.261   2.223   0.200
 2172SOL    HW2 7416   2.224   2.342   0.306
 2173SOL     OW 7417   4.290   0.205   4.883
 2173SOL    HW1 7418   4.278   0.108   4.863
 2173SOL    HW2 7419   4.203   0.243   4.916
 2174SOL     OW 7420   5.451   4.852   5.328
 2174SOL    HW1 7421   5.403   4.798   5.258
 2174SOL    HW2 7422   5.548   4.859   5.304
 2175SOL     OW 7423   2.520   2.080   4.427
 2175SOL    HW1 7424   2.568   2.164   4.453
 2175SOL    HW2 7425   2.460   2.099   4.350
 2176SOL     OW 7426   0.667   3.182   6.887
 2176SOL    HW1 7427   0.728   3.149   6.815
 2176SOL    HW2 7428   0.703   3.154   6.976
 2177SOL     OW 7429   6.485   0.992   3.754
 2177SOL    HW1 7430   6.392   0.956   3.749
 2177SOL    HW2 7431   6.550   0.916   3.751
 2178SOL     OW 7432   0.944   3.928   6.932
 2178SOL    HW1 7433   0.878   3.917   7.006
 2178SOL    HW2 7434   1.028   3.970   6.968
 2179SOL     OW 7435   1.746   5.603   4.889
 2179SOL    HW1 7436   1.728   5.652   4.974
 2179SOL    HW2 7437   1.844   5.599   4.873
 2180SOL     OW 7438   2.184   3.063   1.777
 2180SOL    HW1 7439   2.125   3.065   1.696
 2180SOL    HW2 7440   2.162   3.140   1.836
 2181SOL     OW 7441   4.873   4.550   5.572
 2181SOL    HW1 7442   4.897   4.616   5.643
 2181SOL    HW2 7443   4.946   4.483   5.562
 2182SOL     OW 7444   0.403   3.477   5.332
 2182SOL    HW1 7445   0.457   3.561   5.342
 2182SOL    HW2 7446   0.446   3.404   5.385
 2183SOL     OW 7447   3.329   4.147   5.508
 2183SOL    HW1 7448   3.292   4.214   5.444
 2183SOL    HW2 7449   3.340   4.059   5.461
 2184SOL     OW 7450   4.625   1.483   6.208
 2184SOL    HW1 7451   4.686   1.561   6.221
 2184SOL    HW2 7452   4.533   1.508   6.237
 2185SOL     OW 7453   1.524   1.604   1.113
 2185SOL    HW1 7454   1.584   1.642   1.183
 2185SOL    HW2 7455   1.435   1.651   1.116
 2186SOL     OW 7456   6.849   5.364   2.258
 2186SOL    HW1 7457   6.873   5.423   2.181
 2186SOL    HW2 7458   6.925   5.363   2.324
 2187SOL     OW 7459   6.838   1.467   1.731
 2187SOL    HW1 7460   6.882   1.378   1.736
 2187SOL    HW2 7461   6.739   1.456   1.743
 2188SOL     OW 7462   5.551   5.911   4.108
 2188SOL    HW1 7463   5.617   5.836   4.111
 2188SOL    HW2 7464   5.563   5.969   4.189
 2189SOL     OW 7465   1.726   6.448   0.249
 2189SOL    HW1 7466   1.733   6.369   0.187
 2189SOL    HW2 7467   1.646   6.502   0.224
 2190SOL     OW 7468   0.747   2.434   1.900
 2190SOL    HW1 7469   0.660   2.477   1.879
 2190SOL    HW2 7470   0.816   2.461   1.832
 2191SOL     OW 7471   2.815   1.932   6.322
 2191SOL    HW1 7472   2.890   1.904   6.262
 2191SOL    HW2 7473   2.828   1.892   6.413
 2192SOL     OW 7474   3.525   0.358   3.409
 2192SOL    HW1 7475   3.610   0.386   3.364
 2192SOL    HW2 7476   3.481   0.437   3.451
 2193SOL     OW 7477   6.739   5.617   6.115
 2193SOL    HW1 7478   6.702   5.628   6.023
 2193SOL    HW2 7479   6.696   5.539   6.160
 2194SOL     OW 7480   1.980   5.202   6.683
 2194SOL    HW1 7481   2.030   5.223   6.599
 2194SOL    HW2 7482   1.903   5.265   6.692
 2195SOL     OW 7483   0.258   0.185   3.716
 2195SOL    HW1 7484   0.332   0.200   3.651
 2195SOL    HW2 7485   0.234   0.088   3.718
 2196SOL     OW 7486   3.177   0.070   4.922
 2196SOL    HW1 7487   3.228   7.009   4.899
 2196SOL    HW2 7488   3.094   0.075   4.867
 2197SOL     OW 7489   3.385   3.262   1.453
 2197SOL    HW1 7490   3.420   3.333   1.515
 2197SOL    HW2 7491   3.322   3.203   1.503
 2198SOL     OW 7492   6.722   1.207   0.332
 2198SOL    HW1 7493   6.807   1.188   0.282
 2198SOL    HW2 7494   6.645   1.205   0.268
 2199SOL     OW 7495   4.631   1.180   3.274
 2199SOL    HW1 7496   4.547   1.127   3.282
 2199SOL    HW2 7497   4.709   1.124   3.304
 2200SOL     OW 7498   3.267   0.210   4.677
 2200SOL    HW1 7499   3.296   0.305   4.673
 2200SOL    HW2 7500   3.344   0.153   4.706
 2201SOL     OW 7501   6.346   2.343   3.022
 2201SOL    HW1 7502   6.340   2.394   2.936
 2201SOL    HW2 7503   6.327   2.246   3.004
 2202SOL     OW 7504   2.865   4.826   2.868
 2202SOL    HW1 7505   2.803   4.748   2.863
 2202SOL    HW2 7506   2.846   4.888   2.792
 2203SOL     OW 7507   2.599   2.738   1.476
 2203SOL    HW1 7508   2.512   2.717   1.521
 2203SOL    HW2 7509   2.650   2.805   1.530
 2204SOL     OW 7510   3.642   1.552   6.966
 2204SOL    HW1 7511   3.740   1.535   6.982
 2204SOL    HW2 7512   3.629   1.586   6.873
 2205SOL     OW 7513   1.824   6.988   6.149
 2205SOL    HW1 7514   1.856   7.001   6.055
 2205SOL    HW2 7515   1.793   6.894   6.162
 2206SOL     OW 7516   2.188   4.266   5.738
 2206SOL    HW1 7517   2.226   4.303   5.654
 2206SOL    HW2 7518   2.232   4.179   5.759
 2207SOL     OW 7519   2.452   3.586   0.083
 2207SOL    HW1 7520   2.363   3.587   0.039
 2207SOL    HW2 7521   2.443   3.548   0.175
 2208SOL     OW 7522   1.678   5.963   2.745
 2208SOL    HW1 7523   1.772   5.929   2.742
 2208SOL    HW2 7524   1.640   5.963   2.652
 2209SOL     OW 7525   0.758   5.610   5.853
 2209SOL    HW1 7526   0.789   5.532   5.906
 2209SOL    HW2 7527   0.669   5.591   5.813
 2210SOL     OW 7528   0.146   4.677   4.459
 2210SOL    HW1 7529   0.116   4.736   4.534
 2210SOL    HW2 7530   0.074   4.612   4.437
 2211SOL     OW 7531   5.650   0.807   0.327
 2211SOL    HW1 7532   5.560   0.844   0.302
 2211SOL    HW2 7533   5.639   0.742   0.403
 2212SOL     OW 7534   2.444   6.582   6.916
 2212SOL    HW1 7535   2.450   6.488   6.948
 2212SOL    HW2 7536   2.483   6.643   6.985
 2213SOL     OW 7537   3.987   2.714   5.310
 2213SOL    HW1 7538   4.034   2.633   5.275
 2213SOL    HW2 7539   3.888   2.699   5.307
 2214SOL     OW 7540   4.466   3.034   5.995
 2214SOL    HW1 7541   4.384   3.030   5.938
 2214SOL    HW2 7542   4.527   2.958   5.970
 2215SOL     OW 7543   6.478   1.893   6.665
 2215SOL    HW1 7544   6.485   1.816   6.602
 2215SOL    HW2 7545   6.536   1.877   6.744
 2216SOL     OW 7546   1.580   0.395   6.190
 2216SOL    HW1 7547   1.489   0.352   6.188
 2216SOL    HW2 7548   1.616   0.400   6.097
 2217SOL     OW 7549   3.861   6.932   1.156
 2217SOL    HW1 7550   3.846   6.934   1.254
 2217SOL    HW2 7551   3.922   7.006   1.129
 2218SOL     OW 7552   0.568   6.648   0.612
 2218SOL    HW1 7553   0.500   6.721   0.603
 2218SOL    HW2 7554   0.521   6.560   0.616
 2219SOL     OW 7555   0.378   2.554   1.986
 2219SOL    HW1 7556   0.316   2.521   2.057
 2219SOL    HW2 7557   0.388   2.485   1.915
 2220SOL     OW 7558   0.853   0.920   4.391
 2220SOL    HW1 7559   0.807   0.831   4.400
 2220SOL    HW2 7560   0.868   0.959   4.482
 2221SOL     OW 7561   6.487   0.432   5.621
 2221SOL    HW1 7562   6.431   0.372   5.678
 2221SOL    HW2 7563   6.493   0.522   5.663
 2222SOL     OW 7564   4.269   0.570   0.520
 2222SOL    HW1 7565   4.341   0.558   0.588
 2222SOL    HW2 7566   4.304   0.625   0.444
 2223SOL     OW 7567   6.120   0.349   3.870
 2223SOL    HW1 7568   6.108   0.371   3.967
 2223SOL    HW2 7569   6.143   0.253   3.860
 2224SOL     OW 7570   1.768   4.613   1.787
 2224SOL    HW1 7571   1.826   4.653   1.717
 2224SOL    HW2 7572   1.822   4.597   1.870
 2225SOL     OW 7573   6.542   5.669   2.718
 2225SOL    HW1 7574   6.636   5.691   2.694
 2225SOL    HW2 7575   6.505   5.605   2.651
 2226SOL     OW 7576   3.922   5.318   0.744
 2226SOL    HW1 7577   3.823   5.325   0.740
 2226SOL    HW2 7578   3.948   5.236   0.795
 2227SOL     OW 7579   5.498   3.786   0.599
 2227SOL    HW1 7580   5.549   3.707   0.630
 2227SOL    HW2 7581   5.418   3.756   0.546
 2228SOL     OW 7582   2.698   5.226   1.685
 2228SOL    HW1 7583   2.640   5.271   1.617
 2228SOL    HW2 7584   2.763   5.293   1.723
 2229SOL     OW 7585   4.256   1.507   4.597
 2229SOL    HW1 7586   4.165   1.535   4.567
 2229SOL    HW2 7587   4.284   1.563   4.675
 2230SOL     OW 7588   6.104   5.747   5.616
 2230SOL    HW1 7589   6.088   5.649   5.600
 2230SOL    HW2 7590   6.047   5.779   5.691
 2231SOL     OW 7591   0.373   0.842   1.377
 2231SOL    HW1 7592   0.409   0.922   1.426
 2231SOL    HW2 7593   0.343   0.870   1.286
 2232SOL     OW 7594   1.145   2.658   4.492
 2232SOL    HW1 7595   1.061   2.712   4.498
 2232SOL    HW2 7596   1.188   2.653   4.583
 2233SOL     OW 7597   2.284   4.346   1.464
 2233SOL    HW1 7598   2.336   4.421   1.423
 2233SOL    HW2 7599   2.191   4.378   1.484
 2234SOL     OW 7600   4.632   2.219   1.689
 2234SOL    HW1 7601   4.556   2.160   1.663
 2234SOL    HW2 7602   4.616   2.256   1.780
 2235SOL     OW 7603   1.636   0.647   1.236
 2235SOL    HW1 7604   1.732   0.663   1.257
 2235SOL    HW2 7605   1.618   0.548   1.240
 2236SOL     OW 7606   0.567   4.531   6.689
 2236SOL    HW1 7607   0.565   4.585   6.605
 2236SOL    HW2 7608   0.559   4.434   6.668
 2237SOL     OW 7609   5.685   4.351   3.875
 2237SOL    HW1 7610   5.778   4.386   3.869
 2237SOL    HW2 7611   5.652   4.360   3.969
 2238SOL     OW 7612   5.631   5.176   1.899
 2238SOL    HW1 7613   5.565   5.102   1.912
 2238SOL    HW2 7614   5.717   5.139   1.866
 2239SOL     OW 7615   3.607   5.273   3.290
 2239SOL    HW1 7616   3.551   5.354   3.304
 2239SOL    HW2 7617   3.566   5.216   3.219
 2240SOL     OW 7618   5.735   5.953   3.786
 2240SOL    HW1 7619   5.676   5.874   3.772
 2240SOL    HW2 7620   5.679   6.035   3.798
 2241SOL     OW 7621   0.438   0.136   2.183
 2241SOL    HW1 7622   0.353   0.184   2.204
 2241SOL    HW2 7623   0.422   0.073   2.107
 2242SOL     OW 7624   5.083   2.720   3.164
 2242SOL    HW1 7625   5.142   2.652   3.207
 2242SOL    HW2 7626   5.092   2.714   3.064
 2243SOL     OW 7627   2.736   6.138   5.258
 2243SOL    HW1 7628   2.745   6.059   5.320
 2243SOL    HW2 7629   2.752   6.222   5.310
 2244SOL     OW 7630   2.724   0.505   2.315
 2244SOL    HW1 7631   2.726   0.589   2.370
 2244SOL    HW2 7632   2.648   0.447   2.345
 2245SOL     OW 7633   0.591   1.442   2.047
 2245SOL    HW1 7634   0.666   1.393   2.090
 2245SOL    HW2 7635   0.582   1.533   2.088
 2246SOL     OW 7636   1.072   1.363   5.885
 2246SOL    HW1 7637   1.148   1.345   5.948
 2246SOL    HW2 7638   1.102   1.427   5.814
 2247SOL     OW 7639   2.575   2.862   5.549
 2247SOL    HW1 7640   2.652   2.873   5.612
 2247SOL    HW2 7641   2.491   2.848   5.602
 2248SOL     OW 7642   3.838   3.783   6.491
 2248SOL    HW1 7643   3.844   3.684   6.504
 2248SOL    HW2 7644   3.882   3.829   6.568
 2249SOL     OW 7645   5.903   6.051   2.287
 2249SOL    HW1 7646   6.003   6.052   2.274
 2249SOL    HW2 7647   5.881   6.091   2.376
 2250SOL     OW 7648   4.660   3.642   0.470
 2250SOL    HW1 7649   4.734   3.629   0.403
 2250SOL    HW2 7650   4.679   3.724   0.524
 2251SOL     OW 7651   5.118   1.288   0.318
 2251SOL    HW1 7652   5.018   1.289   0.310
 2251SOL    HW2 7653   5.159   1.325   0.234
 2252SOL     OW 7654   6.137   2.013   3.198
 2252SOL    HW1 7655   6.071   2.060   3.140
 2252SOL    HW2 7656   6.230   2.041   3.173
 2253SOL     OW 7657   1.070   3.712   6.806
 2253SOL    HW1 7658   1.017   3.781   6.856
 2253SOL    HW2 7659   1.016   3.628   6.797
 2254SOL     OW 7660   2.523   3.192   5.596
 2254SOL    HW1 7661   2.494   3.102   5.630
 2254SOL    HW2 7662   2.504   3.262   5.665
 2255SOL     OW 7663   4.561   2.492   0.147
 2255SOL    HW1 7664   4.506   2.494   0.064
 2255SOL    HW2 7665   4.646   2.542   0.133
 2256SOL     OW 7666   4.225   6.362   1.698
 2256SOL    HW1 7667   4.145   6.322   1.652
 2256SOL    HW2 7668   4.197   6.444   1.747
 2257SOL     OW 7669   6.989   2.346   3.797
 2257SOL    HW1 7670   6.941   2.265   3.765
 2257SOL    HW2 7671   0.041   2.318   3.859
 2258SOL     OW 7672   1.067   5.247   5.576
 2258SOL    HW1 7673   1.148   5.300   5.598
 2258SOL    HW2 7674   0.985   5.303   5.590
 2259SOL     OW 7675   4.547   4.432   6.558
 2259SOL    HW1 7676   4.503   4.506   6.506
 2259SOL    HW2 7677   4.637   4.463   6.590
 2260SOL     OW 7678   5.712   4.506   3.042
 2260SOL    HW1 7679   5.632   4.447   3.056
 2260SOL    HW2 7680   5.783   4.484   3.108
 2261SOL     OW 7681   6.527   6.803   0.921
 2261SOL    HW1 7682   6.576   6.794   0.834
 2261SOL    HW2 7683   6.511   6.900   0.939
 2262SOL     OW 7684   5.098   2.100   2.318
 2262SOL    HW1 7685   5.105   2.005   2.348
 2262SOL    HW2 7686   5.006   2.118   2.283
 2263SOL     OW 7687   2.629   6.120   6.015
 2263SOL    HW1 7688   2.633   6.215   6.044
 2263SOL    HW2 7689   2.716   6.074   6.037
 2264SOL     OW 7690   2.827   2.741   0.960
 2264SOL    HW1 7691   2.795   2.739   1.054
 2264SOL    HW2 7692   2.798   2.657   0.913
 2265SOL     OW 7693   0.599   0.481   3.373
 2265SOL    HW1 7694   0.691   0.460   3.341
 2265SOL    HW2 7695   0.544   0.515   3.297
 2266SOL     OW 7696   6.301   1.781   1.359
 2266SOL    HW1 7697   6.290   1.877   1.332
 2266SOL    HW2 7698   6.213   1.734   1.350
 2267SOL     OW 7699   4.854   2.505   5.184
 2267SOL    HW1 7700   4.784   2.574   5.201
 2267SOL    HW2 7701   4.876   2.504   5.086
 2268SOL     OW 7702   6.520   3.960   6.156
 2268SOL    HW1 7703   6.569   4.026   6.098
 2268SOL    HW2 7704   6.432   3.999   6.182
 2269SOL     OW 7705   5.607   5.839   4.934
 2269SOL    HW1 7706   5.553   5.756   4.919
 2269SOL    HW2 7707   5.638   5.875   4.845
 2270SOL     OW 7708   3.189   2.335   6.272
 2270SOL    HW1 7709   3.165   2.409   6.211
 2270SOL    HW2 7710   3.121   2.327   6.345
 2271SOL     OW 7711   6.480   3.799   0.309
 2271SOL    HW1 7712   6.514   3.875   0.254
 2271SOL    HW2 7713   6.556   3.757   0.358
 2272SOL     OW 7714   5.693   1.397   5.288
 2272SOL    HW1 7715   5.758   1.414   5.213
 2272SOL    HW2 7716   5.743   1.366   5.369
 2273SOL     OW 7717   1.504   0.794   2.031
 2273SOL    HW1 7718   1.562   0.837   2.101
 2273SOL    HW2 7719   1.548   0.710   1.999
 2274SOL     OW 7720   1.787   2.695   6.035
 2274SOL    HW1 7721   1.869   2.745   6.061
 2274SOL    HW2 7722   1.771   2.620   6.099
 2275SOL     OW 7723   5.982   0.721   4.574
 2275SOL    HW1 7724   6.028   0.706   4.487
 2275SOL    HW2 7725   5.969   0.633   4.620
 2276SOL     OW 7726   2.934   4.981   1.320
 2276SOL    HW1 7727   2.894   4.964   1.410
 2276SOL    HW2 7728   3.014   5.040   1.329
 2277SOL     OW 7729   3.716   3.388   5.113
 2277SOL    HW1 7730   3.651   3.462   5.135
 2277SOL    HW2 7731   3.727   3.330   5.193
 2278SOL     OW 7732   6.373   5.561   3.676
 2278SOL    HW1 7733   6.310   5.612   3.617
 2278SOL    HW2 7734   6.404   5.621   3.750
 2279SOL     OW 7735   4.641   5.739   4.351
 2279SOL    HW1 7736   4.640   5.644   4.320
 2279SOL    HW2 7737   4.595   5.796   4.283
 2280SOL     OW 7738   6.896   6.366   5.054
 2280SOL    HW1 7739   6.969   6.335   5.116
 2280SOL    HW2 7740   6.818   6.397   5.107
 2281SOL     OW 7741   3.581   1.068   1.617
 2281SOL    HW1 7742   3.554   1.124   1.695
 2281SOL    HW2 7743   3.500   1.031   1.573
 2282SOL     OW 7744   5.109   6.882   4.800
 2282SOL    HW1 7745   5.025   6.842   4.761
 2282SOL    HW2 7746   5.112   6.980   4.781
 2283SOL     OW 7747   6.556   4.625   1.521
 2283SOL    HW1 7748   6.635   4.672   1.561
 2283SOL    HW2 7749   6.583   4.533   1.492
 2284SOL     OW 7750   2.657   1.249   0.277
 2284SOL    HW1 7751   2.586   1.227   0.344
 2284SOL    HW2 7752   2.647   1.345   0.248
 2285SOL     OW 7753   1.660   2.272   0.604
 2285SOL    HW1 7754   1.597   2.206   0.564
 2285SOL    HW2 7755   1.628   2.365   0.586
 2286SOL     OW 7756   0.490   0.100   4.641
 2286SOL    HW1 7757   0.584   0.068   4.629
 2286SOL    HW2 7758   0.467   0.164   4.568
 2287SOL     OW 7759   1.935   2.161   2.124
 2287SOL    HW1 7760   2.004   2.129   2.059
 2287SOL    HW2 7761   1.863   2.093   2.132
 2288SOL     OW 7762   6.792   4.779   4.443
 2288SOL    HW1 7763   6.796   4.693   4.393
 2288SOL    HW2 7764   6.746   4.848   4.388
 2289SOL     OW 7765   6.214   4.391   2.601
 2289SOL    HW1 7766   6.307   4.357   2.584
 2289SOL    HW2 7767   6.192   4.382   2.698
 2290SOL     OW 7768   1.692   3.342   2.058
 2290SOL    HW1 7769   1.773   3.326   2.002
 2290SOL    HW2 7770   1.619   3.380   2.001
 2291SOL     OW 7771   1.829   2.519   7.014
 2291SOL    HW1 7772   1.747   2.482   0.036
 2291SOL    HW2 7773   1.813   2.529   6.916
 2292SOL     OW 7774   5.785   2.468   3.838
 2292SOL    HW1 7775   5.813   2.552   3.792
 2292SOL    HW2 7776   5.820   2.389   3.788
 2293SOL     OW 7777   6.364   6.612   1.108
 2293SOL    HW1 7778   6.306   6.646   1.033
 2293SOL    HW2 7779   6.457   6.597   1.074
 2294SOL     OW 7780   3.675   1.498   6.145
 2294SOL    HW1 7781   3.616   1.430   6.101
 2294SOL    HW2 7782   3.704   1.465   6.234
 2295SOL     OW 7783   0.404   1.796   2.918
 2295SOL    HW1 7784   0.330   1.747   2.963
 2295SOL    HW2 7785   0.385   1.894   2.920
 2296SOL     OW 7786   3.831   5.691   2.506
 2296SOL    HW1 7787   3.884   5.610   2.480
 2296SOL    HW2 7788   3.736   5.679   2.479
 2297SOL     OW 7789   5.162   4.362   5.899
 2297SOL    HW1 7790   5.227   4.408   5.839
 2297SOL    HW2 7791   5.211   4.301   5.961
 2298SOL     OW 7792   4.100   3.897   2.013
 2298SOL    HW1 7793   4.179   3.935   2.060
 2298SOL    HW2 7794   4.100   3.797   2.024
 2299SOL     OW 7795   4.862   4.791   5.207
 2299SOL    HW1 7796   4.870   4.877   5.158
 2299SOL    HW2 7797   4.871   4.807   5.306
 2300SOL     OW 7798   2.240   6.233   3.113
 2300SOL    HW1 7799   2.194   6.247   3.200
 2300SOL    HW2 7800   2.172   6.234   3.039
 2301SOL     OW 7801   3.523   2.873   3.229
 2301SOL    HW1 7802   3.529   2.884   3.328
 2301SOL    HW2 7803   3.508   2.777   3.207
 2302SOL     OW 7804   3.991   0.686   1.172
 2302SOL    HW1 7805   4.039   0.682   1.260
 2302SOL    HW2 7806   3.903   0.637   1.181
 2303SOL     OW 7807   2.671   3.341   0.387
 2303SOL    HW1 7808   2.659   3.255   0.438
 2303SOL    HW2 7809   2.593   3.355   0.327
 2304SOL     OW 7810   5.530   6.676   4.613
 2304SOL    HW1 7811   5.487   6.600   4.565
 2304SOL    HW2 7812   5.460   6.733   4.656
 2305SOL     OW 7813   1.798   0.400   2.967
 2305SOL    HW1 7814   1.881   0.345   2.962
 2305SOL    HW2 7815   1.757   0.390   3.058
 2306SOL     OW 7816   2.173   5.504   2.400
 2306SOL    HW1 7817   2.141   5.415   2.433
 2306SOL    HW2 7818   2.198   5.497   2.304
 2307SOL     OW 7819   0.015   2.709   4.349
 2307SOL    HW1 7820   0.073   2.706   4.430
 2307SOL    HW2 7821   7.020   2.617   4.316
 2308SOL     OW 7822   2.796   4.991   1.555
 2308SOL    HW1 7823   2.794   4.908   1.611
 2308SOL    HW2 7824   2.812   5.070   1.613
 2309SOL     OW 7825   1.752   0.604   5.514
 2309SOL    HW1 7826   1.800   0.628   5.429
 2309SOL    HW2 7827   1.655   0.591   5.495
 2310SOL     OW 7828   5.514   5.823   1.455
 2310SOL    HW1 7829   5.533   5.728   1.478
 2310SOL    HW2 7830   5.440   5.857   1.513
 2311SOL     OW 7831   2.108   6.647   0.983
 2311SOL    HW1 7832   2.036   6.686   1.042
 2311SOL    HW2 7833   2.179   6.715   0.968
 2312SOL     OW 7834   5.066   5.717   3.021
 2312SOL    HW1 7835   5.049   5.661   3.102
 2312SOL    HW2 7836   5.027   5.808   3.035
 2313SOL     OW 7837   4.990   6.001   2.080
 2313SOL    HW1 7838   4.984   5.985   1.981
 2313SOL    HW2 7839   5.034   6.089   2.097
 2314SOL     OW 7840   5.296   5.926   3.308
 2314SOL    HW1 7841   5.263   5.848   3.360
 2314SOL    HW2 7842   5.327   5.896   3.218
 2315SOL     OW 7843   5.109   2.721   6.353
 2315SOL    HW1 7844   5.030   2.663   6.333
 2315SOL    HW2 7845   5.113   2.740   6.451
 2316SOL     OW 7846   3.983   1.903   3.814
 2316SOL    HW1 7847   4.055   1.914   3.745
 2316SOL    HW2 7848   3.984   1.809   3.847
 2317SOL     OW 7849   0.577   5.735   3.270
 2317SOL    HW1 7850   0.587   5.832   3.247
 2317SOL    HW2 7851   0.484   5.718   3.301
 2318SOL     OW 7852   1.026   2.727   3.810
 2318SOL    HW1 7853   1.079   2.659   3.758
 2318SOL    HW2 7854   1.088   2.796   3.847
 2319SOL     OW 7855   1.851   5.189   3.400
 2319SOL    HW1 7856   1.783   5.155   3.466
 2319SOL    HW2 7857   1.912   5.253   3.445
 2320SOL     OW 7858   0.968   2.183   3.879
 2320SOL    HW1 7859   1.036   2.235   3.931
 2320SOL    HW2 7860   0.885   2.239   3.868
 2321SOL     OW 7861   3.176   0.256   5.731
 2321SOL    HW1 7862   3.088   0.209   5.722
 2321SOL    HW2 7863   3.160   0.352   5.755
 2322SOL     OW 7864   2.501   1.623   4.716
 2322SOL    HW1 7865   2.595   1.648   4.694
 2322SOL    HW2 7866   2.441   1.648   4.640
 2323SOL     OW 7867   2.855   5.083   2.189
 2323SOL    HW1 7868   2.794   5.030   2.248
 2323SOL    HW2 7869   2.903   5.021   2.126
 2324SOL     OW 7870   6.616   6.396   2.322
 2324SOL    HW1 7871   6.660   6.465   2.265
 2324SOL    HW2 7872   6.679   6.368   2.394
 2325SOL     OW 7873   0.798   4.637   1.385
 2325SOL    HW1 7874   0.830   4.708   1.448
 2325SOL    HW2 7875   0.776   4.679   1.297
 2326SOL     OW 7876   3.404   4.782   5.199
 2326SOL    HW1 7877   3.408   4.876   5.232
 2326SOL    HW2 7878   3.315   4.742   5.223
 2327SOL     OW 7879   6.034   3.610   4.654
 2327SOL    HW1 7880   5.981   3.688   4.687
 2327SOL    HW2 7881   6.032   3.609   4.554
 2328SOL     OW 7882   3.763   1.970   3.405
 2328SOL    HW1 7883   3.783   2.020   3.320
 2328SOL    HW2 7884   3.773   2.031   3.483
 2329SOL     OW 7885   1.440   4.654   5.194
 2329SOL    HW1 7886   1.493   4.724   5.147
 2329SOL    HW2 7887   1.380   4.608   5.128
 2330SOL     OW 7888   0.621   4.093   2.542
 2330SOL    HW1 7889   0.585   4.053   2.458
 2330SOL    HW2 7890   0.716   4.065   2.555
 2331SOL     OW 7891   6.514   3.994   0.110
 2331SOL    HW1 7892   6.489   4.080   0.066
 2331SOL    HW2 7893   6.540   3.928   0.039
 2332SOL     OW 7894   4.200   1.842   5.702
 2332SOL    HW1 7895   4.173   1.767   5.643
 2332SOL    HW2 7896   4.298   1.859   5.693
 2333SOL     OW 7897   6.903   5.420   2.978
 2333SOL    HW1 7898   6.844   5.430   3.058
 2333SOL    HW2 7899   6.993   5.458   2.998
 2334SOL     OW 7900   2.284   0.135   6.745
 2334SOL    HW1 7901   2.256   0.071   6.816
 2334SOL    HW2 7902   2.383   0.138   6.740
 2335SOL     OW 7903   5.769   1.285   3.102
 2335SOL    HW1 7904   5.861   1.257   3.130
 2335SOL    HW2 7905   5.770   1.383   3.078
 2336SOL     OW 7906   4.090   1.880   5.361
 2336SOL    HW1 7907   4.154   1.901   5.288
 2336SOL    HW2 7908   4.130   1.903   5.449
 2337SOL     OW 7909   4.353   1.269   3.883
 2337SOL    HW1 7910   4.273   1.319   3.849
 2337SOL    HW2 7911   4.416   1.334   3.925
 2338SOL     OW 7912   0.948   0.843   0.005
 2338SOL    HW1 7913   1.043   0.819   7.009
 2338SOL    HW2 7914   0.936   0.942   7.014
 2339SOL     OW 7915   3.857   3.236   4.955
 2339SOL    HW1 7916   3.809   3.304   5.011
 2339SOL    HW2 7917   3.793   3.195   4.890
 2340SOL     OW 7918   5.518   6.116   6.046
 2340SOL    HW1 7919   5.518   6.016   6.050
 2340SOL    HW2 7920   5.426   6.149   6.029
 2341SOL     OW 7921   4.921   3.878   1.339
 2341SOL    HW1 7922   5.013   3.914   1.323
 2341SOL    HW2 7923   4.861   3.907   1.265
 2342SOL     OW 7924   0.452   5.656   5.737
 2342SOL    HW1 7925   0.367   5.652   5.685
 2342SOL    HW2 7926   0.436   5.625   5.830
 2343SOL     OW 7927   2.101   6.455   1.831
 2343SOL    HW1 7928   2.198   6.453   1.857
 2343SOL    HW2 7929   2.079   6.373   1.778
 2344SOL     OW 7930   1.543   1.187   1.211
 2344SOL    HW1 7931   1.480   1.244   1.158
 2344SOL    HW2 7932   1.626   1.172   1.158
 2345SOL     OW 7933   2.228   5.628   5.560
 2345SOL    HW1 7934   2.140   5.642   5.605
 2345SOL    HW2 7935   2.278   5.714   5.557
 2346SOL     OW 7936   4.871   3.517   4.664
 2346SOL    HW1 7937   4.821   3.493   4.747
 2346SOL    HW2 7938   4.856   3.446   4.595
 2347SOL     OW 7939   2.261   3.963   1.543
 2347SOL    HW1 7940   2.297   3.897   1.608
 2347SOL    HW2 7941   2.236   4.047   1.591
 2348SOL     OW 7942   3.489   5.777   3.307
 2348SOL    HW1 7943   3.515   5.791   3.402
 2348SOL    HW2 7944   3.390   5.770   3.300
 2349SOL     OW 7945   0.646   5.538   6.683
 2349SOL    HW1 7946   0.653   5.618   6.623
 2349SOL    HW2 7947   0.604   5.462   6.634
 2350SOL     OW 7948   5.103   6.979   6.294
 2350SOL    HW1 7949   5.183   6.929   6.327
 2350SOL    HW2 7950   5.033   6.914   6.262
 2351SOL     OW 7951   3.357   4.866   2.816
 2351SOL    HW1 7952   3.270   4.865   2.867
 2351SOL    HW2 7953   3.417   4.794   2.852
 2352SOL     OW 7954   0.886   3.806   2.544
 2352SOL    HW1 7955   0.973   3.802   2.594
 2352SOL    HW2 7956   0.904   3.795   2.446
 2353SOL     OW 7957   2.891   4.957   4.347
 2353SOL    HW1 7958   2.928   4.932   4.436
 2353SOL    HW2 7959   2.869   5.054   4.345
 2354SOL     OW 7960   3.295   2.640   6.645
 2354SOL    HW1 7961   3.238   2.611   6.568
 2354SOL    HW2 7962   3.388   2.604   6.633
 2355SOL     OW 7963   0.762   4.942   6.504
 2355SOL    HW1 7964   0.861   4.923   6.506
 2355SOL    HW2 7965   0.714   4.861   6.472
 2356SOL     OW 7966   2.756   4.044   0.574
 2356SOL    HW1 7967   2.669   4.075   0.534
 2356SOL    HW2 7968   2.813   4.005   0.501
 2357SOL     OW 7969   3.765   5.296   3.981
 2357SOL    HW1 7970   3.721   5.298   4.071
 2357SOL    HW2 7971   3.743   5.210   3.935
 2358SOL     OW 7972   2.839   5.247   4.420
 2358SOL    HW1 7973   2.934   5.261   4.445
 2358SOL    HW2 7974   2.793   5.335   4.409
 2359SOL     OW 7975   0.900   1.778   5.903
 2359SOL    HW1 7976   0.961   1.846   5.944
 2359SOL    HW2 7977   0.888   1.798   5.806
 2360SOL     OW 7978   4.517   6.074   5.009
 2360SOL    HW1 7979   4.588   6.104   4.946
 2360SOL    HW2 7980   4.534   5.979   5.036
 2361SOL     OW 7981   2.413   0.153   4.157
 2361SOL    HW1 7982   2.408   0.118   4.250
 2361SOL    HW2 7983   2.465   0.239   4.156
 2362SOL     OW 7984   4.228   6.988   5.270
 2362SOL    HW1 7985   4.268   6.952   5.186
 2362SOL    HW2 7986   4.145   6.935   5.293
 2363SOL     OW 7987   4.620   2.294   4.963
 2363SOL    HW1 7988   4.581   2.247   4.883
 2363SOL    HW2 7989   4.575   2.382   4.974
 2364SOL     OW 7990   6.810   2.004   2.797
 2364SOL    HW1 7991   6.894   2.008   2.852
 2364SOL    HW2 7992   6.758   1.922   2.822
 2365SOL     OW 7993   5.876   3.651   5.485
 2365SOL    HW1 7994   5.814   3.585   5.527
 2365SOL    HW2 7995   5.968   3.613   5.483
 2366SOL     OW 7996   1.264   3.589   5.652
 2366SOL    HW1 7997   1.350   3.619   5.694
 2366SOL    HW2 7998   1.281   3.563   5.557
 2367SOL     OW 7999   2.078   3.839   6.734
 2367SOL    HW1 8000   2.149   3.829   6.664
 2367SOL    HW2 8001   1.996   3.788   6.706
 2368SOL     OW 8002   5.168   1.313   4.398
 2368SOL    HW1 8003   5.179   1.362   4.485
 2368SOL    HW2 8004   5.107   1.365   4.338
 2369SOL     OW 8005   2.220   2.979   3.851
 2369SOL    HW1 8006   2.275   2.942   3.926
 2369SOL    HW2 8007   2.134   2.927   3.844
 2370SOL     OW 8008   4.339   4.392   6.728
 2370SOL    HW1 8009   4.320   4.482   6.767
 2370SOL    HW2 8010   4.416   4.399   6.665
 2371SOL     OW 8011   1.631   5.746   2.413
 2371SOL    HW1 8012   1.638   5.833   2.462
 2371SOL    HW2 8013   1.537   5.732   2.383
 2372SOL     OW 8014   0.687   1.755   0.427
 2372SOL    HW1 8015   0.687   1.841   0.377
 2372SOL    HW2 8016   0.704   1.773   0.524
 2373SOL     OW 8017   6.279   1.159   6.962
 2373SOL    HW1 8018   6.191   1.114   6.951
 2373SOL    HW2 8019   6.276   1.249   6.918
 2374SOL     OW 8020   6.483   5.874   3.454
 2374SOL    HW1 8021   6.493   5.933   3.374
 2374SOL    HW2 8022   6.495   5.928   3.537
 2375SOL     OW 8023   1.153   6.241   4.196
 2375SOL    HW1 8024   1.193   6.284   4.115
 2375SOL    HW2 8025   1.054   6.231   4.183
 2376SOL     OW 8026   6.365   3.016   3.923
 2376SOL    HW1 8027   6.375   3.115   3.912
 2376SOL    HW2 8028   6.363   2.993   4.020
 2377SOL     OW 8029   3.134   3.578   4.150
 2377SOL    HW1 8030   3.081   3.657   4.121
 2377SOL    HW2 8031   3.131   3.570   4.250
 2378SOL     OW 8032   4.962   2.158   6.580
 2378SOL    HW1 8033   4.907   2.077   6.600
 2378SOL    HW2 8034   5.006   2.189   6.664
 2379SOL     OW 8035   6.669   2.488   6.998
 2379SOL    HW1 8036   6.648   2.533   6.911
 2379SOL    HW2 8037   6.589   2.494   0.036
 2380SOL     OW 8038   6.703   0.273   5.705
 2380SOL    HW1 8039   6.750   0.201   5.654
 2380SOL    HW2 8040   6.628   0.309   5.650
 2381SOL     OW 8041   1.970   4.096   4.418
 2381SOL    HW1 8042   2.007   4.033   4.486
 2381SOL    HW2 8043   1.929   4.044   4.343
 2382SOL     OW 8044   2.325   5.594   2.796
 2382SOL    HW1 8045   2.320   5.683   2.841
 2382SOL    HW2 8046   2.413   5.584   2.751
 2383SOL     OW 8047   5.865   6.429   6.978
 2383SOL    HW1 8048   5.766   6.415   6.973
 2383SOL    HW2 8049   5.908   6.396   6.894
 2384SOL     OW 8050   1.927   1.139   1.527
 2384SOL    HW1 8051   1.870   1.075   1.476
 2384SOL    HW2 8052   1.899   1.140   1.623
 2385SOL     OW 8053   6.454   0.002   1.100
 2385SOL    HW1 8054   6.416   6.965   1.172
 2385SOL    HW2 8055   6.380   0.054   1.059
 2386SOL     OW 8056   4.130   5.117   4.158
 2386SOL    HW1 8057   4.039   5.100   4.196
 2386SOL    HW2 8058   4.187   5.036   4.171
 2387SOL     OW 8059   6.680   2.283   4.799
 2387SOL    HW1 8060   6.738   2.349   4.751
 2387SOL    HW2 8061   6.679   2.197   4.749
 2388SOL     OW 8062   1.135   1.792   5.158
 2388SOL    HW1 8063   1.207   1.786   5.088
 2388SOL    HW2 8064   1.046   1.800   5.113
 2389SOL     OW 8065   4.710   4.163   3.637
 2389SOL    HW1 8066   4.711   4.178   3.736
 2389SOL    HW2 8067   4.618   4.134   3.609
 2390SOL     OW 8068   3.626   4.231   4.898
 2390SOL    HW1 8069   3.582   4.318   4.874
 2390SOL    HW2 8070   3.702   4.214   4.836
 2391SOL     OW 8071   3.433   4.582   5.544
 2391SOL    HW1 8072   3.335   4.562   5.538
 2391SOL    HW2 8073   3.448   4.680   5.533
 2392SOL     OW 8074   3.272   5.408   5.753
 2392SOL    HW1 8075   3.325   5.383   5.672
 2392SOL    HW2 8076   3.182   5.443   5.725
 2393SOL     OW 8077   4.012   5.225   1.125
 2393SOL    HW1 8078   3.966   5.146   1.165
 2393SOL    HW2 8079   4.098   5.195   1.083
 2394SOL     OW 8080   1.191   3.756   4.781
 2394SOL    HW1 8081   1.239   3.670   4.763
 2394SOL    HW2 8082   1.216   3.790   4.872
 2395SOL     OW 8083   6.784   2.359   6.466
 2395SOL    HW1 8084   6.734   2.296   6.525
 2395SOL    HW2 8085   6.845   2.306   6.406
 2396SOL     OW 8086   5.871   6.238   1.072
 2396SOL    HW1 8087   5.876   6.331   1.038
 2396SOL    HW2 8088   5.923   6.231   1.157
 2397SOL     OW 8089   6.503   4.775   0.552
 2397SOL    HW1 8090   6.491   4.760   0.651
 2397SOL    HW2 8091   6.433   4.725   0.502
 2398SOL     OW 8092   1.925   4.896   5.476
 2398SOL    HW1 8093   1.965   4.987   5.460
 2398SOL    HW2 8094   1.998   4.828   5.485
 2399SOL     OW 8095   4.331   1.885   2.521
 2399SOL    HW1 8096   4.235   1.915   2.525
 2399SOL    HW2 8097   4.390   1.965   2.527
 2400SOL     OW 8098   3.578   3.938   0.681
 2400SOL    HW1 8099   3.495   3.931   0.736
 2400SOL    HW2 8100   3.612   4.032   0.686
 2401SOL     OW 8101   3.279   0.678   5.444
 2401SOL    HW1 8102   3.226   0.746   5.495
 2401SOL    HW2 8103   3.372   0.673   5.482
 2402SOL     OW 8104   6.767   2.062   4.648
 2402SOL    HW1 8105   6.823   1.984   4.678
 2402SOL    HW2 8106   6.782   2.078   4.550
 2403SOL     OW 8107   3.161   3.091   0.567
 2403SOL    HW1 8108   3.100   3.045   0.632
 2403SOL    HW2 8109   3.248   3.041   0.561
 2404SOL     OW 8110   5.684   1.704   2.213
 2404SOL    HW1 8111   5.624   1.642   2.161
 2404SOL    HW2 8112   5.757   1.651   2.255
 2405SOL     OW 8113   3.931   3.552   5.395
 2405SOL    HW1 8114   3.952   3.532   5.299
 2405SOL    HW2 8115   4.007   3.603   5.436
 2406SOL     OW 8116   2.109   0.696   2.972
 2406SOL    HW1 8117   2.194   0.643   2.970
 2406SOL    HW2 8118   2.064   0.690   2.882
 2407SOL     OW 8119   4.347   2.099   3.065
 2407SOL    HW1 8120   4.389   2.146   3.143
 2407SOL    HW2 8121   4.272   2.154   3.029
 2408SOL     OW 8122   3.486   5.327   2.535
 2408SOL    HW1 8123   3.438   5.315   2.621
 2408SOL    HW2 8124   3.580   5.294   2.543
 2409SOL     OW 8125   2.381   2.346   1.863
 2409SOL    HW1 8126   2.440   2.388   1.794
 2409SOL    HW2 8127   2.289   2.386   1.857
 2410SOL     OW 8128   6.524   2.929   5.826
 2410SOL    HW1 8129   6.526   3.029   5.824
 2410SOL    HW2 8130   6.483   2.898   5.912
 2411SOL     OW 8131   3.810   4.448   5.338
 2411SOL    HW1 8132   3.783   4.542   5.359
 2411SOL    HW2 8133   3.909   4.441   5.335
 2412SOL     OW 8134   2.763   3.808   0.193
 2412SOL    HW1 8135   2.665   3.806   0.171
 2412SOL    HW2 8136   2.810   3.737   0.139
 2413SOL     OW 8137   6.260   3.551   6.884
 2413SOL    HW1 8138   6.267   3.552   6.983
 2413SOL    HW2 8139   6.164   3.568   6.858
 2414SOL     OW 8140   5.941   3.751   2.861
 2414SOL    HW1 8141   5.849   3.713   2.859
 2414SOL    HW2 8142   5.976   3.762   2.768
 2415SOL     OW 8143   1.656   0.076   1.083
 2415SOL    HW1 8144   1.675   0.044   1.176
 2415SOL    HW2 8145   1.571   0.034   1.050
 2416SOL     OW 8146   2.384   1.465   4.914
 2416SOL    HW1 8147   2.421   1.527   4.844
 2416SOL    HW2 8148   2.323   1.515   4.975
 2417SOL     OW 8149   5.091   2.542   0.054
 2417SOL    HW1 8150   5.158   2.484   0.008
 2417SOL    HW2 8151   5.041   2.488   0.121
 2418SOL     OW 8152   3.578   3.745   5.028
 2418SOL    HW1 8153   3.479   3.741   5.042
 2418SOL    HW2 8154   3.598   3.729   4.931
 2419SOL     OW 8155   0.442   6.842   4.760
 2419SOL    HW1 8156   0.387   6.789   4.824
 2419SOL    HW2 8157   0.535   6.805   4.757
 2420SOL     OW 8158   4.215   0.137   2.741
 2420SOL    HW1 8159   4.276   0.093   2.675
 2420SOL    HW2 8160   4.268   0.195   2.802
 2421SOL     OW 8161   2.876   1.044   4.440
 2421SOL    HW1 8162   2.808   1.100   4.487
 2421SOL    HW2 8163   2.966   1.059   4.481
 2422SOL     OW 8164   5.140   0.418   1.038
 2422SOL    HW1 8165   5.204   0.342   1.053
 2422SOL    HW2 8166   5.087   0.433   1.121
 2423SOL     OW 8167   1.186   6.108   2.536
 2423SOL    HW1 8168   1.180   6.008   2.547
 2423SOL    HW2 8169   1.219   6.148   2.622
 2424SOL     OW 8170   5.518   5.833   6.001
 2424SOL    HW1 8171   5.458   5.797   5.930
 2424SOL    HW2 8172   5.484   5.805   6.091
 2425SOL     OW 8173   6.183   6.551   4.597
 2425SOL    HW1 8174   6.204   6.606   4.678
 2425SOL    HW2 8175   6.178   6.611   4.517
 2426SOL     OW 8176   1.206   4.674   4.194
 2426SOL    HW1 8177   1.290   4.634   4.157
 2426SOL    HW2 8178   1.222   4.770   4.216
 2427SOL     OW 8179   5.913   5.591   6.900
 2427SOL    HW1 8180   5.942   5.497   6.883
 2427SOL    HW2 8181   5.902   5.605   6.998
 2428SOL     OW 8182   1.430   0.229   3.846
 2428SOL    HW1 8183   1.490   0.300   3.810
 2428SOL    HW2 8184   1.378   0.264   3.923
 2429SOL     OW 8185   6.376   5.158   3.258
 2429SOL    HW1 8186   6.465   5.201   3.247
 2429SOL    HW2 8187   6.306   5.216   3.216
 2430SOL     OW 8188   5.530   2.847   0.900
 2430SOL    HW1 8189   5.576   2.810   0.819
 2430SOL    HW2 8190   5.550   2.944   0.908
 2431SOL     OW 8191   4.112   0.644   2.123
 2431SOL    HW1 8192   4.145   0.552   2.100
 2431SOL    HW2 8193   4.061   0.682   2.046
 2432SOL     OW 8194   4.524   6.440   2.925
 2432SOL    HW1 8195   4.613   6.394   2.924
 2432SOL    HW2 8196   4.531   6.525   2.977
 2433SOL     OW 8197   2.802   6.850   0.124
 2433SOL    HW1 8198   2.892   6.894   0.121
 2433SOL    HW2 8199   2.762   6.864   0.215
 2434SOL     OW 8200   4.681   1.450   3.332
 2434SOL    HW1 8201   4.764   1.461   3.277
 2434SOL    HW2 8202   4.644   1.358   3.318
 2435SOL     OW 8203   4.443   5.399   0.276
 2435SOL    HW1 8204   4.383   5.435   0.204
 2435SOL    HW2 8205   4.387   5.360   0.349
 2436SOL     OW 8206   1.977   6.817   0.745
 2436SOL    HW1 8207   1.906   6.877   0.781
 2436SOL    HW2 8208   2.012   6.759   0.819
 2437SOL     OW 8209   5.009   5.850   1.230
 2437SOL    HW1 8210   4.989   5.770   1.287
 2437SOL    HW2 8211   5.018   5.931   1.288
 2438SOL     OW 8212   3.695   0.847   5.105
 2438SOL    HW1 8213   3.710   0.756   5.143
 2438SOL    HW2 8214   3.771   0.871   5.044
 2439SOL     OW 8215   1.144   4.124   6.987
 2439SOL    HW1 8216   1.150   4.159   6.894
 2439SOL    HW2 8217   1.233   4.129   0.008
 2440SOL     OW 8218   3.603   6.680   5.323
 2440SOL    HW1 8219   3.625   6.592   5.365
 2440SOL    HW2 8220   3.687   6.722   5.289
 2441SOL     OW 8221   6.074   1.230   0.560
 2441SOL    HW1 8222   6.133   1.310   0.569
 2441SOL    HW2 8223   6.034   1.228   0.469
 2442SOL     OW 8224   5.567   5.720   3.451
 2442SOL    HW1 8225   5.657   5.734   3.410
 2442SOL    HW2 8226   5.510   5.664   3.390
 2443SOL     OW 8227   3.368   0.525   6.174
 2443SOL    HW1 8228   3.357   0.625   6.170
 2443SOL    HW2 8229   3.310   0.489   6.248
 2444SOL     OW 8230   4.178   4.265   6.545
 2444SOL    HW1 8231   4.235   4.311   6.613
 2444SOL    HW2 8232   4.125   4.192   6.589
 2445SOL     OW 8233   6.700   0.794   2.070
 2445SOL    HW1 8234   6.709   0.707   2.021
 2445SOL    HW2 8235   6.784   0.848   2.057
 2446SOL     OW 8236   0.406   2.962   4.091
 2446SOL    HW1 8237   0.488   3.013   4.118
 2446SOL    HW2 8238   0.418   2.926   3.999
 2447SOL     OW 8239   2.818   0.964   1.139
 2447SOL    HW1 8240   2.778   0.887   1.089
 2447SOL    HW2 8241   2.796   1.049   1.092
 2448SOL     OW 8242   6.652   1.077   4.396
 2448SOL    HW1 8243   6.559   1.041   4.384
 2448SOL    HW2 8244   6.689   1.105   4.307
 2449SOL     OW 8245   0.028   4.236   3.274
 2449SOL    HW1 8246   6.977   4.272   3.217
 2449SOL    HW2 8247   0.079   4.312   3.315
 2450SOL     OW 8248   3.604   5.548   5.625
 2450SOL    HW1 8249   3.664   5.478   5.586
 2450SOL    HW2 8250   3.512   5.539   5.587
 2451SOL     OW 8251   1.236   0.544   3.644
 2451SOL    HW1 8252   1.194   0.462   3.603
 2451SOL    HW2 8253   1.322   0.564   3.597
 2452SOL     OW 8254   2.873   1.867   3.473
 2452SOL    HW1 8255   2.908   1.783   3.433
 2452SOL    HW2 8256   2.822   1.919   3.404
 2453SOL     OW 8257   6.889   3.798   0.796
 2453SOL    HW1 8258   6.853   3.854   0.871
 2453SOL    HW2 8259   6.851   3.706   0.802
 2454SOL     OW 8260   3.604   0.789   6.750
 2454SOL    HW1 8261   3.569   0.752   6.836
 2454SOL    HW2 8262   3.692   0.834   6.766
 2455SOL     OW 8263   4.129   0.371   0.349
 2455SOL    HW1 8264   4.098   0.297   0.410
 2455SOL    HW2 8265   4.194   0.429   0.397
 2456SOL     OW 8266   5.792   1.926   0.313
 2456SOL    HW1 8267   5.803   1.994   0.241
 2456SOL    HW2 8268   5.880   1.910   0.359
 2457SOL     OW 8269   6.917   0.059   6.355
 2457SOL    HW1 8270   6.838   0.101   6.400
 2457SOL    HW2 8271   6.886   7.001   6.304
 2458SOL     OW 8272   2.274   5.878   3.880
 2458SOL    HW1 8273   2.244   5.853   3.972
 2458SOL    HW2 8274   2.193   5.893   3.823
 2459SOL     OW 8275   2.355   6.154   5.968
 2459SOL    HW1 8276   2.330   6.194   5.880
 2459SOL    HW2 8277   2.455   6.152   5.976
 2460SOL     OW 8278   2.247   1.317   1.337
 2460SOL    HW1 8279   2.148   1.328   1.344
 2460SOL    HW2 8280   2.269   1.264   1.256
 2461SOL     OW 8281   4.687   1.319   3.051
 2461SOL    HW1 8282   4.657   1.277   3.136
 2461SOL    HW2 8283   4.624   1.393   3.026
 2462SOL     OW 8284   1.915   5.469   0.346
 2462SOL    HW1 8285   1.908   5.517   0.433
 2462SOL    HW2 8286   1.884   5.529   0.272
 2463SOL     OW 8287   6.470   2.244   5.931
 2463SOL    HW1 8288   6.436   2.297   6.009
 2463SOL    HW2 8289   6.416   2.266   5.850
 2464SOL     OW 8290   2.146   3.821   2.284
 2464SOL    HW1 8291   2.244   3.841   2.289
 2464SOL    HW2 8292   2.132   3.730   2.245
 2465SOL     OW 8293   0.981   7.003   1.136
 2465SOL    HW1 8294   1.025   0.066   1.109
 2465SOL    HW2 8295   1.039   6.956   1.203
 2466SOL     OW 8296   2.013   1.509   3.044
 2466SOL    HW1 8297   1.931   1.488   3.097
 2466SOL    HW2 8298   2.040   1.604   3.059
 2467SOL     OW 8299   5.064   1.243   5.531
 2467SOL    HW1 8300   5.026   1.208   5.617
 2467SOL    HW2 8301   5.003   1.313   5.494
 2468SOL     OW 8302   4.538   6.587   2.092
 2468SOL    HW1 8303   4.541   6.488   2.108
 2468SOL    HW2 8304   4.577   6.635   2.170
 2469SOL     OW 8305   3.929   4.366   5.767
 2469SOL    HW1 8306   4.029   4.366   5.775
 2469SOL    HW2 8307   3.903   4.307   5.690
 2470SOL     OW 8308   3.939   4.343   6.425
 2470SOL    HW1 8309   4.021   4.349   6.482
 2470SOL    HW2 8310   3.925   4.430   6.377
 2471SOL     OW 8311   2.559   6.453   0.618
 2471SOL    HW1 8312   2.591   6.525   0.557
 2471SOL    HW2 8313   2.614   6.451   0.701
 2472SOL     OW 8314   5.021   2.478   4.654
 2472SOL    HW1 8315   5.053   2.560   4.606
 2472SOL    HW2 8316   4.923   2.468   4.640
 2473SOL     OW 8317   2.192   4.088   4.770
 2473SOL    HW1 8318   2.140   4.157   4.819
 2473SOL    HW2 8319   2.251   4.038   4.835
 2474SOL     OW 8320   0.739   5.977   0.633
 2474SOL    HW1 8321   0.751   5.901   0.568
 2474SOL    HW2 8322   0.756   6.064   0.586
 2475SOL     OW 8323   4.543   1.242   2.611
 2475SOL    HW1 8324   4.451   1.238   2.572
 2475SOL    HW2 8325   4.597   1.165   2.577
 2476SOL     OW 8326   6.919   1.665   3.097
 2476SOL    HW1 8327   6.834   1.619   3.073
 2476SOL    HW2 8328   6.898   1.752   3.142
 2477SOL     OW 8329   4.899   1.432   2.004
 2477SOL    HW1 8330   4.980   1.483   2.031
 2477SOL    HW2 8331   4.830   1.437   2.076
 2478SOL     OW 8332   6.433   1.322   2.394
 2478SOL    HW1 8333   6.439   1.324   2.294
 2478SOL    HW2 8334   6.389   1.237   2.423
 2479SOL     OW 8335   1.347   3.867   1.507
 2479SOL    HW1 8336   1.429   3.923   1.515
 2479SOL    HW2 8337   1.299   3.866   1.596
 2480SOL     OW 8338   5.580   4.610   0.721
 2480SOL    HW1 8339   5.531   4.574   0.642
 2480SOL    HW2 8340   5.633   4.536   0.763
 2481SOL     OW 8341   2.116   0.825   6.923
 2481SOL    HW1 8342   2.046   0.811   6.853
 2481SOL    HW2 8343   2.168   0.908   6.902
 2482SOL     OW 8344   4.874   3.368   5.545
 2482SOL    HW1 8345   4.972   3.386   5.551
 2482SOL    HW2 8346   4.830   3.442   5.494
 2483SOL     OW 8347   1.665   1.967   6.710
 2483SOL    HW1 8348   1.701   1.949   6.619
 2483SOL    HW2 8349   1.693   2.058   6.740
 2484SOL     OW 8350   3.381   0.716   0.335
 2484SOL    HW1 8351   3.443   0.794   0.327
 2484SOL    HW2 8352   3.288   0.748   0.351
 2485SOL     OW 8353   5.927   3.836   1.418
 2485SOL    HW1 8354   5.869   3.880   1.350
 2485SOL    HW2 8355   5.876   3.826   1.504
 2486SOL     OW 8356   2.134   5.112   4.723
 2486SOL    HW1 8357   2.211   5.094   4.661
 2486SOL    HW2 8358   2.169   5.129   4.815
 2487SOL     OW 8359   3.402   6.008   6.899
 2487SOL    HW1 8360   3.417   5.948   6.820
 2487SOL    HW2 8361   3.430   6.101   6.875
 2488SOL     OW 8362   1.998   4.366   2.302
 2488SOL    HW1 8363   2.073   4.432   2.312
 2488SOL    HW2 8364   1.911   4.415   2.306
 2489SOL     OW 8365   1.102   5.619   3.070
 2489SOL    HW1 8366   1.035   5.550   3.045
 2489SOL    HW2 8367   1.189   5.574   3.092
 2490SOL     OW 8368   6.668   4.855   1.363
 2490SOL    HW1 8369   6.698   4.850   1.458
 2490SOL    HW2 8370   6.621   4.770   1.338
 2491SOL     OW 8371   2.905   5.424   1.132
 2491SOL    HW1 8372   2.957   5.421   1.047
 2491SOL    HW2 8373   2.837   5.351   1.132
 2492SOL     OW 8374   4.227   2.050   0.384
 2492SOL    HW1 8375   4.175   2.118   0.436
 2492SOL    HW2 8376   4.316   2.036   0.428
 2493SOL     OW 8377   6.147   0.796   2.473
 2493SOL    HW1 8378   6.113   0.863   2.407
 2493SOL    HW2 8379   6.192   0.721   2.424
 2494SOL     OW 8380   5.871   3.832   2.032
 2494SOL    HW1 8381   5.840   3.913   2.081
 2494SOL    HW2 8382   5.802   3.760   2.038
 2495SOL     OW 8383   5.258   0.522   4.290
 2495SOL    HW1 8384   5.268   0.612   4.333
 2495SOL    HW2 8385   5.283   0.529   4.193
 2496SOL     OW 8386   0.682   4.125   5.574
 2496SOL    HW1 8387   0.588   4.153   5.554
 2496SOL    HW2 8388   0.685   4.027   5.595
 2497SOL     OW 8389   0.331   0.392   1.116
 2497SOL    HW1 8390   0.422   0.354   1.100
 2497SOL    HW2 8391   0.329   0.434   1.207
 2498SOL     OW 8392   3.087   1.775   4.365
 2498SOL    HW1 8393   3.183   1.748   4.376
 2498SOL    HW2 8394   3.028   1.706   4.408
 2499SOL     OW 8395   5.653   1.976   4.332
 2499SOL    HW1 8396   5.609   1.894   4.369
 2499SOL    HW2 8397   5.752   1.965   4.334
 2500SOL     OW 8398   4.262   3.223   0.008
 2500SOL    HW1 8399   4.183   3.209   6.971
 2500SOL    HW2 8400   4.331   3.153   7.013
 2501SOL     OW 8401   6.213   5.627   6.874
 2501SOL    HW1 8402   6.115   5.629   6.856
 2501SOL    HW2 8403   6.245   5.533   6.873
 2502SOL     OW 8404   2.369   5.835   2.890
 2502SOL    HW1 8405   2.335   5.914   2.838
 2502SOL    HW2 8406   2.356   5.852   2.988
 2503SOL     OW 8407   3.342   5.472   4.648
 2503SOL    HW1 8408   3.358   5.515   4.559
 2503SOL    HW2 8409   3.245   5.448   4.657
 2504SOL     OW 8410   2.991   5.109   4.656
 2504SOL    HW1 8411   3.052   5.029   4.657
 2504SOL    HW2 8412   3.023   5.174   4.588
 2505SOL     OW 8413   1.787   5.774   3.839
 2505SOL    HW1 8414   1.697   5.819   3.836
 2505SOL    HW2 8415   1.774   5.677   3.860
 2506SOL     OW 8416   6.198   3.265   6.364
 2506SOL    HW1 8417   6.160   3.354   6.338
 2506SOL    HW2 8418   6.138   3.222   6.432
 2507SOL     OW 8419   1.060   4.602   0.502
 2507SOL    HW1 8420   1.016   4.587   0.590
 2507SOL    HW2 8421   1.048   4.521   0.444
 2508SOL     OW 8422   2.394   1.458   1.935
 2508SOL    HW1 8423   2.470   1.393   1.938
 2508SOL    HW2 8424   2.404   1.523   2.011
 2509SOL     OW 8425   6.382   2.718   2.350
 2509SOL    HW1 8426   6.327   2.695   2.430
 2509SOL    HW2 8427   6.348   2.668   2.270
 2510SOL     OW 8428   3.288   4.334   1.463
 2510SOL    HW1 8429   3.286   4.234   1.472
 2510SOL    HW2 8430   3.369   4.362   1.413
 2511SOL     OW 8431   3.133   1.468   3.563
 2511SOL    HW1 8432   3.206   1.526   3.600
 2511SOL    HW2 8433   3.166   1.423   3.480
 2512SOL     OW 8434   4.981   4.689   4.590
 2512SOL    HW1 8435   5.063   4.734   4.624
 2512SOL    HW2 8436   4.970   4.708   4.493
 2513SOL     OW 8437   1.178   3.401   4.810
 2513SOL    HW1 8438   1.204   3.305   4.795
 2513SOL    HW2 8439   1.179   3.421   4.908
 2514SOL     OW 8440   6.658   3.428   4.122
 2514SOL    HW1 8441   6.669   3.372   4.204
 2514SOL    HW2 8442   6.580   3.489   4.134
 2515SOL     OW 8443   1.365   6.543   0.648
 2515SOL    HW1 8444   1.382   6.455   0.603
 2515SOL    HW2 8445   1.283   6.535   0.705
 2516SOL     OW 8446   5.920   0.897   3.199
 2516SOL    HW1 8447   5.992   0.938   3.143
 2516SOL    HW2 8448   5.943   0.801   3.216
 2517SOL     OW 8449   0.559   4.901   5.843
 2517SOL    HW1 8450   0.480   4.896   5.781
 2517SOL    HW2 8451   0.537   4.963   5.919
 2518SOL     OW 8452   1.891   3.572   0.080
 2518SOL    HW1 8453   1.966   3.591   0.144
 2518SOL    HW2 8454   1.843   3.657   0.058
 2519SOL     OW 8455   5.389   6.481   3.886
 2519SOL    HW1 8456   5.452   6.415   3.927
 2519SOL    HW2 8457   5.361   6.449   3.795
 2520SOL     OW 8458   1.236   2.553   0.131
 2520SOL    HW1 8459   1.300   2.570   0.206
 2520SOL    HW2 8460   1.157   2.613   0.140
 2521SOL     OW 8461   1.349   6.214   5.327
 2521SOL    HW1 8462   1.305   6.168   5.250
 2521SOL    HW2 8463   1.285   6.220   5.404
 2522SOL     OW 8464   6.912   3.556   5.882
 2522SOL    HW1 8465   6.906   3.651   5.912
 2522SOL    HW2 8466   6.931   3.552   5.784
 2523SOL     OW 8467   0.597   2.748   2.083
 2523SOL    HW1 8468   0.565   2.658   2.054
 2523SOL    HW2 8469   0.565   2.766   2.176
 2524SOL     OW 8470   0.582   5.442   5.643
 2524SOL    HW1 8471   0.515   5.508   5.678
 2524SOL    HW2 8472   0.535   5.374   5.587
 2525SOL     OW 8473   0.552   2.721   4.296
 2525SOL    HW1 8474   0.538   2.648   4.228
 2525SOL    HW2 8475   0.649   2.745   4.298
 2526SOL     OW 8476   2.063   4.427   5.372
 2526SOL    HW1 8477   2.070   4.471   5.283
 2526SOL    HW2 8478   1.991   4.471   5.426
 2527SOL     OW 8479   5.333   6.016   4.920
 2527SOL    HW1 8480   5.243   5.973   4.915
 2527SOL    HW2 8481   5.403   5.946   4.930
 2528SOL     OW 8482   5.727   4.435   1.127
 2528SOL    HW1 8483   5.687   4.351   1.163
 2528SOL    HW2 8484   5.780   4.481   1.198
 2529SOL     OW 8485   6.982   6.130   6.555
 2529SOL    HW1 8486   0.025   6.105   6.626
 2529SOL    HW2 8487   6.892   6.143   6.596
 2530SOL     OW 8488   1.901   7.009   4.909
 2530SOL    HW1 8489   1.830   6.951   4.868
 2530SOL    HW2 8490   1.991   6.974   4.882
 2531SOL     OW 8491   4.973   6.094   4.224
 2531SOL    HW1 8492   5.010   6.080   4.132
 2531SOL    HW2 8493   4.949   6.005   4.263
 2532SOL     OW 8494   0.920   5.684   0.708
 2532SOL    HW1 8495   0.870   5.686   0.621
 2532SOL    HW2 8496   1.008   5.730   0.697
 2533SOL     OW 8497   3.327   6.868   2.954
 2533SOL    HW1 8498   3.394   6.795   2.950
 2533SOL    HW2 8499   3.342   6.931   2.877
 2534SOL     OW 8500   2.897   0.891   2.845
 2534SOL    HW1 8501   2.883   0.971   2.903
 2534SOL    HW2 8502   2.967   0.832   2.886
 2535SOL     OW 8503   2.892   2.920   6.788
 2535SOL    HW1 8504   2.799   2.936   6.754
 2535SOL    HW2 8505   2.941   3.007   6.792
 2536SOL     OW 8506   6.535   1.961   3.884
 2536SOL    HW1 8507   6.537   2.042   3.825
 2536SOL    HW2 8508   6.591   1.889   3.844
 2537SOL     OW 8509   4.886   6.703   6.536
 2537SOL    HW1 8510   4.865   6.614   6.576
 2537SOL    HW2 8511   4.860   6.775   6.599
 2538SOL     OW 8512   1.313   4.626   4.466
 2538SOL    HW1 8513   1.296   4.644   4.369
 2538SOL    HW2 8514   1.230   4.646   4.518
 2539SOL     OW 8515   5.520   0.629   5.920
 2539SOL    HW1 8516   5.463   0.671   5.849
 2539SOL    HW2 8517   5.589   0.695   5.951
 2540SOL     OW 8518   4.103   1.007   2.778
 2540SOL    HW1 8519   4.036   0.943   2.815
 2540SOL    HW2 8520   4.156   0.963   2.706
 2541SOL     OW 8521   2.045   6.420   5.358
 2541SOL    HW1 8522   2.124   6.477   5.337
 2541SOL    HW2 8523   1.961   6.466   5.328
 2542SOL     OW 8524   4.859   1.330   6.431
 2542SOL    HW1 8525   4.852   1.425   6.402
 2542SOL    HW2 8526   4.793   1.275   6.379
 2543SOL     OW 8527   2.269   1.962   2.842
 2543SOL    HW1 8528   2.276   2.025   2.919
 2543SOL    HW2 8529   2.178   1.967   2.802
 2544SOL     OW 8530   0.143   5.175   1.259
 2544SOL    HW1 8531   0.086   5.159   1.339
 2544SOL    HW2 8532   0.159   5.273   1.249
 2545SOL     OW 8533   2.023   0.652   1.280
 2545SOL    HW1 8534   1.989   0.566   1.241
 2545SOL    HW2 8535   1.968   0.676   1.360
 2546SOL     OW 8536   0.085   2.498   1.664
 2546SOL    HW1 8537   0.047   2.555   1.737
 2546SOL    HW2 8538   0.012   2.443   1.623
 2547SOL     OW 8539   6.149   4.691   0.224
 2547SOL    HW1 8540   6.200   4.777   0.228
 2547SOL    HW2 8541   6.208   4.620   0.186
 2548SOL     OW 8542   2.862   6.897   5.850
 2548SOL    HW1 8543   2.818   6.867   5.765
 2548SOL    HW2 8544   2.868   6.821   5.914
 2549SOL     OW 8545   2.078   0.907   1.196
 2549SOL    HW1 8546   2.039   0.908   1.103
 2549SOL    HW2 8547   2.061   0.818   1.238
 2550SOL     OW 8548   0.015   0.535   6.445
 2550SOL    HW1 8549   6.985   0.554   6.528
 2550SOL    HW2 8550   0.013   0.616   6.385
 2551SOL     OW 8551   2.966   5.256   0.407
 2551SOL    HW1 8552   3.003   5.185   0.467
 2551SOL    HW2 8553   2.964   5.223   0.313
 2552SOL     OW 8554   1.130   5.841   6.216
 2552SOL    HW1 8555   1.212   5.794   6.249
 2552SOL    HW2 8556   1.113   5.815   6.121
 2553SOL     OW 8557   3.727   3.579   6.890
 2553SOL    HW1 8558   3.676   3.582   6.804
 2553SOL    HW2 8559   3.797   3.650   6.890
 2554SOL     OW 8560   1.703   6.478   6.493
 2554SOL    HW1 8561   1.650   6.401   6.529
 2554SOL    HW2 8562   1.724   6.462   6.397
 2555SOL     OW 8563   6.284   6.320   6.288
 2555SOL    HW1 8564   6.337   6.241   6.256
 2555SOL    HW2 8565   6.187   6.296   6.289
 2556SOL     OW 8566   4.259   5.450   0.071
 2556SOL    HW1 8567   4.277   5.378   0.003
 2556SOL    HW2 8568   4.247   5.538   0.024
 2557SOL     OW 8569   2.518   2.519   6.422
 2557SOL    HW1 8570   2.588   2.589   6.435
 2557SOL    HW2 8571   2.492   2.515   6.326
 2558SOL     OW 8572   4.107   3.415   6.019
 2558SOL    HW1 8573   4.072   3.425   6.113
 2558SOL    HW2 8574   4.047   3.353   5.968
 2559SOL     OW 8575   6.519   3.218   4.948
 2559SOL    HW1 8576   6.466   3.275   5.010
 2559SOL    HW2 8577   6.533   3.267   4.862
 2560SOL     OW 8578   5.778   3.406   4.548
 2560SOL    HW1 8579   5.828   3.481   4.505
 2560SOL    HW2 8580   5.685   3.404   4.511
 2561SOL     OW 8581   3.049   0.257   3.845
 2561SOL    HW1 8582   2.965   0.204   3.852
 2561SOL    HW2 8583   3.097   0.232   3.761
 2562SOL     OW 8584   2.045   6.003   2.146
 2562SOL    HW1 8585   2.111   5.963   2.210
 2562SOL    HW2 8586   2.029   6.099   2.170
 2563SOL     OW 8587   4.307   1.722   6.939
 2563SOL    HW1 8588   4.295   1.625   6.960
 2563SOL    HW2 8589   4.223   1.772   6.960
 2564SOL     OW 8590   1.236   6.766   6.642
 2564SOL    HW1 8591   1.219   6.849   6.589
 2564SOL    HW2 8592   1.299   6.706   6.592
 2565SOL     OW 8593   0.359   1.073   0.435
 2565SOL    HW1 8594   0.381   1.170   0.440
 2565SOL    HW2 8595   0.399   1.026   0.514
 2566SOL     OW 8596   1.566   6.637   1.069
 2566SOL    HW1 8597   1.586   6.575   0.993
 2566SOL    HW2 8598   1.646   6.643   1.128
 2567SOL     OW 8599   1.463   1.358   1.576
 2567SOL    HW1 8600   1.403   1.301   1.633
 2567SOL    HW2 8601   1.538   1.392   1.632
 2568SOL     OW 8602   3.334   6.909   6.208
 2568SOL    HW1 8603   3.422   6.896   6.161
 2568SOL    HW2 8604   3.269   6.953   6.146
 2569SOL     OW 8605   2.858   0.487   1.874
 2569SOL    HW1 8606   2.903   0.495   1.963
 2569SOL    HW2 8607   2.810   0.572   1.854
 2570SOL     OW 8608   6.518   0.496   0.181
 2570SOL    HW1 8609   6.512   0.566   0.252
 2570SOL    HW2 8610   6.504   0.538   0.091
 2571SOL     OW 8611   1.984   3.728   5.516
 2571SOL    HW1 8612   2.046   3.705   5.440
 2571SOL    HW2 8613   1.915   3.657   5.525
 2572SOL     OW 8614   2.146   6.207   0.906
 2572SOL    HW1 8615   2.127   6.223   0.809
 2572SOL    HW2 8616   2.111   6.117   0.932
 2573SOL     OW 8617   6.644   1.545   2.135
 2573SOL    HW1 8618   6.730   1.550   2.084
 2573SOL    HW2 8619   6.627   1.633   2.180
 2574SOL     OW 8620   6.110   3.093   0.027
 2574SOL    HW1 8621   6.133   3.168   0.089
 2574SOL    HW2 8622   6.076   3.015   0.080
 2575SOL     OW 8623   4.777   5.476   0.200
 2575SOL    HW1 8624   4.769   5.492   0.299
 2575SOL    HW2 8625   4.687   5.452   0.164
 2576SOL     OW 8626   4.160   6.958   4.324
 2576SOL    HW1 8627   4.097   6.881   4.338
 2576SOL    HW2 8628   4.215   6.941   4.242
 2577SOL     OW 8629   3.886   6.575   2.245
 2577SOL    HW1 8630   3.863   6.658   2.295
 2577SOL    HW2 8631   3.869   6.589   2.147
 2578SOL     OW 8632   4.715   2.008   4.256
 2578SOL    HW1 8633   4.709   2.042   4.162
 2578SOL    HW2 8634   4.810   2.009   4.285
 2579SOL     OW 8635   0.854   0.310   3.016
 2579SOL    HW1 8636   0.939   0.273   2.979
 2579SOL    HW2 8637   0.844   0.406   2.987
 2580SOL     OW 8638   2.375   2.836   6.881
 2580SOL    HW1 8639   2.381   2.871   6.975
 2580SOL    HW2 8640   2.350   2.739   6.883
 2581SOL     OW 8641   6.702   4.200   1.215
 2581SOL    HW1 8642   6.647   4.283   1.214
 2581SOL    HW2 8643   6.657   4.129   1.269
 2582SOL     OW 8644   0.781   4.072   2.198
 2582SOL    HW1 8645   0.693   4.031   2.220
 2582SOL    HW2 8646   0.775   4.171   2.210
 2583SOL     OW 8647   0.628   1.537   1.284
 2583SOL    HW1 8648   0.533   1.514   1.261
 2583SOL    HW2 8649   0.636   1.547   1.384
 2584SOL     OW 8650   4.053   5.828   0.126
 2584SOL    HW1 8651   3.990   5.752   0.144
 2584SOL    HW2 8652   4.018   5.883   0.050
 2585SOL     OW 8653   4.001   2.776   0.736
 2585SOL    HW1 8654   4.083   2.725   0.763
 2585SOL    HW2 8655   3.920   2.726   0.768
 2586SOL     OW 8656   3.375   1.534   3.880
 2586SOL    HW1 8657   3.294   1.532   3.938
 2586SOL    HW2 8658   3.420   1.624   3.888
 2587SOL     OW 8659   0.290   0.469   3.726
 2587SOL    HW1 8660   0.323   0.393   3.671
 2587SOL    HW2 8661   0.205   0.505   3.686
 2588SOL     OW 8662   4.678   6.849   0.019
 2588SOL    HW1 8663   4.605   6.912   0.047
 2588SOL    HW2 8664   4.767   6.891   0.036
 2589SOL     OW 8665   0.223   6.118   6.390
 2589SOL    HW1 8666   0.272   6.190   6.439
 2589SOL    HW2 8667   0.134   6.103   6.433
 2590SOL     OW 8668   3.232   6.325   1.968
 2590SOL    HW1 8669   3.273   6.270   1.895
 2590SOL    HW2 8670   3.178   6.399   1.928
 2591SOL     OW 8671   6.920   5.966   2.375
 2591SOL    HW1 8672   6.834   5.982   2.424
 2591SOL    HW2 8673   6.918   5.875   2.332
 2592SOL     OW 8674   3.568   6.473   1.105
 2592SOL    HW1 8675   3.590   6.519   1.191
 2592SOL    HW2 8676   3.547   6.377   1.123
 2593SOL     OW 8677   3.024   6.003   0.880
 2593SOL    HW1 8678   2.952   5.950   0.924
 2593SOL    HW2 8679   3.102   6.010   0.942
 2594SOL     OW 8680   0.403   5.531   5.978
 2594SOL    HW1 8681   0.380   5.575   6.064
 2594SOL    HW2 8682   0.496   5.496   5.981
 2595SOL     OW 8683   6.355   1.816   4.723
 2595SOL    HW1 8684   6.316   1.735   4.767
 2595SOL    HW2 8685   6.362   1.800   4.625
 2596SOL     OW 8686   3.921   1.968   1.760
 2596SOL    HW1 8687   3.887   1.980   1.667
 2596SOL    HW2 8688   3.987   1.893   1.762
 2597SOL     OW 8689   1.270   4.083   6.066
 2597SOL    HW1 8690   1.280   4.027   5.983
 2597SOL    HW2 8691   1.204   4.039   6.127
 2598SOL     OW 8692   6.140   1.305   4.334
 2598SOL    HW1 8693   6.219   1.342   4.285
 2598SOL    HW2 8694   6.129   1.208   4.311
 2599SOL     OW 8695   2.456   0.008   0.784
 2599SOL    HW1 8696   2.551   0.036   0.796
 2599SOL    HW2 8697   2.452   6.930   0.780
 2600SOL     OW 8698   5.163   3.372   4.090
 2600SOL    HW1 8699   5.146   3.458   4.043
 2600SOL    HW2 8700   5.261   3.352   4.089
 2601SOL     OW 8701   1.914   2.187   0.212
 2601SOL    HW1 8702   1.918   2.088   0.224
 2601SOL    HW2 8703   2.005   2.226   0.224
 2602SOL     OW 8704   6.509   4.901   4.064
 2602SOL    HW1 8705   6.600   4.878   4.031
 2602SOL    HW2 8706   6.481   4.990   4.028
 2603SOL     OW 8707   2.381   1.728   1.826
 2603SOL    HW1 8708   2.325   1.645   1.834
 2603SOL    HW2 8709   2.438   1.722   1.744
 2604SOL     OW 8710   4.926   1.446   2.925
 2604SOL    HW1 8711   4.982   1.382   2.874
 2604SOL    HW2 8712   4.852   1.397   2.971
 2605SOL     OW 8713   2.200   4.543   2.873
 2605SOL    HW1 8714   2.238   4.598   2.948
 2605SOL    HW2 8715   2.106   4.573   2.855
 2606SOL     OW 8716   6.857   4.494   1.451
 2606SOL    HW1 8717   6.861   4.459   1.357
 2606SOL    HW2 8718   6.937   4.553   1.467
 2607SOL     OW 8719   0.346   1.072   6.925
 2607SOL    HW1 8720   0.351   1.053   0.001
 2607SOL    HW2 8721   0.375   0.991   6.874
 2608SOL     OW 8722   4.844   4.747   1.416
 2608SOL    HW1 8723   4.862   4.823   1.479
 2608SOL    HW2 8724   4.812   4.668   1.468
 2609SOL     OW 8725   6.713   1.848   1.334
 2609SOL    HW1 8726   6.788   1.895   1.286
 2609SOL    HW2 8727   6.673   1.780   1.273
 2610SOL     OW 8728   0.378   4.571   4.666
 2610SOL    HW1 8729   0.396   4.579   4.568
 2610SOL    HW2 8730   0.320   4.647   4.696
 2611SOL     OW 8731   4.452   6.415   0.913
 2611SOL    HW1 8732   4.373   6.403   0.853
 2611SOL    HW2 8733   4.431   6.377   1.003
 2612SOL     OW 8734   0.009   7.022   5.598
 2612SOL    HW1 8735   7.014   6.946   5.536
 2612SOL    HW2 8736   0.107   0.011   5.611
 2613SOL     OW 8737   2.756   6.952   6.891
 2613SOL    HW1 8738   2.805   6.922   6.809
 2613SOL    HW2 8739   2.765   6.882   6.962
 2614SOL     OW 8740   0.220   0.516   6.114
 2614SOL    HW1 8741   0.277   0.448   6.158
 2614SOL    HW2 8742   0.163   0.562   6.182
 2615SOL     OW 8743   0.032   2.520   3.239
 2615SOL    HW1 8744   6.962   2.548   3.264
 2615SOL    HW2 8745   0.033   2.421   3.224
 2616SOL     OW 8746   3.621   2.871   5.040
 2616SOL    HW1 8747   3.569   2.952   5.012
 2616SOL    HW2 8748   3.639   2.813   4.960
 2617SOL     OW 8749   3.241   6.385   0.689
 2617SOL    HW1 8750   3.260   6.433   0.603
 2617SOL    HW2 8751   3.147   6.349   0.687
 2618SOL     OW 8752   0.052   0.267   4.161
 2618SOL    HW1 8753   0.037   0.253   4.063
 2618SOL    HW2 8754   6.990   0.299   4.204
 2619SOL     OW 8755   4.268   1.767   3.434
 2619SOL    HW1 8756   4.175   1.731   3.439
 2619SOL    HW2 8757   4.333   1.691   3.435
 2620SOL     OW 8758   0.103   6.931   2.742
 2620SOL    HW1 8759   0.076   7.003   2.806
 2620SOL    HW2 8760   0.083   6.961   2.648
 2621SOL     OW 8761   1.456   6.037   2.906
 2621SOL    HW1 8762   1.529   6.018   2.841
 2621SOL    HW2 8763   1.467   5.980   2.987
 2622SOL     OW 8764   1.906   3.178   5.655
 2622SOL    HW1 8765   1.818   3.130   5.655
 2622SOL    HW2 8766   1.924   3.214   5.564
 2623SOL     OW 8767   2.145   1.735   5.478
 2623SOL    HW1 8768   2.113   1.662   5.417
 2623SOL    HW2 8769   2.112   1.823   5.444
 2624SOL     OW 8770   6.765   2.251   5.801
 2624SOL    HW1 8771   6.712   2.169   5.779
 2624SOL    HW2 8772   6.730   2.290   5.887
 2625SOL     OW 8773   2.388   2.621   5.272
 2625SOL    HW1 8774   2.304   2.672   5.251
 2625SOL    HW2 8775   2.466   2.683   5.268
 2626SOL     OW 8776   0.710   6.991   5.629
 2626SOL    HW1 8777   0.734   0.049   5.683
 2626SOL    HW2 8778   0.618   7.004   5.590
 2627SOL     OW 8779   1.639   1.310   5.672
 2627SOL    HW1 8780   1.588   1.270   5.595
 2627SOL    HW2 8781   1.705   1.376   5.637
 2628SOL     OW 8782   2.041   4.675   6.138
 2628SOL    HW1 8783   2.048   4.643   6.043
 2628SOL    HW2 8784   2.115   4.635   6.192
 2629SOL     OW 8785   2.676   3.105   1.482
 2629SOL    HW1 8786   2.622   3.177   1.524
 2629SOL    HW2 8787   2.708   3.042   1.552
 2630SOL     OW 8788   3.017   2.068   2.421
 2630SOL    HW1 8789   3.105   2.112   2.438
 2630SOL    HW2 8790   2.944   2.134   2.438
 2631SOL     OW 8791   5.437   0.984   5.427
 2631SOL    HW1 8792   5.466   0.889   5.442
 2631SOL    HW2 8793   5.507   1.046   5.463
 2632SOL     OW 8794   4.050   2.853   6.459
 2632SOL    HW1 8795   4.065   2.822   6.553
 2632SOL    HW2 8796   3.952   2.869   6.445
 2633SOL     OW 8797   0.318   1.203   4.652
 2633SOL    HW1 8798   0.404   1.252   4.641
 2633SOL    HW2 8799   0.242   1.261   4.620
 2634SOL     OW 8800   0.618   4.352   3.528
 2634SOL    HW1 8801   0.713   4.332   3.553
 2634SOL    HW2 8802   0.604   4.335   3.431
 2635SOL     OW 8803   6.246   6.435   5.468
 2635SOL    HW1 8804   6.260   6.529   5.499
 2635SOL    HW2 8805   6.312   6.413   5.396
 2636SOL     OW 8806   4.734   0.775   5.322
 2636SOL    HW1 8807   4.706   0.700   5.382
 2636SOL    HW2 8808   4.795   0.837   5.371
 2637SOL     OW 8809   4.667   1.837   3.392
 2637SOL    HW1 8810   4.714   1.800   3.473
 2637SOL    HW2 8811   4.733   1.887   3.336
 2638SOL     OW 8812   6.760   0.080   3.570
 2638SOL    HW1 8813   6.676   0.126   3.598
 2638SOL    HW2 8814   6.806   0.134   3.500
 2639SOL     OW 8815   0.369   5.790   0.742
 2639SOL    HW1 8816   0.367   5.856   0.816
 2639SOL    HW2 8817   0.279   5.788   0.697
 2640SOL     OW 8818   0.559   5.850   5.107
 2640SOL    HW1 8819   0.594   5.769   5.155
 2640SOL    HW2 8820   0.636   5.901   5.068
 2641SOL     OW 8821   5.260   3.226   2.628
 2641SOL    HW1 8822   5.240   3.207   2.531
 2641SOL    HW2 8823   5.265   3.325   2.641
 2642SOL     OW 8824   4.248   6.709   3.715
 2642SOL    HW1 8825   4.151   6.719   3.734
 2642SOL    HW2 8826   4.296   6.685   3.800
 2643SOL     OW 8827   0.516   4.326   3.270
 2643SOL    HW1 8828   0.423   4.289   3.259
 2643SOL    HW2 8829   0.511   4.425   3.275
 2644SOL     OW 8830   5.980   6.196   5.624
 2644SOL    HW1 8831   6.013   6.135   5.551
 2644SOL    HW2 8832   5.900   6.246   5.591
 2645SOL     OW 8833   4.498   5.825   4.565
 2645SOL    HW1 8834   4.553   5.789   4.489
 2645SOL    HW2 8835   4.401   5.819   4.542
 2646SOL     OW 8836   6.070   0.558   6.711
 2646SOL    HW1 8837   5.980   0.583   6.746
 2646SOL    HW2 8838   6.060   0.501   6.629
 2647SOL     OW 8839   6.686   0.204   2.248
 2647SOL    HW1 8840   6.746   0.283   2.238
 2647SOL    HW2 8841   6.682   0.154   2.162
 2648SOL     OW 8842   0.649   0.055   4.316
 2648SOL    HW1 8843   0.716   7.020   4.268
 2648SOL    HW2 8844   0.578   7.019   4.356
 2649SOL     OW 8845   5.467   2.992   6.850
 2649SOL    HW1 8846   5.466   2.898   6.886
 2649SOL    HW2 8847   5.559   3.029   6.857
 2650SOL     OW 8848   1.056   4.244   4.580
 2650SOL    HW1 8849   1.099   4.160   4.611
 2650SOL    HW2 8850   1.113   4.323   4.605
 2651SOL     OW 8851   1.245   1.169   0.533
 2651SOL    HW1 8852   1.301   1.203   0.608
 2651SOL    HW2 8853   1.303   1.118   0.468
 2652SOL     OW 8854   3.962   3.436   4.213
 2652SOL    HW1 8855   3.900   3.473   4.282
 2652SOL    HW2 8856   3.910   3.415   4.130
 2653SOL     OW 8857   4.957   0.263   5.130
 2653SOL    HW1 8858   4.878   0.203   5.144
 2653SOL    HW2 8859   4.983   0.305   5.217
 2654SOL     OW 8860   4.498   5.977   2.279
 2654SOL    HW1 8861   4.491   6.032   2.362
 2654SOL    HW2 8862   4.572   6.012   2.221
 2655SOL     OW 8863   4.532   6.151   4.348
 2655SOL    HW1 8864   4.483   6.155   4.436
 2655SOL    HW2 8865   4.535   6.243   4.308
 2656SOL     OW 8866   3.793   4.979   4.520
 2656SOL    HW1 8867   3.719   5.044   4.500
 2656SOL    HW2 8868   3.764   4.918   4.594
 2657SOL     OW 8869   0.733   3.881   6.063
 2657SOL    HW1 8870   0.703   3.789   6.036
 2657SOL    HW2 8871   0.801   3.914   5.998
 2658SOL     OW 8872   5.016   4.585   0.749
 2658SOL    HW1 8873   5.112   4.594   0.773
 2658SOL    HW2 8874   4.967   4.669   0.770
 2659SOL     OW 8875   5.341   3.050   4.330
 2659SOL    HW1 8876   5.272   3.043   4.258
 2659SOL    HW2 8877   5.392   2.965   4.336
 2660SOL     OW 8878   1.821   0.242   1.800
 2660SOL    HW1 8879   1.779   0.330   1.822
 2660SOL    HW2 8880   1.771   0.199   1.725
 2661SOL     OW 8881   2.306   6.863   1.020
 2661SOL    HW1 8882   2.361   6.845   1.101
 2661SOL    HW2 8883   2.348   6.935   0.966
 2662SOL     OW 8884   4.922   6.816   4.597
 2662SOL    HW1 8885   4.956   6.723   4.615
 2662SOL    HW2 8886   4.988   6.865   4.540
 2663SOL     OW 8887   2.829   4.122   6.756
 2663SOL    HW1 8888   2.869   4.040   6.715
 2663SOL    HW2 8889   2.846   4.121   6.855
 2664SOL     OW 8890   4.613   4.123   5.391
 2664SOL    HW1 8891   4.691   4.177   5.421
 2664SOL    HW2 8892   4.602   4.132   5.292
 2665SOL     OW 8893   2.598   2.816   5.293
 2665SOL    HW1 8894   2.595   2.819   5.393
 2665SOL    HW2 8895   2.577   2.906   5.256
 2666SOL     OW 8896   5.851   4.547   1.338
 2666SOL    HW1 8897   5.800   4.614   1.392
 2666SOL    HW2 8898   5.941   4.584   1.315
 2667SOL     OW 8899   0.393   6.518   3.922
 2667SOL    HW1 8900   0.478   6.523   3.975
 2667SOL    HW2 8901   0.412   6.479   3.832
 2668SOL     OW 8902   0.471   3.347   4.607
 2668SOL    HW1 8903   0.477   3.248   4.600
 2668SOL    HW2 8904   0.491   3.388   4.518
 2669SOL     OW 8905   2.852   4.627   5.407
 2669SOL    HW1 8906   2.870   4.586   5.318
 2669SOL    HW2 8907   2.825   4.556   5.472
 2670SOL     OW 8908   6.029   3.499   6.496
 2670SOL    HW1 8909   5.949   3.536   6.449
 2670SOL    HW2 8910   6.017   3.400   6.508
 2671SOL     OW 8911   4.305   5.683   5.733
 2671SOL    HW1 8912   4.355   5.702   5.818
 2671SOL    HW2 8913   4.213   5.720   5.739
 2672SOL     OW 8914   1.675   4.996   0.994
 2672SOL    HW1 8915   1.617   5.071   0.964
 2672SOL    HW2 8916   1.717   5.019   1.082
 2673SOL     OW 8917   5.985   0.624   3.227
 2673SOL    HW1 8918   6.051   0.549   3.231
 2673SOL    HW2 8919   5.904   0.599   3.280
 2674SOL     OW 8920   1.284   4.096   3.796
 2674SOL    HW1 8921   1.354   4.113   3.727
 2674SOL    HW2 8922   1.234   4.013   3.773
 2675SOL     OW 8923   6.601   5.609   3.401
 2675SOL    HW1 8924   6.531   5.681   3.399
 2675SOL    HW2 8925   6.560   5.523   3.432
 2676SOL     OW 8926   3.750   2.588   0.796
 2676SOL    HW1 8927   3.711   2.498   0.776
 2676SOL    HW2 8928   3.717   2.654   0.729
 2677SOL     OW 8929   3.085   3.671   0.547
 2677SOL    HW1 8930   3.130   3.724   0.475
 2677SOL    HW2 8931   3.021   3.607   0.504
 2678SOL     OW 8932   0.401   2.646   1.585
 2678SOL    HW1 8933   0.412   2.646   1.486
 2678SOL    HW2 8934   0.316   2.690   1.611
 2679SOL     OW 8935   3.418   4.359   0.554
 2679SOL    HW1 8936   3.327   4.337   0.590
 2679SOL    HW2 8937   3.427   4.458   0.546
 2680SOL     OW 8938   0.868   1.823   0.936
 2680SOL    HW1 8939   0.824   1.861   1.018
 2680SOL    HW2 8940   0.933   1.752   0.964
 2681SOL     OW 8941   1.313   2.556   4.086
 2681SOL    HW1 8942   1.335   2.510   4.172
 2681SOL    HW2 8943   1.214   2.554   4.071
 2682SOL     OW 8944   4.733   4.228   2.873
 2682SOL    HW1 8945   4.663   4.288   2.913
 2682SOL    HW2 8946   4.790   4.282   2.811
 2683SOL     OW 8947   2.548   5.069   1.428
 2683SOL    HW1 8948   2.492   5.129   1.486
 2683SOL    HW2 8949   2.639   5.058   1.469
 2684SOL     OW 8950   4.134   5.717   1.693
 2684SOL    HW1 8951   4.201   5.664   1.640
 2684SOL    HW2 8952   4.171   5.734   1.784
 2685SOL     OW 8953   6.225   6.677   6.478
 2685SOL    HW1 8954   6.146   6.640   6.430
 2685SOL    HW2 8955   6.244   6.769   6.446
 2686SOL     OW 8956   1.864   2.322   5.944
 2686SOL    HW1 8957   1.964   2.332   5.936
 2686SOL    HW2 8958   1.843   2.260   6.019
 2687SOL     OW 8959   4.955   4.776   1.735
 2687SOL    HW1 8960   4.945   4.859   1.681
 2687SOL    HW2 8961   5.021   4.715   1.691
 2688SOL     OW 8962   3.777   4.023   0.006
 2688SOL    HW1 8963   3.801   3.954   6.960
 2688SOL    HW2 8964   3.815   4.111   7.002
 2689SOL     OW 8965   1.487   3.999   3.643
 2689SOL    HW1 8966   1.518   3.932   3.710
 2689SOL    HW2 8967   1.564   4.026   3.585
 2690SOL     OW 8968   3.239   3.337   4.065
 2690SOL    HW1 8969   3.161   3.276   4.074
 2690SOL    HW2 8970   3.207   3.432   4.066
 2691SOL     OW 8971   1.781   5.483   2.354
 2691SOL    HW1 8972   1.834   5.450   2.432
 2691SOL    HW2 8973   1.715   5.552   2.385
 2692SOL     OW 8974   3.356   5.151   2.773
 2692SOL    HW1 8975   3.394   5.164   2.865
 2692SOL    HW2 8976   3.360   5.054   2.749
 2693SOL     OW 8977   2.414   5.487   3.229
 2693SOL    HW1 8978   2.377   5.456   3.141
 2693SOL    HW2 8979   2.504   5.447   3.243
 2694SOL     OW 8980   3.974   5.880   2.982
 2694SOL    HW1 8981   3.884   5.857   3.020
 2694SOL    HW2 8982   3.996   5.975   3.005
 2695SOL     OW 8983   5.837   0.291   2.492
 2695SOL    HW1 8984   5.774   0.271   2.416
 2695SOL    HW2 8985   5.867   0.387   2.485
 2696SOL     OW 8986   3.798   3.275   5.333
 2696SOL    HW1 8987   3.816   3.184   5.371
 2696SOL    HW2 8988   3.885   3.320   5.313
 2697SOL     OW 8989   3.182   1.907   2.639
 2697SOL    HW1 8990   3.224   1.823   2.673
 2697SOL    HW2 8991   3.148   1.893   2.546
 2698SOL     OW 8992   2.090   6.285   0.162
 2698SOL    HW1 8993   2.063   6.378   0.139
 2698SOL    HW2 8994   2.080   6.227   0.081
 2699SOL     OW 8995   2.627   6.645   0.436
 2699SOL    HW1 8996   2.686   6.726   0.428
 2699SOL    HW2 8997   2.540   6.662   0.391
 2700SOL     OW 8998   2.229   3.832   0.413
 2700SOL    HW1 8999   2.238   3.844   0.314
 2700SOL    HW2 9000   2.135   3.807   0.435
 2701SOL     OW 9001   5.772   1.803   5.777
 2701SOL    HW1 9002   5.751   1.891   5.734
 2701SOL    HW2 9003   5.767   1.813   5.877
 2702SOL     OW 9004   0.340   3.036   3.518
 2702SOL    HW1 9005   0.378   3.029   3.610
 2702SOL    HW2 9006   0.297   3.126   3.506
 2703SOL     OW 9007   1.128   6.907   1.343
 2703SOL    HW1 9008   1.052   6.843   1.349
 2703SOL    HW2 9009   1.194   6.888   1.416
 2704SOL     OW 9010   6.840   5.696   1.423
 2704SOL    HW1 9011   6.795   5.637   1.489
 2704SOL    HW2 9012   6.887   5.641   1.354
 2705SOL     OW 9013   0.078   5.759   4.626
 2705SOL    HW1 9014   0.055   5.832   4.690
 2705SOL    HW2 9015   0.020   5.680   4.642
 2706SOL     OW 9016   0.122   6.194   1.565
 2706SOL    HW1 9017   0.099   6.290   1.548
 2706SOL    HW2 9018   0.147   6.150   1.479
 2707SOL     OW 9019   3.971   6.834   4.055
 2707SOL    HW1 9020   3.985   6.799   4.148
 2707SOL    HW2 9021   3.924   6.922   4.060
 2708SOL     OW 9022   0.337   2.398   0.096
 2708SOL    HW1 9023   0.368   2.333   0.165
 2708SOL    HW2 9024   0.376   2.374   0.008
 2709SOL     OW 9025   5.617   0.204   6.804
 2709SOL    HW1 9026   5.624   0.122   6.860
 2709SOL    HW2 9027   5.709   0.234   6.777
 2710SOL     OW 9028   0.564   3.690   3.553
 2710SOL    HW1 9029   0.643   3.647   3.598
 2710SOL    HW2 9030   0.593   3.730   3.466
 2711SOL     OW 9031   2.702   0.486   3.247
 2711SOL    HW1 9032   2.710   0.526   3.155
 2711SOL    HW2 9033   2.690   0.559   3.314
 2712SOL     OW 9034   3.023   4.543   1.227
 2712SOL    HW1 9035   2.988   4.464   1.278
 2712SOL    HW2 9036   3.006   4.530   1.129
 2713SOL     OW 9037   2.566   2.365   4.565
 2713SOL    HW1 9038   2.469   2.353   4.549
 2713SOL    HW2 9039   2.580   2.437   4.634
 2714SOL     OW 9040   3.316   2.018   0.703
 2714SOL    HW1 9041   3.330   2.105   0.657
 2714SOL    HW2 9042   3.296   1.947   0.635
 2715SOL     OW 9043   5.160   2.010   0.813
 2715SOL    HW1 9044   5.086   2.008   0.880
 2715SOL    HW2 9045   5.248   1.998   0.860
 2716SOL     OW 9046   5.113   4.434   2.075
 2716SOL    HW1 9047   5.015   4.423   2.063
 2716SOL    HW2 9048   5.148   4.498   2.006
 2717SOL     OW 9049   0.868   6.349   2.441
 2717SOL    HW1 9050   0.827   6.287   2.509
 2717SOL    HW2 9051   0.796   6.390   2.386
 2718SOL     OW 9052   1.847   2.009   4.995
 2718SOL    HW1 9053   1.913   2.060   5.051
 2718SOL    HW2 9054   1.891   1.980   4.910
 2719SOL     OW 9055   0.044   5.382   1.053
 2719SOL    HW1 9056   0.041   5.414   0.958
 2719SOL    HW2 9057   6.979   5.339   1.076
 2720SOL     OW 9058   2.326   5.893   1.983
 2720SOL    HW1 9059   2.391   5.845   2.042
 2720SOL    HW2 9060   2.244   5.836   1.970
 2721SOL     OW 9061   2.822   6.899   3.314
 2721SOL    HW1 9062   2.753   6.843   3.359
 2721SOL    HW2 9063   2.913   6.865   3.336
 2722SOL     OW 9064   6.975   5.469   0.782
 2722SOL    HW1 9065   6.939   5.562   0.773
 2722SOL    HW2 9066   0.012   5.449   0.704
 2723SOL     OW 9067   0.656   0.135   6.342
 2723SOL    HW1 9068   0.732   0.113   6.403
 2723SOL    HW2 9069   0.612   0.219   6.372
 2724SOL     OW 9070   1.706   6.611   7.012
 2724SOL    HW1 9071   1.709   6.698   0.039
 2724SOL    HW2 9072   1.798   6.586   6.982
 2725SOL     OW 9073   5.166   5.198   4.484
 2725SOL    HW1 9074   5.201   5.217   4.576
 2725SOL    HW2 9075   5.102   5.270   4.458
 2726SOL     OW 9076   0.071   2.643   0.937
 2726SOL    HW1 9077   0.002   2.707   0.972
 2726SOL    HW2 9078   0.162   2.682   0.949
 2727SOL     OW 9079   0.467   5.323   3.075
 2727SOL    HW1 9080   0.521   5.239   3.075
 2727SOL    HW2 9081   0.378   5.305   3.116
 2728SOL     OW 9082   4.706   6.521   5.653
 2728SOL    HW1 9083   4.752   6.437   5.683
 2728SOL    HW2 9084   4.620   6.497   5.607
 2729SOL     OW 9085   6.957   5.770   0.893
 2729SOL    HW1 9086   0.021   5.730   0.923
 2729SOL    HW2 9087   6.973   5.828   0.813
 2730SOL     OW 9088   1.458   5.814   1.569
 2730SOL    HW1 9089   1.379   5.807   1.508
 2730SOL    HW2 9090   1.542   5.806   1.515
 2731SOL     OW 9091   4.068   3.739   3.217
 2731SOL    HW1 9092   4.068   3.707   3.312
 2731SOL    HW2 9093   4.078   3.661   3.155
 2732SOL     OW 9094   5.502   2.131   1.687
 2732SOL    HW1 9095   5.597   2.118   1.715
 2732SOL    HW2 9096   5.441   2.091   1.756
 2733SOL     OW 9097   6.545   0.889   4.733
 2733SOL    HW1 9098   6.470   0.953   4.715
 2733SOL    HW2 9099   6.603   0.925   4.806
 2734SOL     OW 9100   2.724   6.102   1.286
 2734SOL    HW1 9101   2.630   6.131   1.266
 2734SOL    HW2 9102   2.726   6.054   1.374
 2735SOL     OW 9103   1.277   3.563   2.291
 2735SOL    HW1 9104   1.180   3.541   2.305
 2735SOL    HW2 9105   1.328   3.542   2.374
 2736SOL     OW 9106   5.072   6.789   5.353
 2736SOL    HW1 9107   5.109   6.877   5.324
 2736SOL    HW2 9108   5.082   6.722   5.279
 2737SOL     OW 9109   3.028   3.385   6.232
 2737SOL    HW1 9110   3.113   3.396   6.283
 2737SOL    HW2 9111   2.976   3.471   6.235
 2738SOL     OW 9112   5.017   6.262   2.305
 2738SOL    HW1 9113   4.927   6.252   2.347
 2738SOL    HW2 9114   5.081   6.300   2.371
 2739SOL     OW 9115   0.011   5.023   1.537
 2739SOL    HW1 9116   6.980   5.077   1.603
 2739SOL    HW2 9117   0.081   4.971   1.586
 2740SOL     OW 9118   0.264   3.953   2.347
 2740SOL    HW1 9119   0.277   4.041   2.391
 2740SOL    HW2 9120   0.239   3.966   2.252
 2741SOL     OW 9121   6.254   0.410   4.652
 2741SOL    HW1 9122   6.268   0.383   4.557
 2741SOL    HW2 9123   6.292   0.501   4.667
 2742SOL     OW 9124   2.334   5.484   6.629
 2742SOL    HW1 9125   2.430   5.486   6.656
 2742SOL    HW2 9126   2.276   5.501   6.709
 2743SOL     OW 9127   6.643   4.659   2.284
 2743SOL    HW1 9128   6.643   4.751   2.321
 2743SOL    HW2 9129   6.724   4.610   2.315
 2744SOL     OW 9130   5.419   1.890   6.371
 2744SOL    HW1 9131   5.470   1.899   6.285
 2744SOL    HW2 9132   5.343   1.954   6.370
 2745SOL     OW 9133   7.020   6.971   6.086
 2745SOL    HW1 9134   0.089   7.013   6.089
 2745SOL    HW2 9135   6.990   6.965   5.991
 2746SOL     OW 9136   2.547   2.089   3.838
 2746SOL    HW1 9137   2.458   2.065   3.799
 2746SOL    HW2 9138   2.619   2.043   3.786
 2747SOL     OW 9139   6.322   3.911   6.581
 2747SOL    HW1 9140   6.289   3.890   6.673
 2747SOL    HW2 9141   6.422   3.907   6.580
 2748SOL     OW 9142   5.063   1.232   1.142
 2748SOL    HW1 9143   5.090   1.307   1.082
 2748SOL    HW2 9144   4.984   1.261   1.197
 2749SOL     OW 9145   0.151   4.955   2.356
 2749SOL    HW1 9146   0.110   5.044   2.374
 2749SOL    HW2 9147   0.189   4.917   2.441
 2750SOL     OW 9148   0.735   5.160   1.053
 2750SOL    HW1 9149   0.815   5.102   1.068
 2750SOL    HW2 9150   0.654   5.116   1.092
 2751SOL     OW 9151   1.052   5.142   1.697
 2751SOL    HW1 9152   1.126   5.203   1.724
 2751SOL    HW2 9153   1.085   5.077   1.628
 2752SOL     OW 9154   4.287   5.315   5.842
 2752SOL    HW1 9155   4.324   5.340   5.931
 2752SOL    HW2 9156   4.359   5.277   5.784
 2753SOL     OW 9157   0.555   6.178   5.512
 2753SOL    HW1 9158   0.513   6.125   5.439
 2753SOL    HW2 9159   0.581   6.117   5.587
 2754SOL     OW 9160   0.480   0.517   2.473
 2754SOL    HW1 9161   0.425   0.591   2.513
 2754SOL    HW2 9162   0.460   0.431   2.521
 2755SOL     OW 9163   2.217   6.945   3.034
 2755SOL    HW1 9164   2.309   6.984   3.027
 2755SOL    HW2 9165   2.166   6.963   2.950
 2756SOL     OW 9166   5.964   4.535   6.818
 2756SOL    HW1 9167   5.947   4.631   6.840
 2756SOL    HW2 9168   5.985   4.526   6.721
 2757SOL     OW 9169   2.560   0.373   6.816
 2757SOL    HW1 9170   2.616   0.308   6.867
 2757SOL    HW2 9171   2.478   0.395   6.869
 2758SOL     OW 9172   4.116   6.303   4.131
 2758SOL    HW1 9173   4.191   6.356   4.171
 2758SOL    HW2 9174   4.122   6.307   4.031
 2759SOL     OW 9175   5.114   5.747   5.222
 2759SOL    HW1 9176   5.080   5.732   5.130
 2759SOL    HW2 9177   5.054   5.811   5.271
 2760SOL     OW 9178   0.819   5.542   2.617
 2760SOL    HW1 9179   0.719   5.542   2.612
 2760SOL    HW2 9180   0.856   5.606   2.550
 2761SOL     OW 9181   1.692   4.758   4.909
 2761SOL    HW1 9182   1.707   4.724   5.002
 2761SOL    HW2 9183   1.766   4.821   4.884
 2762SOL     OW 9184   1.665   0.422   5.697
 2762SOL    HW1 9185   1.591   0.375   5.649
 2762SOL    HW2 9186   1.696   0.500   5.643
 2763SOL     OW 9187   4.721   2.435   3.643
 2763SOL    HW1 9188   4.688   2.383   3.722
 2763SOL    HW2 9189   4.650   2.497   3.612
 2764SOL     OW 9190   6.383   1.123   0.954
 2764SOL    HW1 9191   6.345   1.033   0.935
 2764SOL    HW2 9192   6.317   1.177   1.006
 2765SOL     OW 9193   6.841   0.375   0.303
 2765SOL    HW1 9194   6.922   0.424   0.335
 2765SOL    HW2 9195   6.851   0.356   0.205
 2766SOL     OW 9196   5.108   2.672   0.394
 2766SOL    HW1 9197   5.123   2.771   0.386
 2766SOL    HW2 9198   5.134   2.642   0.485
 2767SOL     OW 9199   6.504   4.958   0.284
 2767SOL    HW1 9200   6.512   5.050   0.321
 2767SOL    HW2 9201   6.575   4.900   0.324
 2768SOL     OW 9202   4.297   0.894   1.018
 2768SOL    HW1 9203   4.304   0.985   1.059
 2768SOL    HW2 9204   4.287   0.904   0.919
 2769SOL     OW 9205   1.682   4.966   5.530
 2769SOL    HW1 9206   1.775   4.935   5.512
 2769SOL    HW2 9207   1.672   4.988   5.627
 2770SOL     OW 9208   4.214   5.814   6.003
 2770SOL    HW1 9209   4.246   5.906   6.023
 2770SOL    HW2 9210   4.258   5.749   6.065
 2771SOL     OW 9211   6.227   0.829   3.686
 2771SOL    HW1 9212   6.157   0.886   3.729
 2771SOL    HW2 9213   6.207   0.733   3.703
 2772SOL     OW 9214   4.046   2.203   0.547
 2772SOL    HW1 9215   3.982   2.211   0.470
 2772SOL    HW2 9216   4.048   2.290   0.597
 2773SOL     OW 9217   5.984   1.703   4.677
 2773SOL    HW1 9218   5.990   1.645   4.758
 2773SOL    HW2 9219   6.000   1.798   4.703
 2774SOL     OW 9220   5.202   2.955   3.218
 2774SOL    HW1 9221   5.298   2.945   3.195
 2774SOL    HW2 9222   5.155   2.868   3.205
 2775SOL     OW 9223   6.779   4.651   5.306
 2775SOL    HW1 9224   6.869   4.614   5.283
 2775SOL    HW2 9225   6.767   4.649   5.405
 2776SOL     OW 9226   4.822   4.888   6.085
 2776SOL    HW1 9227   4.740   4.847   6.047
 2776SOL    HW2 9228   4.853   4.834   6.163
 2777SOL     OW 9229   2.937   1.610   1.293
 2777SOL    HW1 9230   2.944   1.554   1.376
 2777SOL    HW2 9231   2.874   1.685   1.309
 2778SOL     OW 9232   1.459   6.799   5.490
 2778SOL    HW1 9233   1.459   6.749   5.404
 2778SOL    HW2 9234   1.410   6.747   5.559
 2779SOL     OW 9235   5.308   6.782   2.177
 2779SOL    HW1 9236   5.292   6.849   2.105
 2779SOL    HW2 9237   5.385   6.812   2.234
 2780SOL     OW 9238   0.666   6.691   0.228
 2780SOL    HW1 9239   0.737   6.662   0.164
 2780SOL    HW2 9240   0.576   6.673   0.189
 2781SOL     OW 9241   5.909   0.269   2.142
 2781SOL    HW1 9242   5.956   0.251   2.055
 2781SOL    HW2 9243   5.925   0.364   2.169
 2782SOL     OW 9244   4.743   1.590   5.259
 2782SOL    HW1 9245   4.668   1.534   5.224
 2782SOL    HW2 9246   4.815   1.596   5.190
 2783SOL     OW 9247   5.094   4.206   2.704
 2783SOL    HW1 9248   5.153   4.136   2.663
 2783SOL    HW2 9249   5.146   4.259   2.771
 2784SOL     OW 9250   3.238   1.548   2.317
 2784SOL    HW1 9251   3.262   1.641   2.290
 2784SOL    HW2 9252   3.296   1.518   2.393
 2785SOL     OW 9253   5.465   2.525   0.802
 2785SOL    HW1 9254   5.466   2.431   0.767
 2785SOL    HW2 9255   5.545   2.539   0.860
 2786SOL     OW 9256   5.099   0.180   2.614
 2786SOL    HW1 9257   5.114   0.082   2.601
 2786SOL    HW2 9258   5.150   0.212   2.694
 2787SOL     OW 9259   5.434   0.374   6.276
 2787SOL    HW1 9260   5.377   0.452   6.253
 2787SOL    HW2 9261   5.389   0.320   6.348
 2788SOL     OW 9262   1.596   5.688   5.620
 2788SOL    HW1 9263   1.693   5.693   5.643
 2788SOL    HW2 9264   1.549   5.632   5.688
 2789SOL     OW 9265   1.145   2.270   4.070
 2789SOL    HW1 9266   1.243   2.285   4.056
 2789SOL    HW2 9267   1.104   2.353   4.107
 2790SOL     OW 9268   3.907   6.096   2.231
 2790SOL    HW1 9269   3.832   6.090   2.166
 2790SOL    HW2 9270   3.968   6.170   2.205
 2791SOL     OW 9271   0.701   2.739   2.909
 2791SOL    HW1 9272   0.794   2.703   2.922
 2791SOL    HW2 9273   0.645   2.715   2.989
 2792SOL     OW 9274   1.836   0.408   3.784
 2792SOL    HW1 9275   1.748   0.416   3.831
 2792SOL    HW2 9276   1.906   0.454   3.838
 2793SOL     OW 9277   5.157   4.183   1.611
 2793SOL    HW1 9278   5.198   4.120   1.545
 2793SOL    HW2 9279   5.188   4.276   1.592
 2794SOL     OW 9280   6.988   1.902   6.306
 2794SOL    HW1 9281   0.036   1.833   6.323
 2794SOL    HW2 9282   6.930   1.912   6.387
 2795SOL     OW 9283   0.904   3.229   0.850
 2795SOL    HW1 9284   0.865   3.272   0.932
 2795SOL    HW2 9285   0.989   3.182   0.874
 2796SOL     OW 9286   0.612   6.447   3.300
 2796SOL    HW1 9287   0.701   6.471   3.260
 2796SOL    HW2 9288   0.627   6.407   3.391
 2797SOL     OW 9289   5.004   5.552   4.746
 2797SOL    HW1 9290   4.930   5.515   4.801
 2797SOL    HW2 9291   4.982   5.543   4.649
 2798SOL     OW 9292   0.314   5.141   2.040
 2798SOL    HW1 9293   0.299   5.180   2.131
 2798SOL    HW2 9294   0.231   5.150   1.985
 2799SOL     OW 9295   5.988   5.756   6.099
 2799SOL    HW1 9296   5.908   5.780   6.153
 2799SOL    HW2 9297   6.071   5.790   6.144
 2800SOL     OW 9298   4.809   6.171   6.601
 2800SOL    HW1 9299   4.909   6.177   6.609
 2800SOL    HW2 9300   4.780   6.077   6.620
 2801SOL     OW 9301   6.772   5.902   5.649
 2801SOL    HW1 9302   6.766   5.887   5.550
 2801SOL    HW2 9303   6.833   5.979   5.667
 2802SOL     OW 9304   5.602   6.194   5.491
 2802SOL    HW1 9305   5.655   6.234   5.417
 2802SOL    HW2 9306   5.618   6.244   5.576
 2803SOL     OW 9307   4.221   5.603   6.212
 2803SOL    HW1 9308   4.298   5.616   6.274
 2803SOL    HW2 9309   4.229   5.514   6.166
 2804SOL     OW 9310   0.384   4.247   5.583
 2804SOL    HW1 9311   0.343   4.253   5.674
 2804SOL    HW2 9312   0.312   4.239   5.514
 2805SOL     OW 9313   6.327   3.470   2.251
 2805SOL    HW1 9314   6.390   3.527   2.197
 2805SOL    HW2 9315   6.334   3.375   2.220
 2806SOL     OW 9316   0.255   4.049   6.009
 2806SOL    HW1 9317   0.349   4.053   6.042
 2806SOL    HW2 9318   0.248   3.977   5.939
 2807SOL     OW 9319   3.626   0.072   4.243
 2807SOL    HW1 9320   3.565   0.056   4.165
 2807SOL    HW2 9321   3.720   0.086   4.210
 2808SOL     OW 9322   6.546   4.996   2.004
 2808SOL    HW1 9323   6.607   5.028   2.076
 2808SOL    HW2 9324   6.551   4.897   1.996
 2809SOL     OW 9325   5.333   2.703   1.049
 2809SOL    HW1 9326   5.395   2.755   0.992
 2809SOL    HW2 9327   5.356   2.717   1.146
 2810SOL     OW 9328   3.164   5.528   3.355
 2810SOL    HW1 9329   3.077   5.483   3.337
 2810SOL    HW2 9330   3.169   5.553   3.452
 2811SOL     OW 9331   0.999   2.147   4.268
 2811SOL    HW1 9332   1.025   2.182   4.179
 2811SOL    HW2 9333   1.050   2.195   4.339
 2812SOL     OW 9334   4.938   2.821   6.832
 2812SOL    HW1 9335   5.036   2.803   6.831
 2812SOL    HW2 9336   4.909   2.841   6.926
 2813SOL     OW 9337   0.894   0.500   6.304
 2813SOL    HW1 9338   0.871   0.431   6.235
 2813SOL    HW2 9339   0.969   0.557   6.272
 2814SOL     OW 9340   3.748   3.956   5.838
 2814SOL    HW1 9341   3.804   3.889   5.791
 2814SOL    HW2 9342   3.656   3.957   5.798
 2815SOL     OW 9343   6.849   5.869   6.459
 2815SOL    HW1 9344   6.889   5.957   6.483
 2815SOL    HW2 9345   6.810   5.873   6.368
 2816SOL     OW 9346   6.257   5.673   3.442
 2816SOL    HW1 9347   6.321   5.739   3.484
 2816SOL    HW2 9348   6.284   5.656   3.348
 2817SOL     OW 9349   3.308   0.104   1.727
 2817SOL    HW1 9350   3.277   0.199   1.728
 2817SOL    HW2 9351   3.308   0.067   1.820
 2818SOL     OW 9352   0.429   0.536   2.166
 2818SOL    HW1 9353   0.450   0.497   2.256
 2818SOL    HW2 9354   0.419   0.635   2.174
 2819SOL     OW 9355   2.065   0.777   1.753
 2819SOL    HW1 9356   2.072   0.690   1.801
 2819SOL    HW2 9357   1.973   0.815   1.765
 2820SOL     OW 9358   0.901   2.366   3.616
 2820SOL    HW1 9359   0.880   2.437   3.549
 2820SOL    HW2 9360   0.890   2.403   3.708
 2821SOL     OW 9361   3.726   4.261   6.204
 2821SOL    HW1 9362   3.757   4.247   6.110
 2821SOL    HW2 9363   3.760   4.187   6.262
 2822SOL     OW 9364   3.628   2.135   0.516
 2822SOL    HW1 9365   3.657   2.042   0.540
 2822SOL    HW2 9366   3.618   2.190   0.599
 2823SOL     OW 9367   5.276   0.906   1.004
 2823SOL    HW1 9368   5.205   0.936   1.068
 2823SOL    HW2 9369   5.271   0.960   0.920
 2824SOL     OW 9370   2.596   1.035   3.823
 2824SOL    HW1 9371   2.575   1.020   3.727
 2824SOL    HW2 9372   2.569   1.128   3.848
 2825SOL     OW 9373   5.108   6.112   6.637
 2825SOL    HW1 9374   5.127   6.089   6.732
 2825SOL    HW2 9375   5.158   6.195   6.612
 2826SOL     OW 9376   4.795   1.373   6.744
 2826SOL    HW1 9377   4.863   1.302   6.728
 2826SOL    HW2 9378   4.707   1.345   6.705
 2827SOL     OW 9379   0.919   1.477   6.512
 2827SOL    HW1 9380   0.863   1.550   6.552
 2827SOL    HW2 9381   0.987   1.518   6.451
 2828SOL     OW 9382   2.653   1.517   0.206
 2828SOL    HW1 9383   2.741   1.551   0.239
 2828SOL    HW2 9384   2.599   1.592   0.170
 2829SOL     OW 9385   2.921   3.272   4.787
 2829SOL    HW1 9386   2.998   3.209   4.778
 2829SOL    HW2 9387   2.836   3.221   4.790
 2830SOL     OW 9388   3.099   3.953   5.653
 2830SOL    HW1 9389   3.172   3.900   5.697
 2830SOL    HW2 9390   3.129   3.981   5.562
 2831SOL     OW 9391   1.023   4.299   3.255
 2831SOL    HW1 9392   1.081   4.367   3.210
 2831SOL    HW2 9393   0.937   4.342   3.282
 2832SOL     OW 9394   1.156   3.093   1.793
 2832SOL    HW1 9395   1.115   3.015   1.841
 2832SOL    HW2 9396   1.212   3.060   1.718
 2833SOL     OW 9397   2.951   1.768   2.016
 2833SOL    HW1 9398   2.907   1.690   1.971
 2833SOL    HW2 9399   2.882   1.833   2.047
 2834SOL     OW 9400   4.309   6.743   5.957
 2834SOL    HW1 9401   4.281   6.647   5.957
 2834SOL    HW2 9402   4.230   6.801   5.975
 2835SOL     OW 9403   0.359   5.878   1.442
 2835SOL    HW1 9404   0.312   5.880   1.531
 2835SOL    HW2 9405   0.444   5.827   1.451
 2836SOL     OW 9406   0.586   6.534   1.977
 2836SOL    HW1 9407   0.522   6.460   2.000
 2836SOL    HW2 9408   0.663   6.496   1.926
 2837SOL     OW 9409   4.480   4.491   2.258
 2837SOL    HW1 9410   4.445   4.418   2.200
 2837SOL    HW2 9411   4.580   4.486   2.261
 2838SOL     OW 9412   3.909   4.210   1.028
 2838SOL    HW1 9413   3.845   4.178   0.958
 2838SOL    HW2 9414   4.002   4.187   1.000
 2839SOL     OW 9415   6.778   1.958   2.534
 2839SOL    HW1 9416   6.742   2.037   2.484
 2839SOL    HW2 9417   6.799   1.986   2.628
 2840SOL     OW 9418   1.665   0.307   2.068
 2840SOL    HW1 9419   1.575   0.349   2.083
 2840SOL    HW2 9420   1.653   0.210   2.048
 2841SOL     OW 9421   0.111   1.377   6.276
 2841SOL    HW1 9422   0.184   1.325   6.320
 2841SOL    HW2 9423   0.134   1.391   6.180
 2842SOL     OW 9424   6.831   4.835   4.027
 2842SOL    HW1 9425   6.851   4.932   4.035
 2842SOL    HW2 9426   6.914   4.782   4.043
 2843SOL     OW 9427   2.262   1.887   3.108
 2843SOL    HW1 9428   2.289   1.895   3.012
 2843SOL    HW2 9429   2.340   1.855   3.162
 2844SOL     OW 9430   6.526   5.513   0.184
 2844SOL    HW1 9431   6.436   5.542   0.153
 2844SOL    HW2 9432   6.547   5.423   0.146
 2845SOL     OW 9433   5.895   3.360   2.270
 2845SOL    HW1 9434   5.957   3.382   2.194
 2845SOL    HW2 9435   5.802   3.347   2.235
 2846SOL     OW 9436   4.114   0.827   6.905
 2846SOL    HW1 9437   4.151   0.880   6.828
 2846SOL    HW2 9438   4.015   0.839   6.910
 2847SOL     OW 9439   5.523   4.303   3.082
 2847SOL    HW1 9440   5.483   4.217   3.111
 2847SOL    HW2 9441   5.598   4.286   3.018
 2848SOL     OW 9442   2.104   2.462   5.328
 2848SOL    HW1 9443   2.174   2.444   5.397
 2848SOL    HW2 9444   2.109   2.392   5.257
 2849SOL     OW 9445   4.476   0.489   1.032
 2849SOL    HW1 9446   4.572   0.480   1.057
 2849SOL    HW2 9447   4.460   0.444   0.944
 2850SOL     OW 9448   1.886   6.848   2.595
 2850SOL    HW1 9449   1.952   6.772   2.590
 2850SOL    HW2 9450   1.806   6.819   2.648
 2851SOL     OW 9451   5.586   2.186   5.878
 2851SOL    HW1 9452   5.656   2.122   5.909
 2851SOL    HW2 9453   5.500   2.168   5.925
 2852SOL     OW 9454   6.937   4.083   6.878
 2852SOL    HW1 9455   6.960   4.100   6.782
 2852SOL    HW2 9456   6.876   4.154   6.911
 2853SOL     OW 9457   1.843   1.878   6.295
 2853SOL    HW1 9458   1.870   1.919   6.208
 2853SOL    HW2 9459   1.761   1.923   6.330
 2854SOL     OW 9460   4.629   0.861   5.659
 2854SOL    HW1 9461   4.691   0.786   5.680
 2854SOL    HW2 9462   4.677   0.948   5.665
 2855SOL     OW 9463   1.977   1.930   5.718
 2855SOL    HW1 9464   1.951   1.921   5.814
 2855SOL    HW2 9465   2.077   1.930   5.710
 2856SOL     OW 9466   0.463   3.774   5.699
 2856SOL    HW1 9467   0.492   3.680   5.716
 2856SOL    HW2 9468   0.419   3.811   5.781
 2857SOL     OW 9469   1.992   2.758   1.751
 2857SOL    HW1 9470   2.073   2.768   1.810
 2857SOL    HW2 9471   1.935   2.839   1.759
 2858SOL     OW 9472   4.703   4.688   1.911
 2858SOL    HW1 9473   4.779   4.717   1.852
 2858SOL    HW2 9474   4.642   4.766   1.926
 2859SOL     OW 9475   6.020   7.014   0.026
 2859SOL    HW1 9476   6.020   0.063   0.096
 2859SOL    HW2 9477   5.951   6.946   0.048
 2860SOL     OW 9478   2.030   1.545   1.638
 2860SOL    HW1 9479   2.013   1.543   1.539
 2860SOL    HW2 9480   2.118   1.503   1.658
 2861SOL     OW 9481   3.290   5.028   6.030
 2861SOL    HW1 9482   3.252   4.973   5.955
 2861SOL    HW2 9483   3.296   4.972   6.113
 2862SOL     OW 9484   4.261   1.916   2.239
 2862SOL    HW1 9485   4.190   1.890   2.173
 2862SOL    HW2 9486   4.268   1.845   2.309
 2863SOL     OW 9487   4.917   1.894   6.681
 2863SOL    HW1 9488   5.003   1.888   6.731
 2863SOL    HW2 9489   4.884   1.802   6.659
 2864SOL     OW 9490   5.188   2.026   1.676
 2864SOL    HW1 9491   5.102   2.052   1.719
 2864SOL    HW2 9492   5.244   1.974   1.741
 2865SOL     OW 9493   4.228   6.275   4.749
 2865SOL    HW1 9494   4.143   6.242   4.790
 2865SOL    HW2 9495   4.208   6.322   4.663
 2866SOL     OW 9496   5.703   5.129   6.584
 2866SOL    HW1 9497   5.703   5.168   6.676
 2866SOL    HW2 9498   5.691   5.030   6.590
 2867SOL     OW 9499   6.110   6.314   2.925
 2867SOL    HW1 9500   6.138   6.363   3.008
 2867SOL    HW2 9501   6.013   6.333   2.906
 2868SOL     OW 9502   2.099   1.288   5.066
 2868SOL    HW1 9503   2.013   1.254   5.028
 2868SOL    HW2 9504   2.142   1.215   5.121
 2869SOL     OW 9505   7.021   0.705   2.950
 2869SOL    HW1 9506   0.085   0.729   2.993
 2869SOL    HW2 9507   6.949   0.703   3.019
 2870SOL     OW 9508   0.009   1.721   5.747
 2870SOL    HW1 9509   6.993   1.644   5.696
 2870SOL    HW2 9510   7.000   1.717   5.842
 2871SOL     OW 9511   6.561   1.421   6.978
 2871SOL    HW1 9512   6.462   1.435   6.973
 2871SOL    HW2 9513   6.604   1.453   6.893
 2872SOL     OW 9514   2.661   2.067   1.917
 2872SOL    HW1 9515   2.669   2.084   2.015
 2872SOL    HW2 9516   2.700   2.143   1.866
 2873SOL     OW 9517   0.157   5.668   2.634
 2873SOL    HW1 9518   0.157   5.766   2.656
 2873SOL    HW2 9519   0.167   5.615   2.718
 2874SOL     OW 9520   4.915   0.077   3.141
 2874SOL    HW1 9521   4.857   0.119   3.211
 2874SOL    HW2 9522   5.009   0.110   3.151
 2875SOL     OW 9523   5.389   0.221   1.805
 2875SOL    HW1 9524   5.418   0.293   1.742
 2875SOL    HW2 9525   5.436   0.136   1.782
 2876SOL     OW 9526   1.923   0.548   2.481
 2876SOL    HW1 9527   1.971   0.584   2.560
 2876SOL    HW2 9528   1.976   0.474   2.440
 2877SOL     OW 9529   2.079   1.569   5.222
 2877SOL    HW1 9530   2.034   1.654   5.195
 2877SOL    HW2 9531   2.017   1.492   5.206
 2878SOL     OW 9532   4.072   4.244   5.406
 2878SOL    HW1 9533   4.150   4.298   5.378
 2878SOL    HW2 9534   4.068   4.160   5.351
 2879SOL     OW 9535   5.189   4.924   6.638
 2879SOL    HW1 9536   5.155   4.852   6.699
 2879SOL    HW2 9537   5.280   4.952   6.667
 2880SOL     OW 9538   0.245   1.659   2.638
 2880SOL    HW1 9539   0.271   1.733   2.700
 2880SOL    HW2 9540   0.218   1.697   2.549
 2881SOL     OW 9541   4.473   5.911   6.547
 2881SOL    HW1 9542   4.436   5.901   6.454
 2881SOL    HW2 9543   4.444   5.998   6.585
 2882SOL     OW 9544   0.146   5.434   2.135
 2882SOL    HW1 9545   0.204   5.395   2.207
 2882SOL    HW2 9546   0.156   5.379   2.051
 2883SOL     OW 9547   6.089   0.420   3.476
 2883SOL    HW1 9548   6.142   0.441   3.394
 2883SOL    HW2 9549   6.142   0.360   3.536
 2884SOL     OW 9550   0.834   6.903   3.405
 2884SOL    HW1 9551   0.743   6.910   3.364
 2884SOL    HW2 9552   0.885   6.831   3.359
 2885SOL     OW 9553   1.876   3.860   3.782
 2885SOL    HW1 9554   1.877   3.927   3.708
 2885SOL    HW2 9555   1.784   3.825   3.795
 2886SOL     OW 9556   1.246   3.122   6.283
 2886SOL    HW1 9557   1.184   3.153   6.355
 2886SOL    HW2 9558   1.217   3.033   6.249
 2887SOL     OW 9559   0.458   0.542   5.602
 2887SOL    HW1 9560   0.493   0.625   5.646
 2887SOL    HW2 9561   0.365   0.558   5.570
 2888SOL     OW 9562   6.764   4.193   6.557
 2888SOL    HW1 9563   6.804   4.101   6.557
 2888SOL    HW2 9564   6.738   4.219   6.464
 2889SOL     OW 9565   2.612   6.596   2.439
 2889SOL    HW1 9566   2.632   6.635   2.529
 2889SOL    HW2 9567   2.691   6.607   2.380
 2890SOL     OW 9568   1.130   5.972   0.350
 2890SOL    HW1 9569   1.043   5.933   0.321
 2890SOL    HW2 9570   1.205   5.912   0.320
 2891SOL     OW 9571   0.554   4.681   3.110
 2891SOL    HW1 9572   0.633   4.621   3.122
 2891SOL    HW2 9573   0.480   4.650   3.169
 2892SOL     OW 9574   6.247   3.321   1.058
 2892SOL    HW1 9575   6.236   3.244   0.995
 2892SOL    HW2 9576   6.159   3.368   1.069
 2893SOL     OW 9577   0.208   5.513   4.195
 2893SOL    HW1 9578   0.115   5.529   4.227
 2893SOL    HW2 9579   0.250   5.600   4.170
 2894SOL     OW 9580   0.469   2.941   1.913
 2894SOL    HW1 9581   0.392   2.884   1.941
 2894SOL    HW2 9582   0.552   2.908   1.958
 2895SOL     OW 9583   5.068   1.702   5.481
 2895SOL    HW1 9584   5.038   1.608   5.467
 2895SOL    HW2 9585   5.095   1.742   5.393
 2896SOL     OW 9586   4.436   6.446   5.527
 2896SOL    HW1 9587   4.406   6.518   5.465
 2896SOL    HW2 9588   4.501   6.386   5.480
 2897SOL     OW 9589   3.851   4.904   3.106
 2897SOL    HW1 9590   3.863   4.972   3.179
 2897SOL    HW2 9591   3.756   4.874   3.103
 2898SOL     OW 9592   4.614   4.561   4.132
 2898SOL    HW1 9593   4.545   4.541   4.201
 2898SOL    HW2 9594   4.571   4.569   4.043
 2899SOL     OW 9595   0.687   2.027   0.316
 2899SOL    HW1 9596   0.777   2.005   0.279
 2899SOL    HW2 9597   0.616   1.995   0.253
 2900SOL     OW 9598   2.211   4.063   6.274
 2900SOL    HW1 9599   2.299   4.017   6.271
 2900SOL    HW2 9600   2.161   4.045   6.190
 2901SOL     OW 9601   1.808   4.765   3.244
 2901SOL    HW1 9602   1.848   4.784   3.333
 2901SOL    HW2 9603   1.825   4.669   3.220
 2902SOL     OW 9604   5.595   5.372   3.237
 2902SOL    HW1 9605   5.524   5.401   3.301
 2902SOL    HW2 9606   5.634   5.285   3.267
 2903SOL     OW 9607   3.791   0.247   0.428
 2903SOL    HW1 9608   3.782   0.299   0.343
 2903SOL    HW2 9609   3.708   0.258   0.483
 2904SOL     OW 9610   2.318   4.936   4.166
 2904SOL    HW1 9611   2.368   4.855   4.195
 2904SOL    HW2 9612   2.380   5.014   4.159
 2905SOL     OW 9613   1.341   3.067   4.674
 2905SOL    HW1 9614   1.273   3.053   4.746
 2905SOL    HW2 9615   1.305   3.033   4.587
 2906SOL     OW 9616   4.953   5.151   2.142
 2906SOL    HW1 9617   4.949   5.239   2.095
 2906SOL    HW2 9618   4.913   5.080   2.083
 2907SOL     OW 9619   0.358   1.234   3.658
 2907SOL    HW1 9620   0.314   1.217   3.746
 2907SOL    HW2 9621   0.374   1.333   3.647
 2908SOL     OW 9622   5.174   6.662   3.868
 2908SOL    HW1 9623   5.163   6.655   3.769
 2908SOL    HW2 9624   5.246   6.600   3.898
 2909SOL     OW 9625   1.400   5.291   4.054
 2909SOL    HW1 9626   1.359   5.315   3.966
 2909SOL    HW2 9627   1.425   5.194   4.054
 2910SOL     OW 9628   5.346   1.070   4.452
 2910SOL    HW1 9629   5.289   0.993   4.424
 2910SOL    HW2 9630   5.292   1.154   4.449
 2911SOL     OW 9631   1.056   5.887   3.753
 2911SOL    HW1 9632   1.079   5.817   3.686
 2911SOL    HW2 9633   1.081   5.855   3.845
 2912SOL     OW 9634   5.377   7.019   0.331
 2912SOL    HW1 9635   5.466   0.004   0.287
 2912SOL    HW2 9636   5.380   6.947   0.400
 2913SOL     OW 9637   3.249   5.233   2.165
 2913SOL    HW1 9638   3.234   5.276   2.076
 2913SOL    HW2 9639   3.231   5.135   2.159
 2914SOL     OW 9640   6.272   6.512   6.061
 2914SOL    HW1 9641   6.325   6.464   5.992
 2914SOL    HW2 9642   6.286   6.469   6.150
 2915SOL     OW 9643   3.508   2.127   3.992
 2915SOL    HW1 9644   3.526   2.135   3.894
 2915SOL    HW2 9645   3.447   2.201   4.021
 2916SOL     OW 9646   1.114   5.419   0.576
 2916SOL    HW1 9647   1.093   5.390   0.670
 2916SOL    HW2 9648   1.164   5.346   0.529
 2917SOL     OW 9649   2.314   0.522   2.987
 2917SOL    HW1 9650   2.323   0.423   2.997
 2917SOL    HW2 9651   2.333   0.567   3.074
 2918SOL     OW 9652   5.814   4.379   5.151
 2918SOL    HW1 9653   5.902   4.355   5.191
 2918SOL    HW2 9654   5.819   4.471   5.110
 2919SOL     OW 9655   5.375   0.836   2.423
 2919SOL    HW1 9656   5.331   0.798   2.505
 2919SOL    HW2 9657   5.474   0.826   2.432
 2920SOL     OW 9658   3.342   0.973   1.540
 2920SOL    HW1 9659   3.322   1.048   1.603
 2920SOL    HW2 9660   3.263   0.911   1.537
 2921SOL     OW 9661   0.934   6.893   4.586
 2921SOL    HW1 9662   0.956   6.809   4.538
 2921SOL    HW2 9663   1.016   6.932   4.627
 2922SOL     OW 9664   4.482   0.400   1.353
 2922SOL    HW1 9665   4.485   0.417   1.254
 2922SOL    HW2 9666   4.401   0.345   1.375
 2923SOL     OW 9667   6.228   5.008   2.701
 2923SOL    HW1 9668   6.155   4.947   2.732
 2923SOL    HW2 9669   6.261   5.063   2.777
 2924SOL     OW 9670   6.223   1.926   5.611
 2924SOL    HW1 9671   6.153   1.961   5.672
 2924SOL    HW2 9672   6.226   1.826   5.617
 2925SOL     OW 9673   4.723   1.469   2.273
 2925SOL    HW1 9674   4.734   1.469   2.372
 2925SOL    HW2 9675   4.631   1.438   2.250
 2926SOL     OW 9676   5.864   1.348   5.511
 2926SOL    HW1 9677   5.938   1.294   5.549
 2926SOL    HW2 9678   5.865   1.439   5.552
 2927SOL     OW 9679   1.510   4.044   1.278
 2927SOL    HW1 9680   1.435   4.089   1.228
 2927SOL    HW2 9681   1.501   4.063   1.376
 2928SOL     OW 9682   0.734   0.443   0.015
 2928SOL    HW1 9683   0.706   0.539   0.012
 2928SOL    HW2 9684   0.729   0.409   0.108
 2929SOL     OW 9685   1.175   1.995   6.456
 2929SOL    HW1 9686   1.121   1.957   6.530
 2929SOL    HW2 9687   1.138   1.964   6.368
 2930SOL     OW 9688   5.479   6.790   5.227
 2930SOL    HW1 9689   5.477   6.752   5.134
 2930SOL    HW2 9690   5.405   6.855   5.238
 2931SOL     OW 9691   5.503   4.496   0.172
 2931SOL    HW1 9692   5.487   4.427   0.243
 2931SOL    HW2 9693   5.600   4.493   0.145
 2932SOL     OW 9694   0.956   5.513   2.025
 2932SOL    HW1 9695   0.906   5.598   2.006
 2932SOL    HW2 9696   0.903   5.436   1.990
 2933SOL     OW 9697   0.882   5.437   3.038
 2933SOL    HW1 9698   0.798   5.485   3.012
 2933SOL    HW2 9699   0.861   5.373   3.112
 2934SOL     OW 9700   5.194   1.350   0.059
 2934SOL    HW1 9701   5.152   1.420   0.002
 2934SOL    HW2 9702   5.192   1.262   0.012
 2935SOL     OW 9703   0.299   2.806   6.825
 2935SOL    HW1 9704   0.294   2.904   6.805
 2935SOL    HW2 9705   0.225   2.781   6.887
 2936SOL     OW 9706   4.060   0.088   0.775
 2936SOL    HW1 9707   4.034   0.171   0.825
 2936SOL    HW2 9708   4.156   0.067   0.793
 2937SOL     OW 9709   5.531   4.476   1.368
 2937SOL    HW1 9710   5.489   4.499   1.280
 2937SOL    HW2 9711   5.575   4.387   1.362
 2938SOL     OW 9712   4.731   5.411   6.583
 2938SOL    HW1 9713   4.801   5.457   6.637
 2938SOL    HW2 9714   4.653   5.389   6.643
 2939SOL     OW 9715   2.068   0.670   2.691
 2939SOL    HW1 9716   2.136   0.596   2.695
 2939SOL    HW2 9717   2.103   0.745   2.636
 2940SOL     OW 9718   5.926   4.530   5.404
 2940SOL    HW1 9719   5.843   4.474   5.410
 2940SOL    HW2 9720   5.987   4.491   5.335
 2941SOL     OW 9721   1.078   2.320   4.493
 2941SOL    HW1 9722   1.173   2.297   4.511
 2941SOL    HW2 9723   1.058   2.410   4.532
 2942SOL     OW 9724   3.290   2.264   0.565
 2942SOL    HW1 9725   3.268   2.266   0.467
 2942SOL    HW2 9726   3.360   2.333   0.585
 2943SOL     OW 9727   5.508   4.100   3.458
 2943SOL    HW1 9728   5.596   4.102   3.411
 2943SOL    HW2 9729   5.472   4.193   3.464
 2944SOL     OW 9730   2.707   6.080   4.367
 2944SOL    HW1 9731   2.645   6.133   4.309
 2944SOL    HW2 9732   2.660   5.998   4.400
 2945SOL     OW 9733   3.175   3.659   3.223
 2945SOL    HW1 9734   3.124   3.576   3.200
 2945SOL    HW2 9735   3.129   3.738   3.183
 2946SOL     OW 9736   1.242   4.786   5.694
 2946SOL    HW1 9737   1.292   4.837   5.625
 2946SOL    HW2 9738   1.213   4.848   5.767
 2947SOL     OW 9739   0.605   4.312   1.284
 2947SOL    HW1 9740   0.597   4.334   1.187
 2947SOL    HW2 9741   0.527   4.352   1.334
 2948SOL     OW 9742   0.705   3.857   4.518
 2948SOL    HW1 9743   0.741   3.950   4.507
 2948SOL    HW2 9744   0.756   3.795   4.459
 2949SOL     OW 9745   2.472   5.460   0.682
 2949SOL    HW1 9746   2.377   5.482   0.660
 2949SOL    HW2 9747   2.486   5.361   0.670
 2950SOL     OW 9748   5.306   5.110   4.275
 2950SOL    HW1 9749   5.259   5.141   4.358
 2950SOL    HW2 9750   5.295   5.178   4.203
 2951SOL     OW 9751   5.336   1.312   2.093
 2951SOL    HW1 9752   5.253   1.364   2.115
 2951SOL    HW2 9753   5.315   1.215   2.091
 2952SOL     OW 9754   0.138   4.438   4.936
 2952SOL    HW1 9755   0.089   4.509   4.986
 2952SOL    HW2 9756   0.237   4.453   4.945
 2953SOL     OW 9757   5.333   3.701   2.329
 2953SOL    HW1 9758   5.267   3.637   2.289
 2953SOL    HW2 9759   5.392   3.651   2.393
 2954SOL     OW 9760   1.014   4.772   2.126
 2954SOL    HW1 9761   1.024   4.730   2.216
 2954SOL    HW2 9762   1.095   4.754   2.072
 2955SOL     OW 9763   0.609   3.712   1.997
 2955SOL    HW1 9764   0.548   3.633   1.991
 2955SOL    HW2 9765   0.698   3.683   2.032
 2956SOL     OW 9766   5.664   5.857   2.944
 2956SOL    HW1 9767   5.578   5.844   2.895
 2956SOL    HW2 9768   5.646   5.901   3.032
 2957SOL     OW 9769   5.537   3.943   1.711
 2957SOL    HW1 9770   5.612   3.889   1.674
 2957SOL    HW2 9771   5.531   3.927   1.810
 2958SOL     OW 9772   2.416   4.451   3.238
 2958SOL    HW1 9773   2.333   4.504   3.254
 2958SOL    HW2 9774   2.472   4.498   3.169
 2959SOL     OW 9775   5.333   3.772   0.338
 2959SOL    HW1 9776   5.291   3.712   0.271
 2959SOL    HW2 9777   5.406   3.826   0.294
 2960SOL     OW 9778   3.105   0.627   0.631
 2960SOL    HW1 9779   3.119   0.706   0.690
 2960SOL    HW2 9780   3.061   0.554   0.683
 2961SOL     OW 9781   5.478   4.005   2.950
 2961SOL    HW1 9782   5.406   4.033   3.014
 2961SOL    HW2 9783   5.440   3.938   2.886
 2962SOL     OW 9784   4.108   6.459   3.465
 2962SOL    HW1 9785   4.203   6.447   3.495
 2962SOL    HW2 9786   4.087   6.391   3.395
 2963SOL     OW 9787   1.967   0.950   5.839
 2963SOL    HW1 9788   1.909   1.026   5.866
 2963SOL    HW2 9789   1.939   0.916   5.749
 2964SOL     OW 9790   0.611   0.795   4.148
 2964SOL    HW1 9791   0.680   0.746   4.094
 2964SOL    HW2 9792   0.549   0.843   4.086
 2965SOL     OW 9793   0.305   0.687   4.380
 2965SOL    HW1 9794   0.303   0.626   4.301
 2965SOL    HW2 9795   0.243   0.765   4.363
 2966SOL     OW 9796   4.581   5.773   3.232
 2966SOL    HW1 9797   4.605   5.690   3.183
 2966SOL    HW2 9798   4.632   5.777   3.318
 2967SOL     OW 9799   6.359   0.776   5.364
 2967SOL    HW1 9800   6.430   0.839   5.333
 2967SOL    HW2 9801   6.298   0.753   5.288
 2968SOL     OW 9802   0.942   2.650   0.069
 2968SOL    HW1 9803   0.969   2.732   0.019
 2968SOL    HW2 9804   0.906   2.676   0.159
 2969SOL     OW 9805   4.881   2.348   4.130
 2969SOL    HW1 9806   4.893   2.321   4.035
 2969SOL    HW2 9807   4.971   2.359   4.173
 2970SOL     OW 9808   2.041   3.758   5.996
 2970SOL    HW1 9809   2.018   3.737   5.901
 2970SOL    HW2 9810   2.024   3.855   6.013
 2971SOL     OW 9811   5.267   4.686   0.180
 2971SOL    HW1 9812   5.353   4.637   0.164
 2971SOL    HW2 9813   5.285   4.764   0.240
 2972SOL     OW 9814   6.549   4.920   6.675
 2972SOL    HW1 9815   6.605   5.002   6.688
 2972SOL    HW2 9816   6.587   4.866   6.599
 2973SOL     OW 9817   5.478   6.513   2.031
 2973SOL    HW1 9818   5.550   6.558   2.084
 2973SOL    HW2 9819   5.401   6.575   2.018
 2974SOL     OW 9820   1.127   4.637   3.537
 2974SOL    HW1 9821   1.115   4.629   3.636
 2974SOL    HW2 9822   1.038   4.635   3.492
 2975SOL     OW 9823   5.178   3.248   3.642
 2975SOL    HW1 9824   5.155   3.175   3.577
 2975SOL    HW2 9825   5.133   3.333   3.615
 2976SOL     OW 9826   3.777   1.984   2.724
 2976SOL    HW1 9827   3.681   1.968   2.750
 2976SOL    HW2 9828   3.831   1.905   2.752
 2977SOL     OW 9829   2.247   6.857   2.248
 2977SOL    HW1 9830   2.172   6.803   2.286
 2977SOL    HW2 9831   2.333   6.829   2.292
 2978SOL     OW 9832   4.510   4.829   0.144
 2978SOL    HW1 9833   4.439   4.894   0.117
 2978SOL    HW2 9834   4.477   4.773   0.220
 2979SOL     OW 9835   3.156   0.566   4.142
 2979SOL    HW1 9836   3.225   0.513   4.092
 2979SOL    HW2 9837   3.122   0.512   4.219
 2980SOL     OW 9838   1.409   5.655   4.068
 2980SOL    HW1 9839   1.475   5.582   4.086
 2980SOL    HW2 9840   1.319   5.616   4.051
 2981SOL     OW 9841   2.783   1.046   5.887
 2981SOL    HW1 9842   2.711   1.078   5.948
 2981SOL    HW2 9843   2.747   0.975   5.827
 2982SOL     OW 9844   3.247   5.836   1.967
 2982SOL    HW1 9845   3.173   5.793   2.019
 2982SOL    HW2 9846   3.234   5.816   1.870
 2983SOL     OW 9847   0.290   1.382   2.551
 2983SOL    HW1 9848   0.306   1.460   2.611
 2983SOL    HW2 9849   0.363   1.377   2.483
 2984SOL     OW 9850   5.728   4.826   0.773
 2984SOL    HW1 9851   5.710   4.890   0.698
 2984SOL    HW2 9852   5.674   4.743   0.758
 2985SOL     OW 9853   1.768   2.868   5.403
 2985SOL    HW1 9854   1.774   2.961   5.368
 2985SOL    HW2 9855   1.848   2.815   5.373
 2986SOL     OW 9856   3.639   4.042   3.279
 2986SOL    HW1 9857   3.573   3.967   3.272
 2986SOL    HW2 9858   3.667   4.054   3.374
 2987SOL     OW 9859   0.571   1.500   3.913
 2987SOL    HW1 9860   0.626   1.420   3.935
 2987SOL    HW2 9861   0.631   1.574   3.881
 2988SOL     OW 9862   1.753   5.655   3.047
 2988SOL    HW1 9863   1.669   5.679   2.997
 2988SOL    HW2 9864   1.756   5.556   3.061
 2989SOL     OW 9865   5.299   5.979   5.649
 2989SOL    HW1 9866   5.307   6.077   5.670
 2989SOL    HW2 9867   5.381   5.948   5.602
 2990SOL     OW 9868   3.758   2.080   4.673
 2990SOL    HW1 9869   3.660   2.067   4.659
 2990SOL    HW2 9870   3.781   2.063   4.769
 2991SOL     OW 9871   6.791   3.708   5.504
 2991SOL    HW1 9872   6.750   3.766   5.575
 2991SOL    HW2 9873   6.825   3.624   5.546
 2992SOL     OW 9874   2.364   6.282   4.702
 2992SOL    HW1 9875   2.334   6.369   4.742
 2992SOL    HW2 9876   2.412   6.300   4.616
 2993SOL     OW 9877   0.748   4.790   1.162
 2993SOL    HW1 9878   0.654   4.813   1.137
 2993SOL    HW2 9879   0.803   4.873   1.165
 2994SOL     OW 9880   4.060   6.789   6.846
 2994SOL    HW1 9881   4.026   6.725   6.777
 2994SOL    HW2 9882   4.099   6.737   6.923
 2995SOL     OW 9883   2.703   1.662   5.924
 2995SOL    HW1 9884   2.708   1.702   5.833
 2995SOL    HW2 9885   2.766   1.585   5.931
 2996SOL     OW 9886   1.464   1.567   4.297
 2996SOL    HW1 9887   1.426   1.475   4.295
 2996SOL    HW2 9888   1.423   1.622   4.225
 2997SOL     OW 9889   5.627   6.960   3.342
 2997SOL    HW1 9890   5.563   6.907   3.287
 2997SOL    HW2 9891   5.707   6.904   3.364
 2998SOL     OW 9892   4.323   0.220   4.064
 2998SOL    HW1 9893   4.288   0.176   3.981
 2998SOL    HW2 9894   4.417   0.190   4.081
 2999SOL     OW 9895   2.491   5.523   4.861
 2999SOL    HW1 9896   2.445   5.611   4.851
 2999SOL    HW2 9897   2.485   5.493   4.957
 3000SOL     OW 9898   3.395   3.644   6.163
 3000SOL    HW1 9899   3.383   3.704   6.242
 3000SOL    HW2 9900   3.327   3.666   6.093
 3001SOL     OW 9901   6.976   0.310   6.069
 3001SOL    HW1 9902   7.000   0.349   6.158
 3001SOL    HW2 9903   0.035   0.269   6.028
 3002SOL     OW 9904   3.208   1.760   0.179
 3002SOL    HW1 9905   3.145   1.793   0.109
 3002SOL    HW2 9906   3.257   1.680   0.144
 3003SOL     OW 9907   1.588   6.679   0.670
 3003SOL    HW1 9908   1.509   6.618   0.663
 3003SOL    HW2 9909   1.589   6.743   0.593
 3004SOL     OW 9910   0.327   4.243   3.555
 3004SOL    HW1 9911   0.358   4.330   3.516
 3004SOL    HW2 9912   0.400   4.202   3.609
 3005SOL     OW 9913   1.993   1.822   0.560
 3005SOL    HW1 9914   1.934   1.875   0.500
 3005SOL    HW2 9915   1.977   1.724   0.543
 3006SOL     OW 9916   5.418   1.445   4.776
 3006SOL    HW1 9917   5.502   1.500   4.771
 3006SOL    HW2 9918   5.408   1.408   4.868
 3007SOL     OW 9919   5.263   4.341   0.491
 3007SOL    HW1 9920   5.234   4.255   0.533
 3007SOL    HW2 9921   5.188   4.377   0.435
 3008SOL     OW 9922   3.826   2.485   5.737
 3008SOL    HW1 9923   3.773   2.460   5.655
 3008SOL    HW2 9924   3.915   2.439   5.733
 3009SOL     OW 9925   0.043   1.740   2.878
 3009SOL    HW1 9926   7.006   1.694   2.813
 3009SOL    HW2 9927   0.031   1.700   2.969
 3010SOL     OW 9928   3.824   5.434   3.418
 3010SOL    HW1 9929   3.913   5.394   3.398
 3010SOL    HW2 9930   3.752   5.372   3.387
 3011SOL     OW 9931   6.226   1.523   2.526
 3011SOL    HW1 9932   6.306   1.463   2.519
 3011SOL    HW2 9933   6.196   1.549   2.434
 3012SOL     OW 9934   1.993   3.335   6.015
 3012SOL    HW1 9935   2.036   3.262   6.067
 3012SOL    HW2 9936   2.056   3.367   5.944
 3013SOL     OW 9937   5.281   5.357   3.783
 3013SOL    HW1 9938   5.320   5.386   3.870
 3013SOL    HW2 9939   5.205   5.294   3.800
 3014SOL     OW 9940   4.387   2.429   4.606
 3014SOL    HW1 9941   4.377   2.394   4.699
 3014SOL    HW2 9942   4.318   2.388   4.547
 3015SOL     OW 9943   3.055   1.744   0.448
 3015SOL    HW1 9944   3.130   1.769   0.387
 3015SOL    HW2 9945   3.015   1.827   0.488
 3016SOL     OW 9946   2.452   6.337   3.824
 3016SOL    HW1 9947   2.414   6.248   3.797
 3016SOL    HW2 9948   2.433   6.404   3.752
 3017SOL     OW 9949   6.548   5.007   2.367
 3017SOL    HW1 9950   6.621   4.992   2.433
 3017SOL    HW2 9951   6.470   4.948   2.388
 3018SOL     OW 9952   3.107   6.620   5.790
 3018SOL    HW1 9953   3.043   6.624   5.866
 3018SOL    HW2 9954   3.178   6.552   5.809
 3019SOL     OW 9955   0.848   6.605   0.580
 3019SOL    HW1 9956   0.748   6.600   0.590
 3019SOL    HW2 9957   0.889   6.627   0.668
 3020SOL     OW 9958   3.881   2.587   1.398
 3020SOL    HW1 9959   3.876   2.684   1.375
 3020SOL    HW2 9960   3.916   2.576   1.491
 3021SOL     OW 9961   2.904   0.145   5.800
 3021SOL    HW1 9962   2.914   0.213   5.873
 3021SOL    HW2 9963   2.870   0.059   5.839
 3022SOL     OW 9964   4.181   5.247   4.921
 3022SOL    HW1 9965   4.225   5.174   4.868
 3022SOL    HW2 9966   4.173   5.219   5.016
 3023SOL     OW 9967   4.075   6.765   2.658
 3023SOL    HW1 9968   4.017   6.845   2.673
 3023SOL    HW2 9969   4.101   6.727   2.747
 3024SOL     OW 9970   5.205   0.480   4.554
 3024SOL    HW1 9971   5.138   0.551   4.576
 3024SOL    HW2 9972   5.234   0.489   4.459
 3025SOL     OW 9973   3.919   6.732   0.594
 3025SOL    HW1 9974   3.846   6.675   0.557
 3025SOL    HW2 9975   3.878   6.804   0.652
 3026SOL     OW 9976   1.187   0.485   6.315
 3026SOL    HW1 9977   1.183   0.506   6.412
 3026SOL    HW2 9978   1.181   0.570   6.262
 3027SOL     OW 9979   3.852   1.121   3.202
 3027SOL    HW1 9980   3.950   1.102   3.205
 3027SOL    HW2 9981   3.838   1.216   3.173
 3028SOL     OW 9982   1.265   3.599   6.174
 3028SOL    HW1 9983   1.294   3.536   6.101
 3028SOL    HW2 9984   1.168   3.619   6.164
 3029SOL     OW 9985   0.099   2.345   5.516
 3029SOL    HW1 9986   0.068   2.337   5.611
 3029SOL    HW2 9987   0.157   2.426   5.507
 3030SOL     OW 9988   0.451   3.193   0.395
 3030SOL    HW1 9989   0.546   3.223   0.407
 3030SOL    HW2 9990   0.393   3.273   0.379
 3031SOL     OW 9991   0.174   4.403   1.519
 3031SOL    HW1 9992   0.165   4.357   1.607
 3031SOL    HW2 9993   0.156   4.338   1.445
 3032SOL     OW 9994   2.814   6.351   1.472
 3032SOL    HW1 9995   2.804   6.376   1.569
 3032SOL    HW2 9996   2.725   6.355   1.428
 3033SOL     OW 9997   5.680   1.800   1.372
 3033SOL    HW1 9998   5.668   1.867   1.299
 3033SOL    HW2 9999   5.611   1.816   1.444
 3034SOL     OW10000   1.737   6.248   2.773
 3034SOL    HW110001   1.725   6.264   2.675
 3034SOL    HW210002   1.711   6.154   2.795
 3035SOL     OW10003   0.348   3.056   6.719
 3035SOL    HW110004   0.375   3.141   6.764
 3035SOL    HW210005   0.430   3.010   6.683
 3036SOL     OW10006   2.199   1.916   6.325
 3036SOL    HW110007   2.285   1.917   6.377
 3036SOL    HW210008   2.133   1.976   6.370
 3037SOL     OW10009   5.779   5.793   6.289
 3037SOL    HW110010   5.692   5.746   6.271
 3037SOL    HW210011   5.763   5.868   6.354
 3038SOL     OW10012   4.941   5.726   5.780
 3038SOL    HW110013   4.970   5.659   5.713
 3038SOL    HW210014   4.961   5.693   5.872
 3039SOL     OW10015   6.905   3.319   0.876
 3039SOL    HW110016   6.853   3.260   0.938
 3039SOL    HW210017   6.904   3.279   0.784
 3040SOL     OW10018   3.689   3.602   6.205
 3040SOL    HW110019   3.727   3.509   6.212
 3040SOL    HW210020   3.590   3.596   6.198
 3041SOL     OW10021   2.183   3.146   4.617
 3041SOL    HW110022   2.217   3.055   4.644
 3041SOL    HW210023   2.208   3.213   4.686
 3042SOL     OW10024   5.123   5.772   2.669
 3042SOL    HW110025   5.147   5.842   2.736
 3042SOL    HW210026   5.069   5.813   2.595
 3043SOL     OW10027   2.468   3.999   1.779
 3043SOL    HW110028   2.533   4.027   1.708
 3043SOL    HW210029   2.456   3.900   1.776
 3044SOL     OW10030   3.910   4.811   5.556
 3044SOL    HW110031   3.906   4.713   5.538
 3044SOL    HW210032   3.992   4.832   5.609
 3045SOL     OW10033   4.933   6.802   3.337
 3045SOL    HW110034   4.861   6.828   3.272
 3045SOL    HW210035   4.891   6.764   3.419
 3046SOL     OW10036   2.217   0.956   5.785
 3046SOL    HW110037   2.260   1.043   5.810
 3046SOL    HW210038   2.117   0.965   5.792
 3047SOL     OW10039   5.626   0.380   1.668
 3047SOL    HW110040   5.681   0.351   1.746
 3047SOL    HW210041   5.629   0.310   1.597
 3048SOL     OW10042   3.883   2.342   1.677
 3048SOL    HW110043   3.799   2.342   1.733
 3048SOL    HW210044   3.963   2.336   1.737
 3049SOL     OW10045   1.183   0.019   2.530
 3049SOL    HW110046   1.249   0.058   2.595
 3049SOL    HW210047   1.138   0.093   2.480
 3050SOL     OW10048   3.632   1.317   2.148
 3050SOL    HW110049   3.704   1.383   2.125
 3050SOL    HW210050   3.623   1.251   2.073
 3051SOL     OW10051   1.551   5.470   6.178
 3051SOL    HW110052   1.624   5.499   6.240
 3051SOL    HW210053   1.524   5.376   6.200
 3052SOL     OW10054   5.076   5.456   2.081
 3052SOL    HW110055   5.054   5.530   2.144
 3052SOL    HW210056   5.073   5.491   1.987
 3053SOL     OW10057   6.808   2.352   0.641
 3053SOL    HW110058   6.839   2.281   0.578
 3053SOL    HW210059   6.874   2.362   0.716
 3054SOL     OW10060   6.726   2.464   0.999
 3054SOL    HW110061   6.717   2.557   1.036
 3054SOL    HW210062   6.724   2.398   1.074
 3055SOL     OW10063   4.674   0.647   4.863
 3055SOL    HW110064   4.675   0.718   4.934
 3055SOL    HW210065   4.587   0.599   4.866
 3056SOL     OW10066   6.735   0.166   5.261
 3056SOL    HW110067   6.795   0.149   5.183
 3056SOL    HW210068   6.678   0.246   5.244
 3057SOL     OW10069   4.622   5.900   2.618
 3057SOL    HW110070   4.555   5.960   2.663
 3057SOL    HW210071   4.575   5.845   2.549
 3058SOL     OW10072   6.992   4.830   1.121
 3058SOL    HW110073   7.015   4.753   1.181
 3058SOL    HW210074   6.958   4.906   1.176
 3059SOL     OW10075   2.609   2.435   4.228
 3059SOL    HW110076   2.601   2.363   4.298
 3059SOL    HW210077   2.692   2.421   4.175
 3060SOL     OW10078   1.479   5.097   0.467
 3060SOL    HW110079   1.382   5.121   0.469
 3060SOL    HW210080   1.503   5.048   0.550
 3061SOL     OW10081   0.170   6.705   5.755
 3061SOL    HW110082   0.207   6.701   5.848
 3061SOL    HW210083   0.244   6.691   5.689
 3062SOL     OW10084   1.760   0.134   0.314
 3062SOL    HW110085   1.739   0.072   0.389
 3062SOL    HW210086   1.849   0.176   0.330
 3063SOL     OW10087   2.428   4.884   2.236
 3063SOL    HW110088   2.357   4.954   2.245
 3063SOL    HW210089   2.417   4.837   2.149
 3064SOL     OW10090   4.868   3.735   1.944
 3064SOL    HW110091   4.889   3.799   2.018
 3064SOL    HW210092   4.833   3.650   1.984
 3065SOL     OW10093   1.960   1.524   0.109
 3065SOL    HW110094   1.927   1.430   0.102
 3065SOL    HW210095   2.059   1.524   0.119
 3066SOL     OW10096   4.640   4.771   0.457
 3066SOL    HW110097   4.617   4.783   0.554
 3066SOL    HW210098   4.739   4.776   0.446
 3067SOL     OW10099   4.013   1.403   5.718
 3067SOL    HW110100   3.935   1.424   5.659
 3067SOL    HW210101   4.049   1.313   5.695
 3068SOL     OW10102   6.571   0.011   0.539
 3068SOL    HW110103   6.552   6.979   0.457
 3068SOL    HW210104   6.590   0.105   0.514
 3069SOL     OW10105   6.443   5.816   1.551
 3069SOL    HW110106   6.540   5.834   1.531
 3069SOL    HW210107   6.413   5.874   1.626
 3070SOL     OW10108   2.815   1.299   6.751
 3070SOL    HW110109   2.794   1.377   6.810
 3070SOL    HW210110   2.905   1.312   6.710
 3071SOL     OW10111   6.740   6.362   3.045
 3071SOL    HW110112   6.687   6.442   3.076
 3071SOL    HW210113   6.836   6.389   3.032
 3072SOL     OW10114   2.742   6.057   6.406
 3072SOL    HW110115   2.769   6.153   6.409
 3072SOL    HW210116   2.642   6.051   6.403
 3073SOL     OW10117   6.146   3.374   4.720
 3073SOL    HW110118   6.177   3.412   4.807
 3073SOL    HW210119   6.071   3.429   4.685
 3074SOL     OW10120   6.018   3.647   1.021
 3074SOL    HW110121   6.098   3.675   0.968
 3074SOL    HW210122   6.033   3.669   1.118
 3075SOL     OW10123   2.605   5.423   1.489
 3075SOL    HW110124   2.638   5.500   1.436
 3075SOL    HW210125   2.507   5.411   1.474
 3076SOL     OW10126   6.633   0.218   4.007
 3076SOL    HW110127   6.694   0.164   3.949
 3076SOL    HW210128   6.559   0.256   3.951
 3077SOL     OW10129   6.106   4.606   1.247
 3077SOL    HW110130   6.186   4.660   1.272
 3077SOL    HW210131   6.131   4.541   1.176
 3078SOL     OW10132   0.593   2.729   3.171
 3078SOL    HW110133   0.649   2.709   3.251
 3078SOL    HW210134   0.503   2.762   3.200
 3079SOL     OW10135   2.573   2.401   2.673
 3079SOL    HW110136   2.479   2.409   2.707
 3079SOL    HW210137   2.571   2.367   2.579
 3080SOL     OW10138   5.267   5.206   2.090
 3080SOL    HW110139   5.195   5.273   2.109
 3080SOL    HW210140   5.226   5.116   2.077
 3081SOL     OW10141   0.617   2.444   5.432
 3081SOL    HW110142   0.633   2.427   5.335
 3081SOL    HW210143   0.635   2.540   5.454
 3082SOL     OW10144   2.385   5.656   3.733
 3082SOL    HW110145   2.344   5.721   3.796
 3082SOL    HW210146   2.477   5.686   3.709
 3083SOL     OW10147   2.979   6.365   4.059
 3083SOL    HW110148   3.029   6.286   4.023
 3083SOL    HW210149   3.038   6.415   4.123
 3084SOL     OW10150   6.314   3.870   4.497
 3084SOL    HW110151   6.347   3.873   4.402
 3084SOL    HW210152   6.365   3.801   4.548
 3085SOL     OW10153   5.894   4.632   0.336
 3085SOL    HW110154   5.918   4.599   0.427
 3085SOL    HW210155   5.976   4.668   0.291
 3086SOL     OW10156   4.850   1.358   1.269
 3086SOL    HW110157   4.854   1.316   1.360
 3086SOL    HW210158   4.773   1.320   1.218
 3087SOL     OW10159   1.585   6.114   4.079
 3087SOL    HW110160   1.530   6.039   4.118
 3087SOL    HW210161   1.666   6.076   4.035
 3088SOL     OW10162   2.160   4.852   5.009
 3088SOL    HW110163   2.109   4.800   4.941
 3088SOL    HW210164   2.258   4.834   4.998
 3089SOL     OW10165   2.052   2.982   5.778
 3089SOL    HW110166   1.996   3.062   5.755
 3089SOL    HW210167   2.034   2.909   5.712
 3090SOL     OW10168   2.526   2.070   1.541
 3090SOL    HW110169   2.488   2.047   1.630
 3090SOL    HW210170   2.601   2.007   1.520
 3091SOL     OW10171   1.937   0.035   1.520
 3091SOL    HW110172   2.003   0.096   1.564
 3091SOL    HW210173   1.946   6.966   1.560
 3092SOL     OW10174   5.218   1.557   0.620
 3092SOL    HW110175   5.281   1.630   0.648
 3092SOL    HW210176   5.236   1.532   0.525
 3093SOL     OW10177   5.270   6.360   6.538
 3093SOL    HW110178   5.221   6.446   6.523
 3093SOL    HW210179   5.302   6.325   6.450
 3094SOL     OW10180   1.870   6.912   4.177
 3094SOL    HW110181   1.937   6.838   4.166
 3094SOL    HW210182   1.910   6.998   4.145
 3095SOL     OW10183   2.488   5.095   5.122
 3095SOL    HW110184   2.429   5.071   5.198
 3095SOL    HW210185   2.582   5.107   5.154
 3096SOL     OW10186   0.592   5.196   5.493
 3096SOL    HW110187   0.611   5.202   5.395
 3096SOL    HW210188   0.603   5.101   5.523
 3097SOL     OW10189   5.480   2.163   0.083
 3097SOL    HW110190   5.491   2.161   7.006
 3097SOL    HW210191   5.425   2.084   0.112
 3098SOL     OW10192   2.217   2.792   1.872
 3098SOL    HW110193   2.231   2.883   1.832
 3098SOL    HW210194   2.302   2.763   1.917
 3099SOL     OW10195   0.771   0.188   3.723
 3099SOL    HW110196   0.702   0.122   3.694
 3099SOL    HW210197   0.858   0.140   3.738
 3100SOL     OW10198   6.948   6.082   3.443
 3100SOL    HW110199   6.940   6.132   3.357
 3100SOL    HW210200   6.893   5.998   3.437
 3101SOL     OW10201   6.072   6.209   0.269
 3101SOL    HW110202   6.131   6.269   0.214
 3101SOL    HW210203   6.121   6.180   0.351
 3102SOL     OW10204   6.448   5.479   2.542
 3102SOL    HW110205   6.446   5.392   2.591
 3102SOL    HW210206   6.527   5.481   2.480
 3103SOL     OW10207   4.664   1.007   2.164
 3103SOL    HW110208   4.745   0.950   2.178
 3103SOL    HW210209   4.671   1.056   2.077
 3104SOL     OW10210   5.323   1.238   5.473
 3104SOL    HW110211   5.336   1.140   5.457
 3104SOL    HW210212   5.228   1.256   5.498
 3105SOL     OW10213   5.450   4.483   1.110
 3105SOL    HW110214   5.538   4.477   1.061
 3105SOL    HW210215   5.401   4.397   1.101
 3106SOL     OW10216   4.527   0.835   3.804
 3106SOL    HW110217   4.590   0.911   3.787
 3106SOL    HW210218   4.441   0.871   3.841
 3107SOL     OW10219   4.508   1.857   4.864
 3107SOL    HW110220   4.528   1.955   4.856
 3107SOL    HW210221   4.415   1.839   4.832
 3108SOL     OW10222   1.894   6.210   4.153
 3108SOL    HW110223   1.868   6.199   4.249
 3108SOL    HW210224   1.857   6.135   4.098
 3109SOL     OW10225   5.414   6.094   3.940
 3109SOL    HW110226   5.499   6.102   3.887
 3109SOL    HW210227   5.424   6.021   4.007
 3110SOL     OW10228   0.879   2.964   2.853
 3110SOL    HW110229   0.788   2.939   2.887
 3110SOL    HW210230   0.874   2.983   2.755
 3111SOL     OW10231   0.356   4.889   3.447
 3111SOL    HW110232   0.362   4.792   3.423
 3111SOL    HW210233   0.334   4.899   3.544
 3112SOL     OW10234   4.052   3.113   6.884
 3112SOL    HW110235   3.967   3.165   6.883
 3112SOL    HW210236   4.082   3.097   6.790
 3113SOL     OW10237   2.539   4.769   3.553
 3113SOL    HW110238   2.485   4.834   3.500
 3113SOL    HW210239   2.509   4.675   3.533
 3114SOL     OW10240   3.877   2.218   0.350
 3114SOL    HW110241   3.811   2.274   0.299
 3114SOL    HW210242   3.829   2.144   0.396
 3115SOL     OW10243   4.101   4.637   6.201
 3115SOL    HW110244   4.152   4.552   6.216
 3115SOL    HW210245   4.004   4.622   6.219
 3116SOL     OW10246   6.870   2.954   0.668
 3116SOL    HW110247   6.806   2.900   0.613
 3116SOL    HW210248   6.940   2.893   0.705
 3117SOL     OW10249   4.622   3.826   5.279
 3117SOL    HW110250   4.676   3.742   5.281
 3117SOL    HW210251   4.647   3.884   5.357
 3118SOL     OW10252   0.693   5.441   2.224
 3118SOL    HW110253   0.707   5.475   2.132
 3118SOL    HW210254   0.696   5.341   2.224
 3119SOL     OW10255   2.375   3.062   6.684
 3119SOL    HW110256   2.394   3.157   6.709
 3119SOL    HW210257   2.439   3.002   6.730
 3120SOL     OW10258   3.258   0.449   5.343
 3120SOL    HW110259   3.258   0.541   5.380
 3120SOL    HW210260   3.352   0.418   5.330
 3121SOL     OW10261   0.214   1.075   3.492
 3121SOL    HW110262   0.272   1.123   3.558
 3121SOL    HW210263   0.153   1.012   3.541
 3122SOL     OW10264   3.948   5.422   6.091
 3122SOL    HW110265   3.898   5.506   6.069
 3122SOL    HW210266   3.988   5.384   6.008
 3123SOL     OW10267   1.783   1.748   3.048
 3123SOL    HW110268   1.726   1.819   3.008
 3123SOL    HW210269   1.879   1.764   3.023
 3124SOL     OW10270   5.019   0.157   4.507
 3124SOL    HW110271   4.955   0.158   4.584
 3124SOL    HW210272   5.100   0.210   4.530
 3125SOL     OW10273   0.932   2.705   4.712
 3125SOL    HW110274   0.972   2.791   4.679
 3125SOL    HW210275   0.864   2.725   4.782
 3126SOL     OW10276   5.560   4.126   5.538
 3126SOL    HW110277   5.594   4.184   5.612
 3126SOL    HW210278   5.573   4.030   5.563
 3127SOL     OW10279   0.840   3.014   5.584
 3127SOL    HW110280   0.884   3.080   5.644
 3127SOL    HW210281   0.878   2.923   5.599
 3128SOL     OW10282   3.244   0.694   6.565
 3128SOL    HW110283   3.247   0.638   6.648
 3128SOL    HW210284   3.201   0.642   6.491
 3129SOL     OW10285   6.365   3.572   0.117
 3129SOL    HW110286   6.333   3.638   0.185
 3129SOL    HW210287   6.465   3.581   0.107
 3130SOL     OW10288   1.598   4.408   1.418
 3130SOL    HW110289   1.689   4.449   1.424
 3130SOL    HW210290   1.598   4.321   1.468
 3131SOL     OW10291   0.548   3.451   2.080
 3131SOL    HW110292   0.569   3.377   2.016
 3131SOL    HW210293   0.630   3.475   2.131
 3132SOL     OW10294   3.732   5.901   6.322
 3132SOL    HW110295   3.789   5.884   6.402
 3132SOL    HW210296   3.771   5.854   6.243
 3133SOL     OW10297   3.298   1.445   3.176
 3133SOL    HW110298   3.338   1.534   3.153
 3133SOL    HW210299   3.337   1.411   3.262
 3134SOL     OW10300   4.736   4.176   1.772
 3134SOL    HW110301   4.646   4.175   1.816
 3134SOL    HW210302   4.762   4.083   1.748
 3135SOL     OW10303   4.369   1.045   4.796
 3135SOL    HW110304   4.337   1.140   4.808
 3135SOL    HW210305   4.314   0.985   4.854
 3136SOL     OW10306   5.585   0.552   2.101
 3136SOL    HW110307   5.618   0.640   2.136
 3136SOL    HW210308   5.540   0.501   2.175
 3137SOL     OW10309   6.707   0.762   2.353
 3137SOL    HW110310   6.711   0.740   2.256
 3137SOL    HW210311   6.718   0.678   2.407
 3138SOL     OW10312   6.366   4.569   3.486
 3138SOL    HW110313   6.331   4.476   3.498
 3138SOL    HW210314   6.425   4.573   3.406
 3139SOL     OW10315   4.673   6.099   0.771
 3139SOL    HW110316   4.604   6.171   0.763
 3139SOL    HW210317   4.630   6.016   0.806
 3140SOL     OW10318   6.347   6.903   0.351
 3140SOL    HW110319   6.277   6.832   0.352
 3140SOL    HW210320   6.427   6.870   0.301
 3141SOL     OW10321   0.578   6.790   6.655
 3141SOL    HW110322   0.535   6.866   6.606
 3141SOL    HW210323   0.596   6.817   6.749
 3142SOL     OW10324   3.608   0.153   2.201
 3142SOL    HW110325   3.616   0.200   2.113
 3142SOL    HW210326   3.654   0.065   2.195
 3143SOL     OW10327   6.474   2.267   0.202
 3143SOL    HW110328   6.428   2.232   0.284
 3143SOL    HW210329   6.441   2.217   0.121
 3144SOL     OW10330   3.713   3.912   1.561
 3144SOL    HW110331   3.739   4.008   1.549
 3144SOL    HW210332   3.791   3.854   1.537
 3145SOL     OW10333   2.127   5.926   1.367
 3145SOL    HW110334   2.192   5.933   1.292
 3145SOL    HW210335   2.171   5.954   1.452
 3146SOL     OW10336   1.285   1.090   4.068
 3146SOL    HW110337   1.188   1.063   4.071
 3146SOL    HW210338   1.292   1.183   4.033
 3147SOL     OW10339   3.500   5.481   1.338
 3147SOL    HW110340   3.543   5.516   1.422
 3147SOL    HW210341   3.570   5.467   1.268
 3148SOL     OW10342   6.322   6.079   3.820
 3148SOL    HW110343   6.356   6.099   3.912
 3148SOL    HW210344   6.233   6.122   3.807
 3149SOL     OW10345   2.640   1.168   5.187
 3149SOL    HW110346   2.648   1.108   5.107
 3149SOL    HW210347   2.699   1.248   5.174
 3150SOL     OW10348   6.026   5.422   4.196
 3150SOL    HW110349   6.088   5.377   4.132
 3150SOL    HW210350   5.995   5.509   4.157
 3151SOL     OW10351   6.801   1.164   5.362
 3151SOL    HW110352   6.778   1.260   5.376
 3151SOL    HW210353   6.839   1.151   5.271
 3152SOL     OW10354   1.397   5.470   0.845
 3152SOL    HW110355   1.421   5.446   0.751
 3152SOL    HW210356   1.440   5.405   0.908
 3153SOL     OW10357   6.055   5.239   0.532
 3153SOL    HW110358   5.984   5.189   0.482
 3153SOL    HW210359   6.140   5.237   0.480
 3154SOL     OW10360   6.489   1.697   6.472
 3154SOL    HW110361   6.416   1.737   6.416
 3154SOL    HW210362   6.535   1.626   6.420
 3155SOL     OW10363   6.760   4.335   0.388
 3155SOL    HW110364   6.736   4.259   0.328
 3155SOL    HW210365   6.768   4.301   0.482
 3156SOL     OW10366   3.558   3.162   3.372
 3156SOL    HW110367   3.581   3.126   3.463
 3156SOL    HW210368   3.523   3.089   3.314
 3157SOL     OW10369   2.799   2.128   5.148
 3157SOL    HW110370   2.828   2.219   5.176
 3157SOL    HW210371   2.876   2.078   5.109
 3158SOL     OW10372   3.637   1.435   3.435
 3158SOL    HW110373   3.682   1.406   3.351
 3158SOL    HW210374   3.619   1.533   3.432
 3159SOL     OW10375   6.072   1.416   0.149
 3159SOL    HW110376   6.034   1.496   0.103
 3159SOL    HW210377   6.148   1.444   0.208
 3160SOL     OW10378   0.193   5.728   5.628
 3160SOL    HW110379   0.230   5.784   5.553
 3160SOL    HW210380   0.135   5.656   5.590
 3161SOL     OW10381   2.398   2.402   3.139
 3161SOL    HW110382   2.344   2.362   3.213
 3161SOL    HW210383   2.339   2.458   3.081
 3162SOL     OW10384   1.261   6.315   2.016
 3162SOL    HW110385   1.344   6.266   2.043
 3162SOL    HW210386   1.195   6.312   2.092
 3163SOL     OW10387   4.751   3.078   6.248
 3163SOL    HW110388   4.739   3.015   6.170
 3163SOL    HW210389   4.788   3.165   6.215
 3164SOL     OW10390   4.471   5.416   1.060
 3164SOL    HW110391   4.496   5.402   1.155
 3164SOL    HW210392   4.474   5.513   1.038
 3165SOL     OW10393   0.649   6.265   1.009
 3165SOL    HW110394   0.635   6.166   1.013
 3165SOL    HW210395   0.659   6.301   1.101
 3166SOL     OW10396   4.040   1.891   4.346
 3166SOL    HW110397   4.133   1.921   4.363
 3166SOL    HW210398   4.027   1.876   4.248
 3167SOL     OW10399   6.593   4.851   1.017
 3167SOL    HW110400   6.691   4.840   1.000
 3167SOL    HW210401   6.562   4.938   0.978
 3168SOL     OW10402   4.697   2.668   6.521
 3168SOL    HW110403   4.638   2.587   6.517
 3168SOL    HW210404   4.699   2.712   6.431
 3169SOL     OW10405   1.996   3.443   4.297
 3169SOL    HW110406   1.992   3.448   4.198
 3169SOL    HW210407   2.055   3.367   4.325
 3170SOL     OW10408   4.362   6.795   1.419
 3170SOL    HW110409   4.328   6.708   1.385
 3170SOL    HW210410   4.351   6.865   1.348
 3171SOL     OW10411   0.242   0.735   1.913
 3171SOL    HW110412   0.297   0.662   1.872
 3171SOL    HW210413   0.149   0.730   1.876
 3172SOL     OW10414   6.523   5.197   0.385
 3172SOL    HW110415   6.498   5.216   0.480
 3172SOL    HW210416   6.612   5.238   0.365
 3173SOL     OW10417   2.317   1.449   0.451
 3173SOL    HW110418   2.312   1.538   0.495
 3173SOL    HW210419   2.254   1.446   0.374
 3174SOL     OW10420   2.508   2.201   0.578
 3174SOL    HW110421   2.476   2.262   0.505
 3174SOL    HW210422   2.429   2.160   0.624
 3175SOL     OW10423   6.490   0.773   1.627
 3175SOL    HW110424   6.462   0.712   1.552
 3175SOL    HW210425   6.582   0.748   1.658
 3176SOL     OW10426   1.648   3.920   5.310
 3176SOL    HW110427   1.711   3.868   5.369
 3176SOL    HW210428   1.672   4.017   5.313
 3177SOL     OW10429   4.876   3.600   4.044
 3177SOL    HW110430   4.910   3.558   4.128
 3177SOL    HW210431   4.875   3.700   4.055
 3178SOL     OW10432   6.250   2.016   0.928
 3178SOL    HW110433   6.191   2.080   0.977
 3178SOL    HW210434   6.216   1.922   0.941
 3179SOL     OW10435   0.845   2.853   2.184
 3179SOL    HW110436   0.782   2.794   2.133
 3179SOL    HW210437   0.821   2.949   2.170
 3180SOL     OW10438   4.348   0.971   0.042
 3180SOL    HW110439   4.302   0.920   6.992
 3180SOL    HW210440   4.447   0.965   0.031
 3181SOL     OW10441   6.978   1.839   3.489
 3181SOL    HW110442   0.038   1.872   3.444
 3181SOL    HW210443   6.899   1.891   3.456
 3182SOL     OW10444   3.533   0.359   5.883
 3182SOL    HW110445   3.465   0.322   5.946
 3182SOL    HW210446   3.516   0.456   5.869
 3183SOL     OW10447   4.139   3.931   1.619
 3183SOL    HW110448   4.078   3.963   1.691
 3183SOL    HW210449   4.225   3.983   1.622
 3184SOL     OW10450   0.684   3.334   2.691
 3184SOL    HW110451   0.740   3.357   2.770
 3184SOL    HW210452   0.677   3.234   2.683
 3185SOL     OW10453   5.713   6.031   6.989
 3185SOL    HW110454   5.651   6.018   6.912
 3185SOL    HW210455   5.803   6.058   6.955
 3186SOL     OW10456   3.720   1.727   1.687
 3186SOL    HW110457   3.777   1.776   1.621
 3186SOL    HW210458   3.646   1.787   1.718
 3187SOL     OW10459   4.564   4.688   6.914
 3187SOL    HW110460   4.548   4.750   6.991
 3187SOL    HW210461   4.658   4.654   6.918
 3188SOL     OW10462   2.252   0.487   4.135
 3188SOL    HW110463   2.261   0.486   4.234
 3188SOL    HW210464   2.321   0.547   4.095
 3189SOL     OW10465   1.421   1.030   1.378
 3189SOL    HW110466   1.464   1.118   1.357
 3189SOL    HW210467   1.366   1.000   1.300
 3190SOL     OW10468   6.817   6.046   0.604
 3190SOL    HW110469   6.914   6.045   0.626
 3190SOL    HW210470   6.770   5.974   0.655
 3191SOL     OW10471   5.165   6.254   0.801
 3191SOL    HW110472   5.149   6.286   0.707
 3191SOL    HW210473   5.153   6.155   0.805
 3192SOL     OW10474   6.987   2.276   1.494
 3192SOL    HW110475   6.995   2.261   1.396
 3192SOL    HW210476   6.905   2.231   1.528
 3193SOL     OW10477   3.303   1.604   6.506
 3193SOL    HW110478   3.293   1.504   6.509
 3193SOL    HW210479   3.324   1.638   6.597
 3194SOL     OW10480   1.686   2.310   6.267
 3194SOL    HW110481   1.670   2.305   6.366
 3194SOL    HW210482   1.728   2.398   6.245
 3195SOL     OW10483   2.902   2.246   3.511
 3195SOL    HW110484   2.883   2.270   3.416
 3195SOL    HW210485   3.000   2.230   3.523
 3196SOL     OW10486   0.263   1.190   6.384
 3196SOL    HW110487   0.332   1.250   6.344
 3196SOL    HW210488   0.268   1.195   6.484
 3197SOL     OW10489   2.527   6.425   3.428
 3197SOL    HW110490   2.530   6.508   3.373
 3197SOL    HW210491   2.525   6.345   3.367
 3198SOL     OW10492   5.505   2.701   4.943
 3198SOL    HW110493   5.526   2.609   4.910
 3198SOL    HW210494   5.407   2.709   4.958
 3199SOL     OW10495   5.239   3.205   2.351
 3199SOL    HW110496   5.279   3.127   2.302
 3199SOL    HW210497   5.172   3.250   2.292
 3200SOL     OW10498   6.249   3.082   1.675
 3200SOL    HW110499   6.266   3.128   1.588
 3200SOL    HW210500   6.226   3.149   1.745
 3201SOL     OW10501   5.511   4.546   4.458
 3201SOL    HW110502   5.599   4.499   4.454
 3201SOL    HW210503   5.526   4.645   4.461
 3202SOL     OW10504   6.966   4.772   1.703
 3202SOL    HW110505   6.989   4.754   1.607
 3202SOL    HW210506   6.991   4.692   1.758
 3203SOL     OW10507   6.362   2.736   0.454
 3203SOL    HW110508   6.320   2.651   0.423
 3203SOL    HW210509   6.397   2.787   0.376
 3204SOL     OW10510   4.792   6.802   2.162
 3204SOL    HW110511   4.857   6.867   2.201
 3204SOL    HW210512   4.819   6.779   2.068
 3205SOL     OW10513   6.595   3.318   6.210
 3205SOL    HW110514   6.621   3.354   6.300
 3205SOL    HW210515   6.526   3.246   6.222
 3206SOL     OW10516   0.870   6.081   5.962
 3206SOL    HW110517   0.809   6.003   5.974
 3206SOL    HW210518   0.925   6.093   6.044
 3207SOL     OW10519   0.803   0.618   5.735
 3207SOL    HW110520   0.885   0.672   5.754
 3207SOL    HW210521   0.722   0.667   5.768
 3208SOL     OW10522   5.165   6.078   5.376
 3208SOL    HW110523   5.100   6.032   5.317
 3208SOL    HW210524   5.179   6.025   5.460
 3209SOL     OW10525   4.244   6.072   2.894
 3209SOL    HW110526   4.248   6.007   2.970
 3209SOL    HW210527   4.258   6.164   2.928
 3210SOL     OW10528   1.040   4.510   1.482
 3210SOL    HW110529   0.954   4.525   1.435
 3210SOL    HW210530   1.109   4.480   1.417
 3211SOL     OW10531   1.522   4.038   0.859
 3211SOL    HW110532   1.470   3.980   0.797
 3211SOL    HW210533   1.593   4.087   0.808
 3212SOL     OW10534   3.392   0.675   1.037
 3212SOL    HW110535   3.406   0.579   1.011
 3212SOL    HW210536   3.401   0.733   0.956
 3213SOL     OW10537   0.466   5.851   2.000
 3213SOL    HW110538   0.528   5.793   1.948
 3213SOL    HW210539   0.375   5.847   1.960
 3214SOL     OW10540   4.752   5.464   0.475
 3214SOL    HW110541   4.814   5.515   0.536
 3214SOL    HW210542   4.660   5.464   0.514
 3215SOL     OW10543   6.588   3.441   0.983
 3215SOL    HW110544   6.635   3.365   1.028
 3215SOL    HW210545   6.542   3.497   1.052
 3216SOL     OW10546   5.985   5.174   0.824
 3216SOL    HW110547   6.045   5.125   0.761
 3216SOL    HW210548   5.900   5.199   0.777
 3217SOL     OW10549   0.319   5.295   2.316
 3217SOL    HW110550   0.353   5.230   2.385
 3217SOL    HW210551   0.377   5.376   2.316
 3218SOL     OW10552   4.022   1.052   3.543
 3218SOL    HW110553   3.973   0.996   3.477
 3218SOL    HW210554   4.017   1.148   3.516
 3219SOL     OW10555   6.913   1.574   3.560
 3219SOL    HW110556   6.881   1.521   3.482
 3219SOL    HW210557   6.944   1.664   3.529
 3220SOL     OW10558   6.171   6.060   6.528
 3220SOL    HW110559   6.186   6.030   6.622
 3220SOL    HW210560   6.129   5.987   6.475
 3221SOL     OW10561   3.925   0.566   1.558
 3221SOL    HW110562   3.904   0.527   1.469
 3221SOL    HW210563   4.005   0.520   1.598
 3222SOL     OW10564   4.015   1.576   2.540
 3222SOL    HW110565   4.045   1.556   2.633
 3222SOL    HW210566   3.929   1.530   2.522
 3223SOL     OW10567   1.809   5.620   6.381
 3223SOL    HW110568   1.813   5.636   6.480
 3223SOL    HW210569   1.897   5.583   6.350
 3224SOL     OW10570   4.587   3.783   6.674
 3224SOL    HW110571   4.514   3.716   6.691
 3224SOL    HW210572   4.569   3.830   6.588
 3225SOL     OW10573   4.764   3.601   6.566
 3225SOL    HW110574   4.708   3.674   6.607
 3225SOL    HW210575   4.856   3.636   6.549
 3226SOL     OW10576   2.060   1.390   3.874
 3226SOL    HW110577   2.033   1.307   3.825
 3226SOL    HW210578   2.144   1.426   3.835
 3227SOL     OW10579   3.857   2.414   0.124
 3227SOL    HW110580   3.905   2.329   0.103
 3227SOL    HW210581   3.915   2.471   0.183
 3228SOL     OW10582   6.437   4.353   2.882
 3228SOL    HW110583   6.478   4.299   2.956
 3228SOL    HW210584   6.392   4.292   2.817
 3229SOL     OW10585   4.121   0.585   5.545
 3229SOL    HW110586   4.071   0.596   5.459
 3229SOL    HW210587   4.098   0.497   5.586
 3230SOL     OW10588   1.843   3.404   4.791
 3230SOL    HW110589   1.842   3.448   4.700
 3230SOL    HW210590   1.800   3.465   4.857
 3231SOL     OW10591   2.298   0.563   1.305
 3231SOL    HW110592   2.326   0.583   1.399
 3231SOL    HW210593   2.214   0.613   1.284
 3232SOL     OW10594   4.779   5.313   5.187
 3232SOL    HW110595   4.787   5.215   5.207
 3232SOL    HW210596   4.683   5.340   5.187
 3233SOL     OW10597   1.231   2.939   1.571
 3233SOL    HW110598   1.297   2.869   1.597
 3233SOL    HW210599   1.140   2.899   1.565
 3234SOL     OW10600   0.048   1.760   6.894
 3234SOL    HW110601   0.056   1.859   6.899
 3234SOL    HW210602   0.081   1.728   6.806
 3235SOL     OW10603   5.670   0.798   1.664
 3235SOL    HW110604   5.693   0.722   1.725
 3235SOL    HW210605   5.635   0.874   1.719
 3236SOL     OW10606   1.135   3.514   1.018
 3236SOL    HW110607   1.206   3.484   0.955
 3236SOL    HW210608   1.171   3.513   1.111
 3237SOL     OW10609   4.843   1.797   3.972
 3237SOL    HW110610   4.882   1.743   4.047
 3237SOL    HW210611   4.914   1.854   3.931
 3238SOL     OW10612   0.133   4.814   0.661
 3238SOL    HW110613   0.160   4.854   0.749
 3238SOL    HW210614   0.199   4.840   0.591
 3239SOL     OW10615   6.599   1.438   1.859
 3239SOL    HW110616   6.580   1.459   1.955
 3239SOL    HW210617   6.550   1.502   1.801
 3240SOL     OW10618   1.291   0.240   6.220
 3240SOL    HW110619   1.266   0.336   6.236
 3240SOL    HW210620   1.335   0.232   6.130
 3241SOL     OW10621   4.451   1.998   5.407
 3241SOL    HW110622   4.435   2.077   5.348
 3241SOL    HW210623   4.423   1.915   5.359
 3242SOL     OW10624   3.500   4.470   0.017
 3242SOL    HW110625   3.474   4.565   0.030
 3242SOL    HW210626   3.555   4.439   0.095
 3243SOL     OW10627   4.443   4.650   0.326
 3243SOL    HW110628   4.449   4.559   0.286
 3243SOL    HW210629   4.516   4.662   0.393
 3244SOL     OW10630   5.164   5.777   0.358
 3244SOL    HW110631   5.076   5.798   0.402
 3244SOL    HW210632   5.237   5.827   0.405
 3245SOL     OW10633   4.970   3.124   4.901
 3245SOL    HW110634   4.932   3.118   4.809
 3245SOL    HW210635   4.929   3.201   4.949
 3246SOL     OW10636   5.649   0.790   2.461
 3246SOL    HW110637   5.735   0.785   2.409
 3246SOL    HW210638   5.650   0.872   2.518
 3247SOL     OW10639   5.953   4.352   2.469
 3247SOL    HW110640   5.954   4.286   2.393
 3247SOL    HW210641   6.044   4.356   2.511
 3248SOL     OW10642   6.777   3.544   0.819
 3248SOL    HW110643   6.852   3.480   0.801
 3248SOL    HW210644   6.707   3.498   0.874
 3249SOL     OW10645   3.919   3.032   4.231
 3249SOL    HW110646   3.877   3.072   4.149
 3249SOL    HW210647   3.977   3.101   4.275
 3250SOL     OW10648   6.221   6.589   2.242
 3250SOL    HW110649   6.300   6.568   2.300
 3250SOL    HW210650   6.212   6.519   2.171
 3251SOL     OW10651   2.700   0.958   2.638
 3251SOL    HW110652   2.773   0.988   2.577
 3251SOL    HW210653   2.739   0.918   2.721
 3252SOL     OW10654   2.541   2.030   2.845
 3252SOL    HW110655   2.587   1.992   2.765
 3252SOL    HW210656   2.444   2.007   2.843
 3253SOL     OW10657   5.351   3.152   2.001
 3253SOL    HW110658   5.360   3.249   2.024
 3253SOL    HW210659   5.260   3.135   1.962
 3254SOL     OW10660   5.160   5.319   5.393
 3254SOL    HW110661   5.198   5.398   5.442
 3254SOL    HW210662   5.099   5.351   5.321
 3255SOL     OW10663   5.419   5.524   0.155
 3255SOL    HW110664   5.455   5.540   0.247
 3255SOL    HW210665   5.328   5.481   0.162
 3256SOL     OW10666   3.534   0.692   7.004
 3256SOL    HW110667   3.628   0.658   7.002
 3256SOL    HW210668   3.479   0.634   0.042
 3257SOL     OW10669   1.960   1.351   1.358
 3257SOL    HW110670   1.976   1.271   1.416
 3257SOL    HW210671   1.872   1.392   1.381
 3258SOL     OW10672   4.294   4.766   1.808
 3258SOL    HW110673   4.346   4.691   1.849
 3258SOL    HW210674   4.261   4.739   1.718
 3259SOL     OW10675   4.614   5.177   3.616
 3259SOL    HW110676   4.652   5.193   3.525
 3259SOL    HW210677   4.685   5.196   3.685
 3260SOL     OW10678   1.809   2.177   0.790
 3260SOL    HW110679   1.753   2.212   0.715
 3260SOL    HW210680   1.832   2.253   0.852
 3261SOL     OW10681   4.894   0.044   1.051
 3261SOL    HW110682   4.876   6.972   1.025
 3261SOL    HW210683   4.836   0.069   1.129
 3262SOL     OW10684   3.233   2.075   2.118
 3262SOL    HW110685   3.173   2.121   2.053
 3262SOL    HW210686   3.234   2.125   2.205
 3263SOL     OW10687   2.531   0.932   3.325
 3263SOL    HW110688   2.621   0.903   3.293
 3263SOL    HW210689   2.483   0.979   3.251
 3264SOL     OW10690   1.646   4.377   0.737
 3264SOL    HW110691   1.659   4.434   0.656
 3264SOL    HW210692   1.697   4.292   0.726
 3265SOL     OW10693   4.731   1.080   6.328
 3265SOL    HW110694   4.775   1.030   6.403
 3265SOL    HW210695   4.783   1.066   6.244
 3266SOL     OW10696   1.163   3.340   0.681
 3266SOL    HW110697   1.157   3.390   0.595
 3266SOL    HW210698   1.222   3.390   0.745
 3267SOL     OW10699   3.811   1.035   0.627
 3267SOL    HW110700   3.758   1.000   0.551
 3267SOL    HW210701   3.901   1.064   0.594
 3268SOL     OW10702   1.410   4.156   0.143
 3268SOL    HW110703   1.462   4.134   0.225
 3268SOL    HW210704   1.378   4.250   0.149
 3269SOL     OW10705   4.053   5.045   2.277
 3269SOL    HW110706   3.995   4.971   2.312
 3269SOL    HW210707   4.124   5.007   2.218
 3270SOL     OW10708   0.804   4.352   5.449
 3270SOL    HW110709   0.902   4.346   5.468
 3270SOL    HW210710   0.762   4.263   5.462
 3271SOL     OW10711   6.293   3.163   2.420
 3271SOL    HW110712   6.364   3.111   2.467
 3271SOL    HW210713   6.335   3.239   2.371
 3272SOL     OW10714   3.478   3.992   6.178
 3272SOL    HW110715   3.539   3.979   6.100
 3272SOL    HW210716   3.406   4.057   6.155
 3273SOL     OW10717   0.565   6.183   1.365
 3273SOL    HW110718   0.617   6.268   1.370
 3273SOL    HW210719   0.532   6.158   1.456
 3274SOL     OW10720   4.602   1.592   1.327
 3274SOL    HW110721   4.647   1.552   1.247
 3274SOL    HW210722   4.506   1.562   1.330
 3275SOL     OW10723   6.764   1.390   6.554
 3275SOL    HW110724   6.683   1.402   6.498
 3275SOL    HW210725   6.844   1.425   6.506
 3276SOL     OW10726   2.063   5.774   0.243
 3276SOL    HW110727   1.983   5.737   0.196
 3276SOL    HW210728   2.122   5.820   0.178
 3277SOL     OW10729   4.382   6.848   0.525
 3277SOL    HW110730   4.300   6.803   0.491
 3277SOL    HW210731   4.448   6.857   0.450
 3278SOL     OW10732   0.838   1.222   6.393
 3278SOL    HW110733   0.836   1.317   6.425
 3278SOL    HW210734   0.749   1.198   6.355
 3279SOL     OW10735   5.763   0.858   0.035
 3279SOL    HW110736   5.702   0.936   0.047
 3279SOL    HW210737   5.810   0.839   0.122
 3280SOL     OW10738   3.708   5.297   4.943
 3280SOL    HW110739   3.723   5.392   4.919
 3280SOL    HW210740   3.793   5.245   4.932
 3281SOL     OW10741   2.376   5.718   1.718
 3281SOL    HW110742   2.439   5.773   1.771
 3281SOL    HW210743   2.408   5.623   1.715
 3282SOL     OW10744   0.552   4.936   5.517
 3282SOL    HW110745   0.639   4.937   5.566
 3282SOL    HW210746   0.497   4.858   5.547
 3283SOL     OW10747   4.480   1.210   1.337
 3283SOL    HW110748   4.455   1.280   1.404
 3283SOL    HW210749   4.547   1.248   1.273
 3284SOL     OW10750   6.744   5.490   6.959
 3284SOL    HW110751   6.695   5.440   0.009
 3284SOL    HW210752   6.835   5.515   6.992
 3285SOL     OW10753   5.089   2.722   3.904
 3285SOL    HW110754   5.085   2.806   3.851
 3285SOL    HW210755   5.013   2.662   3.879
 3286SOL     OW10756   4.128   3.548   2.576
 3286SOL    HW110757   4.091   3.640   2.585
 3286SOL    HW210758   4.177   3.540   2.489
 3287SOL     OW10759   1.290   6.504   0.017
 3287SOL    HW110760   1.230   6.444   6.987
 3287SOL    HW210761   1.351   6.553   6.977
 3288SOL     OW10762   0.035   5.485   6.015
 3288SOL    HW110763   7.021   5.571   6.049
 3288SOL    HW210764   0.097   5.503   5.938
 3289SOL     OW10765   2.543   6.531   5.482
 3289SOL    HW110766   2.476   6.604   5.500
 3289SOL    HW210767   2.547   6.470   5.561
 3290SOL     OW10768   0.698   0.235   1.814
 3290SOL    HW110769   0.628   0.257   1.882
 3290SOL    HW210770   0.702   0.136   1.802
 3291SOL     OW10771   1.896   6.314   1.204
 3291SOL    HW110772   1.900   6.347   1.109
 3291SOL    HW210773   1.855   6.223   1.206
 3292SOL     OW10774   0.609   0.731   1.188
 3292SOL    HW110775   0.584   0.746   1.092
 3292SOL    HW210776   0.534   0.684   1.234
 3293SOL     OW10777   0.598   3.771   3.293
 3293SOL    HW110778   0.558   3.861   3.310
 3293SOL    HW210779   0.652   3.773   3.209
 3294SOL     OW10780   6.698   1.613   5.699
 3294SOL    HW110781   6.707   1.669   5.781
 3294SOL    HW210782   6.725   1.520   5.719
 3295SOL     OW10783   1.467   2.999   1.820
 3295SOL    HW110784   1.507   3.032   1.734
 3295SOL    HW210785   1.491   2.903   1.834
 3296SOL     OW10786   1.579   6.434   2.306
 3296SOL    HW110787   1.608   6.392   2.220
 3296SOL    HW210788   1.484   6.410   2.325
 3297SOL     OW10789   3.070   0.611   4.568
 3297SOL    HW110790   3.031   0.565   4.647
 3297SOL    HW210791   3.001   0.670   4.526
 3298SOL     OW10792   5.609   1.811   4.613
 3298SOL    HW110793   5.515   1.809   4.578
 3298SOL    HW210794   5.627   1.899   4.655
 3299SOL     OW10795   2.558   5.399   4.057
 3299SOL    HW110796   2.473   5.372   4.011
 3299SOL    HW210797   2.537   5.460   4.133
 3300SOL     OW10798   0.099   0.934   5.525
 3300SOL    HW110799   0.196   0.929   5.504
 3300SOL    HW210800   0.048   0.871   5.467
 3301SOL     OW10801   2.099   3.308   3.571
 3301SOL    HW110802   2.129   3.254   3.493
 3301SOL    HW210803   2.137   3.400   3.566
 3302SOL     OW10804   0.277   5.192   5.072
 3302SOL    HW110805   0.266   5.262   5.002
 3302SOL    HW210806   0.187   5.153   5.094
 3303SOL     OW10807   3.481   3.274   1.917
 3303SOL    HW110808   3.486   3.215   1.997
 3303SOL    HW210809   3.571   3.281   1.874
 3304SOL     OW10810   1.233   5.433   4.272
 3304SOL    HW110811   1.306   5.407   4.210
 3304SOL    HW210812   1.270   5.493   4.344
 3305SOL     OW10813   1.791   1.644   3.308
 3305SOL    HW110814   1.780   1.552   3.271
 3305SOL    HW210815   1.821   1.706   3.235
 3306SOL     OW10816   2.017   5.548   4.849
 3306SOL    HW110817   2.039   5.460   4.893
 3306SOL    HW210818   2.089   5.571   4.784
 3307SOL     OW10819   6.809   5.745   0.127
 3307SOL    HW110820   6.788   5.840   0.149
 3307SOL    HW210821   6.729   5.703   0.083
 3308SOL     OW10822   3.782   6.295   0.043
 3308SOL    HW110823   3.720   6.238   0.098
 3308SOL    HW210824   3.806   6.246   6.981
 3309SOL     OW10825   6.984   5.458   2.513
 3309SOL    HW110826   6.924   5.441   2.591
 3309SOL    HW210827   0.018   5.539   2.531
 3310SOL     OW10828   0.133   3.923   5.788
 3310SOL    HW110829   0.155   3.838   5.740
 3310SOL    HW210830   0.119   3.997   5.722
 3311SOL     OW10831   2.535   3.713   1.451
 3311SOL    HW110832   2.522   3.706   1.352
 3311SOL    HW210833   2.573   3.628   1.486
 3312SOL     OW10834   4.336   4.502   5.863
 3312SOL    HW110835   4.287   4.416   5.878
 3312SOL    HW210836   4.429   4.482   5.834
 3313SOL     OW10837   0.689   5.006   3.587
 3313SOL    HW110838   0.604   4.968   3.623
 3313SOL    HW210839   0.766   4.954   3.623
 3314SOL     OW10840   2.607   1.540   3.538
 3314SOL    HW110841   2.638   1.628   3.503
 3314SOL    HW210842   2.679   1.472   3.527
 3315SOL     OW10843   6.362   2.998   5.014
 3315SOL    HW110844   6.397   2.967   5.102
 3315SOL    HW210845   6.419   3.072   4.979
 3316SOL     OW10846   4.497   2.235   6.003
 3316SOL    HW110847   4.571   2.260   5.940
 3316SOL    HW210848   4.413   2.218   5.952
 3317SOL     OW10849   4.618   3.253   1.649
 3317SOL    HW110850   4.665   3.340   1.667
 3317SOL    HW210851   4.610   3.201   1.733
 3318SOL     OW10852   2.968   0.769   0.183
 3318SOL    HW110853   2.881   0.777   0.231
 3318SOL    HW210854   3.028   0.707   0.233
 3319SOL     OW10855   6.119   0.604   4.035
 3319SOL    HW110856   6.206   0.652   4.022
 3319SOL    HW210857   6.047   0.650   3.984
 3320SOL     OW10858   5.903   0.424   4.927
 3320SOL    HW110859   5.911   0.356   5.000
 3320SOL    HW210860   5.811   0.464   4.930
 3321SOL     OW10861   3.998   2.424   0.721
 3321SOL    HW110862   4.076   2.483   0.700
 3321SOL    HW210863   3.919   2.480   0.746
 3322SOL     OW10864   5.632   3.587   0.742
 3322SOL    HW110865   5.697   3.658   0.771
 3322SOL    HW210866   5.578   3.557   0.821
 3323SOL     OW10867   3.106   2.755   0.510
 3323SOL    HW110868   3.133   2.726   0.419
 3323SOL    HW210869   3.185   2.753   0.572
 3324SOL     OW10870   1.868   4.323   6.077
 3324SOL    HW110871   1.881   4.359   6.169
 3324SOL    HW210872   1.857   4.223   6.081
 3325SOL     OW10873   1.874   3.278   6.686
 3325SOL    HW110874   1.785   3.238   6.663
 3325SOL    HW210875   1.924   3.215   6.745
 3326SOL     OW10876   5.419   2.053   2.516
 3326SOL    HW110877   5.453   2.010   2.433
 3326SOL    HW210878   5.350   1.994   2.558
 3327SOL     OW10879   2.756   5.830   1.937
 3327SOL    HW110880   2.782   5.799   2.028
 3327SOL    HW210881   2.788   5.763   1.869
 3328SOL     OW10882   4.642   1.811   0.978
 3328SOL    HW110883   4.652   1.826   0.880
 3328SOL    HW210884   4.610   1.717   0.994
 3329SOL     OW10885   5.304   0.304   4.875
 3329SOL    HW110886   5.244   0.226   4.856
 3329SOL    HW210887   5.357   0.326   4.792
 3330SOL     OW10888   6.325   5.404   1.302
 3330SOL    HW110889   6.340   5.479   1.367
 3330SOL    HW210890   6.407   5.348   1.297
 3331SOL     OW10891   1.208   3.896   1.261
 3331SOL    HW110892   1.258   3.877   1.346
 3331SOL    HW210893   1.267   3.948   1.199
 3332SOL     OW10894   6.848   4.658   0.113
 3332SOL    HW110895   6.750   4.677   0.116
 3332SOL    HW210896   6.873   4.600   0.190
 3333SOL     OW10897   2.891   4.266   6.517
 3333SOL    HW110898   2.990   4.251   6.519
 3333SOL    HW210899   2.848   4.218   6.593
 3334SOL     OW10900   2.468   3.971   1.329
 3334SOL    HW110901   2.400   3.984   1.401
 3334SOL    HW210902   2.489   3.874   1.321
 3335SOL     OW10903   4.943   0.155   5.822
 3335SOL    HW110904   4.992   0.072   5.847
 3335SOL    HW210905   4.997   0.207   5.755
 3336SOL     OW10906   1.899   6.584   4.478
 3336SOL    HW110907   1.851   6.503   4.512
 3336SOL    HW210908   1.963   6.557   4.406
 3337SOL     OW10909   2.872   4.020   1.694
 3337SOL    HW110910   2.774   4.021   1.672
 3337SOL    HW210911   2.925   4.004   1.610
 3338SOL     OW10912   6.102   3.125   2.087
 3338SOL    HW110913   6.088   3.050   2.152
 3338SOL    HW210914   6.044   3.112   2.007
 3339SOL     OW10915   1.171   6.918   6.410
 3339SOL    HW110916   1.270   6.919   6.398
 3339SOL    HW210917   1.131   6.998   6.366
 3340SOL     OW10918   3.490   2.118   3.259
 3340SOL    HW110919   3.474   2.046   3.326
 3340SOL    HW210920   3.497   2.206   3.307
 3341SOL     OW10921   0.492   4.424   3.780
 3341SOL    HW110922   0.444   4.338   3.799
 3341SOL    HW210923   0.572   4.406   3.723
 3342SOL     OW10924   1.288   6.058   3.890
 3342SOL    HW110925   1.231   5.982   3.921
 3342SOL    HW210926   1.281   6.068   3.791
 3343SOL     OW10927   4.971   3.963   6.960
 3343SOL    HW110928   4.998   4.058   6.974
 3343SOL    HW210929   5.039   3.916   6.904
 3344SOL     OW10930   6.047   3.300   3.321
 3344SOL    HW110931   6.073   3.265   3.231
 3344SOL    HW210932   6.024   3.223   3.380
 3345SOL     OW10933   1.571   2.904   6.289
 3345SOL    HW110934   1.514   2.900   6.208
 3345SOL    HW210935   1.661   2.864   6.269
 3346SOL     OW10936   0.886   1.093   0.006
 3346SOL    HW110937   0.952   1.160   0.039
 3346SOL    HW210938   0.817   1.076   0.076
 3347SOL     OW10939   1.214   2.788   5.009
 3347SOL    HW110940   1.212   2.785   5.109
 3347SOL    HW210941   1.308   2.780   4.978
 3348SOL     OW10942   4.068   3.796   4.414
 3348SOL    HW110943   4.068   3.736   4.494
 3348SOL    HW210944   3.995   3.768   4.352
 3349SOL     OW10945   1.996   5.249   2.956
 3349SOL    HW110946   1.914   5.279   2.907
 3349SOL    HW210947   2.062   5.324   2.958
 3350SOL     OW10948   0.017   2.245   5.758
 3350SOL    HW110949   0.030   2.151   5.729
 3350SOL    HW210950   6.950   2.255   5.801
 3351SOL     OW10951   5.211   0.790   2.640
 3351SOL    HW110952   5.266   0.828   2.714
 3351SOL    HW210953   5.216   0.690   2.641
 3352SOL     OW10954   6.604   3.241   0.752
 3352SOL    HW110955   6.606   3.321   0.812
 3352SOL    HW210956   6.638   3.161   0.802
 3353SOL     OW10957   3.136   6.070   2.061
 3353SOL    HW110958   3.221   6.026   2.030
 3353SOL    HW210959   3.140   6.167   2.040
 3354SOL     OW10960   4.716   2.246   5.791
 3354SOL    HW110961   4.788   2.206   5.848
 3354SOL    HW210962   4.740   2.234   5.695
 3355SOL     OW10963   2.294   2.228   6.122
 3355SOL    HW110964   2.387   2.250   6.150
 3355SOL    HW210965   2.289   2.133   6.091
 3356SOL     OW10966   0.343   5.215   5.683
 3356SOL    HW110967   0.399   5.148   5.634
 3356SOL    HW210968   0.249   5.209   5.652
 3357SOL     OW10969   2.198   3.782   1.885
 3357SOL    HW110970   2.292   3.770   1.853
 3357SOL    HW210971   2.164   3.695   1.921
 3358SOL     OW10972   4.597   2.369   1.273
 3358SOL    HW110973   4.686   2.356   1.230
 3358SOL    HW210974   4.524   2.350   1.207
 3359SOL     OW10975   0.767   6.268   2.692
 3359SOL    HW110976   0.758   6.368   2.691
 3359SOL    HW210977   0.678   6.227   2.710
 3360SOL     OW10978   1.747   1.017   6.966
 3360SOL    HW110979   1.694   1.101   6.978
 3360SOL    HW210980   1.801   1.000   0.026
 3361SOL     OW10981   0.124   5.449   4.568
 3361SOL    HW110982   0.169   5.368   4.606
 3361SOL    HW210983   0.109   5.435   4.470
 3362SOL     OW10984   3.577   1.689   2.519
 3362SOL    HW110985   3.586   1.787   2.537
 3362SOL    HW210986   3.493   1.655   2.561
 3363SOL     OW10987   0.034   1.131   2.298
 3363SOL    HW110988   6.982   1.103   2.359
 3363SOL    HW210989   0.061   1.054   2.240
 3364SOL     OW10990   1.635   4.925   3.564
 3364SOL    HW110991   1.563   4.974   3.611
 3364SOL    HW210992   1.600   4.837   3.531
 3365SOL     OW10993   0.241   1.974   4.579
 3365SOL    HW110994   0.256   1.886   4.533
 3365SOL    HW210995   0.329   2.016   4.601
 3366SOL     OW10996   5.774   5.242   4.524
 3366SOL    HW110997   5.793   5.254   4.427
 3366SOL    HW210998   5.677   5.263   4.541
 3367SOL     OW10999   3.906   3.001   2.582
 3367SOL    HW111000   3.853   2.981   2.664
 3367SOL    HW211001   3.979   3.065   2.604
 3368SOL     OW11002   0.185   6.024   6.750
 3368SOL    HW111003   0.124   5.977   6.815
 3368SOL    HW211004   0.220   5.958   6.684
 3369SOL     OW11005   3.566   1.714   0.727
 3369SOL    HW111006   3.527   1.773   0.797
 3369SOL    HW211007   3.657   1.683   0.755
 3370SOL     OW11008   6.800   6.318   0.709
 3370SOL    HW111009   6.779   6.233   0.661
 3370SOL    HW211010   6.800   6.301   0.808
 3371SOL     OW11011   2.104   2.536   1.623
 3371SOL    HW111012   2.064   2.611   1.674
 3371SOL    HW211013   2.099   2.452   1.677
 3372SOL     OW11014   6.721   1.974   0.127
 3372SOL    HW111015   6.634   2.019   0.150
 3372SOL    HW211016   6.710   1.875   0.136
 3373SOL     OW11017   0.714   1.725   3.818
 3373SOL    HW111018   0.763   1.789   3.876
 3373SOL    HW211019   0.766   1.707   3.735
 3374SOL     OW11020   1.159   6.561   4.751
 3374SOL    HW111021   1.236   6.533   4.693
 3374SOL    HW211022   1.170   6.658   4.776
 3375SOL     OW11023   0.309   4.910   0.015
 3375SOL    HW111024   0.209   4.914   0.008
 3375SOL    HW211025   0.339   4.975   0.085
 3376SOL     OW11026   4.113   3.232   4.296
 3376SOL    HW111027   4.213   3.235   4.287
 3376SOL    HW211028   4.077   3.324   4.282
 3377SOL     OW11029   6.291   5.848   6.234
 3377SOL    HW111030   6.223   5.853   6.308
 3377SOL    HW211031   6.380   5.823   6.273
 3378SOL     OW11032   1.035   0.763   0.800
 3378SOL    HW111033   1.097   0.738   0.874
 3378SOL    HW211034   1.053   0.858   0.772
 3379SOL     OW11035   0.877   1.252   5.723
 3379SOL    HW111036   0.815   1.318   5.682
 3379SOL    HW211037   0.931   1.296   5.794
 3380SOL     OW11038   5.653   6.319   4.455
 3380SOL    HW111039   5.720   6.391   4.435
 3380SOL    HW211040   5.654   6.252   4.381
 3381SOL     OW11041   0.762   2.655   1.293
 3381SOL    HW111042   0.802   2.731   1.344
 3381SOL    HW211043   0.662   2.660   1.298
 3382SOL     OW11044   0.592   2.821   0.183
 3382SOL    HW111045   0.577   2.746   0.248
 3382SOL    HW211046   0.508   2.874   0.173
 3383SOL     OW11047   3.893   6.078   1.464
 3383SOL    HW111048   3.932   6.064   1.373
 3383SOL    HW211049   3.818   6.015   1.478
 3384SOL     OW11050   3.046   3.123   0.287
 3384SOL    HW111051   2.987   3.043   0.295
 3384SOL    HW211052   3.114   3.122   0.361
 3385SOL     OW11053   6.911   3.280   4.910
 3385SOL    HW111054   7.001   3.292   4.950
 3385SOL    HW211055   6.846   3.342   4.954
 3386SOL     OW11056   5.645   4.928   0.507
 3386SOL    HW111057   5.598   4.840   0.498
 3386SOL    HW211058   5.605   4.994   0.442
 3387SOL     OW11059   2.756   0.694   2.700
 3387SOL    HW111060   2.809   0.756   2.757
 3387SOL    HW211061   2.659   0.720   2.703
 3388SOL     OW11062   5.503   2.993   2.455
 3388SOL    HW111063   5.589   3.042   2.439
 3388SOL    HW211064   5.453   3.036   2.529
 3389SOL     OW11065   6.036   5.784   6.688
 3389SOL    HW111066   6.008   5.879   6.700
 3389SOL    HW211067   5.992   5.727   6.758
 3390SOL     OW11068   5.577   0.015   6.302
 3390SOL    HW111069   5.559   7.009   6.208
 3390SOL    HW211070   5.496   7.021   6.358
 3391SOL     OW11071   4.732   2.436   4.621
 3391SOL    HW111072   4.651   2.485   4.654
 3391SOL    HW211073   4.742   2.451   4.523
 3392SOL     OW11074   2.410   0.388   3.278
 3392SOL    HW111075   2.503   0.411   3.248
 3392SOL    HW211076   2.415   0.330   3.359
 3393SOL     OW11077   6.757   6.116   1.250
 3393SOL    HW111078   6.789   6.192   1.306
 3393SOL    HW211079   6.830   6.087   1.187
 3394SOL     OW11080   5.509   3.364   1.591
 3394SOL    HW111081   5.436   3.297   1.583
 3394SOL    HW211082   5.471   3.456   1.584
 3395SOL     OW11083   5.744   3.441   3.204
 3395SOL    HW111084   5.843   3.433   3.198
 3395SOL    HW211085   5.706   3.354   3.237
 3396SOL     OW11086   4.983   1.549   3.332
 3396SOL    HW111087   4.992   1.630   3.273
 3396SOL    HW211088   4.982   1.467   3.276
 3397SOL     OW11089   2.999   5.864   5.819
 3397SOL    HW111090   3.074   5.863   5.885
 3397SOL    HW211091   2.952   5.776   5.820
 3398SOL     OW11092   0.670   6.924   5.075
 3398SOL    HW111093   0.751   6.892   5.027
 3398SOL    HW211094   0.639   7.010   5.035
 3399SOL     OW11095   5.751   4.431   3.517
 3399SOL    HW111096   5.780   4.341   3.483
 3399SOL    HW211097   5.651   4.435   3.517
 3400SOL     OW11098   4.825   3.323   6.902
 3400SOL    HW111099   4.879   3.406   6.901
 3400SOL    HW211100   4.876   3.249   6.858
 3401SOL     OW11101   0.171   3.166   0.262
 3401SOL    HW111102   0.181   3.084   0.320
 3401SOL    HW211103   0.082   3.208   0.281
 3402SOL     OW11104   4.549   5.691   6.672
 3402SOL    HW111105   4.506   5.771   6.631
 3402SOL    HW211106   4.486   5.648   6.737
 3403SOL     OW11107   3.494   5.319   5.895
 3403SOL    HW111108   3.422   5.344   5.830
 3403SOL    HW211109   3.583   5.333   5.853
 3404SOL     OW11110   5.401   2.269   0.721
 3404SOL    HW111111   5.304   2.263   0.748
 3404SOL    HW211112   5.413   2.226   0.632
 3405SOL     OW11113   6.525   4.186   5.979
 3405SOL    HW111114   6.466   4.139   5.912
 3405SOL    HW211115   6.608   4.218   5.934
 3406SOL     OW11116   0.995   3.213   1.990
 3406SOL    HW111117   1.058   3.176   1.921
 3406SOL    HW211118   1.032   3.197   2.081
 3407SOL     OW11119   1.176   4.374   6.404
 3407SOL    HW111120   1.238   4.319   6.460
 3407SOL    HW211121   1.201   4.470   6.411
 3408SOL     OW11122   5.258   3.764   4.468
 3408SOL    HW111123   5.290   3.829   4.536
 3408SOL    HW211124   5.165   3.735   4.491
 3409SOL     OW11125   3.521   6.382   6.625
 3409SOL    HW111126   3.549   6.348   6.535
 3409SOL    HW211127   3.529   6.482   6.627
 3410SOL     OW11128   6.889   6.895   1.161
 3410SOL    HW111129   6.887   6.815   1.102
 3410SOL    HW211130   6.930   6.871   1.249
 3411SOL     OW11131   0.405   3.080   1.086
 3411SOL    HW111132   0.498   3.115   1.083
 3411SOL    HW211133   0.401   3.001   1.148
 3412SOL     OW11134   4.661   2.913   0.969
 3412SOL    HW111135   4.624   2.897   1.061
 3412SOL    HW211136   4.731   2.844   0.949
 3413SOL     OW11137   5.925   1.823   0.720
 3413SOL    HW111138   5.875   1.840   0.805
 3413SOL    HW211139   5.908   1.730   0.688
 3414SOL     OW11140   3.707   1.994   6.046
 3414SOL    HW111141   3.753   1.983   6.134
 3414SOL    HW211142   3.664   2.084   6.042
 3415SOL     OW11143   1.731   3.458   4.105
 3415SOL    HW111144   1.779   3.521   4.044
 3415SOL    HW211145   1.694   3.510   4.183
 3416SOL     OW11146   6.129   6.460   0.792
 3416SOL    HW111147   6.037   6.444   0.828
 3416SOL    HW211148   6.162   6.548   0.824
 3417SOL     OW11149   0.133   5.936   3.537
 3417SOL    HW111150   0.079   5.982   3.467
 3417SOL    HW211151   0.072   5.889   3.602
 3418SOL     OW11152   3.064   5.997   3.335
 3418SOL    HW111153   3.122   5.923   3.302
 3418SOL    HW211154   3.042   5.981   3.431
 3419SOL     OW11155   2.870   5.640   5.823
 3419SOL    HW111156   2.851   5.570   5.892
 3419SOL    HW211157   2.785   5.687   5.799
 3420SOL     OW11158   6.169   2.728   3.957
 3420SOL    HW111159   6.261   2.731   3.918
 3420SOL    HW211160   6.102   2.746   3.885
 3421SOL     OW11161   4.694   1.541   4.324
 3421SOL    HW111162   4.610   1.560   4.273
 3421SOL    HW211163   4.686   1.452   4.369
 3422SOL     OW11164   2.256   0.376   0.249
 3422SOL    HW111165   2.334   0.421   0.292
 3422SOL    HW211166   2.275   0.363   0.152
 3423SOL     OW11167   0.189   4.424   6.748
 3423SOL    HW111168   0.171   4.383   6.659
 3423SOL    HW211169   0.105   4.428   6.802
 3424SOL     OW11170   1.901   6.445   0.947
 3424SOL    HW111171   1.976   6.511   0.933
 3424SOL    HW211172   1.914   6.367   0.886
 3425SOL     OW11173   5.061   5.104   2.381
 3425SOL    HW111174   5.018   5.129   2.294
 3425SOL    HW211175   5.067   5.004   2.388
 3426SOL     OW11176   4.369   2.454   0.340
 3426SOL    HW111177   4.388   2.360   0.367
 3426SOL    HW211178   4.445   2.489   0.286
 3427SOL     OW11179   6.979   1.135   1.005
 3427SOL    HW111180   6.959   1.052   1.058
 3427SOL    HW211181   6.934   1.128   0.916
 3428SOL     OW11182   2.358   5.294   7.013
 3428SOL    HW111183   2.400   5.360   0.052
 3428SOL    HW211184   2.357   5.331   6.920
 3429SOL     OW11185   0.392   1.612   0.467
 3429SOL    HW111186   0.432   1.677   0.531
 3429SOL    HW211187   0.460   1.587   0.398
 3430SOL     OW11188   1.765   6.637   5.613
 3430SOL    HW111189   1.752   6.731   5.581
 3430SOL    HW211190   1.675   6.594   5.625
 3431SOL     OW11191   1.469   0.105   1.455
 3431SOL    HW111192   1.534   0.061   1.393
 3431SOL    HW211193   1.376   0.087   1.423
 3432SOL     OW11194   1.375   3.405   5.983
 3432SOL    HW111195   1.318   3.340   5.934
 3432SOL    HW211196   1.429   3.356   6.052
 3433SOL     OW11197   1.395   6.374   4.859
 3433SOL    HW111198   1.368   6.434   4.784
 3433SOL    HW211199   1.353   6.285   4.847
 3434SOL     OW11200   4.355   1.176   2.415
 3434SOL    HW111201   4.282   1.195   2.482
 3434SOL    HW211202   4.325   1.104   2.352
 3435SOL     OW11203   1.674   0.802   0.896
 3435SOL    HW111204   1.663   0.726   0.832
 3435SOL    HW211205   1.593   0.859   0.895
 3436SOL     OW11206   3.943   6.549   0.083
 3436SOL    HW111207   3.883   6.470   0.068
 3436SOL    HW211208   3.889   6.632   0.082
 3437SOL     OW11209   2.319   0.237   5.527
 3437SOL    HW111210   2.379   0.166   5.564
 3437SOL    HW211211   2.232   0.197   5.499
 3438SOL     OW11212   1.027   3.092   0.164
 3438SOL    HW111213   1.017   3.186   0.131
 3438SOL    HW211214   1.106   3.087   0.225
 3439SOL     OW11215   2.624   6.405   4.760
 3439SOL    HW111216   2.640   6.421   4.857
 3439SOL    HW211217   2.574   6.320   4.748
 3440SOL     OW11218   2.810   3.122   1.836
 3440SOL    HW111219   2.894   3.125   1.889
 3440SOL    HW211220   2.777   3.215   1.820
 3441SOL     OW11221   6.092   5.203   5.711
 3441SOL    HW111222   6.185   5.171   5.726
 3441SOL    HW211223   6.094   5.294   5.671
 3442SOL     OW11224   2.404   4.703   1.707
 3442SOL    HW111225   2.424   4.690   1.804
 3442SOL    HW211226   2.473   4.764   1.667
 3443SOL     OW11227   3.634   6.400   2.013
 3443SOL    HW111228   3.562   6.422   2.078
 3443SOL    HW211229   3.602   6.419   1.920
 3444SOL     OW11230   4.901   5.754   6.466
 3444SOL    HW111231   4.934   5.685   6.530
 3444SOL    HW211232   4.843   5.819   6.514
 3445SOL     OW11233   5.952   5.289   2.843
 3445SOL    HW111234   5.888   5.216   2.818
 3445SOL    HW211235   5.901   5.375   2.851
 3446SOL     OW11236   6.258   1.437   1.658
 3446SOL    HW111237   6.274   1.364   1.725
 3446SOL    HW211238   6.334   1.502   1.662
 3447SOL     OW11239   4.927   5.585   0.629
 3447SOL    HW111240   4.940   5.558   0.724
 3447SOL    HW211241   4.904   5.682   0.625
 3448SOL     OW11242   3.995   1.000   6.568
 3448SOL    HW111243   3.974   0.906   6.596
 3448SOL    HW211244   4.022   1.001   6.472
 3449SOL     OW11245   5.671   5.797   4.441
 3449SOL    HW111246   5.698   5.738   4.365
 3449SOL    HW211247   5.640   5.885   4.406
 3450SOL     OW11248   0.035   2.467   6.899
 3450SOL    HW111249   7.004   2.482   6.815
 3450SOL    HW211250   0.071   2.554   6.932
 3451SOL     OW11251   2.096   6.142   6.960
 3451SOL    HW111252   2.140   6.067   7.009
 3451SOL    HW211253   2.150   6.167   6.879
 3452SOL     OW11254   5.824   1.064   6.641
 3452SOL    HW111255   5.853   1.001   6.569
 3452SOL    HW211256   5.902   1.083   6.702
 3453SOL     OW11257   6.497   5.776   6.392
 3453SOL    HW111258   6.586   5.731   6.390
 3453SOL    HW211259   6.498   5.847   6.463
 3454SOL     OW11260   0.946   3.012   4.677
 3454SOL    HW111261   0.939   3.111   4.683
 3454SOL    HW211262   1.009   2.987   4.603
 3455SOL     OW11263   2.327   2.187   4.251
 3455SOL    HW111264   2.324   2.246   4.171
 3455SOL    HW211265   2.297   2.237   4.332
 3456SOL     OW11266   5.359   5.023   1.535
 3456SOL    HW111267   5.354   5.118   1.566
 3456SOL    HW211268   5.373   4.963   1.613
 3457SOL     OW11269   2.746   5.349   3.483
 3457SOL    HW111270   2.748   5.449   3.489
 3457SOL    HW211271   2.700   5.322   3.398
 3458SOL     OW11272   5.041   0.697   2.073
 3458SOL    HW111273   5.022   0.761   2.148
 3458SOL    HW211274   5.032   0.744   1.985
 3459SOL     OW11275   5.548   3.189   2.699
 3459SOL    HW111276   5.586   3.164   2.788
 3459SOL    HW211277   5.453   3.218   2.710
 3460SOL     OW11278   2.174   2.324   6.938
 3460SOL    HW111279   2.128   2.387   7.001
 3460SOL    HW211280   2.269   2.312   6.966
 3461SOL     OW11281   5.355   4.236   6.091
 3461SOL    HW111282   5.447   4.230   6.052
 3461SOL    HW211283   5.324   4.145   6.117
 3462SOL     OW11284   0.268   4.009   4.584
 3462SOL    HW111285   0.333   4.045   4.651
 3462SOL    HW211286   0.304   3.925   4.544
 3463SOL     OW11287   1.043   4.195   2.023
 3463SOL    HW111288   1.131   4.210   1.978
 3463SOL    HW211289   0.976   4.165   1.955
 3464SOL     OW11290   6.807   4.692   4.959
 3464SOL    HW111291   6.766   4.676   4.870
 3464SOL    HW211292   6.867   4.772   4.954
 3465SOL     OW11293   1.495   1.919   2.266
 3465SOL    HW111294   1.456   1.948   2.354
 3465SOL    HW211295   1.426   1.868   2.215
 3466SOL     OW11296   6.428   5.223   6.591
 3466SOL    HW111297   6.491   5.300   6.587
 3466SOL    HW211298   6.457   5.152   6.527
 3467SOL     OW11299   2.012   2.909   0.161
 3467SOL    HW111300   2.011   2.844   0.085
 3467SOL    HW211301   1.956   2.988   0.139
 3468SOL     OW11302   4.629   6.379   3.331
 3468SOL    HW111303   4.653   6.360   3.235
 3468SOL    HW211304   4.570   6.460   3.335
 3469SOL     OW11305   5.260   0.115   3.459
 3469SOL    HW111306   5.264   0.215   3.467
 3469SOL    HW211307   5.171   0.083   3.491
 3470SOL     OW11308   6.409   3.635   1.102
 3470SOL    HW111309   6.355   3.592   1.174
 3470SOL    HW211310   6.349   3.685   1.040
 3471SOL     OW11311   3.913   5.526   3.998
 3471SOL    HW111312   3.883   5.607   3.947
 3471SOL    HW211313   3.853   5.449   3.974
 3472SOL     OW11314   2.178   0.803   2.164
 3472SOL    HW111315   2.145   0.829   2.074
 3472SOL    HW211316   2.247   0.869   2.195
 3473SOL     OW11317   0.169   2.254   0.765
 3473SOL    HW111318   0.097   2.262   0.834
 3473SOL    HW211319   0.256   2.285   0.803
 3474SOL     OW11320   1.985   4.800   2.261
 3474SOL    HW111321   2.058   4.740   2.292
 3474SOL    HW211322   2.024   4.871   2.201
 3475SOL     OW11323   1.049   5.238   4.735
 3475SOL    HW111324   1.042   5.326   4.688
 3475SOL    HW211325   0.966   5.223   4.790
 3476SOL     OW11326   3.380   2.105   3.015
 3476SOL    HW111327   3.284   2.131   3.026
 3476SOL    HW211328   3.427   2.109   3.103
 3477SOL     OW11329   3.383   5.216   1.357
 3477SOL    HW111330   3.304   5.256   1.312
 3477SOL    HW211331   3.462   5.277   1.346
 3478SOL     OW11332   2.383   6.036   4.430
 3478SOL    HW111333   2.310   6.017   4.365
 3478SOL    HW211334   2.344   6.048   4.522
 3479SOL     OW11335   1.327   0.761   2.783
 3479SOL    HW111336   1.332   0.792   2.878
 3479SOL    HW211337   1.402   0.698   2.764
 3480SOL     OW11338   0.289   0.040   5.322
 3480SOL    HW111339   0.337   6.996   5.264
 3480SOL    HW211340   0.191   0.019   5.322
 3481SOL     OW11341   4.798   0.458   0.437
 3481SOL    HW111342   4.894   0.477   0.417
 3481SOL    HW211343   4.792   0.373   0.489
 3482SOL     OW11344   5.911   1.765   1.519
 3482SOL    HW111345   5.982   1.733   1.456
 3482SOL    HW211346   5.832   1.797   1.466
 3483SOL     OW11347   4.596   1.525   1.657
 3483SOL    HW111348   4.524   1.579   1.701
 3483SOL    HW211349   4.598   1.545   1.559
 3484SOL     OW11350   2.647   3.479   1.212
 3484SOL    HW111351   2.589   3.403   1.241
 3484SOL    HW211352   2.632   3.498   1.115
 3485SOL     OW11353   1.550   0.480   3.770
 3485SOL    HW111354   1.540   0.504   3.673
 3485SOL    HW211355   1.531   0.561   3.826
 3486SOL     OW11356   2.908   1.583   2.428
 3486SOL    HW111357   2.846   1.586   2.350
 3486SOL    HW211358   2.982   1.649   2.416
 3487SOL     OW11359   5.610   2.947   5.867
 3487SOL    HW111360   5.626   3.032   5.816
 3487SOL    HW211361   5.654   2.953   5.956
 3488SOL     OW11362   6.023   1.804   4.995
 3488SOL    HW111363   6.082   1.729   5.024
 3488SOL    HW211364   6.071   1.860   4.928
 3489SOL     OW11365   3.292   6.815   0.518
 3489SOL    HW111366   3.345   6.893   0.484
 3489SOL    HW211367   3.200   6.818   0.478
 3490SOL     OW11368   4.088   4.863   6.901
 3490SOL    HW111369   4.051   4.864   6.808
 3490SOL    HW211370   4.019   4.828   6.964
 3491SOL     OW11371   5.713   2.310   5.485
 3491SOL    HW111372   5.769   2.352   5.414
 3491SOL    HW211373   5.745   2.340   5.575
 3492SOL     OW11374   1.238   5.692   0.920
 3492SOL    HW111375   1.215   5.748   0.840
 3492SOL    HW211376   1.275   5.604   0.889
 3493SOL     OW11377   5.849   4.642   6.539
 3493SOL    HW111378   5.894   4.731   6.548
 3493SOL    HW211379   5.877   4.599   6.453
 3494SOL     OW11380   3.895   0.755   1.970
 3494SOL    HW111381   3.813   0.706   1.940
 3494SOL    HW211382   3.872   0.849   1.993
 3495SOL     OW11383   4.717   5.625   1.823
 3495SOL    HW111384   4.760   5.535   1.823
 3495SOL    HW211385   4.670   5.640   1.910
 3496SOL     OW11386   0.015   4.216   0.922
 3496SOL    HW111387   0.019   4.273   1.004
 3496SOL    HW211388   0.084   4.246   0.857
 3497SOL     OW11389   3.458   0.148   3.597
 3497SOL    HW111390   3.366   0.183   3.612
 3497SOL    HW211391   3.517   0.222   3.564
 3498SOL     OW11392   1.980   2.378   0.888
 3498SOL    HW111393   1.972   2.385   0.788
 3498SOL    HW211394   1.986   2.470   0.927
 3499SOL     OW11395   4.871   2.796   4.528
 3499SOL    HW111396   4.956   2.743   4.519
 3499SOL    HW211397   4.845   2.799   4.625
 3500SOL     OW11398   1.291   3.781   5.063
 3500SOL    HW111399   1.323   3.688   5.079
 3500SOL    HW211400   1.361   3.847   5.091
 3501SOL     OW11401   2.078   5.244   4.156
 3501SOL    HW111402   2.046   5.163   4.106
 3501SOL    HW211403   2.102   5.219   4.250
 3502SOL     OW11404   6.249   2.608   2.122
 3502SOL    HW111405   6.151   2.600   2.108
 3502SOL    HW211406   6.296   2.531   2.078
 3503SOL     OW11407   6.498   6.128   5.117
 3503SOL    HW111408   6.555   6.058   5.159
 3503SOL    HW211409   6.536   6.153   5.028
 3504SOL     OW11410   2.366   1.494   0.779
 3504SOL    HW111411   2.314   1.516   0.862
 3504SOL    HW211412   2.421   1.573   0.753
 3505SOL     OW11413   5.236   5.210   4.770
 3505SOL    HW111414   5.170   5.184   4.841
 3505SOL    HW211415   5.286   5.128   4.740
 3506SOL     OW11416   4.625   6.151   5.834
 3506SOL    HW111417   4.544   6.100   5.804
 3506SOL    HW211418   4.598   6.225   5.895
 3507SOL     OW11419   2.326   0.431   6.980
 3507SOL    HW111420   2.316   0.522   7.020
 3507SOL    HW211421   2.259   0.421   6.906
 3508SOL     OW11422   3.137   2.140   6.020
 3508SOL    HW111423   3.146   2.174   5.926
 3508SOL    HW211424   3.169   2.210   6.083
 3509SOL     OW11425   5.687   0.267   6.240
 3509SOL    HW111426   5.675   0.168   6.253
 3509SOL    HW211427   5.601   0.314   6.262
 3510SOL     OW11428   1.767   2.247   1.387
 3510SOL    HW111429   1.667   2.251   1.383
 3510SOL    HW211430   1.800   2.176   1.325
 3511SOL     OW11431   2.309   4.876   0.233
 3511SOL    HW111432   2.248   4.948   0.266
 3511SOL    HW211433   2.371   4.848   0.306
 3512SOL     OW11434   6.950   4.533   0.341
 3512SOL    HW111435   6.947   4.595   0.420
 3512SOL    HW211436   6.887   4.457   0.357
 3513SOL     OW11437   6.253   3.985   0.396
 3513SOL    HW111438   6.179   3.934   0.440
 3513SOL    HW211439   6.319   3.921   0.357
 3514SOL     OW11440   6.913   1.220   1.643
 3514SOL    HW111441   6.890   1.136   1.693
 3514SOL    HW211442   7.010   1.219   1.619
 3515SOL     OW11443   4.725   6.144   3.448
 3515SOL    HW111444   4.715   6.232   3.402
 3515SOL    HW211445   4.688   6.071   3.390
 3516SOL     OW11446   4.246   0.073   1.052
 3516SOL    HW111447   4.283   0.049   0.962
 3516SOL    HW211448   4.221   0.170   1.052
 3517SOL     OW11449   0.915   2.172   0.641
 3517SOL    HW111450   0.923   2.133   0.733
 3517SOL    HW211451   0.970   2.255   0.635
 3518SOL     OW11452   5.731   4.094   4.762
 3518SOL    HW111453   5.727   4.182   4.715
 3518SOL    HW211454   5.657   4.087   4.828
 3519SOL     OW11455   1.880   1.007   6.341
 3519SOL    HW111456   1.861   0.943   6.415
 3519SOL    HW211457   1.908   1.095   6.380
 3520SOL     OW11458   2.879   4.759   6.496
 3520SOL    HW111459   2.905   4.792   6.405
 3520SOL    HW211460   2.953   4.777   6.560
 3521SOL     OW11461   5.448   3.448   0.912
 3521SOL    HW111462   5.423   3.407   1.000
 3521SOL    HW211463   5.405   3.397   0.838
 3522SOL     OW11464   5.641   4.884   2.173
 3522SOL    HW111465   5.709   4.813   2.155
 3522SOL    HW211466   5.596   4.865   2.260
 3523SOL     OW11467   3.133   4.817   5.562
 3523SOL    HW111468   3.036   4.838   5.560
 3523SOL    HW211469   3.145   4.721   5.590
 3524SOL     OW11470   3.081   1.074   0.944
 3524SOL    HW111471   3.097   1.167   0.978
 3524SOL    HW211472   3.120   1.008   1.009
 3525SOL     OW11473   0.537   3.975   1.949
 3525SOL    HW111474   0.569   3.881   1.960
 3525SOL    HW211475   0.616   4.036   1.945
 3526SOL     OW11476   2.758   6.248   3.611
 3526SOL    HW111477   2.697   6.327   3.614
 3526SOL    HW211478   2.715   6.175   3.559
 3527SOL     OW11479   6.091   3.790   5.797
 3527SOL    HW111480   6.039   3.871   5.822
 3527SOL    HW211481   6.189   3.810   5.802
 3528SOL     OW11482   1.086   5.184   4.009
 3528SOL    HW111483   1.154   5.255   4.027
 3528SOL    HW211484   1.040   5.159   4.094
 3529SOL     OW11485   4.831   6.729   5.780
 3529SOL    HW111486   4.794   6.816   5.747
 3529SOL    HW211487   4.775   6.654   5.745
 3530SOL     OW11488   1.889   4.477   3.205
 3530SOL    HW111489   1.875   4.408   3.276
 3530SOL    HW211490   1.902   4.431   3.117
 3531SOL     OW11491   4.960   4.337   0.852
 3531SOL    HW111492   4.972   4.403   0.926
 3531SOL    HW211493   4.954   4.386   0.765
 3532SOL     OW11494   2.172   0.055   0.204
 3532SOL    HW111495   2.193   0.068   0.301
 3532SOL    HW211496   2.235   0.109   0.148
 3533SOL     OW11497   1.033   2.053   2.622
 3533SOL    HW111498   1.031   1.962   2.581
 3533SOL    HW211499   0.945   2.098   2.607
 3534SOL     OW11500   6.180   1.086   5.163
 3534SOL    HW111501   6.156   1.106   5.258
 3534SOL    HW211502   6.107   1.034   5.120
 3535SOL     OW11503   0.081   5.728   0.601
 3535SOL    HW111504   0.027   5.746   0.519
 3535SOL    HW211505   0.072   5.632   0.627
 3536SOL     OW11506   2.031   2.380   3.722
 3536SOL    HW111507   2.083   2.307   3.766
 3536SOL    HW211508   2.090   2.459   3.707
 3537SOL     OW11509   2.525   5.115   0.150
 3537SOL    HW111510   2.437   5.070   0.141
 3537SOL    HW211511   2.551   5.156   0.062
 3538SOL     OW11512   2.488   0.524   4.408
 3538SOL    HW111513   2.510   0.619   4.386
 3538SOL    HW211514   2.487   0.512   4.507
 3539SOL     OW11515   5.582   3.605   6.578
 3539SOL    HW111516   5.579   3.514   6.619
 3539SOL    HW211517   5.493   3.650   6.591
 3540SOL     OW11518   1.975   1.966   4.774
 3540SOL    HW111519   1.926   1.934   4.693
 3540SOL    HW211520   2.069   1.933   4.772
 3541SOL     OW11521   2.700   2.582   6.955
 3541SOL    HW111522   2.703   2.497   7.007
 3541SOL    HW211523   2.669   2.656   7.014
 3542SOL     OW11524   0.615   3.519   1.465
 3542SOL    HW111525   0.570   3.601   1.429
 3542SOL    HW211526   0.671   3.543   1.544
 3543SOL     OW11527   0.938   3.201   5.288
 3543SOL    HW111528   0.927   3.293   5.323
 3543SOL    HW211529   0.972   3.205   5.193
 3544SOL     OW11530   2.279   4.594   6.272
 3544SOL    HW111531   2.309   4.664   6.337
 3544SOL    HW211532   2.261   4.509   6.321
 3545SOL     OW11533   3.564   5.295   6.500
 3545SOL    HW111534   3.628   5.338   6.436
 3545SOL    HW211535   3.534   5.363   6.567
 3546SOL     OW11536   6.804   4.282   3.097
 3546SOL    HW111537   6.711   4.246   3.094
 3546SOL    HW211538   6.802   4.380   3.076
 3547SOL     OW11539   6.042   3.646   3.946
 3547SOL    HW111540   5.994   3.716   3.892
 3547SOL    HW211541   6.138   3.671   3.955
 3548SOL     OW11542   5.234   0.249   5.675
 3548SOL    HW111543   5.192   0.194   5.604
 3548SOL    HW211544   5.319   0.290   5.640
 3549SOL     OW11545   0.795   5.001   6.138
 3549SOL    HW111546   0.829   5.086   6.178
 3549SOL    HW211547   0.696   5.006   6.126
 3550SOL     OW11548   5.746   2.285   5.074
 3550SOL    HW111549   5.722   2.188   5.064
 3550SOL    HW211550   5.845   2.295   5.073
 3551SOL     OW11551   3.696   1.654   3.975
 3551SOL    HW111552   3.672   1.577   3.916
 3551SOL    HW211553   3.688   1.627   4.071
 3552SOL     OW11554   6.030   6.754   2.384
 3552SOL    HW111555   5.967   6.803   2.325
 3552SOL    HW211556   6.105   6.716   2.330
 3553SOL     OW11557   3.678   5.758   6.876
 3553SOL    HW111558   3.746   5.684   6.870
 3553SOL    HW211559   3.642   5.779   6.785
 3554SOL     OW11560   3.984   2.788   0.464
 3554SOL    HW111561   3.959   2.867   0.409
 3554SOL    HW211562   3.980   2.813   0.561
 3555SOL     OW11563   0.693   3.586   4.181
 3555SOL    HW111564   0.724   3.493   4.162
 3555SOL    HW211565   0.610   3.604   4.129
 3556SOL     OW11566   3.657   0.716   4.456
 3556SOL    HW111567   3.750   0.720   4.419
 3556SOL    HW211568   3.592   0.716   4.381
 3557SOL     OW11569   1.243   0.304   4.018
 3557SOL    HW111570   1.262   0.354   4.102
 3557SOL    HW211571   1.161   0.341   3.975
 3558SOL     OW11572   1.742   5.052   2.098
 3558SOL    HW111573   1.660   5.028   2.150
 3558SOL    HW211574   1.747   5.152   2.089
 3559SOL     OW11575   0.760   6.031   5.012
 3559SOL    HW111576   0.842   5.988   5.050
 3559SOL    HW211577   0.763   6.025   4.912
 3560SOL     OW11578   2.322   5.246   2.682
 3560SOL    HW111579   2.330   5.253   2.781
 3560SOL    HW211580   2.413   5.255   2.640
 3561SOL     OW11581   5.047   4.312   5.597
 3561SOL    HW111582   5.057   4.287   5.693
 3561SOL    HW211583   5.016   4.233   5.544
 3562SOL     OW11584   2.994   1.474   3.119
 3562SOL    HW111585   2.986   1.425   3.033
 3562SOL    HW211586   3.081   1.450   3.163
 3563SOL     OW11587   6.668   2.224   6.879
 3563SOL    HW111588   6.686   2.322   6.885
 3563SOL    HW211589   6.572   2.207   6.903
 3564SOL     OW11590   0.819   4.645   2.633
 3564SOL    HW111591   0.833   4.560   2.683
 3564SOL    HW211592   0.745   4.697   2.675
 3565SOL     OW11593   3.114   6.118   4.440
 3565SOL    HW111594   3.060   6.197   4.469
 3565SOL    HW211595   3.204   6.149   4.410
 3566SOL     OW11596   6.020   2.894   6.718
 3566SOL    HW111597   6.088   2.821   6.719
 3566SOL    HW211598   6.066   2.982   6.732
 3567SOL     OW11599   0.558   2.521   6.922
 3567SOL    HW111600   0.624   2.465   6.973
 3567SOL    HW211601   0.584   2.617   6.929
 3568SOL     OW11602   5.628   4.310   4.641
 3568SOL    HW111603   5.700   4.363   4.597
 3568SOL    HW211604   5.547   4.306   4.582
 3569SOL     OW11605   2.743   2.676   6.449
 3569SOL    HW111606   2.766   2.695   6.545
 3569SOL    HW211607   2.826   2.659   6.397
 3570SOL     OW11608   5.260   0.193   5.941
 3570SOL    HW111609   5.341   0.249   5.958
 3570SOL    HW211610   5.236   0.198   5.844
 3571SOL     OW11611   0.215   5.202   6.045
 3571SOL    HW111612   0.195   5.299   6.059
 3571SOL    HW211613   0.306   5.192   6.007
 3572SOL     OW11614   5.866   4.189   3.146
 3572SOL    HW111615   5.818   4.156   3.064
 3572SOL    HW211616   5.821   4.152   3.227
 3573SOL     OW11617   0.544   4.851   4.092
 3573SOL    HW111618   0.554   4.763   4.046
 3573SOL    HW211619   0.631   4.875   4.135
 3574SOL     OW11620   0.327   4.244   0.906
 3574SOL    HW111621   0.404   4.290   0.952
 3574SOL    HW211622   0.288   4.176   0.967
 3575SOL     OW11623   5.388   4.779   3.022
 3575SOL    HW111624   5.366   4.856   3.082
 3575SOL    HW211625   5.304   4.732   2.997
 3576SOL     OW11626   0.603   1.686   6.006
 3576SOL    HW111627   0.540   1.626   5.957
 3576SOL    HW211628   0.661   1.734   5.941
 3577SOL     OW11629   1.716   2.618   6.343
 3577SOL    HW111630   1.618   2.631   6.356
 3577SOL    HW211631   1.764   2.700   6.374
 3578SOL     OW11632   2.560   2.309   0.836
 3578SOL    HW111633   2.650   2.352   0.843
 3578SOL    HW211634   2.551   2.264   0.747
 3579SOL     OW11635   5.910   3.434   5.017
 3579SOL    HW111636   5.907   3.432   5.117
 3579SOL    HW211637   5.881   3.345   4.982
 3580SOL     OW11638   5.720   3.019   1.469
 3580SOL    HW111639   5.629   3.049   1.440
 3580SOL    HW211640   5.720   2.919   1.479
 3581SOL     OW11641   0.853   6.068   3.866
 3581SOL    HW111642   0.856   6.147   3.928
 3581SOL    HW211643   0.945   6.031   3.856
 3582SOL     OW11644   0.448   2.361   5.635
 3582SOL    HW111645   0.534   2.367   5.586
 3582SOL    HW211646   0.440   2.438   5.698
 3583SOL     OW11647   1.502   3.550   6.901
 3583SOL    HW111648   1.466   3.610   6.829
 3583SOL    HW211649   1.601   3.543   6.893
 3584SOL     OW11650   5.897   4.789   6.864
 3584SOL    HW111651   5.905   4.797   6.963
 3584SOL    HW211652   5.801   4.797   6.837
 3585SOL     OW11653   4.217   6.988   4.793
 3585SOL    HW111654   4.195   6.893   4.770
 3585SOL    HW211655   4.183   0.026   4.721
 3586SOL     OW11656   0.283   1.975   4.919
 3586SOL    HW111657   0.381   1.971   4.937
 3586SOL    HW211658   0.265   2.041   4.846
 3587SOL     OW11659   3.149   5.280   6.347
 3587SOL    HW111660   3.077   5.329   6.298
 3587SOL    HW211661   3.222   5.255   6.283
 3588SOL     OW11662   1.193   2.822   5.573
 3588SOL    HW111663   1.186   2.902   5.513
 3588SOL    HW211664   1.220   2.851   5.664
 3589SOL     OW11665   3.705   1.446   4.935
 3589SOL    HW111666   3.609   1.440   4.910
 3589SOL    HW211667   3.729   1.368   4.994
 3590SOL     OW11668   1.186   2.270   0.165
 3590SOL    HW111669   1.210   2.352   0.113
 3590SOL    HW211670   1.265   2.238   0.217
 3591SOL     OW11671   5.069   3.619   6.485
 3591SOL    HW111672   5.115   3.626   6.574
 3591SOL    HW211673   5.107   3.542   6.434
 3592SOL     OW11674   6.867   4.252   1.618
 3592SOL    HW111675   6.871   4.332   1.558
 3592SOL    HW211676   6.951   4.198   1.608
 3593SOL     OW11677   1.188   5.758   5.262
 3593SOL    HW111678   1.250   5.755   5.341
 3593SOL    HW211679   1.227   5.704   5.187
 3594SOL     OW11680   4.807   0.471   3.382
 3594SOL    HW111681   4.830   0.405   3.454
 3594SOL    HW211682   4.751   0.544   3.421
 3595SOL     OW11683   2.587   6.076   6.971
 3595SOL    HW111684   2.645   6.057   0.028
 3595SOL    HW211685   2.632   6.042   6.889
 3596SOL     OW11686   6.810   2.569   3.375
 3596SOL    HW111687   6.851   2.637   3.435
 3596SOL    HW211688   6.724   2.536   3.415
 3597SOL     OW11689   1.888   1.773   4.209
 3597SOL    HW111690   1.799   1.769   4.256
 3597SOL    HW211691   1.919   1.681   4.190
 3598SOL     OW11692   0.672   5.404   6.042
 3598SOL    HW111693   0.752   5.344   6.049
 3598SOL    HW211694   0.650   5.439   6.133
 3599SOL     OW11695   0.326   1.582   6.084
 3599SOL    HW111696   0.332   1.601   5.986
 3599SOL    HW211697   0.310   1.667   6.133
 3600SOL     OW11698   0.897   3.827   0.505
 3600SOL    HW111699   0.815   3.814   0.560
 3600SOL    HW211700   0.881   3.791   0.412
 3601SOL     OW11701   5.372   4.770   6.470
 3601SOL    HW111702   5.355   4.743   6.565
 3601SOL    HW211703   5.299   4.830   6.439
 3602SOL     OW11704   1.609   2.111   1.064
 3602SOL    HW111705   1.630   2.037   1.128
 3602SOL    HW211706   1.665   2.103   0.982
 3603SOL     OW11707   3.333   0.254   3.198
 3603SOL    HW111708   3.363   0.159   3.202
 3603SOL    HW211709   3.402   0.313   3.239
 3604SOL     OW11710   6.867   4.529   3.213
 3604SOL    HW111711   6.884   4.457   3.281
 3604SOL    HW211712   6.954   4.572   3.189
 3605SOL     OW11713   6.460   4.093   5.311
 3605SOL    HW111714   6.376   4.119   5.263
 3605SOL    HW211715   6.445   4.006   5.360
 3606SOL     OW11716   6.596   6.758   5.534
 3606SOL    HW111717   6.521   6.699   5.562
 3606SOL    HW211718   6.584   6.849   5.575
 3607SOL     OW11719   5.376   6.084   2.014
 3607SOL    HW111720   5.293   6.134   2.037
 3607SOL    HW211721   5.355   5.986   2.007
 3608SOL     OW11722   5.726   1.780   3.484
 3608SOL    HW111723   5.701   1.839   3.408
 3608SOL    HW211724   5.728   1.684   3.453
 3609SOL     OW11725   1.089   6.991   4.243
 3609SOL    HW111726   1.112   6.997   4.146
 3609SOL    HW211727   1.164   0.008   4.297
 3610SOL     OW11728   1.344   0.013   5.829
 3610SOL    HW111729   1.435   0.023   5.789
 3610SOL    HW211730   1.321   0.095   5.881
 3611SOL     OW11731   4.533   6.018   5.505
 3611SOL    HW111732   4.474   6.000   5.426
 3611SOL    HW211733   4.626   5.988   5.484
 3612SOL     OW11734   6.641   0.052   6.995
 3612SOL    HW111735   6.555   0.098   7.018
 3612SOL    HW211736   6.638   0.025   6.898
 3613SOL     OW11737   4.880   5.170   1.790
 3613SOL    HW111738   4.826   5.167   1.706
 3613SOL    HW211739   4.974   5.143   1.770
 3614SOL     OW11740   3.866   3.158   1.484
 3614SOL    HW111741   3.954   3.123   1.452
 3614SOL    HW211742   3.870   3.258   1.490
 3615SOL     OW11743   4.934   5.361   0.013
 3615SOL    HW111744   4.879   5.302   6.976
 3615SOL    HW211745   4.874   5.405   0.081
 3616SOL     OW11746   0.768   2.658   6.716
 3616SOL    HW111747   0.865   2.681   6.719
 3616SOL    HW211748   0.725   2.683   6.804
 3617SOL     OW11749   4.040   1.826   6.991
 3617SOL    HW111750   3.980   1.860   6.918
 3617SOL    HW211751   4.009   1.863   0.057
 3618SOL     OW11752   2.427   2.117   5.680
 3618SOL    HW111753   2.514   2.167   5.686
 3618SOL    HW211754   2.445   2.021   5.662
 3619SOL     OW11755   5.790   2.567   4.328
 3619SOL    HW111756   5.859   2.528   4.390
 3619SOL    HW211757   5.731   2.494   4.296
 3620SOL     OW11758   5.954   6.370   6.294
 3620SOL    HW111759   5.962   6.355   6.196
 3620SOL    HW211760   5.922   6.463   6.312
 3621SOL     OW11761   3.277   2.847   5.415
 3621SOL    HW111762   3.284   2.917   5.486
 3621SOL    HW211763   3.361   2.793   5.414
 3622SOL     OW11764   2.066   1.620   4.877
 3622SOL    HW111765   2.120   1.692   4.834
 3622SOL    HW211766   2.017   1.657   4.956
 3623SOL     OW11767   6.181   5.774   3.927
 3623SOL    HW111768   6.255   5.831   3.891
 3623SOL    HW211769   6.109   5.766   3.859
 3624SOL     OW11770   1.742   6.450   1.889
 3624SOL    HW111771   1.701   6.429   1.801
 3624SOL    HW211772   1.807   6.525   1.879
 3625SOL     OW11773   6.054   2.850   0.182
 3625SOL    HW111774   6.146   2.826   0.150
 3625SOL    HW211775   6.042   2.817   0.276
 3626SOL     OW11776   1.445   2.614   6.385
 3626SOL    HW111777   1.409   2.701   6.418
 3626SOL    HW211778   1.379   2.573   6.322
 3627SOL     OW11779   3.291   2.984   3.064
 3627SOL    HW111780   3.249   3.056   3.119
 3627SOL    HW211781   3.378   2.957   3.105
 3628SOL     OW11782   1.676   1.415   1.377
 3628SOL    HW111783   1.594   1.466   1.351
 3628SOL    HW211784   1.659   1.317   1.367
 3629SOL     OW11785   0.011   1.493   5.272
 3629SOL    HW111786   0.029   1.585   5.236
 3629SOL    HW211787   0.090   1.435   5.256
 3630SOL     OW11788   5.378   2.610   4.051
 3630SOL    HW111789   5.457   2.555   4.023
 3630SOL    HW211790   5.299   2.585   3.996
 3631SOL     OW11791   2.014   6.952   3.653
 3631SOL    HW111792   1.970   0.002   3.707
 3631SOL    HW211793   2.018   6.868   3.706
 3632SOL     OW11794   4.996   5.917   1.537
 3632SOL    HW111795   4.930   5.876   1.600
 3632SOL    HW211796   4.954   5.996   1.491
 3633SOL     OW11797   4.075   1.642   5.958
 3633SOL    HW111798   4.066   1.640   5.858
 3633SOL    HW211799   4.163   1.683   5.982
 3634SOL     OW11800   1.034   4.825   4.571
 3634SOL    HW111801   1.092   4.883   4.514
 3634SOL    HW211802   1.018   4.870   4.659
 3635SOL     OW11803   3.381   0.258   6.096
 3635SOL    HW111804   3.370   0.352   6.127
 3635SOL    HW211805   3.291   0.214   6.088
 3636SOL     OW11806   0.302   5.724   0.407
 3636SOL    HW111807   0.310   5.649   0.341
 3636SOL    HW211808   0.210   5.724   0.447
 3637SOL     OW11809   6.742   1.207   1.934
 3637SOL    HW111810   6.727   1.304   1.913
 3637SOL    HW211811   6.837   1.184   1.914
 3638SOL     OW11812   0.270   3.930   3.853
 3638SOL    HW111813   0.366   3.923   3.825
 3638SOL    HW211814   0.239   3.842   3.887
 3639SOL     OW11815   3.555   4.295   1.015
 3639SOL    HW111816   3.557   4.350   1.098
 3639SOL    HW211817   3.516   4.347   0.940
 3640SOL     OW11818   3.809   1.641   0.801
 3640SOL    HW111819   3.900   1.640   0.760
 3640SOL    HW211820   3.785   1.548   0.830
 3641SOL     OW11821   5.392   3.564   2.899
 3641SOL    HW111822   5.391   3.513   2.986
 3641SOL    HW211823   5.483   3.558   2.858
 3642SOL     OW11824   5.362   1.159   6.834
 3642SOL    HW111825   5.459   1.185   6.838
 3642SOL    HW211826   5.307   1.239   6.813
 3643SOL     OW11827   3.061   5.479   4.691
 3643SOL    HW111828   3.056   5.574   4.723
 3643SOL    HW211829   2.984   5.428   4.729
 3644SOL     OW11830   6.745   1.326   1.456
 3644SOL    HW111831   6.819   1.283   1.508
 3644SOL    HW211832   6.668   1.262   1.447
 3645SOL     OW11833   0.737   2.785   3.570
 3645SOL    HW111834   0.752   2.834   3.656
 3645SOL    HW211835   0.646   2.742   3.571
 3646SOL     OW11836   0.763   3.911   6.348
 3646SOL    HW111837   0.735   3.882   6.256
 3646SOL    HW211838   0.766   4.011   6.352
 3647SOL     OW11839   2.626   4.997   6.002
 3647SOL    HW111840   2.631   5.031   6.096
 3647SOL    HW211841   2.655   5.070   5.939
 3648SOL     OW11842   3.988   4.767   2.019
 3648SOL    HW111843   3.961   4.723   1.934
 3648SOL    HW211844   3.907   4.806   2.064
 3649SOL     OW11845   5.048   2.771   1.832
 3649SOL    HW111846   4.978   2.816   1.777
 3649SOL    HW211847   5.128   2.752   1.775
 3650SOL     OW11848   6.962   5.567   1.228
 3650SOL    HW111849   6.975   5.493   1.162
 3650SOL    HW211850   0.021   5.575   1.286
 3651SOL     OW11851   0.697   6.477   4.685
 3651SOL    HW111852   0.666   6.480   4.591
 3651SOL    HW211853   0.749   6.393   4.701
 3652SOL     OW11854   5.352   6.431   3.618
 3652SOL    HW111855   5.418   6.364   3.584
 3652SOL    HW211856   5.304   6.472   3.540
 3653SOL     OW11857   0.421   0.911   3.957
 3653SOL    HW111858   0.348   0.980   3.952
 3653SOL    HW211859   0.391   0.829   3.908
 3654SOL     OW11860   3.027   4.226   1.026
 3654SOL    HW111861   3.118   4.230   1.068
 3654SOL    HW211862   2.961   4.194   1.094
 3655SOL     OW11863   1.788   5.659   4.195
 3655SOL    HW111864   1.695   5.643   4.162
 3655SOL    HW211865   1.854   5.615   4.134
 3656SOL     OW11866   0.603   3.983   1.262
 3656SOL    HW111867   0.535   4.017   1.326
 3656SOL    HW211868   0.632   4.056   1.201
 3657SOL     OW11869   4.978   5.554   5.558
 3657SOL    HW111870   4.896   5.566   5.503
 3657SOL    HW211871   4.989   5.457   5.581
 3658SOL     OW11872   1.562   5.228   5.592
 3658SOL    HW111873   1.644   5.284   5.606
 3658SOL    HW211874   1.587   5.144   5.545
 3659SOL     OW11875   1.656   3.541   5.537
 3659SOL    HW111876   1.690   3.488   5.615
 3659SOL    HW211877   1.651   3.638   5.563
 3660SOL     OW11878   6.199   6.661   3.974
 3660SOL    HW111879   6.212   6.600   4.052
 3660SOL    HW211880   6.239   6.751   3.994
 3661SOL     OW11881   5.594   0.853   5.202
 3661SOL    HW111882   5.636   0.868   5.112
 3661SOL    HW211883   5.583   0.941   5.248
 3662SOL     OW11884   3.503   0.149   3.899
 3662SOL    HW111885   3.535   0.113   3.811
 3662SOL    HW211886   3.404   0.138   3.905
 3663SOL     OW11887   2.203   1.391   0.215
 3663SOL    HW111888   2.137   1.323   0.246
 3663SOL    HW211889   2.270   1.347   0.156
 3664SOL     OW11890   4.763   2.800   1.455
 3664SOL    HW111891   4.846   2.852   1.436
 3664SOL    HW211892   4.683   2.860   1.447
 3665SOL     OW11893   1.800   6.522   5.321
 3665SOL    HW111894   1.711   6.477   5.326
 3665SOL    HW211895   1.830   6.547   5.414
 3666SOL     OW11896   1.156   3.902   3.065
 3666SOL    HW111897   1.217   3.966   3.112
 3666SOL    HW211898   1.160   3.813   3.111
 3667SOL     OW11899   0.929   0.869   2.820
 3667SOL    HW111900   0.947   0.814   2.901
 3667SOL    HW211901   0.991   0.840   2.746
 3668SOL     OW11902   1.415   0.772   1.166
 3668SOL    HW111903   1.492   0.713   1.191
 3668SOL    HW211904   1.446   0.844   1.104
 3669SOL     OW11905   4.696   1.003   3.610
 3669SOL    HW111906   4.679   1.080   3.672
 3669SOL    HW211907   4.751   1.035   3.532
 3670SOL     OW11908   2.129   5.150   0.093
 3670SOL    HW111909   2.206   5.213   0.085
 3670SOL    HW211910   2.060   5.173   0.025
 3671SOL     OW11911   6.361   1.402   4.244
 3671SOL    HW111912   6.456   1.370   4.245
 3671SOL    HW211913   6.352   1.476   4.177
 3672SOL     OW11914   5.239   1.683   1.000
 3672SOL    HW111915   5.282   1.764   0.962
 3672SOL    HW211916   5.142   1.702   1.018
 3673SOL     OW11917   4.100   6.184   6.710
 3673SOL    HW111918   4.112   6.085   6.709
 3673SOL    HW211919   4.050   6.213   6.628
 3674SOL     OW11920   1.064   5.760   5.947
 3674SOL    HW111921   1.124   5.763   5.867
 3674SOL    HW211922   1.030   5.667   5.960
 3675SOL     OW11923   1.995   3.205   3.799
 3675SOL    HW111924   2.049   3.227   3.718
 3675SOL    HW211925   1.913   3.154   3.772
 3676SOL     OW11926   5.145   4.525   3.116
 3676SOL    HW111927   5.188   4.575   3.041
 3676SOL    HW211928   5.046   4.529   3.106
 3677SOL     OW11929   2.404   5.983   3.447
 3677SOL    HW111930   2.324   6.039   3.423
 3677SOL    HW211931   2.383   5.887   3.433
 3678SOL     OW11932   0.470   2.058   4.707
 3678SOL    HW111933   0.515   1.982   4.755
 3678SOL    HW211934   0.537   2.103   4.647
 3679SOL     OW11935   1.286   0.741   3.346
 3679SOL    HW111936   1.374   0.766   3.307
 3679SOL    HW211937   1.242   0.822   3.383
 3680SOL     OW11938   5.392   3.372   3.768
 3680SOL    HW111939   5.423   3.365   3.863
 3680SOL    HW211940   5.322   3.302   3.751
 3681SOL     OW11941   0.635   0.080   6.691
 3681SOL    HW111942   0.689   0.151   6.736
 3681SOL    HW211943   0.696   0.019   6.641
 3682SOL     OW11944   5.332   1.942   0.422
 3682SOL    HW111945   5.316   2.041   0.426
 3682SOL    HW211946   5.247   1.895   0.398
 3683SOL     OW11947   6.578   0.694   3.207
 3683SOL    HW111948   6.528   0.697   3.120
 3683SOL    HW211949   6.599   0.788   3.236
 3684SOL     OW11950   1.861   4.912   0.706
 3684SOL    HW111951   1.864   4.978   0.780
 3684SOL    HW211952   1.902   4.826   0.735
 3685SOL     OW11953   0.754   6.039   6.855
 3685SOL    HW111954   0.809   5.956   6.852
 3685SOL    HW211955   0.657   6.015   6.843
 3686SOL     OW11956   5.138   5.758   3.489
 3686SOL    HW111957   5.061   5.819   3.511
 3686SOL    HW211958   5.130   5.675   3.544
 3687SOL     OW11959   3.539   6.060   5.123
 3687SOL    HW111960   3.513   6.094   5.032
 3687SOL    HW211961   3.457   6.035   5.174
 3688SOL     OW11962   0.187   4.018   6.646
 3688SOL    HW111963   0.197   4.112   6.611
 3688SOL    HW211964   0.097   3.982   6.621
 3689SOL     OW11965   2.100   6.885   5.568
 3689SOL    HW111966   2.045   6.966   5.590
 3689SOL    HW211967   2.075   6.852   5.478
 3690SOL     OW11968   4.143   6.034   0.701
 3690SOL    HW111969   4.090   6.118   0.694
 3690SOL    HW211970   4.235   6.049   0.663
 3691SOL     OW11971   2.596   1.762   6.712
 3691SOL    HW111972   2.510   1.710   6.716
 3691SOL    HW211973   2.578   1.857   6.740
 3692SOL     OW11974   6.541   5.743   5.071
 3692SOL    HW111975   6.443   5.741   5.092
 3692SOL    HW211976   6.591   5.686   5.136
 3693SOL     OW11977   2.173   3.783   3.140
 3693SOL    HW111978   2.172   3.871   3.093
 3693SOL    HW211979   2.265   3.762   3.172
 3694SOL     OW11980   1.832   6.644   3.019
 3694SOL    HW111981   1.924   6.656   3.054
 3694SOL    HW211982   1.765   6.675   3.088
 3695SOL     OW11983   6.548   3.113   1.642
 3695SOL    HW111984   6.512   3.206   1.630
 3695SOL    HW211985   6.507   3.073   1.724
 3696SOL     OW11986   3.609   6.474   5.049
 3696SOL    HW111987   3.562   6.453   5.134
 3696SOL    HW211988   3.708   6.465   5.063
 3697SOL     OW11989   0.498   6.199   2.655
 3697SOL    HW111990   0.470   6.104   2.644
 3697SOL    HW211991   0.460   6.254   2.580
 3698SOL     OW11992   2.605   0.209   3.895
 3698SOL    HW111993   2.647   0.173   3.978
 3698SOL    HW211994   2.601   0.309   3.901
 3699SOL     OW11995   1.208   2.008   3.656
 3699SOL    HW111996   1.134   2.060   3.613
 3699SOL    HW211997   1.296   2.047   3.629
 3700SOL     OW11998   0.367   5.639   4.655
 3700SOL    HW111999   0.273   5.673   4.660
 3700SOL    HW212000   0.422   5.683   4.725
 3701SOL     OW12001   1.432   0.987   3.849
 3701SOL    HW112002   1.356   0.986   3.913
 3701SOL    HW212003   1.507   1.040   3.888
 3702SOL     OW12004   5.687   6.453   3.220
 3702SOL    HW112005   5.613   6.516   3.242
 3702SOL    HW212006   5.649   6.370   3.179
 3703SOL     OW12007   5.619   1.336   5.857
 3703SOL    HW112008   5.547   1.324   5.789
 3703SOL    HW212009   5.594   1.411   5.919
 3704SOL     OW12010   3.403   1.764   1.360
 3704SOL    HW112011   3.438   1.831   1.295
 3704SOL    HW212012   3.461   1.763   1.442
 3705SOL     OW12013   4.237   4.722   3.984
 3705SOL    HW112014   4.202   4.697   4.074
 3705SOL    HW212015   4.294   4.648   3.948
 3706SOL     OW12016   1.716   3.372   0.197
 3706SOL    HW112017   1.773   3.363   0.278
 3706SOL    HW212018   1.755   3.439   0.135
 3707SOL     OW12019   5.447   4.440   3.760
 3707SOL    HW112020   5.539   4.413   3.787
 3707SOL    HW212021   5.386   4.436   3.840
 3708SOL     OW12022   0.195   0.584   6.800
 3708SOL    HW112023   0.243   0.506   6.760
 3708SOL    HW212024   0.261   0.655   6.824
 3709SOL     OW12025   3.718   0.659   0.680
 3709SOL    HW112026   3.631   0.640   0.635
 3709SOL    HW212027   3.704   0.724   0.755
 3710SOL     OW12028   6.127   5.504   5.342
 3710SOL    HW112029   6.104   5.600   5.330
 3710SOL    HW212030   6.126   5.458   5.253
 3711SOL     OW12031   1.015   6.503   4.025
 3711SOL    HW112032   0.962   6.584   3.999
 3711SOL    HW212033   1.079   6.526   4.098
 3712SOL     OW12034   6.774   5.075   6.698
 3712SOL    HW112035   6.775   5.174   6.707
 3712SOL    HW212036   6.813   5.049   6.610
 3713SOL     OW12037   1.045   6.379   6.023
 3713SOL    HW112038   1.116   6.308   6.020
 3713SOL    HW212039   0.961   6.343   5.982
 3714SOL     OW12040   5.196   6.237   6.067
 3714SOL    HW112041   5.155   6.147   6.084
 3714SOL    HW212042   5.216   6.281   6.154
 3715SOL     OW12043   0.408   4.001   2.776
 3715SOL    HW112044   0.463   4.079   2.806
 3715SOL    HW212045   0.387   3.943   2.855
 3716SOL     OW12046   6.327   6.750   4.818
 3716SOL    HW112047   6.350   6.727   4.912
 3716SOL    HW212048   6.406   6.791   4.773
 3717SOL     OW12049   6.825   6.786   0.002
 3717SOL    HW112050   6.819   6.885   0.012
 3717SOL    HW212051   6.753   6.742   0.056
 3718SOL     OW12052   1.218   0.819   6.936
 3718SOL    HW112053   1.243   0.888   7.005
 3718SOL    HW212054   1.300   0.790   6.887
 3719SOL     OW12055   5.151   4.034   1.847
 3719SOL    HW112056   5.100   4.091   1.912
 3719SOL    HW212057   5.162   4.085   1.762
 3720SOL     OW12058   6.250   2.736   6.407
 3720SOL    HW112059   6.159   2.718   6.369
 3720SOL    HW212060   6.276   2.830   6.387
 3721SOL     OW12061   6.571   4.339   1.522
 3721SOL    HW112062   6.662   4.301   1.538
 3721SOL    HW212063   6.505   4.292   1.580
 3722SOL     OW12064   6.355   6.027   0.935
 3722SOL    HW112065   6.389   6.070   1.019
 3722SOL    HW212066   6.375   6.086   0.857
 3723SOL     OW12067   5.738   5.353   1.607
 3723SOL    HW112068   5.774   5.392   1.692
 3723SOL    HW212069   5.730   5.254   1.616
 3724SOL     OW12070   1.712   4.462   4.645
 3724SOL    HW112071   1.617   4.493   4.649
 3724SOL    HW212072   1.718   4.378   4.592
 3725SOL     OW12073   6.538   5.567   0.659
 3725SOL    HW112074   6.604   5.508   0.611
 3725SOL    HW212075   6.455   5.575   0.604
 3726SOL     OW12076   5.922   3.321   0.586
 3726SOL    HW112077   5.970   3.376   0.517
 3726SOL    HW212078   5.884   3.239   0.543
 3727SOL     OW12079   6.726   1.355   4.699
 3727SOL    HW112080   6.755   1.442   4.740
 3727SOL    HW212081   6.636   1.331   4.734
 3728SOL     OW12082   1.796   3.745   6.888
 3728SOL    HW112083   1.737   3.789   6.821
 3728SOL    HW212084   1.813   3.650   6.860
 3729SOL     OW12085   1.213   2.300   3.706
 3729SOL    HW112086   1.203   2.276   3.609
 3729SOL    HW212087   1.219   2.217   3.761
 3730SOL     OW12088   2.223   5.644   6.015
 3730SOL    HW112089   2.273   5.623   6.099
 3730SOL    HW212090   2.261   5.591   5.940
 3731SOL     OW12091   7.002   1.742   0.725
 3731SOL    HW112092   7.013   1.837   0.699
 3731SOL    HW212093   0.021   1.683   0.656
 3732SOL     OW12094   3.150   1.383   0.484
 3732SOL    HW112095   3.184   1.390   0.578
 3732SOL    HW212096   3.106   1.468   0.458
 3733SOL     OW12097   1.436   3.480   2.740
 3733SOL    HW112098   1.454   3.406   2.676
 3733SOL    HW212099   1.358   3.457   2.798
 3734SOL     OW12100   4.787   0.384   1.820
 3734SOL    HW112101   4.776   0.442   1.901
 3734SOL    HW212102   4.802   0.441   1.740
 3735SOL     OW12103   1.994   1.238   3.653
 3735SOL    HW112104   2.029   1.179   3.581
 3735SOL    HW212105   1.953   1.320   3.613
 3736SOL     OW12106   0.041   1.994   0.932
 3736SOL    HW112107   6.975   2.037   0.946
 3736SOL    HW212108   0.063   1.994   0.835
 3737SOL     OW12109   5.429   1.248   3.690
 3737SOL    HW112110   5.452   1.335   3.647
 3737SOL    HW212111   5.371   1.265   3.770
 3738SOL     OW12112   0.372   0.289   2.594
 3738SOL    HW112113   0.293   0.312   2.651
 3738SOL    HW212114   0.359   0.198   2.555
 3739SOL     OW12115   2.215   4.798   1.318
 3739SOL    HW112116   2.201   4.748   1.233
 3739SOL    HW212117   2.312   4.793   1.344
 3740SOL     OW12118   5.626   1.294   1.595
 3740SOL    HW112119   5.559   1.337   1.535
 3740SOL    HW212120   5.713   1.344   1.589
 3741SOL     OW12121   5.208   3.003   7.015
 3741SOL    HW112122   5.292   3.013   6.961
 3741SOL    HW212123   5.213   2.918   0.046
 3742SOL     OW12124   2.318   2.043   0.096
 3742SOL    HW112125   2.330   1.982   0.175
 3742SOL    HW212126   2.320   1.989   0.012
 3743SOL     OW12127   5.575   4.114   0.519
 3743SOL    HW112128   5.647   4.182   0.526
 3743SOL    HW212129   5.518   4.117   0.602
 3744SOL     OW12130   1.611   6.014   2.488
 3744SOL    HW112131   1.675   6.089   2.466
 3744SOL    HW212132   1.536   6.015   2.422
 3745SOL     OW12133   4.241   5.154   1.796
 3745SOL    HW112134   4.194   5.196   1.718
 3745SOL    HW212135   4.316   5.214   1.825
 3746SOL     OW12136   5.708   0.705   3.136
 3746SOL    HW112137   5.766   0.785   3.120
 3746SOL    HW212138   5.711   0.644   3.057
 3747SOL     OW12139   2.667   6.419   5.042
 3747SOL    HW112140   2.729   6.483   5.087
 3747SOL    HW212141   2.582   6.411   5.095
 3748SOL     OW12142   5.617   1.060   1.786
 3748SOL    HW112143   5.692   1.097   1.841
 3748SOL    HW212144   5.595   1.124   1.713
 3749SOL     OW12145   1.899   5.371   3.778
 3749SOL    HW112146   1.972   5.315   3.739
 3749SOL    HW212147   1.879   5.447   3.716
 3750SOL     OW12148   0.407   4.645   1.274
 3750SOL    HW112149   0.468   4.585   1.325
 3750SOL    HW212150   0.453   4.677   1.191
 3751SOL     OW12151   6.469   3.384   1.594
 3751SOL    HW112152   6.503   3.377   1.500
 3751SOL    HW212153   6.535   3.435   1.649
 3752SOL     OW12154   5.711   0.459   1.031
 3752SOL    HW112155   5.716   0.532   0.963
 3752SOL    HW212156   5.641   0.393   1.005
 3753SOL     OW12157   6.302   6.904   4.486
 3753SOL    HW112158   6.298   6.955   4.400
 3753SOL    HW212159   6.224   6.841   4.491
 3754SOL     OW12160   3.266   0.909   1.116
 3754SOL    HW112161   3.333   0.956   1.173
 3754SOL    HW212162   3.311   0.833   1.068
 3755SOL     OW12163   4.887   4.923   3.949
 3755SOL    HW112164   4.866   4.951   4.043
 3755SOL    HW212165   4.952   4.987   3.909
 3756SOL     OW12166   3.108   5.029   6.640
 3756SOL    HW112167   3.086   5.064   6.731
 3756SOL    HW212168   3.199   5.060   6.612
 3757SOL     OW12169   5.232   6.068   6.877
 3757SOL    HW112170   5.189   6.084   6.965
 3757SOL    HW212171   5.324   6.110   6.876
 3758SOL     OW12172   2.200   0.943   4.703
 3758SOL    HW112173   2.110   0.960   4.662
 3758SOL    HW212174   2.251   1.029   4.706
 3759SOL     OW12175   4.567   6.921   6.704
 3759SOL    HW112176   4.539   6.987   6.634
 3759SOL    HW212177   4.489   6.864   6.730
 3760SOL     OW12178   1.841   1.518   4.601
 3760SOL    HW112179   1.839   1.503   4.503
 3760SOL    HW212180   1.893   1.601   4.621
 3761SOL     OW12181   1.116   1.348   4.787
 3761SOL    HW112182   1.026   1.331   4.828
 3761SOL    HW212183   1.155   1.262   4.754
 3762SOL     OW12184   1.694   4.739   1.087
 3762SOL    HW112185   1.687   4.829   1.044
 3762SOL    HW212186   1.744   4.677   1.027
 3763SOL     OW12187   6.870   4.072   1.075
 3763SOL    HW112188   6.813   4.137   1.126
 3763SOL    HW212189   6.931   4.122   1.013
 3764SOL     OW12190   1.682   0.389   2.483
 3764SOL    HW112191   1.665   0.357   2.577
 3764SOL    HW212192   1.750   0.462   2.484
 3765SOL     OW12193   5.024   1.577   1.203
 3765SOL    HW112194   4.997   1.616   1.115
 3765SOL    HW212195   4.947   1.527   1.242
 3766SOL     OW12196   2.119   1.527   4.259
 3766SOL    HW112197   2.049   1.527   4.187
 3766SOL    HW212198   2.149   1.433   4.276
 3767SOL     OW12199   1.995   4.784   6.759
 3767SOL    HW112200   2.077   4.825   6.799
 3767SOL    HW212201   1.914   4.823   6.802
 3768SOL     OW12202   0.880   6.257   4.086
 3768SOL    HW112203   0.925   6.339   4.053
 3768SOL    HW212204   0.787   6.278   4.113
 3769SOL     OW12205   6.129   6.325   4.386
 3769SOL    HW112206   6.078   6.250   4.345
 3769SOL    HW212207   6.081   6.356   4.468
 3770SOL     OW12208   1.422   1.072   6.236
 3770SOL    HW112209   1.419   1.118   6.147
 3770SOL    HW212210   1.504   1.014   6.240
 3771SOL     OW12211   5.224   2.757   0.123
 3771SOL    HW112212   5.306   2.726   0.170
 3771SOL    HW212213   5.171   2.678   0.091
 3772SOL     OW12214   0.122   1.693   0.141
 3772SOL    HW112215   0.106   1.705   0.043
 3772SOL    HW212216   0.035   1.687   0.188
 3773SOL     OW12217   5.793   3.313   5.895
 3773SOL    HW112218   5.752   3.403   5.911
 3773SOL    HW212219   5.741   3.266   5.823
 3774SOL     OW12220   6.510   6.092   1.171
 3774SOL    HW112221   6.609   6.102   1.179
 3774SOL    HW212222   6.476   6.038   1.249
 3775SOL     OW12223   4.704   5.079   2.353
 3775SOL    HW112224   4.682   5.169   2.392
 3775SOL    HW212225   4.691   5.009   2.422
 3776SOL     OW12226   4.595   2.054   6.690
 3776SOL    HW112227   4.640   1.968   6.715
 3776SOL    HW212228   4.530   2.080   6.761
 3777SOL     OW12229   3.358   5.964   3.708
 3777SOL    HW112230   3.430   6.029   3.731
 3777SOL    HW212231   3.282   6.012   3.665
 3778SOL     OW12232   3.135   4.974   2.586
 3778SOL    HW112233   3.054   4.961   2.643
 3778SOL    HW212234   3.134   5.067   2.549
 3779SOL     OW12235   1.367   4.648   0.486
 3779SOL    HW112236   1.268   4.650   0.475
 3779SOL    HW212237   1.407   4.730   0.445
 3780SOL     OW12238   5.891   4.978   4.903
 3780SOL    HW112239   5.937   5.011   4.820
 3780SOL    HW212240   5.958   4.961   4.975
 3781SOL     OW12241   0.612   6.513   4.366
 3781SOL    HW112242   0.545   6.447   4.334
 3781SOL    HW212243   0.567   6.600   4.388
 3782SOL     OW12244   2.373   0.253   3.043
 3782SOL    HW112245   2.454   0.201   3.017
 3782SOL    HW212246   2.387   0.294   3.133
 3783SOL     OW12247   5.468   5.315   3.572
 3783SOL    HW112248   5.408   5.337   3.649
 3783SOL    HW212249   5.563   5.323   3.601
 3784SOL     OW12250   4.665   2.658   3.019
 3784SOL    HW112251   4.690   2.721   2.945
 3784SOL    HW212252   4.734   2.586   3.026
 3785SOL     OW12253   1.729   3.466   6.015
 3785SOL    HW112254   1.707   3.511   6.101
 3785SOL    HW212255   1.786   3.385   6.033
 3786SOL     OW12256   2.294   4.990   3.184
 3786SOL    HW112257   2.201   5.017   3.210
 3786SOL    HW212258   2.356   5.002   3.261
 3787SOL     OW12259   5.678   1.528   3.020
 3787SOL    HW112260   5.623   1.502   2.941
 3787SOL    HW212261   5.716   1.620   3.005
 3788SOL     OW12262   0.273   4.997   4.688
 3788SOL    HW112263   0.194   5.049   4.655
 3788SOL    HW212264   0.243   4.905   4.713
 3789SOL     OW12265   6.927   2.862   4.720
 3789SOL    HW112266   6.889   2.778   4.681
 3789SOL    HW212267   6.852   2.922   4.747
 3790SOL     OW12268   1.329   4.388   5.857
 3790SOL    HW112269   1.346   4.292   5.835
 3790SOL    HW212270   1.275   4.394   5.942
 3791SOL     OW12271   5.439   1.308   6.539
 3791SOL    HW112272   5.377   1.350   6.605
 3791SOL    HW212273   5.388   1.286   6.455
 3792SOL     OW12274   0.854   2.618   4.283
 3792SOL    HW112275   0.787   2.544   4.291
 3792SOL    HW212276   0.857   2.669   4.369
 3793SOL     OW12277   4.963   6.304   1.810
 3793SOL    HW112278   4.933   6.330   1.902
 3793SOL    HW212279   4.906   6.352   1.743
 3794SOL     OW12280   2.230   2.999   1.133
 3794SOL    HW112281   2.287   3.073   1.098
 3794SOL    HW212282   2.221   3.007   1.232
 3795SOL     OW12283   4.011   6.289   0.684
 3795SOL    HW112284   3.991   6.335   0.771
 3795SOL    HW212285   3.934   6.299   0.622
 3796SOL     OW12286   3.306   2.243   1.809
 3796SOL    HW112287   3.352   2.160   1.776
 3796SOL    HW212288   3.216   2.219   1.845
 3797SOL     OW12289   0.159   3.046   1.769
 3797SOL    HW112290   0.150   3.055   1.868
 3797SOL    HW212291   0.176   2.951   1.745
 3798SOL     OW12292   2.653   5.313   3.211
 3798SOL    HW112293   2.688   5.221   3.200
 3798SOL    HW212294   2.640   5.356   3.122
 3799SOL     OW12295   6.857   2.580   3.877
 3799SOL    HW112296   6.913   2.501   3.855
 3799SOL    HW212297   6.913   2.650   3.922
 3800SOL     OW12298   5.876   3.132   4.314
 3800SOL    HW112299   5.815   3.095   4.244
 3800SOL    HW212300   5.835   3.118   4.404
 3801SOL     OW12301   6.220   6.933   2.105
 3801SOL    HW112302   6.139   6.895   2.061
 3801SOL    HW212303   6.198   6.960   2.199
 3802SOL     OW12304   1.450   2.213   1.642
 3802SOL    HW112305   1.529   2.192   1.700
 3802SOL    HW212306   1.482   2.241   1.551
 3803SOL     OW12307   3.952   3.257   2.047
 3803SOL    HW112308   3.893   3.276   2.125
 3803SOL    HW212309   3.902   3.204   1.979
 3804SOL     OW12310   4.703   1.653   3.803
 3804SOL    HW112311   4.745   1.716   3.868
 3804SOL    HW212312   4.757   1.648   3.719
 3805SOL     OW12313   2.717   2.525   1.358
 3805SOL    HW112314   2.666   2.601   1.399
 3805SOL    HW212315   2.659   2.444   1.355
 3806SOL     OW12316   3.307   3.408   6.305
 3806SOL    HW112317   3.330   3.476   6.236
 3806SOL    HW212318   3.385   3.349   6.321
 3807SOL     OW12319   1.334   6.225   2.767
 3807SOL    HW112320   1.290   6.293   2.825
 3807SOL    HW212321   1.397   6.170   2.822
 3808SOL     OW12322   4.632   1.253   1.113
 3808SOL    HW112323   4.582   1.168   1.097
 3808SOL    HW212324   4.678   1.282   1.029
 3809SOL     OW12325   5.629   2.788   1.856
 3809SOL    HW112326   5.728   2.789   1.839
 3809SOL    HW212327   5.580   2.795   1.769
 3810SOL     OW12328   4.576   2.628   3.534
 3810SOL    HW112329   4.559   2.709   3.590
 3810SOL    HW212330   4.593   2.657   3.439
 3811SOL     OW12331   1.320   5.177   4.779
 3811SOL    HW112332   1.393   5.226   4.732
 3811SOL    HW212333   1.233   5.196   4.734
 3812SOL     OW12334   5.035   5.429   5.184
 3812SOL    HW112335   5.043   5.518   5.140
 3812SOL    HW212336   4.942   5.393   5.170
 3813SOL     OW12337   4.474   3.366   0.802
 3813SOL    HW112338   4.518   3.337   0.717
 3813SOL    HW212339   4.421   3.290   0.840
 3814SOL     OW12340   0.388   6.986   6.617
 3814SOL    HW112341   0.308   6.996   6.675
 3814SOL    HW212342   0.455   0.035   6.639
 3815SOL     OW12343   4.182   2.579   0.505
 3815SOL    HW112344   4.238   2.560   0.424
 3815SOL    HW212345   4.133   2.665   0.492
 3816SOL     OW12346   1.159   5.409   6.874
 3816SOL    HW112347   1.258   5.398   6.875
 3816SOL    HW212348   1.132   5.471   6.800
 3817SOL     OW12349   4.897   3.484   2.586
 3817SOL    HW112350   4.937   3.411   2.530
 3817SOL    HW212351   4.955   3.566   2.579
 3818SOL     OW12352   6.205   0.793   6.732
 3818SOL    HW112353   6.141   0.717   6.740
 3818SOL    HW212354   6.175   0.854   6.659
 3819SOL     OW12355   5.355   5.550   1.981
 3819SOL    HW112356   5.261   5.515   1.978
 3819SOL    HW212357   5.413   5.486   2.032
 3820SOL     OW12358   4.782   6.964   4.139
 3820SOL    HW112359   4.853   6.894   4.137
 3820SOL    HW212360   4.819   0.026   4.177
 3821SOL     OW12361   2.571   1.463   1.005
 3821SOL    HW112362   2.588   1.394   1.075
 3821SOL    HW212363   2.481   1.503   1.019
 3822SOL     OW12364   2.066   0.362   1.177
 3822SOL    HW112365   2.035   0.305   1.101
 3822SOL    HW212366   2.014   0.339   1.260
 3823SOL     OW12367   3.517   3.241   5.891
 3823SOL    HW112368   3.506   3.291   5.806
 3823SOL    HW212369   3.435   3.185   5.907
 3824SOL     OW12370   6.621   2.552   0.532
 3824SOL    HW112371   6.691   2.482   0.548
 3824SOL    HW212372   6.545   2.538   0.595
 3825SOL     OW12373   0.436   5.565   0.867
 3825SOL    HW112374   0.526   5.541   0.828
 3825SOL    HW212375   0.395   5.638   0.812
 3826SOL     OW12376   1.240   3.047   6.685
 3826SOL    HW112377   1.300   3.127   6.681
 3826SOL    HW212378   1.159   3.069   6.740
 3827SOL     OW12379   1.509   1.352   1.933
 3827SOL    HW112380   1.585   1.396   1.980
 3827SOL    HW212381   1.517   1.253   1.940
 3828SOL     OW12382   3.717   3.531   2.647
 3828SOL    HW112383   3.687   3.518   2.742
 3828SOL    HW212384   3.720   3.442   2.601
 3829SOL     OW12385   1.649   4.874   3.029
 3829SOL    HW112386   1.623   4.970   3.017
 3829SOL    HW212387   1.693   4.863   3.118
 3830SOL     OW12388   0.522   1.536   4.693
 3830SOL    HW112389   0.561   1.461   4.640
 3830SOL    HW212390   0.453   1.500   4.756
 3831SOL     OW12391   4.723   2.589   2.313
 3831SOL    HW112392   4.763   2.659   2.253
 3831SOL    HW212393   4.647   2.545   2.265
 3832SOL     OW12394   5.617   0.981   2.736
 3832SOL    HW112395   5.536   0.940   2.778
 3832SOL    HW212396   5.682   1.006   2.808
 3833SOL     OW12397   0.478   6.511   6.352
 3833SOL    HW112398   0.519   6.531   6.263
 3833SOL    HW212399   0.468   6.595   6.405
 3834SOL     OW12400   4.536   4.695   1.554
 3834SOL    HW112401   4.611   4.698   1.488
 3834SOL    HW212402   4.536   4.606   1.600
 3835SOL     OW12403   3.614   5.465   4.435
 3835SOL    HW112404   3.626   5.412   4.519
 3835SOL    HW212405   3.520   5.499   4.430
 3836SOL     OW12406   1.695   4.052   6.022
 3836SOL    HW112407   1.680   4.098   5.935
 3836SOL    HW212408   1.607   4.034   6.066
 3837SOL     OW12409   4.764   5.161   6.429
 3837SOL    HW112410   4.778   5.243   6.484
 3837SOL    HW212411   4.667   5.153   6.405
 3838SOL     OW12412   0.654   3.775   4.764
 3838SOL    HW112413   0.564   3.734   4.779
 3838SOL    HW212414   0.659   3.812   4.671
 3839SOL     OW12415   5.009   0.851   3.796
 3839SOL    HW112416   5.086   0.823   3.738
 3839SOL    HW212417   4.965   0.931   3.756
 3840SOL     OW12418   2.317   0.466   6.041
 3840SOL    HW112419   2.302   0.543   5.979
 3840SOL    HW212420   2.267   0.386   6.009
 3841SOL     OW12421   0.216   3.077   4.505
 3841SOL    HW112422   0.203   3.133   4.587
 3841SOL    HW212423   0.304   3.030   4.511
 3842SOL     OW12424   2.126   3.253   0.602
 3842SOL    HW112425   2.191   3.319   0.563
 3842SOL    HW212426   2.176   3.189   0.660
 3843SOL     OW12427   6.022   4.143   2.280
 3843SOL    HW112428   6.092   4.188   2.226
 3843SOL    HW212429   6.059   4.058   2.319
 3844SOL     OW12430   0.762   2.636   6.301
 3844SOL    HW112431   0.858   2.626   6.275
 3844SOL    HW212432   0.730   2.727   6.275
 3845SOL     OW12433   3.424   3.083   5.116
 3845SOL    HW112434   3.407   3.177   5.088
 3845SOL    HW212435   3.451   3.081   5.213
 3846SOL     OW12436   0.541   5.507   3.795
 3846SOL    HW112437   0.461   5.523   3.736
 3846SOL    HW212438   0.609   5.454   3.745
 3847SOL     OW12439   5.578   1.156   5.171
 3847SOL    HW112440   5.488   1.190   5.143
 3847SOL    HW212441   5.628   1.229   5.217
 3848SOL     OW12442   4.223   5.493   3.217
 3848SOL    HW112443   4.275   5.542   3.287
 3848SOL    HW212444   4.192   5.557   3.147
 3849SOL     OW12445   1.453   1.240   5.465
 3849SOL    HW112446   1.371   1.264   5.517
 3849SOL    HW212447   1.472   1.312   5.398
 3850SOL     OW12448   2.269   3.078   0.760
 3850SOL    HW112449   2.348   3.036   0.716
 3850SOL    HW212450   2.295   3.115   0.849
 3851SOL     OW12451   1.053   4.405   2.219
 3851SOL    HW112452   1.053   4.344   2.140
 3851SOL    HW212453   1.142   4.450   2.226
 3852SOL     OW12454   3.999   6.458   3.854
 3852SOL    HW112455   4.038   6.410   3.775
 3852SOL    HW212456   3.900   6.456   3.849
 3853SOL     OW12457   1.113   4.091   3.421
 3853SOL    HW112458   1.067   4.175   3.392
 3853SOL    HW212459   1.112   4.086   3.521
 3854SOL     OW12460   1.912   3.069   2.372
 3854SOL    HW112461   1.833   3.113   2.415
 3854SOL    HW212462   1.960   3.014   2.439
 3855SOL     OW12463   5.136   6.605   6.502
 3855SOL    HW112464   5.053   6.661   6.510
 3855SOL    HW212465   5.209   6.646   6.556
 3856SOL     OW12466   0.236   0.136   5.738
 3856SOL    HW112467   0.318   0.193   5.727
 3856SOL    HW212468   0.235   0.095   5.829
 3857SOL     OW12469   0.513   5.957   6.823
 3857SOL    HW112470   0.427   5.981   6.866
 3857SOL    HW212471   0.529   5.859   6.830
 3858SOL     OW12472   1.510   6.576   5.726
 3858SOL    HW112473   1.424   6.545   5.686
 3858SOL    HW212474   1.492   6.647   5.793
 3859SOL     OW12475   6.634   1.806   2.888
 3859SOL    HW112476   6.637   1.717   2.842
 3859SOL    HW212477   6.538   1.834   2.899
 3860SOL     OW12478   2.469   0.452   5.591
 3860SOL    HW112479   2.410   0.520   5.633
 3860SOL    HW212480   2.415   0.374   5.561
 3861SOL     OW12481   4.676   4.702   3.206
 3861SOL    HW112482   4.643   4.732   3.117
 3861SOL    HW212483   4.716   4.779   3.255
 3862SOL     OW12484   1.206   0.235   5.069
 3862SOL    HW112485   1.290   0.287   5.055
 3862SOL    HW212486   1.226   0.152   5.122
 3863SOL     OW12487   4.548   3.021   6.479
 3863SOL    HW112488   4.583   3.081   6.407
 3863SOL    HW212489   4.623   2.970   6.521
 3864SOL     OW12490   2.282   0.587   5.752
 3864SOL    HW112491   2.319   0.675   5.723
 3864SOL    HW212492   2.184   0.594   5.765
 3865SOL     OW12493   3.392   6.894   6.657
 3865SOL    HW112494   3.475   6.947   6.676
 3865SOL    HW212495   3.321   6.919   6.722
 3866SOL     OW12496   3.838   1.005   2.011
 3866SOL    HW112497   3.851   1.033   2.106
 3866SOL    HW212498   3.825   1.086   1.954
 3867SOL     OW12499   1.458   4.351   4.154
 3867SOL    HW112500   1.539   4.308   4.115
 3867SOL    HW212501   1.469   4.357   4.254
 3868SOL     OW12502   3.518   6.717   6.936
 3868SOL    HW112503   3.607   6.719   6.982
 3868SOL    HW212504   3.488   6.810   6.916
 3869SOL     OW12505   5.994   3.937   5.183
 3869SOL    HW112506   6.041   3.854   5.152
 3869SOL    HW212507   5.979   3.998   5.105
 3870SOL     OW12508   4.194   5.684   6.937
 3870SOL    HW112509   4.286   5.725   6.942
 3870SOL    HW212510   4.138   5.721   7.011
 3871SOL     OW12511   3.787   0.494   2.932
 3871SOL    HW112512   3.885   0.477   2.929
 3871SOL    HW212513   3.758   0.537   2.847
 3872SOL     OW12514   3.539   3.197   2.951
 3872SOL    HW112515   3.504   3.244   3.032
 3872SOL    HW212516   3.598   3.122   2.979
 3873SOL     OW12517   5.671   3.148   2.036
 3873SOL    HW112518   5.592   3.098   2.072
 3873SOL    HW212519   5.649   3.246   2.031
 3874SOL     OW12520   3.889   5.861   6.560
 3874SOL    HW112521   3.987   5.879   6.570
 3874SOL    HW212522   3.872   5.763   6.569
 3875SOL     OW12523   1.715   2.580   1.677
 3875SOL    HW112524   1.790   2.638   1.710
 3875SOL    HW212525   1.673   2.533   1.755
 3876SOL     OW12526   5.056   5.152   0.694
 3876SOL    HW112527   5.085   5.057   0.682
 3876SOL    HW212528   5.121   5.213   0.649
 3877SOL     OW12529   6.917   2.884   0.080
 3877SOL    HW112530   6.942   2.824   0.156
 3877SOL    HW212531   6.854   2.836   0.019
 3878SOL     OW12532   2.776   6.585   4.574
 3878SOL    HW112533   2.786   6.680   4.604
 3878SOL    HW212534   2.783   6.524   4.653
 3879SOL     OW12535   4.707   6.144   1.560
 3879SOL    HW112536   4.618   6.118   1.523
 3879SOL    HW212537   4.694   6.189   1.649
 3880SOL     OW12538   6.390   4.830   3.594
 3880SOL    HW112539   6.334   4.906   3.561
 3880SOL    HW212540   6.364   4.747   3.545
 3881SOL     OW12541   1.136   4.406   0.787
 3881SOL    HW112542   1.233   4.414   0.809
 3881SOL    HW212543   1.090   4.493   0.805
 3882SOL     OW12544   0.668   1.754   4.588
 3882SOL    HW112545   0.633   1.821   4.522
 3882SOL    HW212546   0.594   1.691   4.614
 3883SOL     OW12547   4.130   0.836   3.680
 3883SOL    HW112548   4.200   0.879   3.737
 3883SOL    HW212549   4.072   0.906   3.638
 3884SOL     OW12550   1.162   5.392   3.526
 3884SOL    HW112551   1.254   5.424   3.505
 3884SOL    HW212552   1.101   5.410   3.449
 3885SOL     OW12553   6.321   0.446   2.918
 3885SOL    HW112554   6.334   0.401   2.830
 3885SOL    HW212555   6.224   0.444   2.942
 3886SOL     OW12556   6.558   6.148   4.840
 3886SOL    HW112557   6.530   6.235   4.800
 3886SOL    HW212558   6.536   6.074   4.776
 3887SOL     OW12559   6.887   1.190   6.162
 3887SOL    HW112560   6.968   1.243   6.187
 3887SOL    HW212561   6.819   1.250   6.120
 3888SOL     OW12562   1.005   0.366   6.678
 3888SOL    HW112563   0.995   0.464   6.658
 3888SOL    HW212564   1.068   0.354   6.755
 3889SOL     OW12565   6.412   3.271   6.517
 3889SOL    HW112566   6.455   3.361   6.520
 3889SOL    HW212567   6.329   3.276   6.461
 3890SOL     OW12568   5.939   5.763   2.679
 3890SOL    HW112569   5.936   5.863   2.671
 3890SOL    HW212570   6.034   5.733   2.686
 3891SOL     OW12571   5.493   4.675   4.041
 3891SOL    HW112572   5.465   4.770   4.055
 3891SOL    HW212573   5.565   4.652   4.106
 3892SOL     OW12574   0.283   2.183   1.465
 3892SOL    HW112575   0.208   2.202   1.529
 3892SOL    HW212576   0.266   2.096   1.419
 3893SOL     OW12577   3.224   5.595   1.350
 3893SOL    HW112578   3.210   5.691   1.327
 3893SOL    HW212579   3.322   5.574   1.348
 3894SOL     OW12580   2.627   1.672   1.203
 3894SOL    HW112581   2.646   1.770   1.190
 3894SOL    HW212582   2.700   1.619   1.159
 3895SOL     OW12583   1.441   0.318   5.550
 3895SOL    HW112584   1.412   0.228   5.516
 3895SOL    HW212585   1.465   0.376   5.473
 3896SOL     OW12586   0.280   2.065   6.401
 3896SOL    HW112587   0.192   2.026   6.374
 3896SOL    HW212588   0.345   1.992   6.421
 3897SOL     OW12589   3.434   6.719   2.162
 3897SOL    HW112590   3.368   6.742   2.233
 3897SOL    HW212591   3.431   6.620   2.145
 3898SOL     OW12592   3.385   3.754   4.127
 3898SOL    HW112593   3.470   3.785   4.169
 3898SOL    HW212594   3.321   3.725   4.198
 3899SOL     OW12595   4.993   0.842   4.249
 3899SOL    HW112596   4.956   0.903   4.319
 3899SOL    HW212597   4.920   0.810   4.190
 3900SOL     OW12598   5.250   2.602   3.729
 3900SOL    HW112599   5.190   2.572   3.655
 3900SOL    HW212600   5.198   2.657   3.795
 3901SOL     OW12601   3.244   6.122   5.816
 3901SOL    HW112602   3.205   6.133   5.725
 3901SOL    HW212603   3.259   6.025   5.834
 3902SOL     OW12604   5.928   3.665   1.728
 3902SOL    HW112605   5.986   3.689   1.806
 3902SOL    HW212606   5.971   3.590   1.677
 3903SOL     OW12607   4.793   4.451   6.679
 3903SOL    HW112608   4.840   4.529   6.639
 3903SOL    HW212609   4.859   4.389   6.722
 3904SOL     OW12610   2.201   6.534   5.763
 3904SOL    HW112611   2.204   6.628   5.728
 3904SOL    HW212612   2.115   6.520   5.812
 3905SOL     OW12613   5.724   6.706   5.976
 3905SOL    HW112614   5.671   6.749   5.903
 3905SOL    HW212615   5.695   6.742   6.065
 3906SOL     OW12616   1.804   5.562   5.466
 3906SOL    HW112617   1.866   5.638   5.486
 3906SOL    HW212618   1.710   5.596   5.462
 3907SOL     OW12619   6.276   6.912   4.028
 3907SOL    HW112620   6.375   6.912   4.038
 3907SOL    HW212621   6.235   6.965   4.102
 3908SOL     OW12622   1.659   0.928   6.724
 3908SOL    HW112623   1.673   0.965   6.815
 3908SOL    HW212624   1.591   0.983   6.675
 3909SOL     OW12625   6.911   4.531   6.544
 3909SOL    HW112626   6.888   4.532   6.642
 3909SOL    HW212627   6.884   4.443   6.505
 3910SOL     OW12628   3.713   3.964   1.837
 3910SOL    HW112629   3.734   3.957   1.739
 3910SOL    HW212630   3.627   4.012   1.850
 3911SOL     OW12631   4.815   1.477   6.976
 3911SOL    HW112632   4.809   1.432   6.887
 3911SOL    HW212633   4.730   1.463   0.005
 3912SOL     OW12634   3.629   1.567   6.434
 3912SOL    HW112635   3.591   1.625   6.362
 3912SOL    HW212636   3.728   1.563   6.423
 3913SOL     OW12637   2.959   6.481   6.739
 3913SOL    HW112638   2.886   6.517   6.796
 3913SOL    HW212639   2.941   6.384   6.719
 3914SOL     OW12640   4.979   0.424   1.247
 3914SOL    HW112641   4.882   0.411   1.267
 3914SOL    HW212642   5.018   0.488   1.313
 3915SOL     OW12643   4.277   6.321   0.658
 3915SOL    HW112644   4.180   6.295   0.668
 3915SOL    HW212645   4.284   6.395   0.592
 3916SOL     OW12646   2.053   6.665   2.419
 3916SOL    HW112647   2.099   6.618   2.345
 3916SOL    HW212648   1.954   6.668   2.401
 3917SOL     OW12649   1.462   4.351   1.102
 3917SOL    HW112650   1.485   4.414   1.176
 3917SOL    HW212651   1.544   4.300   1.076
 3918SOL     OW12652   4.449   6.332   2.171
 3918SOL    HW112653   4.414   6.356   2.080
 3918SOL    HW212654   4.516   6.258   2.162
 3919SOL     OW12655   3.541   0.355   6.483
 3919SOL    HW112656   3.490   0.441   6.489
 3919SOL    HW212657   3.477   0.281   6.459
 3920SOL     OW12658   2.593   2.085   6.277
 3920SOL    HW112659   2.572   2.064   6.182
 3920SOL    HW212660   2.675   2.035   6.304
 3921SOL     OW12661   6.754   2.788   0.431
 3921SOL    HW112662   6.833   2.759   0.376
 3921SOL    HW212663   6.716   2.709   0.478
 3922SOL     OW12664   4.197   5.373   0.812
 3922SOL    HW112665   4.220   5.467   0.787
 3922SOL    HW212666   4.098   5.360   0.805
 3923SOL     OW12667   6.177   1.976   0.251
 3923SOL    HW112668   6.089   1.935   0.276
 3923SOL    HW212669   6.221   2.012   0.334
 3924SOL     OW12670   0.311   4.670   2.922
 3924SOL    HW112671   0.216   4.640   2.934
 3924SOL    HW212672   0.367   4.592   2.895
 3925SOL     OW12673   4.148   4.539   0.894
 3925SOL    HW112674   4.179   4.450   0.862
 3925SOL    HW212675   4.049   4.537   0.911
 3926SOL     OW12676   0.169   0.199   4.543
 3926SOL    HW112677   0.116   0.142   4.606
 3926SOL    HW212678   0.266   0.174   4.548
 3927SOL     OW12679   0.028   2.340   4.564
 3927SOL    HW112680   0.080   2.358   4.648
 3927SOL    HW212681   0.039   2.244   4.538
 3928SOL     OW12682   3.854   5.641   4.252
 3928SOL    HW112683   3.917   5.657   4.176
 3928SOL    HW212684   3.887   5.564   4.307
 3929SOL     OW12685   6.662   1.545   6.745
 3929SOL    HW112686   6.667   1.638   6.708
 3929SOL    HW212687   6.695   1.480   6.677
 3930SOL     OW12688   1.041   2.189   3.490
 3930SOL    HW112689   0.988   2.256   3.541
 3930SOL    HW212690   0.980   2.129   3.438
 3931SOL     OW12691   1.756   1.514   2.052
 3931SOL    HW112692   1.768   1.578   2.128
 3931SOL    HW212693   1.768   1.562   1.966
 3932SOL     OW12694   1.707   4.275   4.017
 3932SOL    HW112695   1.786   4.236   3.970
 3932SOL    HW212696   1.737   4.351   4.075
 3933SOL     OW12697   1.475   6.780   0.301
 3933SOL    HW112698   1.460   6.853   0.234
 3933SOL    HW212699   1.395   6.719   0.302
 3934SOL     OW12700   0.245   1.115   2.476
 3934SOL    HW112701   0.166   1.140   2.420
 3934SOL    HW212702   0.267   1.190   2.539
 3935SOL     OW12703   1.267   1.067   5.798
 3935SOL    HW112704   1.244   1.144   5.857
 3935SOL    HW212705   1.344   1.017   5.838
 3936SOL     OW12706   6.654   6.303   5.455
 3936SOL    HW112707   6.584   6.258   5.510
 3936SOL    HW212708   6.670   6.250   5.372
 3937SOL     OW12709   6.869   6.562   2.329
 3937SOL    HW112710   6.825   6.637   2.378
 3937SOL    HW212711   6.916   6.598   2.248
 3938SOL     OW12712   6.237   3.453   4.260
 3938SOL    HW112713   6.238   3.521   4.334
 3938SOL    HW212714   6.246   3.362   4.299
 3939SOL     OW12715   2.555   1.811   3.385
 3939SOL    HW112716   2.578   1.799   3.288
 3939SOL    HW212717   2.458   1.834   3.393
 3940SOL     OW12718   2.952   4.877   2.032
 3940SOL    HW112719   3.052   4.873   2.035
 3940SOL    HW212720   2.915   4.785   2.048
 3941SOL     OW12721   5.983   0.477   4.675
 3941SOL    HW112722   5.951   0.463   4.769
 3941SOL    HW212723   6.077   0.445   4.667
 3942SOL     OW12724   0.850   6.256   5.585
 3942SOL    HW112725   0.832   6.308   5.669
 3942SOL    HW212726   0.877   6.163   5.608
 3943SOL     OW12727   0.089   3.173   2.391
 3943SOL    HW112728   0.025   3.124   2.332
 3943SOL    HW212729   0.110   3.117   2.472
 3944SOL     OW12730   5.679   3.879   5.647
 3944SOL    HW112731   5.687   3.933   5.732
 3944SOL    HW212732   5.760   3.822   5.636
 3945SOL     OW12733   0.841   2.266   2.615
 3945SOL    HW112734   0.790   2.293   2.533
 3945SOL    HW212735   0.902   2.341   2.641
 3946SOL     OW12736   7.006   3.807   6.359
 3946SOL    HW112737   6.956   3.739   6.305
 3946SOL    HW212738   0.067   3.766   6.396
 3947SOL     OW12739   5.575   5.554   0.815
 3947SOL    HW112740   5.620   5.564   0.904
 3947SOL    HW212741   5.560   5.644   0.775
 3948SOL     OW12742   1.082   4.543   0.182
 3948SOL    HW112743   1.117   4.483   0.110
 3948SOL    HW212744   1.136   4.627   0.186
 3949SOL     OW12745   5.817   6.650   2.875
 3949SOL    HW112746   5.806   6.711   2.954
 3949SOL    HW212747   5.915   6.631   2.862
 3950SOL     OW12748   3.784   4.168   1.521
 3950SOL    HW112749   3.811   4.213   1.436
 3950SOL    HW212750   3.770   4.237   1.592
 3951SOL     OW12751   0.675   1.028   0.175
 3951SOL    HW112752   0.678   0.969   0.256
 3951SOL    HW212753   0.580   1.053   0.155
 3952SOL     OW12754   6.192   3.492   4.989
 3952SOL    HW112755   6.248   3.448   5.059
 3952SOL    HW212756   6.095   3.478   5.010
 3953SOL     OW12757   3.944   4.194   6.737
 3953SOL    HW112758   3.930   4.238   6.825
 3953SOL    HW212759   3.868   4.216   6.675
 3954SOL     OW12760   5.675   4.903   5.180
 3954SOL    HW112761   5.768   4.899   5.216
 3954SOL    HW212762   5.666   4.982   5.120
 3955SOL     OW12763   4.829   6.894   6.742
 3955SOL    HW112764   4.732   6.885   6.719
 3955SOL    HW212765   4.838   6.947   6.827
 3956SOL     OW12766   1.333   1.935   4.736
 3956SOL    HW112767   1.363   2.015   4.684
 3956SOL    HW212768   1.267   1.883   4.682
 3957SOL     OW12769   4.579   6.836   3.518
 3957SOL    HW112770   4.481   6.828   3.536
 3957SOL    HW212771   4.597   6.823   3.421
 3958SOL     OW12772   5.775   6.874   6.370
 3958SOL    HW112773   5.691   6.914   6.334
 3958SOL    HW212774   5.813   6.935   6.440
 3959SOL     OW12775   3.260   6.529   1.069
 3959SOL    HW112776   3.339   6.474   1.043
 3959SOL    HW212777   3.286   6.625   1.076
 3960SOL     OW12778   5.905   2.492   6.345
 3960SOL    HW112779   5.897   2.426   6.270
 3960SOL    HW212780   5.961   2.452   6.418
 3961SOL     OW12781   5.603   2.400   2.258
 3961SOL    HW112782   5.556   2.479   2.298
 3961SOL    HW212783   5.579   2.317   2.308
 3962SOL     OW12784   1.280   5.647   0.010
 3962SOL    HW112785   1.227   5.565   7.010
 3962SOL    HW212786   1.228   5.729   7.006
 3963SOL     OW12787   5.494   4.378   3.509
 3963SOL    HW112788   5.444   4.440   3.449
 3963SOL    HW212789   5.457   4.384   3.602
 3964SOL     OW12790   4.428   4.653   4.703
 3964SOL    HW112791   4.417   4.597   4.786
 3964SOL    HW212792   4.346   4.707   4.688
 3965SOL     OW12793   4.097   4.153   6.051
 3965SOL    HW112794   4.018   4.202   6.013
 3965SOL    HW212795   4.066   4.089   6.121
 3966SOL     OW12796   6.669   5.048   0.047
 3966SOL    HW112797   6.584   4.997   0.063
 3966SOL    HW212798   6.738   5.020   0.113
 3967SOL     OW12799   1.412   4.525   2.709
 3967SOL    HW112800   1.424   4.578   2.793
 3967SOL    HW212801   1.327   4.552   2.664
 3968SOL     OW12802   6.451   0.503   0.924
 3968SOL    HW112803   6.515   0.430   0.949
 3968SOL    HW212804   6.426   0.493   0.828
 3969SOL     OW12805   0.420   3.876   3.017
 3969SOL    HW112806   0.518   3.853   3.023
 3969SOL    HW212807   0.370   3.823   3.086
 3970SOL     OW12808   4.658   4.963   3.312
 3970SOL    HW112809   4.667   5.060   3.335
 3970SOL    HW212810   4.628   4.953   3.217
 3971SOL     OW12811   2.389   4.702   2.468
 3971SOL    HW112812   2.381   4.736   2.561
 3971SOL    HW212813   2.407   4.779   2.406
 3972SOL     OW12814   1.558   5.579   1.768
 3972SOL    HW112815   1.524   5.617   1.683
 3972SOL    HW212816   1.568   5.652   1.836
 3973SOL     OW12817   2.423   3.718   5.368
 3973SOL    HW112818   2.451   3.813   5.380
 3973SOL    HW212819   2.498   3.658   5.392
 3974SOL     OW12820   1.865   0.861   5.589
 3974SOL    HW112821   1.872   0.927   5.515
 3974SOL    HW212822   1.816   0.780   5.557
 3975SOL     OW12823   5.874   0.126   6.557
 3975SOL    HW112824   5.944   0.140   6.486
 3975SOL    HW212825   5.916   0.084   6.637
 3976SOL     OW12826   2.048   4.947   0.950
 3976SOL    HW112827   2.000   5.027   0.915
 3976SOL    HW212828   2.077   4.964   1.044
 3977SOL     OW12829   3.417   4.845   5.527
 3977SOL    HW112830   3.318   4.844   5.537
 3977SOL    HW212831   3.460   4.842   5.618
 3978SOL     OW12832   5.697   0.697   4.765
 3978SOL    HW112833   5.695   0.673   4.862
 3978SOL    HW212834   5.774   0.758   4.747
 3979SOL     OW12835   2.708   5.940   1.498
 3979SOL    HW112836   2.723   5.903   1.589
 3979SOL    HW212837   2.636   5.888   1.452
 3980SOL     OW12838   0.253   4.519   5.745
 3980SOL    HW112839   0.290   4.586   5.809
 3980SOL    HW212840   0.220   4.439   5.796
 3981SOL     OW12841   1.648   2.031   6.428
 3981SOL    HW112842   1.620   2.124   6.453
 3981SOL    HW212843   1.569   1.982   6.391
 3982SOL     OW12844   2.761   0.507   4.004
 3982SOL    HW112845   2.675   0.534   3.960
 3982SOL    HW212846   2.827   0.481   3.934
 3983SOL     OW12847   3.136   5.853   4.555
 3983SOL    HW112848   3.095   5.944   4.548
 3983SOL    HW212849   3.218   5.848   4.499
 3984SOL     OW12850   2.056   0.525   1.924
 3984SOL    HW112851   2.155   0.525   1.913
 3984SOL    HW212852   2.027   0.438   1.964
 3985SOL     OW12853   2.513   4.399   0.356
 3985SOL    HW112854   2.577   4.439   0.422
 3985SOL    HW212855   2.424   4.443   0.366
 3986SOL     OW12856   6.872   1.157   3.242
 3986SOL    HW112857   6.956   1.213   3.245
 3986SOL    HW212858   6.806   1.201   3.181
 3987SOL     OW12859   1.468   5.376   4.966
 3987SOL    HW112860   1.545   5.433   4.940
 3987SOL    HW212861   1.448   5.311   4.892
 3988SOL     OW12862   3.526   2.706   5.477
 3988SOL    HW112863   3.509   2.749   5.566
 3988SOL    HW212864   3.587   2.627   5.489
 3989SOL     OW12865   6.454   1.258   0.177
 3989SOL    HW112866   6.438   1.355   0.198
 3989SOL    HW212867   6.396   1.230   0.101
 3990SOL     OW12868   6.001   1.593   4.033
 3990SOL    HW112869   5.979   1.609   3.937
 3990SOL    HW212870   6.000   1.494   4.050
 3991SOL     OW12871   6.433   1.940   2.550
 3991SOL    HW112872   6.421   1.945   2.451
 3991SOL    HW212873   6.530   1.946   2.572
 3992SOL     OW12874   4.277   2.220   6.235
 3992SOL    HW112875   4.338   2.199   6.311
 3992SOL    HW212876   4.246   2.315   6.243
 3993SOL     OW12877   1.290   2.021   3.304
 3993SOL    HW112878   1.207   1.984   3.348
 3993SOL    HW212879   1.302   1.978   3.214
 3994SOL     OW12880   1.484   2.872   5.319
 3994SOL    HW112881   1.485   2.888   5.220
 3994SOL    HW212882   1.576   2.887   5.356
 3995SOL     OW12883   2.088   3.727   4.270
 3995SOL    HW112884   2.053   3.688   4.356
 3995SOL    HW212885   2.104   3.653   4.205
 3996SOL     OW12886   1.503   0.768   5.292
 3996SOL    HW112887   1.524   0.848   5.349
 3996SOL    HW212888   1.483   0.798   5.198
 3997SOL     OW12889   4.845   3.078   3.161
 3997SOL    HW112890   4.917   3.115   3.101
 3997SOL    HW212891   4.837   3.134   3.243
 3998SOL     OW12892   4.906   1.685   2.146
 3998SOL    HW112893   4.848   1.642   2.216
 3998SOL    HW212894   4.883   1.782   2.140
 3999SOL     OW12895   5.547   3.533   3.610
 3999SOL    HW112896   5.479   3.499   3.675
 3999SOL    HW212897   5.639   3.521   3.648
 4000SOL     OW12898   3.468   5.792   2.631
 4000SOL    HW112899   3.492   5.754   2.541
 4000SOL    HW212900   3.542   5.850   2.663
 4001SOL     OW12901   2.128   2.653   4.934
 4001SOL    HW112902   2.118   2.683   4.839
 4001SOL    HW212903   2.203   2.587   4.939
 4002SOL     OW12904   3.116   3.068   6.507
 4002SOL    HW112905   3.181   3.074   6.432
 4002SOL    HW212906   3.158   3.019   6.584
 4003SOL     OW12907   2.540   0.176   5.922
 4003SOL    HW112908   2.566   0.224   6.005
 4003SOL    HW212909   2.547   0.077   5.937
 4004SOL     OW12910   6.061   2.830   4.186
 4004SOL    HW112911   5.972   2.875   4.175
 4004SOL    HW212912   6.114   2.842   4.102
 4005SOL     OW12913   5.465   5.199   1.001
 4005SOL    HW112914   5.458   5.174   1.098
 4005SOL    HW212915   5.529   5.137   0.956
 4006SOL     OW12916   4.563   4.939   2.026
 4006SOL    HW112917   4.493   4.882   2.069
 4006SOL    HW212918   4.620   4.981   2.097
 4007SOL     OW12919   0.960   2.582   1.729
 4007SOL    HW112920   0.931   2.505   1.672
 4007SOL    HW212921   0.984   2.659   1.669
 4008SOL     OW12922   3.873   1.736   5.260
 4008SOL    HW112923   3.808   1.710   5.333
 4008SOL    HW212924   3.953   1.780   5.301
 4009SOL     OW12925   4.405   2.788   0.561
 4009SOL    HW112926   4.494   2.750   0.534
 4009SOL    HW212927   4.412   2.828   0.652
 4010SOL     OW12928   1.918   3.475   1.202
 4010SOL    HW112929   1.836   3.419   1.213
 4010SOL    HW212930   1.966   3.480   1.290
 4011SOL     OW12931   1.214   6.470   1.787
 4011SOL    HW112932   1.253   6.416   1.862
 4011SOL    HW212933   1.157   6.542   1.824
 4012SOL     OW12934   4.494   4.995   1.738
 4012SOL    HW112935   4.515   5.010   1.834
 4012SOL    HW212936   4.398   4.970   1.727
 4013SOL     OW12937   2.957   0.430   0.773
 4013SOL    HW112938   2.877   0.391   0.818
 4013SOL    HW212939   3.039   0.380   0.800
 4014SOL     OW12940   4.207   5.432   3.715
 4014SOL    HW112941   4.199   5.333   3.702
 4014SOL    HW212942   4.144   5.479   3.654
 4015SOL     OW12943   4.486   5.173   6.375
 4015SOL    HW112944   4.491   5.122   6.289
 4015SOL    HW212945   4.424   5.251   6.364
 4016SOL     OW12946   0.922   5.256   6.768
 4016SOL    HW112947   1.008   5.228   6.724
 4016SOL    HW212948   0.932   5.348   6.805
 4017SOL     OW12949   0.771   6.438   0.288
 4017SOL    HW112950   0.747   6.534   0.282
 4017SOL    HW212951   0.767   6.396   0.197
 4018SOL     OW12952   6.146   6.466   1.846
 4018SOL    HW112953   6.060   6.451   1.895
 4018SOL    HW212954   6.222   6.435   1.903
 4019SOL     OW12955   6.341   3.835   2.225
 4019SOL    HW112956   6.432   3.841   2.267
 4019SOL    HW212957   6.345   3.874   2.133
 4020SOL     OW12958   6.525   2.644   5.745
 4020SOL    HW112959   6.476   2.607   5.824
 4020SOL    HW212960   6.548   2.740   5.761
 4021SOL     OW12961   3.170   3.904   5.348
 4021SOL    HW112962   3.235   3.958   5.294
 4021SOL    HW212963   3.179   3.807   5.323
 4022SOL     OW12964   4.580   0.342   6.532
 4022SOL    HW112965   4.622   0.307   6.448
 4022SOL    HW212966   4.549   0.265   6.588
 4023SOL     OW12967   6.950   0.391   4.427
 4023SOL    HW112968   6.931   0.479   4.470
 4023SOL    HW212969   0.003   0.346   4.475
 4024SOL     OW12970   3.147   5.228   4.124
 4024SOL    HW112971   3.078   5.241   4.053
 4024SOL    HW212972   3.159   5.314   4.174
 4025SOL     OW12973   6.919   6.153   4.554
 4025SOL    HW112974   6.864   6.074   4.527
 4025SOL    HW212975   6.937   6.149   4.653
 4026SOL     OW12976   6.113   0.090   3.220
 4026SOL    HW112977   6.081   0.013   3.165
 4026SOL    HW212978   6.036   0.150   3.241
 4027SOL     OW12979   2.572   2.309   1.408
 4027SOL    HW112980   2.557   2.233   1.471
 4027SOL    HW212981   2.566   2.276   1.314
 4028SOL     OW12982   2.721   2.229   2.822
 4028SOL    HW112983   2.648   2.162   2.836
 4028SOL    HW212984   2.682   2.318   2.798
 4029SOL     OW12985   2.952   4.772   5.973
 4029SOL    HW112986   2.900   4.688   5.956
 4029SOL    HW212987   2.911   4.822   6.049
 4030SOL     OW12988   1.073   1.664   1.039
 4030SOL    HW112989   1.072   1.580   1.093
 4030SOL    HW212990   1.109   1.645   0.947
 4031SOL     OW12991   5.211   6.584   3.410
 4031SOL    HW112992   5.138   6.593   3.477
 4031SOL    HW212993   5.179   6.612   3.320
 4032SOL     OW12994   6.346   0.095   2.584
 4032SOL    HW112995   6.429   0.052   2.547
 4032SOL    HW212996   6.371   0.151   2.663
 4033SOL     OW12997   2.949   3.772   1.824
 4033SOL    HW112998   3.021   3.750   1.758
 4033SOL    HW212999   2.889   3.842   1.786
 4034SOL     OW13000   6.872   1.540   4.407
 4034SOL    HW113001   6.832   1.459   4.363
 4034SOL    HW213002   6.807   1.576   4.475
 4035SOL     OW13003   6.104   2.575   0.892
 4035SOL    HW113004   6.154   2.661   0.883
 4035SOL    HW213005   6.018   2.581   0.842
 4036SOL     OW13006   4.905   6.513   2.560
 4036SOL    HW113007   4.971   6.571   2.607
 4036SOL    HW213008   4.869   6.445   2.624
 4037SOL     OW13009   2.542   0.928   0.880
 4037SOL    HW113010   2.552   0.830   0.894
 4037SOL    HW213011   2.606   0.959   0.809
 4038SOL     OW13012   4.375   4.054   1.639
 4038SOL    HW113013   4.409   4.096   1.555
 4038SOL    HW213014   4.407   4.106   1.718
 4039SOL     OW13015   4.734   4.263   1.535
 4039SOL    HW113016   4.656   4.230   1.483
 4039SOL    HW213017   4.738   4.216   1.623
 4040SOL     OW13018   3.723   6.987   5.778
 4040SOL    HW113019   3.800   0.003   5.828
 4040SOL    HW213020   3.677   0.038   5.727
 4041SOL     OW13021   1.819   5.069   1.229
 4041SOL    HW113022   1.800   5.149   1.286
 4041SOL    HW213023   1.918   5.053   1.226
 4042SOL     OW13024   6.513   5.369   3.086
 4042SOL    HW113025   6.424   5.397   3.122
 4042SOL    HW213026   6.585   5.428   3.123
 4043SOL     OW13027   5.036   1.699   4.167
 4043SOL    HW113028   5.106   1.770   4.155
 4043SOL    HW213029   4.994   1.709   4.257
 4044SOL     OW13030   4.805   0.141   3.423
 4044SOL    HW113031   4.741   0.179   3.356
 4044SOL    HW213032   4.755   0.094   3.495
 4045SOL     OW13033   2.818   5.375   5.926
 4045SOL    HW113034   2.731   5.328   5.911
 4045SOL    HW213035   2.887   5.339   5.862
 4046SOL     OW13036   0.924   1.632   3.604
 4046SOL    HW113037   0.963   1.546   3.570
 4046SOL    HW213038   0.997   1.689   3.642
 4047SOL     OW13039   1.341   2.080   0.816
 4047SOL    HW113040   1.277   2.011   0.782
 4047SOL    HW213041   1.394   2.043   0.892
 4048SOL     OW13042   5.311   2.041   2.109
 4048SOL    HW113043   5.246   2.061   2.182
 4048SOL    HW213044   5.334   2.126   2.061
 4049SOL     OW13045   6.286   5.419   5.967
 4049SOL    HW113046   6.211   5.458   6.021
 4049SOL    HW213047   6.308   5.480   5.891
 4050SOL     OW13048   1.172   6.426   0.864
 4050SOL    HW113049   1.103   6.421   0.791
 4050SOL    HW213050   1.186   6.334   0.902
 4051SOL     OW13051   3.700   2.244   6.860
 4051SOL    HW113052   3.718   2.298   6.778
 4051SOL    HW213053   3.783   2.237   6.915
 4052SOL     OW13054   6.774   0.539   2.487
 4052SOL    HW113055   6.840   0.504   2.420
 4052SOL    HW213056   6.817   0.543   2.577
 4053SOL     OW13057   3.523   5.019   4.322
 4053SOL    HW113058   3.452   5.042   4.389
 4053SOL    HW213059   3.483   4.963   4.250
 4054SOL     OW13060   6.863   3.393   2.178
 4054SOL    HW113061   6.935   3.440   2.228
 4054SOL    HW213062   6.881   3.294   2.177
 4055SOL     OW13063   3.491   3.207   6.654
 4055SOL    HW113064   3.420   3.273   6.630
 4055SOL    HW213065   3.581   3.247   6.637
 4056SOL     OW13066   3.743   4.019   0.921
 4056SOL    HW113067   3.670   4.070   0.967
 4056SOL    HW213068   3.728   3.921   0.933
 4057SOL     OW13069   5.482   2.409   1.715
 4057SOL    HW113070   5.487   2.314   1.685
 4057SOL    HW213071   5.535   2.420   1.798
 4058SOL     OW13072   1.869   0.119   3.794
 4058SOL    HW113073   1.786   0.080   3.833
 4058SOL    HW213074   1.857   0.217   3.781
 4059SOL     OW13075   1.167   2.568   3.668
 4059SOL    HW113076   1.151   2.472   3.688
 4059SOL    HW213077   1.183   2.580   3.570
 4060SOL     OW13078   4.851   5.302   4.218
 4060SOL    HW113079   4.753   5.318   4.209
 4060SOL    HW213080   4.870   5.205   4.203
 4061SOL     OW13081   3.178   5.162   1.721
 4061SOL    HW113082   3.140   5.069   1.728
 4061SOL    HW213083   3.118   5.217   1.663
 4062SOL     OW13084   2.310   2.229   2.311
 4062SOL    HW113085   2.246   2.153   2.319
 4062SOL    HW213086   2.335   2.242   2.215
 4063SOL     OW13087   6.041   6.283   5.312
 4063SOL    HW113088   6.112   6.313   5.376
 4063SOL    HW213089   6.065   6.194   5.275
 4064SOL     OW13090   1.713   6.669   3.651
 4064SOL    HW113091   1.688   6.590   3.596
 4064SOL    HW213092   1.676   6.752   3.609
 4065SOL     OW13093   6.892   6.800   0.419
 4065SOL    HW113094   6.954   6.736   0.465
 4065SOL    HW213095   6.923   6.893   0.436
 4066SOL     OW13096   5.536   6.148   2.746
 4066SOL    HW113097   5.519   6.134   2.648
 4066SOL    HW213098   5.632   6.173   2.759
 4067SOL     OW13099   6.381   3.361   3.359
 4067SOL    HW113100   6.315   3.289   3.337
 4067SOL    HW213101   6.469   3.319   3.385
 4068SOL     OW13102   3.019   0.234   4.747
 4068SOL    HW113103   3.114   0.212   4.725
 4068SOL    HW213104   3.014   0.329   4.778
 4069SOL     OW13105   4.007   5.032   6.378
 4069SOL    HW113106   4.083   4.971   6.352
 4069SOL    HW213107   3.957   4.992   6.455
 4070SOL     OW13108   0.276   3.417   2.127
 4070SOL    HW113109   0.375   3.414   2.117
 4070SOL    HW213110   0.238   3.326   2.108
 4071SOL     OW13111   1.163   0.935   5.554
 4071SOL    HW113112   1.231   0.961   5.622
 4071SOL    HW213113   1.204   0.875   5.486
 4072SOL     OW13114   0.710   5.870   3.995
 4072SOL    HW113115   0.624   5.909   4.028
 4072SOL    HW213116   0.772   5.944   3.968
 4073SOL     OW13117   2.690   5.923   6.742
 4073SOL    HW113118   2.703   5.826   6.725
 4073SOL    HW213119   2.762   5.975   6.696
 4074SOL     OW13120   0.237   2.780   1.912
 4074SOL    HW113121   0.143   2.769   1.879
 4074SOL    HW213122   0.276   2.690   1.933
 4075SOL     OW13123   4.134   2.193   2.702
 4075SOL    HW113124   4.064   2.191   2.630
 4075SOL    HW213125   4.137   2.104   2.748
 4076SOL     OW13126   3.376   3.405   5.265
 4076SOL    HW113127   3.386   3.313   5.304
 4076SOL    HW213128   3.414   3.472   5.329
 4077SOL     OW13129   3.388   0.227   0.071
 4077SOL    HW113130   3.487   0.220   0.083
 4077SOL    HW213131   3.368   0.263   7.002
 4078SOL     OW13132   6.270   5.639   1.971
 4078SOL    HW113133   6.208   5.705   2.012
 4078SOL    HW213134   6.299   5.572   2.040
 4079SOL     OW13135   0.461   1.673   3.689
 4079SOL    HW113136   0.535   1.700   3.751
 4079SOL    HW213137   0.386   1.633   3.743
 4080SOL     OW13138   2.645   3.627   6.902
 4080SOL    HW113139   2.620   3.717   6.865
 4080SOL    HW213140   2.578   3.600   6.971
 4081SOL     OW13141   1.889   2.126   3.869
 4081SOL    HW113142   1.898   2.028   3.887
 4081SOL    HW213143   1.799   2.145   3.832
 4082SOL     OW13144   1.359   2.793   1.051
 4082SOL    HW113145   1.315   2.869   1.100
 4082SOL    HW213146   1.290   2.744   0.998
 4083SOL     OW13147   6.471   4.494   1.889
 4083SOL    HW113148   6.391   4.434   1.899
 4083SOL    HW213149   6.542   4.446   1.837
 4084SOL     OW13150   4.466   2.466   2.972
 4084SOL    HW113151   4.425   2.460   3.063
 4084SOL    HW213152   4.494   2.560   2.954
 4085SOL     OW13153   2.815   5.599   0.611
 4085SOL    HW113154   2.882   5.673   0.605
 4085SOL    HW213155   2.724   5.635   0.588
 4086SOL     OW13156   0.193   4.528   1.129
 4086SOL    HW113157   0.218   4.574   1.044
 4086SOL    HW213158   0.250   4.563   1.203
 4087SOL     OW13159   1.491   1.590   3.424
 4087SOL    HW113160   1.459   1.599   3.519
 4087SOL    HW213161   1.591   1.584   3.423
 4088SOL     OW13162   6.489   0.761   6.708
 4088SOL    HW113163   6.393   0.789   6.703
 4088SOL    HW213164   6.544   0.839   6.737
 4089SOL     OW13165   5.979   4.783   3.739
 4089SOL    HW113166   6.048   4.755   3.806
 4089SOL    HW213167   6.009   4.759   3.647
 4090SOL     OW13168   1.328   5.712   5.483
 4090SOL    HW113169   1.364   5.620   5.500
 4090SOL    HW213170   1.381   5.779   5.535
 4091SOL     OW13171   0.778   6.234   0.027
 4091SOL    HW113172   0.796   6.173   6.972
 4091SOL    HW213173   0.850   6.223   0.095
 4092SOL     OW13174   5.693   2.775   4.194
 4092SOL    HW113175   5.732   2.701   4.248
 4092SOL    HW213176   5.765   2.819   4.139
 4093SOL     OW13177   4.870   6.551   1.680
 4093SOL    HW113178   4.793   6.575   1.740
 4093SOL    HW213179   4.873   6.614   1.603
 4094SOL     OW13180   1.493   4.660   5.910
 4094SOL    HW113181   1.436   4.626   5.834
 4094SOL    HW213182   1.568   4.597   5.927
 4095SOL     OW13183   0.424   4.228   0.617
 4095SOL    HW113184   0.521   4.235   0.641
 4095SOL    HW213185   0.368   4.228   0.700
 4096SOL     OW13186   4.984   0.906   6.734
 4096SOL    HW113187   4.981   0.903   6.834
 4096SOL    HW213188   5.079   0.920   6.705
 4097SOL     OW13189   4.654   4.542   4.399
 4097SOL    HW113190   4.697   4.453   4.411
 4097SOL    HW213191   4.725   4.612   4.393
 4098SOL     OW13192   0.818   1.814   2.001
 4098SOL    HW113193   0.786   1.880   1.932
 4098SOL    HW213194   0.861   1.864   2.076
 4099SOL     OW13195   4.185   5.519   1.092
 4099SOL    HW113196   4.125   5.489   1.018
 4099SOL    HW213197   4.278   5.489   1.074
 4100SOL     OW13198   0.351   6.633   4.361
 4100SOL    HW113199   0.322   6.663   4.271
 4100SOL    HW213200   0.308   6.690   4.431
 4101SOL     OW13201   0.424   1.340   0.481
 4101SOL    HW113202   0.509   1.354   0.532
 4101SOL    HW213203   0.387   1.428   0.453
 4102SOL     OW13204   1.333   0.568   0.784
 4102SOL    HW113205   1.344   0.590   0.687
 4102SOL    HW213206   1.399   0.498   0.810
 4103SOL     OW13207   0.681   6.920   0.667
 4103SOL    HW113208   0.623   6.966   0.734
 4103SOL    HW213209   0.691   6.824   0.692
 4104SOL     OW13210   6.956   4.725   3.506
 4104SOL    HW113211   6.983   4.714   3.601
 4104SOL    HW213212   6.929   4.636   3.468
 4105SOL     OW13213   5.599   0.275   2.974
 4105SOL    HW113214   5.641   0.251   3.061
 4105SOL    HW213215   5.666   0.263   2.900
 4106SOL     OW13216   6.908   2.821   3.477
 4106SOL    HW113217   6.949   2.876   3.550
 4106SOL    HW213218   6.897   2.878   3.395
 4107SOL     OW13219   1.504   5.458   1.292
 4107SOL    HW113220   1.412   5.483   1.320
 4107SOL    HW213221   1.544   5.532   1.237
 4108SOL     OW13222   6.534   4.998   4.755
 4108SOL    HW113223   6.474   4.927   4.719
 4108SOL    HW213224   6.525   5.080   4.698
 4109SOL     OW13225   6.510   6.972   4.674
 4109SOL    HW113226   6.584   6.907   4.657
 4109SOL    HW213227   6.429   6.945   4.623
 4110SOL     OW13228   4.440   3.735   5.638
 4110SOL    HW113229   4.433   3.825   5.594
 4110SOL    HW213230   4.397   3.739   5.728
 4111SOL     OW13231   5.617   4.860   6.323
 4111SOL    HW113232   5.563   4.805   6.385
 4111SOL    HW213233   5.690   4.804   6.283
 4112SOL     OW13234   4.923   6.362   4.748
 4112SOL    HW113235   4.964   6.412   4.824
 4112SOL    HW213236   4.823   6.371   4.752
 4113SOL     OW13237   5.869   5.292   4.946
 4113SOL    HW113238   5.882   5.264   5.042
 4113SOL    HW213239   5.774   5.273   4.919
 4114SOL     OW13240   4.011   2.221   4.049
 4114SOL    HW113241   3.912   2.210   4.038
 4114SOL    HW213242   4.030   2.262   4.139
 4115SOL     OW13243   3.124   5.202   2.425
 4115SOL    HW113244   3.172   5.260   2.492
 4115SOL    HW213245   3.154   5.227   2.333
 4116SOL     OW13246   3.749   1.561   2.762
 4116SOL    HW113247   3.759   1.487   2.696
 4116SOL    HW213248   3.651   1.580   2.776
 4117SOL     OW13249   1.234   3.593   2.586
 4117SOL    HW113250   1.293   3.524   2.627
 4117SOL    HW213251   1.165   3.548   2.529
 4118SOL     OW13252   5.033   6.676   0.756
 4118SOL    HW113253   4.980   6.633   0.682
 4118SOL    HW213254   5.074   6.761   0.722
 4119SOL     OW13255   3.112   1.708   3.879
 4119SOL    HW113256   3.099   1.769   3.958
 4119SOL    HW213257   3.042   1.728   3.810
 4120SOL     OW13258   4.051   0.882   5.740
 4120SOL    HW113259   4.014   0.920   5.825
 4120SOL    HW213260   4.030   0.784   5.737
 4121SOL     OW13261   6.513   0.070   3.431
 4121SOL    HW113262   6.590   0.041   3.375
 4121SOL    HW213263   6.507   0.012   3.513
 4122SOL     OW13264   1.451   0.091   4.690
 4122SOL    HW113265   1.460   7.015   4.700
 4122SOL    HW213266   1.535   0.128   4.651
 4123SOL     OW13267   4.369   4.720   5.283
 4123SOL    HW113268   4.423   4.799   5.312
 4123SOL    HW213269   4.328   4.676   5.363
 4124SOL     OW13270   6.453   6.194   0.715
 4124SOL    HW113271   6.519   6.264   0.691
 4124SOL    HW213272   6.468   6.113   0.659
 4125SOL     OW13273   4.475   2.039   2.797
 4125SOL    HW113274   4.494   2.063   2.892
 4125SOL    HW213275   4.376   2.030   2.785
 4126SOL     OW13276   2.026   3.267   3.238
 4126SOL    HW113277   2.010   3.361   3.266
 4126SOL    HW213278   2.012   3.259   3.139
 4127SOL     OW13279   5.680   3.437   5.540
 4127SOL    HW113280   5.615   3.495   5.589
 4127SOL    HW213281   5.675   3.344   5.576
 4128SOL     OW13282   1.055   3.079   1.393
 4128SOL    HW113283   1.015   3.169   1.377
 4128SOL    HW213284   1.127   3.087   1.463
 4129SOL     OW13285   3.402   1.069   6.989
 4129SOL    HW113286   3.327   1.039   0.025
 4129SOL    HW213287   3.413   1.005   6.913
 4130SOL     OW13288   6.449   3.000   1.046
 4130SOL    HW113289   6.369   3.040   1.003
 4130SOL    HW213290   6.495   2.938   0.982
 4131SOL     OW13291   6.950   1.216   3.578
 4131SOL    HW113292   7.005   1.266   3.511
 4131SOL    HW213293   6.871   1.176   3.532
 4132SOL     OW13294   4.900   3.992   3.332
 4132SOL    HW113295   4.961   3.915   3.312
 4132SOL    HW213296   4.848   4.016   3.250
 4133SOL     OW13297   3.289   5.957   1.534
 4133SOL    HW113298   3.388   5.966   1.521
 4133SOL    HW213299   3.245   5.941   1.445
 4134SOL     OW13300   2.499   3.741   1.188
 4134SOL    HW113301   2.438   3.778   1.117
 4134SOL    HW213302   2.555   3.668   1.149
 4135SOL     OW13303   0.465   2.061   2.027
 4135SOL    HW113304   0.437   2.099   1.939
 4135SOL    HW213305   0.550   2.104   2.057
 4136SOL     OW13306   1.029   3.178   2.763
 4136SOL    HW113307   0.998   3.273   2.772
 4136SOL    HW213308   0.996   3.125   2.841
 4137SOL     OW13309   1.610   3.786   1.320
 4137SOL    HW113310   1.625   3.789   1.419
 4137SOL    HW213311   1.553   3.864   1.293
 4138SOL     OW13312   4.204   5.637   2.540
 4138SOL    HW113313   4.191   5.725   2.493
 4138SOL    HW213314   4.243   5.654   2.631
 4139SOL     OW13315   1.685   1.958   5.264
 4139SOL    HW113316   1.657   2.022   5.193
 4139SOL    HW213317   1.658   1.865   5.239
 4140SOL     OW13318   3.278   0.704   5.124
 4140SOL    HW113319   3.260   0.679   5.028
 4140SOL    HW213320   3.340   0.637   5.164
 4141SOL     OW13321   5.059   6.308   1.269
 4141SOL    HW113322   5.078   6.332   1.365
 4141SOL    HW213323   5.145   6.307   1.218
 4142SOL     OW13324   6.468   5.085   0.985
 4142SOL    HW113325   6.408   5.131   1.049
 4142SOL    HW213326   6.536   5.149   0.949
 4143SOL     OW13327   5.595   2.217   0.977
 4143SOL    HW113328   5.565   2.188   0.886
 4143SOL    HW213329   5.515   2.234   1.034
 4144SOL     OW13330   5.079   1.543   6.934
 4144SOL    HW113331   4.983   1.525   6.955
 4144SOL    HW213332   5.085   1.611   6.860
 4145SOL     OW13333   0.385   6.557   1.333
 4145SOL    HW113334   0.332   6.537   1.250
 4145SOL    HW213335   0.435   6.643   1.320
 4146SOL     OW13336   6.056   0.343   2.986
 4146SOL    HW113337   5.970   0.395   2.990
 4146SOL    HW213338   6.040   0.257   2.937
 4147SOL     OW13339   4.964   5.121   6.045
 4147SOL    HW113340   5.057   5.104   6.014
 4147SOL    HW213341   4.920   5.034   6.069
 4148SOL     OW13342   2.202   0.438   4.433
 4148SOL    HW113343   2.302   0.449   4.438
 4148SOL    HW213344   2.179   0.341   4.437
 4149SOL     OW13345   0.066   4.246   1.333
 4149SOL    HW113346   0.039   4.277   1.242
 4149SOL    HW213347   0.024   4.158   1.352
 4150SOL     OW13348   1.385   0.244   5.970
 4150SOL    HW113349   1.478   0.208   5.971
 4150SOL    HW213350   1.377   0.315   5.900
 4151SOL     OW13351   3.393   5.952   5.560
 4151SOL    HW113352   3.352   5.863   5.579
 4151SOL    HW213353   3.322   6.016   5.531
 4152SOL     OW13354   4.175   6.016   1.453
 4152SOL    HW113355   4.226   5.930   1.441
 4152SOL    HW213356   4.078   5.995   1.469
 4153SOL     OW13357   5.758   5.196   0.652
 4153SOL    HW113358   5.808   5.172   0.568
 4153SOL    HW213359   5.735   5.293   0.651
 4154SOL     OW13360   6.852   5.044   3.762
 4154SOL    HW113361   6.825   4.958   3.721
 4154SOL    HW213362   6.783   5.114   3.742
 4155SOL     OW13363   0.377   1.255   2.138
 4155SOL    HW113364   0.418   1.246   2.229
 4155SOL    HW213365   0.436   1.311   2.080
 4156SOL     OW13366   5.985   6.205   4.947
 4156SOL    HW113367   5.910   6.212   4.881
 4156SOL    HW213368   5.976   6.277   5.015
 4157SOL     OW13369   4.879   5.748   3.902
 4157SOL    HW113370   4.892   5.830   3.958
 4157SOL    HW213371   4.948   5.747   3.830
 4158SOL     OW13372   0.395   3.123   1.633
 4158SOL    HW113373   0.337   3.088   1.706
 4158SOL    HW213374   0.368   3.218   1.612
 4159SOL     OW13375   2.100   2.999   2.926
 4159SOL    HW113376   2.089   3.097   2.943
 4159SOL    HW213377   2.142   2.957   3.007
 4160SOL     OW13378   5.825   1.192   0.679
 4160SOL    HW113379   5.913   1.183   0.634
 4160SOL    HW213380   5.836   1.247   0.763
 4161SOL     OW13381   1.006   2.071   0.878
 4161SOL    HW113382   0.957   1.983   0.886
 4161SOL    HW213383   1.076   2.076   0.949
 4162SOL     OW13384   6.650   5.871   0.362
 4162SOL    HW113385   6.648   5.912   0.271
 4162SOL    HW213386   6.579   5.911   0.419
 4163SOL     OW13387   4.655   0.562   2.842
 4163SOL    HW113388   4.636   0.509   2.760
 4163SOL    HW213389   4.579   0.550   2.907
 4164SOL     OW13390   2.062   6.920   5.981
 4164SOL    HW113391   2.158   6.891   5.991
 4164SOL    HW213392   2.004   6.857   6.032
 4165SOL     OW13393   4.468   0.797   5.875
 4165SOL    HW113394   4.406   0.729   5.836
 4165SOL    HW213395   4.509   0.851   5.802
 4166SOL     OW13396   5.466   1.795   0.617
 4166SOL    HW113397   5.538   1.757   0.558
 4166SOL    HW213398   5.413   1.863   0.566
 4167SOL     OW13399   2.329   4.601   0.528
 4167SOL    HW113400   2.291   4.672   0.587
 4167SOL    HW213401   2.280   4.515   0.543
 4168SOL     OW13402   0.063   4.664   1.461
 4168SOL    HW113403   0.137   4.731   1.456
 4168SOL    HW213404   0.101   4.574   1.482
 4169SOL     OW13405   5.648   5.080   4.954
 4169SOL    HW113406   5.584   5.004   4.946
 4169SOL    HW213407   5.742   5.046   4.947
 4170SOL     OW13408   4.511   3.472   6.118
 4170SOL    HW113409   4.446   3.544   6.145
 4170SOL    HW213410   4.537   3.486   6.023
 4171SOL     OW13411   6.619   5.786   0.812
 4171SOL    HW113412   6.621   5.752   0.906
 4171SOL    HW213413   6.591   5.712   0.751
 4172SOL     OW13414   1.146   1.786   6.247
 4172SOL    HW113415   1.190   1.744   6.168
 4172SOL    HW213416   1.092   1.865   6.217
 4173SOL     OW13417   5.169   4.305   4.521
 4173SOL    HW113418   5.135   4.257   4.440
 4173SOL    HW213419   5.096   4.362   4.559
 4174SOL     OW13420   4.786   1.708   2.673
 4174SOL    HW113421   4.720   1.744   2.739
 4174SOL    HW213422   4.767   1.611   2.657
 4175SOL     OW13423   1.944   5.236   4.556
 4175SOL    HW113424   1.887   5.303   4.603
 4175SOL    HW213425   1.993   5.180   4.623
 4176SOL     OW13426   3.597   6.079   1.720
 4176SOL    HW113427   3.677   6.137   1.704
 4176SOL    HW213428   3.627   5.988   1.748
 4177SOL     OW13429   6.059   4.981   5.129
 4177SOL    HW113430   6.019   4.976   5.221
 4177SOL    HW213431   6.124   5.056   5.125
 4178SOL     OW13432   4.283   6.872   4.096
 4178SOL    HW113433   4.270   6.775   4.074
 4178SOL    HW213434   4.337   6.915   4.024
 4179SOL     OW13435   5.873   3.356   2.853
 4179SOL    HW113436   5.909   3.405   2.932
 4179SOL    HW213437   5.944   3.296   2.816
 4180SOL     OW13438   4.592   4.096   0.756
 4180SOL    HW113439   4.677   4.115   0.708
 4180SOL    HW213440   4.611   4.052   0.844
 4181SOL     OW13441   3.734   0.896   0.358
 4181SOL    HW113442   3.775   0.818   0.405
 4181SOL    HW213443   3.656   0.866   0.303
 4182SOL     OW13444   1.007   0.069   3.784
 4182SOL    HW113445   1.032   0.007   3.709
 4182SOL    HW213446   1.081   0.070   3.852
 4183SOL     OW13447   3.232   1.299   0.081
 4183SOL    HW113448   3.201   1.204   0.085
 4183SOL    HW213449   3.153   1.360   0.087
 4184SOL     OW13450   4.225   6.221   2.390
 4184SOL    HW113451   4.170   6.288   2.440
 4184SOL    HW213452   4.190   6.213   2.296
 4185SOL     OW13453   0.434   4.564   2.565
 4185SOL    HW113454   0.452   4.661   2.553
 4185SOL    HW213455   0.498   4.510   2.510
 4186SOL     OW13456   3.008   4.989   6.937
 4186SOL    HW113457   3.080   4.920   6.947
 4186SOL    HW213458   2.928   4.947   6.893
 4187SOL     OW13459   3.631   3.223   5.588
 4187SOL    HW113460   3.657   3.129   5.609
 4187SOL    HW213461   3.714   3.280   5.587
 4188SOL     OW13462   5.165   0.470   5.014
 4188SOL    HW113463   5.078   0.422   5.022
 4188SOL    HW213464   5.229   0.415   4.960
 4189SOL     OW13465   3.398   5.035   5.331
 4189SOL    HW113466   3.412   5.005   5.425
 4189SOL    HW213467   3.354   5.125   5.331
 4190SOL     OW13468   0.722   0.596   0.338
 4190SOL    HW113469   0.805   0.570   0.387
 4190SOL    HW213470   0.642   0.579   0.395
 4191SOL     OW13471   4.883   4.580   3.066
 4191SOL    HW113472   4.797   4.593   3.115
 4191SOL    HW213473   4.865   4.571   2.968
 4192SOL     OW13474   1.030   1.030   3.969
 4192SOL    HW113475   0.984   0.948   3.936
 4192SOL    HW213476   1.071   1.079   3.893
 4193SOL     OW13477   0.573   1.035   1.784
 4193SOL    HW113478   0.643   0.997   1.843
 4193SOL    HW213479   0.610   1.112   1.732
 4194SOL     OW13480   5.950   0.429   4.176
 4194SOL    HW113481   6.023   0.487   4.140
 4194SOL    HW213482   5.962   0.336   4.141
 4195SOL     OW13483   3.892   6.315   1.949
 4195SOL    HW113484   3.797   6.332   1.975
 4195SOL    HW213485   3.896   6.241   1.882
 4196SOL     OW13486   6.333   2.061   3.003
 4196SOL    HW113487   6.339   1.961   3.010
 4196SOL    HW213488   6.324   2.087   2.906
 4197SOL     OW13489   4.580   5.625   5.804
 4197SOL    HW113490   4.651   5.678   5.757
 4197SOL    HW213491   4.586   5.642   5.902
 4198SOL     OW13492   5.637   2.237   0.296
 4198SOL    HW113493   5.590   2.192   0.220
 4198SOL    HW213494   5.735   2.238   0.279
 4199SOL     OW13495   2.051   2.595   6.338
 4199SOL    HW113496   2.017   2.611   6.430
 4199SOL    HW213497   2.049   2.497   6.318
 4200SOL     OW13498   3.942   0.130   5.893
 4200SOL    HW113499   4.016   0.065   5.915
 4200SOL    HW213500   3.902   0.164   5.977
 4201SOL     OW13501   5.944   6.555   3.582
 4201SOL    HW113502   5.960   6.513   3.492
 4201SOL    HW213503   6.014   6.523   3.646
 4202SOL     OW13504   3.963   5.709   5.385
 4202SOL    HW113505   3.914   5.779   5.334
 4202SOL    HW213506   3.982   5.742   5.477
 4203SOL     OW13507   4.252   5.347   0.473
 4203SOL    HW113508   4.248   5.327   0.571
 4203SOL    HW213509   4.259   5.445   0.459
 4204SOL     OW13510   3.954   3.749   2.920
 4204SOL    HW113511   3.973   3.833   2.969
 4204SOL    HW213512   4.040   3.703   2.897
 4205SOL     OW13513   4.061   5.302   3.367
 4205SOL    HW113514   4.093   5.396   3.362
 4205SOL    HW213515   4.118   5.250   3.431
 4206SOL     OW13516   0.051   0.331   5.654
 4206SOL    HW113517   0.098   0.244   5.668
 4206SOL    HW213518   0.071   0.391   5.732
 4207SOL     OW13519   1.594   1.498   0.864
 4207SOL    HW113520   1.557   1.522   0.954
 4207SOL    HW213521   1.678   1.445   0.875
 4208SOL     OW13522   0.153   2.811   5.967
 4208SOL    HW113523   0.117   2.895   6.008
 4208SOL    HW213524   0.085   2.773   5.905
 4209SOL     OW13525   0.234   0.460   4.235
 4209SOL    HW113526   0.285   0.457   4.149
 4209SOL    HW213527   0.163   0.389   4.234
 4210SOL     OW13528   3.696   3.489   2.142
 4210SOL    HW113529   3.745   3.548   2.079
 4210SOL    HW213530   3.597   3.502   2.131
 4211SOL     OW13531   4.441   6.288   6.099
 4211SOL    HW113532   4.443   6.288   6.199
 4211SOL    HW213533   4.521   6.336   6.064
 4212SOL     OW13534   6.073   1.980   2.690
 4212SOL    HW113535   6.056   1.884   2.713
 4212SOL    HW213536   5.988   2.032   2.700
 4213SOL     OW13537   1.764   1.150   1.077
 4213SOL    HW113538   1.762   1.097   0.992
 4213SOL    HW213539   1.852   1.198   1.083
 4214SOL     OW13540   1.338   5.003   5.371
 4214SOL    HW113541   1.301   5.089   5.336
 4214SOL    HW213542   1.337   5.005   5.471
 4215SOL     OW13543   5.610   6.845   5.780
 4215SOL    HW113544   5.542   6.789   5.732
 4215SOL    HW213545   5.572   6.935   5.798
 4216SOL     OW13546   1.068   1.380   2.959
 4216SOL    HW113547   1.049   1.302   3.019
 4216SOL    HW213548   1.166   1.399   2.960
 4217SOL     OW13549   0.923   0.498   2.221
 4217SOL    HW113550   0.884   0.472   2.133
 4217SOL    HW213551   0.855   0.548   2.274
 4218SOL     OW13552   4.307   0.904   1.803
 4218SOL    HW113553   4.231   0.847   1.834
 4218SOL    HW213554   4.299   0.995   1.844
 4219SOL     OW13555   3.467   5.638   3.839
 4219SOL    HW113556   3.423   5.704   3.900
 4219SOL    HW213557   3.554   5.608   3.878
 4220SOL     OW13558   5.457   2.797   4.323
 4220SOL    HW113559   5.408   2.749   4.251
 4220SOL    HW213560   5.554   2.805   4.297
 4221SOL     OW13561   5.992   5.327   6.830
 4221SOL    HW113562   6.052   5.320   6.750
 4221SOL    HW213563   5.900   5.295   6.806
 4222SOL     OW13564   6.535   2.274   2.753
 4222SOL    HW113565   6.550   2.323   2.667
 4222SOL    HW213566   6.469   2.200   2.738
 4223SOL     OW13567   3.713   3.248   6.121
 4223SOL    HW113568   3.758   3.159   6.117
 4223SOL    HW213569   3.663   3.265   6.036
 4224SOL     OW13570   5.281   3.619   3.881
 4224SOL    HW113571   5.235   3.698   3.840
 4224SOL    HW213572   5.261   3.538   3.825
 4225SOL     OW13573   4.011   1.001   6.012
 4225SOL    HW113574   3.959   1.085   5.999
 4225SOL    HW213575   4.008   0.974   6.108
 4226SOL     OW13576   0.555   0.099   2.434
 4226SOL    HW113577   0.626   0.146   2.486
 4226SOL    HW213578   0.527   0.156   2.357
 4227SOL     OW13579   3.842   4.644   1.348
 4227SOL    HW113580   3.774   4.588   1.395
 4227SOL    HW213581   3.798   4.693   1.272
 4228SOL     OW13582   0.753   4.284   4.985
 4228SOL    HW113583   0.672   4.237   5.020
 4228SOL    HW213584   0.835   4.238   5.018
 4229SOL     OW13585   5.252   5.566   5.618
 4229SOL    HW113586   5.305   5.601   5.540
 4229SOL    HW213587   5.157   5.596   5.609
 4230SOL     OW13588   1.178   6.788   2.669
 4230SOL    HW113589   1.158   6.856   2.598
 4230SOL    HW213590   1.246   6.723   2.634
 4231SOL     OW13591   5.594   6.572   5.365
 4231SOL    HW113592   5.683   6.565   5.320
 4231SOL    HW213593   5.553   6.661   5.344
 4232SOL     OW13594   0.014   4.570   2.648
 4232SOL    HW113595   6.960   4.514   2.679
 4232SOL    HW213596   0.006   4.662   2.687
 4233SOL     OW13597   0.067   0.725   6.242
 4233SOL    HW113598   7.017   0.780   6.201
 4233SOL    HW213599   0.118   0.781   6.307
 4234SOL     OW13600   2.407   6.776   5.467
 4234SOL    HW113601   2.373   6.814   5.553
 4234SOL    HW213602   2.480   6.833   5.431
 4235SOL     OW13603   6.135   4.204   5.784
 4235SOL    HW113604   6.161   4.143   5.708
 4235SOL    HW213605   6.119   4.149   5.866
 4236SOL     OW13606   6.967   3.732   3.186
 4236SOL    HW113607   7.006   3.712   3.275
 4236SOL    HW213608   6.888   3.792   3.196
 4237SOL     OW13609   5.585   5.495   2.641
 4237SOL    HW113610   5.570   5.410   2.591
 4237SOL    HW213611   5.502   5.551   2.636
 4238SOL     OW13612   2.837   5.141   2.940
 4238SOL    HW113613   2.796   5.104   3.023
 4238SOL    HW213614   2.937   5.136   2.947
 4239SOL     OW13615   5.459   1.934   3.087
 4239SOL    HW113616   5.471   1.948   2.989
 4239SOL    HW213617   5.396   1.857   3.101
 4240SOL     OW13618   2.245   6.908   6.966
 4240SOL    HW113619   2.298   6.824   6.954
 4240SOL    HW213620   2.242   6.932   0.041
 4241SOL     OW13621   5.960   1.229   0.313
 4241SOL    HW113622   5.992   1.137   0.289
 4241SOL    HW213623   6.007   1.296   0.256
 4242SOL     OW13624   2.314   0.825   3.708
 4242SOL    HW113625   2.412   0.822   3.725
 4242SOL    HW213626   2.288   0.748   3.649
 4243SOL     OW13627   6.667   2.941   3.284
 4243SOL    HW113628   6.573   2.975   3.283
 4243SOL    HW213629   6.728   3.015   3.314
 4244SOL     OW13630   4.625   4.555   1.129
 4244SOL    HW113631   4.630   4.646   1.169
 4244SOL    HW213632   4.718   4.519   1.115
 4245SOL     OW13633   6.899   0.910   6.176
 4245SOL    HW113634   6.913   1.009   6.172
 4245SOL    HW213635   6.832   0.888   6.247
 4246SOL     OW13636   6.642   3.609   2.702
 4246SOL    HW113637   6.683   3.523   2.730
 4246SOL    HW213638   6.693   3.646   2.624
 4247SOL     OW13639   2.727   5.040   3.187
 4247SOL    HW113640   2.675   5.040   3.272
 4247SOL    HW213641   2.810   4.985   3.199
 4248SOL     OW13642   1.965   1.850   3.824
 4248SOL    HW113643   1.978   1.802   3.738
 4248SOL    HW213644   2.026   1.813   3.893
 4249SOL     OW13645   5.718   2.421   4.107
 4249SOL    HW113646   5.719   2.442   4.010
 4249SOL    HW213647   5.811   2.402   4.138
 4250SOL     OW13648   6.811   5.840   3.454
 4250SOL    HW113649   6.717   5.818   3.480
 4250SOL    HW213650   6.858   5.757   3.424
 4251SOL     OW13651   5.393   4.020   1.210
 4251SOL    HW113652   5.396   3.976   1.299
 4251SOL    HW213653   5.413   3.952   1.139
 4252SOL     OW13654   6.109   6.937   6.608
 4252SOL    HW113655   6.144   6.984   6.688
 4252SOL    HW213656   6.184   6.914   6.546
 4253SOL     OW13657   3.230   6.874   1.259
 4253SOL    HW113658   3.310   6.840   1.209
 4253SOL    HW213659   3.208   6.966   1.228
 4254SOL     OW13660   1.512   3.447   1.900
 4254SOL    HW113661   1.499   3.427   1.803
 4254SOL    HW213662   1.423   3.448   1.945
 4255SOL     OW13663   6.831   3.988   4.233
 4255SOL    HW113664   6.804   3.944   4.319
 4255SOL    HW213665   6.923   4.025   4.242
 4256SOL     OW13666   1.384   6.150   0.748
 4256SOL    HW113667   1.367   6.139   0.845
 4256SOL    HW213668   1.299   6.139   0.697
 4257SOL     OW13669   2.823   0.523   4.287
 4257SOL    HW113670   2.859   0.614   4.303
 4257SOL    HW213671   2.799   0.512   4.191
 4258SOL     OW13672   3.433   5.833   1.025
 4258SOL    HW113673   3.429   5.859   1.122
 4258SOL    HW213674   3.357   5.771   1.005
 4259SOL     OW13675   2.192   0.560   0.979
 4259SOL    HW113676   2.289   0.538   0.970
 4259SOL    HW213677   2.159   0.528   1.067
 4260SOL     OW13678   6.094   0.631   1.515
 4260SOL    HW113679   6.083   0.533   1.532
 4260SOL    HW213680   6.035   0.682   1.577
 4261SOL     OW13681   2.491   0.423   2.601
 4261SOL    HW113682   2.514   0.361   2.525
 4261SOL    HW213683   2.574   0.468   2.633
 4262SOL     OW13684   0.425   4.452   6.365
 4262SOL    HW113685   0.434   4.358   6.398
 4262SOL    HW213686   0.499   4.508   6.402
 4263SOL     OW13687   3.052   0.576   2.393
 4263SOL    HW113688   3.085   0.495   2.441
 4263SOL    HW213689   2.954   0.588   2.412
 4264SOL     OW13690   6.164   1.643   3.598
 4264SOL    HW113691   6.212   1.662   3.513
 4264SOL    HW213692   6.145   1.729   3.646
 4265SOL     OW13693   4.185   1.725   0.791
 4265SOL    HW113694   4.159   1.821   0.802
 4265SOL    HW213695   4.198   1.704   0.694
 4266SOL     OW13696   1.512   5.931   6.209
 4266SOL    HW113697   1.467   5.843   6.221
 4266SOL    HW213698   1.528   5.947   6.112
 4267SOL     OW13699   2.166   3.827   3.613
 4267SOL    HW113700   2.121   3.908   3.649
 4267SOL    HW213701   2.224   3.853   3.535
 4268SOL     OW13702   0.923   5.516   6.455
 4268SOL    HW113703   0.906   5.607   6.418
 4268SOL    HW213704   0.866   5.450   6.407
 4269SOL     OW13705   2.449   0.590   2.146
 4269SOL    HW113706   2.441   0.602   2.245
 4269SOL    HW213707   2.544   0.569   2.122
 4270SOL     OW13708   4.063   3.442   3.262
 4270SOL    HW113709   4.028   3.385   3.336
 4270SOL    HW213710   4.010   3.426   3.179
 4271SOL     OW13711   6.551   1.153   6.864
 4271SOL    HW113712   6.461   1.138   6.904
 4271SOL    HW213713   6.585   1.243   6.892
 4272SOL     OW13714   6.510   2.079   4.447
 4272SOL    HW113715   6.600   2.099   4.409
 4272SOL    HW213716   6.494   2.137   4.527
 4273SOL     OW13717   4.273   6.874   5.034
 4273SOL    HW113718   4.337   6.799   5.020
 4273SOL    HW213719   4.261   6.924   4.948
 4274SOL     OW13720   0.901   0.523   1.493
 4274SOL    HW113721   0.897   0.453   1.423
 4274SOL    HW213722   0.879   0.612   1.453
 4275SOL     OW13723   6.256   2.301   4.643
 4275SOL    HW113724   6.280   2.345   4.556
 4275SOL    HW213725   6.215   2.212   4.626
 4276SOL     OW13726   2.314   5.344   4.007
 4276SOL    HW113727   2.238   5.321   4.068
 4276SOL    HW213728   2.313   5.283   3.928
 4277SOL     OW13729   6.165   4.936   3.208
 4277SOL    HW113730   6.258   4.903   3.229
 4277SOL    HW213731   6.099   4.885   3.262
 4278SOL     OW13732   0.119   6.600   5.082
 4278SOL    HW113733   0.110   6.606   5.181
 4278SOL    HW213734   0.052   6.534   5.046
 4279SOL     OW13735   3.279   1.154   3.973
 4279SOL    HW113736   3.297   1.195   4.062
 4279SOL    HW213737   3.188   1.113   3.973
 4280SOL     OW13738   4.925   0.642   6.404
 4280SOL    HW113739   4.983   0.714   6.364
 4280SOL    HW213740   4.961   0.616   6.493
 4281SOL     OW13741   6.882   4.424   3.471
 4281SOL    HW113742   6.806   4.361   3.451
 4281SOL    HW213743   6.894   4.431   3.570
 4282SOL     OW13744   3.842   4.524   6.236
 4282SOL    HW113745   3.758   4.577   6.243
 4282SOL    HW213746   3.820   4.427   6.223
 4283SOL     OW13747   1.778   0.888   2.756
 4283SOL    HW113748   1.768   0.788   2.759
 4283SOL    HW213749   1.832   0.919   2.834
 4284SOL     OW13750   4.111   4.862   1.061
 4284SOL    HW113751   4.160   4.783   1.098
 4284SOL    HW213752   4.171   4.942   1.059
 4285SOL     OW13753   1.725   0.379   5.946
 4285SOL    HW113754   1.707   0.393   5.848
 4285SOL    HW213755   1.823   0.387   5.963
 4286SOL     OW13756   5.155   6.403   5.615
 4286SOL    HW113757   5.111   6.480   5.661
 4286SOL    HW213758   5.248   6.429   5.589
 4287SOL     OW13759   6.008   1.079   6.072
 4287SOL    HW113760   6.012   1.005   6.004
 4287SOL    HW213761   5.984   1.165   6.026
 4288SOL     OW13762   0.665   5.931   3.681
 4288SOL    HW113763   0.731   5.866   3.643
 4288SOL    HW213764   0.711   5.990   3.748
 4289SOL     OW13765   0.341   2.845   6.208
 4289SOL    HW113766   0.311   2.861   6.114
 4289SOL    HW213767   0.279   2.780   6.252
 4290SOL     OW13768   1.336   6.219   3.635
 4290SOL    HW113769   1.406   6.153   3.606
 4290SOL    HW213770   1.360   6.310   3.602
 4291SOL     OW13771   4.909   3.651   0.786
 4291SOL    HW113772   4.996   3.658   0.738
 4291SOL    HW213773   4.898   3.559   0.822
 4292SOL     OW13774   5.377   3.133   0.283
 4292SOL    HW113775   5.433   3.064   0.237
 4292SOL    HW213776   5.437   3.201   0.325
 4293SOL     OW13777   2.366   2.626   0.108
 4293SOL    HW113778   2.296   2.697   0.122
 4293SOL    HW213779   2.324   2.536   0.120
 4294SOL     OW13780   2.105   2.324   6.655
 4294SOL    HW113781   2.097   2.411   6.606
 4294SOL    HW213782   2.113   2.342   6.753
 4295SOL     OW13783   3.804   5.593   5.017
 4295SOL    HW113784   3.752   5.667   5.061
 4295SOL    HW213785   3.897   5.625   4.997
 4296SOL     OW13786   3.272   6.850   0.786
 4296SOL    HW113787   3.222   6.936   0.792
 4296SOL    HW213788   3.300   6.833   0.692
 4297SOL     OW13789   4.947   0.085   0.764
 4297SOL    HW113790   5.001   0.009   0.728
 4297SOL    HW213791   4.930   0.070   0.862
 4298SOL     OW13792   3.779   5.166   0.453
 4298SOL    HW113793   3.828   5.099   0.508
 4298SOL    HW213794   3.840   5.242   0.430
 4299SOL     OW13795   1.358   2.852   6.477
 4299SOL    HW113796   1.277   2.909   6.492
 4299SOL    HW213797   1.417   2.896   6.409
 4300SOL     OW13798   3.300   6.556   7.010
 4300SOL    HW113799   3.228   6.604   6.959
 4300SOL    HW213800   3.388   6.601   6.994
 4301SOL     OW13801   4.112   0.718   1.764
 4301SOL    HW113802   4.035   0.727   1.828
 4301SOL    HW213803   4.095   0.775   1.684
 4302SOL     OW13804   0.846   0.270   6.119
 4302SOL    HW113805   0.853   0.313   6.028
 4302SOL    HW213806   0.752   0.244   6.136
 4303SOL     OW13807   6.790   5.102   4.145
 4303SOL    HW113808   6.881   5.143   4.138
 4303SOL    HW213809   6.721   5.170   4.120
 4304SOL     OW13810   3.239   3.872   2.711
 4304SOL    HW113811   3.310   3.836   2.772
 4304SOL    HW213812   3.251   3.834   2.619
 4305SOL     OW13813   0.449   0.047   5.558
 4305SOL    HW113814   0.402   0.013   5.476
 4305SOL    HW213815   0.382   0.079   5.624
 4306SOL     OW13816   4.837   4.872   5.479
 4306SOL    HW113817   4.890   4.954   5.501
 4306SOL    HW213818   4.820   4.820   5.563
 4307SOL     OW13819   5.596   3.734   6.132
 4307SOL    HW113820   5.688   3.717   6.169
 4307SOL    HW213821   5.528   3.691   6.192
 4308SOL     OW13822   5.934   4.556   0.982
 4308SOL    HW113823   5.853   4.540   1.038
 4308SOL    HW213824   5.937   4.652   0.954
 4309SOL     OW13825   0.937   1.265   0.277
 4309SOL    HW113826   1.004   1.270   0.203
 4309SOL    HW213827   0.940   1.175   0.320
 4310SOL     OW13828   2.220   2.684   2.153
 4310SOL    HW113829   2.204   2.780   2.175
 4310SOL    HW213830   2.258   2.637   2.232
 4311SOL     OW13831   1.714   6.274   2.483
 4311SOL    HW113832   1.649   6.343   2.451
 4311SOL    HW213833   1.800   6.284   2.434
 4312SOL     OW13834   2.101   5.652   1.729
 4312SOL    HW113835   2.197   5.668   1.707
 4312SOL    HW213836   2.080   5.691   1.818
 4313SOL     OW13837   4.354   1.517   1.278
 4313SOL    HW113838   4.306   1.555   1.200
 4313SOL    HW213839   4.297   1.524   1.360
 4314SOL     OW13840   5.710   1.634   4.448
 4314SOL    HW113841   5.666   1.690   4.518
 4314SOL    HW213842   5.777   1.573   4.492
 4315SOL     OW13843   2.665   6.220   2.368
 4315SOL    HW113844   2.707   6.228   2.458
 4315SOL    HW213845   2.715   6.152   2.314
 4316SOL     OW13846   5.220   1.020   1.805
 4316SOL    HW113847   5.206   1.118   1.789
 4316SOL    HW213848   5.146   0.969   1.760
 4317SOL     OW13849   4.930   2.477   4.912
 4317SOL    HW113850   4.934   2.473   4.812
 4317SOL    HW213851   5.023   2.483   4.948
 4318SOL     OW13852   0.121   2.387   4.799
 4318SOL    HW113853   0.156   2.476   4.829
 4318SOL    HW213854   0.111   2.327   4.877
 4319SOL     OW13855   1.841   1.228   0.478
 4319SOL    HW113856   1.931   1.218   0.436
 4319SOL    HW213857   1.774   1.174   0.427
 4320SOL     OW13858   4.924   4.801   0.456
 4320SOL    HW113859   4.995   4.867   0.478
 4320SOL    HW213860   4.957   4.708   0.475
 4321SOL     OW13861   6.904   6.108   5.388
 4321SOL    HW113862   6.904   6.094   5.487
 4321SOL    HW213863   6.991   6.149   5.360
 4322SOL     OW13864   5.782   2.884   0.064
 4322SOL    HW113865   5.868   2.867   0.113
 4322SOL    HW213866   5.778   2.827   7.005
 4323SOL     OW13867   4.584   4.224   0.179
 4323SOL    HW113868   4.615   4.153   0.115
 4323SOL    HW213869   4.615   4.200   0.271
 4324SOL     OW13870   5.615   4.002   6.871
 4324SOL    HW113871   5.686   4.040   6.812
 4324SOL    HW213872   5.628   3.903   6.880
 4325SOL     OW13873   2.256   1.128   1.703
 4325SOL    HW113874   2.341   1.180   1.699
 4325SOL    HW213875   2.248   1.083   1.792
 4326SOL     OW13876   4.750   4.913   3.578
 4326SOL    HW113877   4.706   4.924   3.489
 4326SOL    HW213878   4.680   4.903   3.649
 4327SOL     OW13879   5.601   6.117   1.769
 4327SOL    HW113880   5.627   6.172   1.849
 4327SOL    HW213881   5.569   6.028   1.800
 4328SOL     OW13882   4.477   4.065   5.773
 4328SOL    HW113883   4.571   4.095   5.757
 4328SOL    HW213884   4.439   4.028   5.688
 4329SOL     OW13885   4.938   2.105   5.264
 4329SOL    HW113886   4.868   2.173   5.241
 4329SOL    HW213887   4.894   2.024   5.303
 4330SOL     OW13888   2.021   6.450   4.297
 4330SOL    HW113889   1.989   6.365   4.256
 4330SOL    HW213890   2.119   6.442   4.318
 4331SOL     OW13891   6.110   1.376   2.113
 4331SOL    HW113892   6.108   1.432   2.030
 4331SOL    HW213893   6.100   1.279   2.088
 4332SOL     OW13894   5.049   3.314   2.204
 4332SOL    HW113895   5.002   3.228   2.185
 4332SOL    HW213896   5.011   3.386   2.146
 4333SOL     OW13897   4.402   1.429   5.851
 4333SOL    HW113898   4.333   1.362   5.879
 4333SOL    HW213899   4.374   1.521   5.881
 4334SOL     OW13900   1.852   2.216   2.851
 4334SOL    HW113901   1.775   2.260   2.804
 4334SOL    HW213902   1.887   2.278   2.922
 4335SOL     OW13903   3.700   4.124   2.784
 4335SOL    HW113904   3.728   4.039   2.739
 4335SOL    HW213905   3.672   4.191   2.715
 4336SOL     OW13906   3.473   6.496   5.722
 4336SOL    HW113907   3.436   6.564   5.659
 4336SOL    HW213908   3.406   6.475   5.793
 4337SOL     OW13909   0.891   4.373   0.356
 4337SOL    HW113910   0.929   4.457   0.316
 4337SOL    HW213911   0.928   4.293   0.309
 4338SOL     OW13912   6.184   6.839   6.125
 4338SOL    HW113913   6.188   6.743   6.152
 4338SOL    HW213914   6.125   6.848   6.044
 4339SOL     OW13915   4.782   3.164   5.726
 4339SOL    HW113916   4.728   3.187   5.807
 4339SOL    HW213917   4.796   3.246   5.670
 4340SOL     OW13918   5.966   3.559   1.313
 4340SOL    HW113919   5.960   3.658   1.329
 4340SOL    HW213920   5.877   3.524   1.285
 4341SOL     OW13921   0.799   4.780   1.949
 4341SOL    HW113922   0.876   4.793   2.011
 4341SOL    HW213923   0.777   4.682   1.943
 4342SOL     OW13924   5.351   3.768   3.180
 4342SOL    HW113925   5.439   3.729   3.209
 4342SOL    HW213926   5.355   3.789   3.082
 4343SOL     OW13927   2.796   5.798   5.073
 4343SOL    HW113928   2.791   5.783   4.975
 4343SOL    HW213929   2.705   5.787   5.114
 4344SOL     OW13930   6.978   3.753   1.896
 4344SOL    HW113931   0.033   3.732   1.955
 4344SOL    HW213932   6.985   3.701   1.811
 4345SOL     OW13933   3.650   4.157   5.393
 4345SOL    HW113934   3.682   4.136   5.301
 4345SOL    HW213935   3.626   4.254   5.399
 4346SOL     OW13936   1.704   3.483   2.943
 4346SOL    HW113937   1.760   3.405   2.915
 4346SOL    HW213938   1.748   3.568   2.915
 4347SOL     OW13939   6.278   6.521   2.620
 4347SOL    HW113940   6.283   6.488   2.526
 4347SOL    HW213941   6.370   6.520   2.660
 4348SOL     OW13942   0.191   5.281   3.492
 4348SOL    HW113943   0.115   5.335   3.455
 4348SOL    HW213944   0.155   5.205   3.546
 4349SOL     OW13945   5.538   1.961   2.841
 4349SOL    HW113946   5.532   1.875   2.790
 4349SOL    HW213947   5.532   2.038   2.778
 4350SOL     OW13948   3.575   1.732   3.701
 4350SOL    HW113949   3.561   1.805   3.767
 4350SOL    HW213950   3.591   1.646   3.749
 4351SOL     OW13951   1.635   5.726   0.877
 4351SOL    HW113952   1.712   5.776   0.917
 4351SOL    HW213953   1.572   5.791   0.835
 4352SOL     OW13954   6.631   3.848   2.243
 4352SOL    HW113955   6.703   3.793   2.285
 4352SOL    HW213956   6.650   3.945   2.257
 4353SOL     OW13957   4.122   2.826   6.705
 4353SOL    HW113958   4.212   2.809   6.744
 4353SOL    HW213959   4.054   2.829   6.778
 4354SOL     OW13960   2.005   0.471   5.653
 4354SOL    HW113961   1.984   0.404   5.724
 4354SOL    HW213962   1.926   0.483   5.594
 4355SOL     OW13963   2.512   6.968   2.724
 4355SOL    HW113964   2.507   6.868   2.724
 4355SOL    HW213965   2.568   6.999   2.648
 4356SOL     OW13966   5.278   3.586   0.162
 4356SOL    HW113967   5.345   3.605   0.091
 4356SOL    HW213968   5.318   3.527   0.232
 4357SOL     OW13969   6.120   1.121   1.527
 4357SOL    HW113970   6.110   1.075   1.615
 4357SOL    HW213971   6.124   1.052   1.454
 4358SOL     OW13972   6.980   1.017   0.584
 4358SOL    HW113973   6.937   1.023   0.674
 4358SOL    HW213974   0.049   0.976   0.594
 4359SOL     OW13975   1.788   1.143   5.839
 4359SOL    HW113976   1.714   1.189   5.790
 4359SOL    HW213977   1.786   1.170   5.935
 4360SOL     OW13978   1.312   3.242   3.828
 4360SOL    HW113979   1.276   3.304   3.759
 4360SOL    HW213980   1.376   3.291   3.888
 4361SOL     OW13981   2.214   3.299   1.410
 4361SOL    HW113982   2.152   3.230   1.372
 4361SOL    HW213983   2.162   3.383   1.428
 4362SOL     OW13984   6.499   5.368   3.515
 4362SOL    HW113985   6.472   5.423   3.594
 4362SOL    HW213986   6.417   5.328   3.473
 4363SOL     OW13987   5.647   1.993   1.185
 4363SOL    HW113988   5.726   2.038   1.227
 4363SOL    HW213989   5.570   2.058   1.181
 4364SOL     OW13990   3.109   4.073   4.508
 4364SOL    HW113991   3.068   3.994   4.462
 4364SOL    HW213992   3.096   4.064   4.607
 4365SOL     OW13993   2.692   0.691   1.775
 4365SOL    HW113994   2.680   0.642   1.688
 4365SOL    HW213995   2.766   0.757   1.766
 4366SOL     OW13996   6.033   0.118   6.802
 4366SOL    HW113997   6.030   0.081   6.895
 4366SOL    HW213998   6.123   0.159   6.785
 4367SOL     OW13999   2.338   4.489   4.444
 4367SOL    HW114000   2.321   4.390   4.445
 4367SOL    HW214001   2.365   4.520   4.535
 4368SOL     OW14002   3.526   5.279   0.533
 4368SOL    HW114003   3.495   5.309   0.623
 4368SOL    HW214004   3.579   5.195   0.543
 4369SOL     OW14005   4.648   5.535   3.109
 4369SOL    HW114006   4.730   5.499   3.065
 4369SOL    HW214007   4.571   5.532   3.045
 4370SOL     OW14008   3.744   4.810   1.699
 4370SOL    HW114009   3.733   4.902   1.737
 4370SOL    HW214010   3.684   4.747   1.747
 4371SOL     OW14011   0.700   1.921   2.333
 4371SOL    HW114012   0.773   1.854   2.332
 4371SOL    HW214013   0.736   2.011   2.307
 4372SOL     OW14014   2.431   2.281   3.567
 4372SOL    HW114015   2.378   2.235   3.638
 4372SOL    HW214016   2.519   2.235   3.557
 4373SOL     OW14017   5.441   1.334   0.159
 4373SOL    HW114018   5.343   1.328   0.138
 4373SOL    HW214019   5.487   1.384   0.085
 4374SOL     OW14020   0.414   1.265   0.883
 4374SOL    HW114021   0.326   1.303   0.912
 4374SOL    HW214022   0.485   1.335   0.895
 4375SOL     OW14023   4.439   6.592   3.334
 4375SOL    HW114024   4.357   6.642   3.308
 4375SOL    HW214025   4.431   6.560   3.428
 4376SOL     OW14026   6.164   6.544   3.077
 4376SOL    HW114027   6.077   6.588   3.101
 4376SOL    HW214028   6.198   6.582   2.990
 4377SOL     OW14029   5.625   5.375   0.060
 4377SOL    HW114030   5.568   5.457   0.054
 4377SOL    HW214031   5.646   5.356   0.156
 4378SOL     OW14032   2.096   2.930   2.543
 4378SOL    HW114033   2.064   2.906   2.635
 4378SOL    HW214034   2.196   2.929   2.542
 4379SOL     OW14035   2.271   2.369   2.809
 4379SOL    HW114036   2.256   2.449   2.867
 4379SOL    HW214037   2.205   2.369   2.734
 4380SOL     OW14038   0.704   6.931   3.016
 4380SOL    HW114039   0.689   6.957   2.921
 4380SOL    HW214040   0.795   6.890   3.026
 4381SOL     OW14041   1.861   3.980   5.547
 4381SOL    HW114042   1.927   3.906   5.554
 4381SOL    HW214043   1.886   4.041   5.472
 4382SOL     OW14044   6.010   3.421   6.227
 4382SOL    HW114045   6.064   3.472   6.159
 4382SOL    HW214046   5.928   3.472   6.249
 4383SOL     OW14047   0.699   2.083   5.785
 4383SOL    HW114048   0.633   2.014   5.816
 4383SOL    HW214049   0.669   2.174   5.815
 4384SOL     OW14050   6.133   2.229   6.007
 4384SOL    HW114051   6.106   2.224   5.911
 4384SOL    HW214052   6.196   2.306   6.020
 4385SOL     OW14053   5.940   2.780   5.499
 4385SOL    HW114054   6.025   2.757   5.547
 4385SOL    HW214055   5.960   2.796   5.402
 4386SOL     OW14056   2.173   3.409   0.293
 4386SOL    HW114057   2.243   3.352   0.249
 4386SOL    HW214058   2.207   3.441   0.382
 4387SOL     OW14059   6.694   1.563   1.266
 4387SOL    HW114060   6.600   1.543   1.294
 4387SOL    HW214061   6.756   1.499   1.310
 4388SOL     OW14062   5.209   1.730   6.485
 4388SOL    HW114063   5.305   1.732   6.457
 4388SOL    HW214064   5.154   1.783   6.420
 4389SOL     OW14065   0.658   3.534   0.684
 4389SOL    HW114066   0.731   3.577   0.736
 4389SOL    HW214067   0.632   3.448   0.728
 4390SOL     OW14068   3.716   0.897   0.833
 4390SOL    HW114069   3.742   0.952   0.754
 4390SOL    HW214070   3.776   0.919   0.910
 4391SOL     OW14071   1.860   5.597   0.106
 4391SOL    HW114072   1.887   5.566   0.015
 4391SOL    HW214073   1.773   5.645   0.100
 4392SOL     OW14074   6.636   3.560   6.084
 4392SOL    HW114075   6.583   3.484   6.123
 4392SOL    HW214076   6.677   3.531   5.998
 4393SOL     OW14077   5.953   0.542   2.160
 4393SOL    HW114078   5.985   0.559   2.067
 4393SOL    HW214079   5.910   0.625   2.197
 4394SOL     OW14080   5.864   5.596   2.342
 4394SOL    HW114081   5.823   5.558   2.259
 4394SOL    HW214082   5.799   5.655   2.388
 4395SOL     OW14083   3.195   6.707   1.994
 4395SOL    HW114084   3.285   6.732   2.030
 4395SOL    HW214085   3.145   6.790   1.971
 4396SOL     OW14086   2.152   2.185   3.893
 4396SOL    HW114087   2.053   2.180   3.878
 4396SOL    HW214088   2.171   2.249   3.967
 4397SOL     OW14089   0.444   1.028   4.381
 4397SOL    HW114090   0.380   1.101   4.405
 4397SOL    HW214091   0.470   0.979   4.464
 4398SOL     OW14092   0.875   4.232   5.772
 4398SOL    HW114093   0.956   4.231   5.713
 4398SOL    HW214094   0.797   4.196   5.722
 4399SOL     OW14095   1.845   0.472   1.614
 4399SOL    HW114096   1.834   0.564   1.578
 4399SOL    HW214097   1.943   0.449   1.617
 4400SOL     OW14098   3.419   6.799   5.620
 4400SOL    HW114099   3.480   6.867   5.579
 4400SOL    HW214100   3.384   6.738   5.549
 4401SOL     OW14101   4.501   6.767   6.381
 4401SOL    HW114102   4.552   6.851   6.399
 4401SOL    HW214103   4.544   6.717   6.305
 4402SOL     OW14104   2.664   0.166   1.446
 4402SOL    HW114105   2.727   0.090   1.458
 4402SOL    HW214106   2.715   0.252   1.448
 4403SOL     OW14107   0.548   0.162   3.174
 4403SOL    HW114108   0.625   0.099   3.168
 4403SOL    HW214109   0.573   0.239   3.233
 4404SOL     OW14110   0.271   4.710   5.950
 4404SOL    HW114111   0.328   4.717   6.032
 4404SOL    HW214112   0.257   4.801   5.911
 4405SOL     OW14113   1.934   4.433   1.470
 4405SOL    HW114114   1.911   4.509   1.530
 4405SOL    HW214115   1.965   4.468   1.381
 4406SOL     OW14116   0.088   3.929   0.686
 4406SOL    HW114117   0.176   3.883   0.693
 4406SOL    HW214118   0.016   3.871   0.724
 4407SOL     OW14119   6.447   4.699   0.810
 4407SOL    HW114120   6.487   4.607   0.811
 4407SOL    HW214121   6.466   4.746   0.895
 4408SOL     OW14122   3.600   0.905   1.933
 4408SOL    HW114123   3.687   0.936   1.970
 4408SOL    HW214124   3.525   0.958   1.974
 4409SOL     OW14125   4.832   0.602   2.473
 4409SOL    HW114126   4.836   0.507   2.506
 4409SOL    HW214127   4.810   0.602   2.376
 4410SOL     OW14128   1.083   5.559   6.682
 4410SOL    HW114129   1.103   5.657   6.678
 4410SOL    HW214130   1.010   5.537   6.617
 4411SOL     OW14131   3.569   3.885   4.276
 4411SOL    HW114132   3.518   3.942   4.341
 4411SOL    HW214133   3.642   3.837   4.324
 4412SOL     OW14134   4.239   6.716   4.747
 4412SOL    HW114135   4.319   6.731   4.805
 4412SOL    HW214136   4.245   6.626   4.704
 4413SOL     OW14137   6.435   5.103   4.468
 4413SOL    HW114138   6.513   5.048   4.437
 4413SOL    HW214139   6.467   5.194   4.492
 4414SOL     OW14140   3.647   4.534   1.502
 4414SOL    HW114141   3.570   4.557   1.561
 4414SOL    HW214142   3.723   4.500   1.558
 4415SOL     OW14143   3.812   3.253   0.628
 4415SOL    HW114144   3.839   3.157   0.627
 4415SOL    HW214145   3.712   3.260   0.630
 4416SOL     OW14146   2.739   0.649   3.481
 4416SOL    HW114147   2.793   0.570   3.512
 4416SOL    HW214148   2.797   0.711   3.430
 4417SOL     OW14149   5.952   4.454   3.160
 4417SOL    HW114150   5.939   4.362   3.123
 4417SOL    HW214151   5.989   4.448   3.253
 4418SOL     OW14152   5.745   1.985   2.224
 4418SOL    HW114153   5.703   2.043   2.154
 4418SOL    HW214154   5.717   1.890   2.210
 4419SOL     OW14155   5.964   6.483   6.648
 4419SOL    HW114156   5.982   6.396   6.693
 4419SOL    HW214157   6.033   6.500   6.578
 4420SOL     OW14158   5.464   1.615   2.037
 4420SOL    HW114159   5.374   1.581   2.063
 4420SOL    HW214160   5.509   1.549   1.977
 4421SOL     OW14161   1.799   0.719   5.237
 4421SOL    HW114162   1.804   0.809   5.281
 4421SOL    HW214163   1.709   0.707   5.196
 4422SOL     OW14164   2.560   3.908   6.989
 4422SOL    HW114165   2.519   3.941   0.052
 4422SOL    HW214166   2.495   3.920   6.914
 4423SOL     OW14167   0.650   2.700   5.550
 4423SOL    HW114168   0.578   2.768   5.539
 4423SOL    HW214169   0.739   2.741   5.531
 4424SOL     OW14170   5.830   0.925   4.493
 4424SOL    HW114171   5.863   0.836   4.525
 4424SOL    HW214172   5.867   0.998   4.550
 4425SOL     OW14173   2.948   4.791   0.337
 4425SOL    HW114174   2.929   4.744   0.423
 4425SOL    HW214175   2.892   4.873   0.331
 4426SOL     OW14176   0.237   0.692   4.649
 4426SOL    HW114177   0.236   0.595   4.675
 4426SOL    HW214178   0.263   0.701   4.553
 4427SOL     OW14179   0.589   6.183   2.298
 4427SOL    HW114180   0.649   6.134   2.362
 4427SOL    HW214181   0.633   6.188   2.208
 4428SOL     OW14182   3.393   0.027   2.648
 4428SOL    HW114183   3.389   0.089   2.569
 4428SOL    HW214184   3.390   0.081   2.732
 4429SOL     OW14185   2.459   6.706   2.714
 4429SOL    HW114186   2.362   6.719   2.694
 4429SOL    HW214187   2.469   6.650   2.796
 4430SOL     OW14188   4.848   3.931   4.670
 4430SOL    HW114189   4.870   3.875   4.749
 4430SOL    HW214190   4.812   4.019   4.700
 4431SOL     OW14191   1.793   1.211   1.793
 4431SOL    HW114192   1.801   1.112   1.805
 4431SOL    HW214193   1.852   1.257   1.859
 4432SOL     OW14194   3.179   3.628   5.324
 4432SOL    HW114195   3.213   3.589   5.410
 4432SOL    HW214196   3.233   3.593   5.248
 4433SOL     OW14197   4.551   1.494   4.612
 4433SOL    HW114198   4.609   1.416   4.636
 4433SOL    HW214199   4.466   1.461   4.572
 4434SOL     OW14200   5.243   1.847   4.218
 4434SOL    HW114201   5.264   1.893   4.132
 4434SOL    HW214202   5.305   1.880   4.290
 4435SOL     OW14203   4.801   3.410   1.330
 4435SOL    HW114204   4.881   3.350   1.316
 4435SOL    HW214205   4.725   3.355   1.365
 4436SOL     OW14206   4.572   1.003   1.065
 4436SOL    HW114207   4.650   0.959   1.108
 4436SOL    HW214208   4.506   0.934   1.036
 4437SOL     OW14209   6.018   2.193   3.030
 4437SOL    HW114210   5.969   2.276   3.060
 4437SOL    HW214211   5.963   2.145   2.963
 4438SOL     OW14212   5.705   0.180   0.136
 4438SOL    HW114213   5.674   0.099   0.086
 4438SOL    HW214214   5.659   0.261   0.101
 4439SOL     OW14215   0.510   4.970   2.099
 4439SOL    HW114216   0.424   5.006   2.063
 4439SOL    HW214217   0.579   4.972   2.027
 4440SOL     OW14218   2.692   5.216   0.635
 4440SOL    HW114219   2.748   5.263   0.566
 4440SOL    HW214220   2.663   5.127   0.599
 4441SOL     OW14221   6.923   1.563   2.715
 4441SOL    HW114222   6.943   1.485   2.774
 4441SOL    HW214223   6.984   1.560   2.635
 4442SOL     OW14224   2.626   5.802   4.346
 4442SOL    HW114225   2.564   5.726   4.367
 4442SOL    HW214226   2.719   5.779   4.376
 4443SOL     OW14227   0.144   3.294   0.697
 4443SOL    HW114228   0.136   3.265   0.792
 4443SOL    HW214229   0.059   3.274   0.648
 4444SOL     OW14230   3.184   4.520   5.582
 4444SOL    HW114231   3.155   4.468   5.662
 4444SOL    HW214232   3.148   4.477   5.499
 4445SOL     OW14233   0.909   6.841   0.905
 4445SOL    HW114234   1.002   6.858   0.872
 4445SOL    HW214235   0.895   6.891   0.991
 4446SOL     OW14236   5.641   0.883   2.116
 4446SOL    HW114237   5.546   0.897   2.086
 4446SOL    HW214238   5.688   0.972   2.118
 4447SOL     OW14239   5.439   3.592   6.298
 4447SOL    HW114240   5.485   3.504   6.314
 4447SOL    HW214241   5.359   3.577   6.241
 4448SOL     OW14242   2.671   3.794   1.697
 4448SOL    HW114243   2.741   3.723   1.700
 4448SOL    HW214244   2.625   3.791   1.608
 4449SOL     OW14245   5.474   0.367   5.984
 4449SOL    HW114246   5.444   0.456   5.952
 4449SOL    HW214247   5.475   0.365   6.084
 4450SOL     OW14248   3.681   3.408   4.731
 4450SOL    HW114249   3.585   3.425   4.755
 4450SOL    HW214250   3.711   3.323   4.774
 4451SOL     OW14251   6.077   4.810   2.917
 4451SOL    HW114252   6.102   4.713   2.929
 4451SOL    HW214253   6.119   4.864   2.989
 4452SOL     OW14254   4.998   6.567   4.545
 4452SOL    HW114255   5.091   6.530   4.546
 4452SOL    HW214256   4.935   6.498   4.582
 4453SOL     OW14257   0.788   2.469   1.502
 4453SOL    HW114258   0.711   2.405   1.496
 4453SOL    HW214259   0.777   2.541   1.434
 4454SOL     OW14260   1.399   2.237   0.327
 4454SOL    HW114261   1.481   2.214   0.273
 4454SOL    HW214262   1.392   2.174   0.404
 4455SOL     OW14263   4.211   6.456   5.680
 4455SOL    HW114264   4.309   6.461   5.659
 4455SOL    HW214265   4.183   6.360   5.683
 4456SOL     OW14266   3.533   6.077   2.151
 4456SOL    HW114267   3.545   6.172   2.180
 4456SOL    HW214268   3.614   6.048   2.099
 4457SOL     OW14269   4.445   1.418   2.277
 4457SOL    HW114270   4.412   1.329   2.308
 4457SOL    HW214271   4.375   1.487   2.294
 4458SOL     OW14272   1.655   3.049   6.896
 4458SOL    HW114273   1.650   2.973   6.830
 4458SOL    HW214274   1.562   3.072   6.926
 4459SOL     OW14275   3.560   0.808   4.867
 4459SOL    HW114276   3.634   0.765   4.815
 4459SOL    HW214277   3.590   0.823   4.961
 4460SOL     OW14278   2.905   2.683   5.772
 4460SOL    HW114279   2.981   2.712   5.713
 4460SOL    HW214280   2.837   2.756   5.776
 4461SOL     OW14281   1.237   0.463   1.405
 4461SOL    HW114282   1.177   0.417   1.340
 4461SOL    HW214283   1.216   0.561   1.406
 4462SOL     OW14284   6.081   4.805   1.826
 4462SOL    HW114285   6.140   4.733   1.862
 4462SOL    HW214286   6.114   4.894   1.856
 4463SOL     OW14287   5.178   1.998   0.055
 4463SOL    HW114288   5.178   1.907   0.095
 4463SOL    HW214289   5.174   1.991   6.978
 4464SOL     OW14290   6.442   5.464   0.908
 4464SOL    HW114291   6.476   5.500   0.995
 4464SOL    HW214292   6.491   5.507   0.833
 4465SOL     OW14293   2.833   5.692   1.217
 4465SOL    HW114294   2.734   5.695   1.228
 4465SOL    HW214295   2.860   5.602   1.183
 4466SOL     OW14296   1.526   1.686   3.143
 4466SOL    HW114297   1.521   1.660   3.239
 4466SOL    HW214298   1.622   1.698   3.117
 4467SOL     OW14299   1.726   6.710   2.765
 4467SOL    HW114300   1.653   6.644   2.751
 4467SOL    HW214301   1.784   6.680   2.841
 4468SOL     OW14302   1.910   2.950   0.567
 4468SOL    HW114303   1.817   2.955   0.532
 4468SOL    HW214304   1.929   3.030   0.624
 4469SOL     OW14305   3.784   0.877   1.625
 4469SOL    HW114306   3.720   0.950   1.647
 4469SOL    HW214307   3.757   0.793   1.672
 4470SOL     OW14308   5.963   2.266   2.406
 4470SOL    HW114309   6.032   2.194   2.401
 4470SOL    HW214310   5.969   2.323   2.324
 4471SOL     OW14311   0.875   2.062   6.577
 4471SOL    HW114312   0.841   1.993   6.641
 4471SOL    HW214313   0.846   2.038   6.484
 4472SOL     OW14314   1.406   3.323   2.516
 4472SOL    HW114315   1.450   3.256   2.455
 4472SOL    HW214316   1.309   3.302   2.523
 4473SOL     OW14317   6.371   2.731   4.662
 4473SOL    HW114318   6.295   2.789   4.633
 4473SOL    HW214319   6.358   2.706   4.758
 4474SOL     OW14320   2.440   0.760   1.853
 4474SOL    HW114321   2.539   0.750   1.848
 4474SOL    HW214322   2.399   0.675   1.885
 4475SOL     OW14323   1.911   3.772   2.976
 4475SOL    HW114324   2.000   3.780   3.022
 4475SOL    HW214325   1.914   3.820   2.888
 4476SOL     OW14326   4.095   0.044   3.211
 4476SOL    HW114327   4.146   0.113   3.262
 4476SOL    HW214328   4.005   0.080   3.186
 4477SOL     OW14329   2.226   6.877   5.049
 4477SOL    HW114330   2.190   6.882   4.955
 4477SOL    HW214331   2.150   6.885   5.113
 4478SOL     OW14332   3.832   6.923   3.039
 4478SOL    HW114333   3.919   6.960   3.005
 4478SOL    HW214334   3.834   6.823   3.034
 4479SOL     OW14335   0.836   0.999   1.929
 4479SOL    HW114336   0.840   1.098   1.938
 4479SOL    HW214337   0.908   0.957   1.985
 4480SOL     OW14338   1.433   3.971   5.154
 4480SOL    HW114339   1.508   3.931   5.207
 4480SOL    HW214340   1.399   4.053   5.202
 4481SOL     OW14341   3.173   6.012   4.862
 4481SOL    HW114342   3.229   6.079   4.814
 4481SOL    HW214343   3.231   5.957   4.922
 4482SOL     OW14344   0.903   3.195   4.384
 4482SOL    HW114345   0.961   3.113   4.385
 4482SOL    HW214346   0.903   3.236   4.476
 4483SOL     OW14347   5.789   2.801   2.317
 4483SOL    HW114348   5.858   2.789   2.388
 4483SOL    HW214349   5.705   2.754   2.343
 4484SOL     OW14350   2.919   2.513   6.277
 4484SOL    HW114351   2.894   2.527   6.181
 4484SOL    HW214352   2.905   2.418   6.301
 4485SOL     OW14353   5.793   1.813   5.303
 4485SOL    HW114354   5.850   1.760   5.240
 4485SOL    HW214355   5.838   1.900   5.324
 4486SOL     OW14356   5.297   4.414   5.265
 4486SOL    HW114357   5.313   4.316   5.280
 4486SOL    HW214358   5.378   4.455   5.222
 4487SOL     OW14359   2.243   2.978   6.166
 4487SOL    HW114360   2.216   3.036   6.243
 4487SOL    HW214361   2.338   2.949   6.179
 4488SOL     OW14362   0.261   3.260   6.478
 4488SOL    HW114363   0.188   3.209   6.523
 4488SOL    HW214364   0.321   3.196   6.429
 4489SOL     OW14365   5.441   5.493   4.493
 4489SOL    HW114366   5.455   5.405   4.539
 4489SOL    HW214367   5.428   5.564   4.562
 4490SOL     OW14368   6.261   2.863   2.740
 4490SOL    HW114369   6.345   2.914   2.758
 4490SOL    HW214370   6.222   2.831   2.826
 4491SOL     OW14371   6.798   2.437   4.611
 4491SOL    HW114372   6.765   2.422   4.518
 4491SOL    HW214373   6.897   2.419   4.615
 4492SOL     OW14374   5.652   4.235   1.319
 4492SOL    HW114375   5.712   4.251   1.398
 4492SOL    HW214376   5.574   4.180   1.347
 4493SOL     OW14377   4.736   5.346   4.764
 4493SOL    HW114378   4.757   5.279   4.693
 4493SOL    HW214379   4.640   5.375   4.755
 4494SOL     OW14380   0.259   1.198   6.646
 4494SOL    HW114381   0.299   1.144   6.721
 4494SOL    HW214382   0.160   1.202   6.657
 4495SOL     OW14383   3.699   6.572   4.188
 4495SOL    HW114384   3.799   6.577   4.197
 4495SOL    HW214385   3.662   6.516   4.262
 4496SOL     OW14386   5.429   6.215   1.434
 4496SOL    HW114387   5.362   6.141   1.438
 4496SOL    HW214388   5.516   6.184   1.474
 4497SOL     OW14389   5.140   1.060   7.007
 4497SOL    HW114390   5.216   1.033   6.948
 4497SOL    HW214391   5.115   0.984   0.044
 4498SOL     OW14392   0.074   4.156   0.544
 4498SOL    HW114393   0.021   4.126   0.465
 4498SOL    HW214394   0.105   4.077   0.597
 4499SOL     OW14395   6.484   3.720   5.082
 4499SOL    HW114396   6.509   3.815   5.063
 4499SOL    HW214397   6.464   3.672   4.996
 4500SOL     OW14398   3.019   3.247   4.365
 4500SOL    HW114399   2.945   3.277   4.425
 4500SOL    HW214400   3.106   3.285   4.398
 4501SOL     OW14401   0.199   3.267   3.454
 4501SOL    HW114402   0.215   3.326   3.376
 4501SOL    HW214403   0.190   3.322   3.537
 4502SOL     OW14404   0.847   2.993   6.698
 4502SOL    HW114405   0.910   2.917   6.715
 4502SOL    HW214406   0.877   3.073   6.750
 4503SOL     OW14407   3.487   6.857   1.634
 4503SOL    HW114408   3.404   6.838   1.583
 4503SOL    HW214409   3.465   6.913   1.714
 4504SOL     OW14410   6.506   1.009   5.342
 4504SOL    HW114411   6.461   1.090   5.305
 4504SOL    HW214412   6.605   1.016   5.329
 4505SOL     OW14413   5.401   4.852   1.751
 4505SOL    HW114414   5.496   4.850   1.718
 4505SOL    HW214415   5.400   4.850   1.851
 4506SOL     OW14416   4.459   2.282   3.462
 4506SOL    HW114417   4.433   2.192   3.427
 4506SOL    HW214418   4.412   2.300   3.548
 4507SOL     OW14419   5.050   4.552   2.450
 4507SOL    HW114420   5.137   4.528   2.407
 4507SOL    HW214421   4.999   4.469   2.471
 4508SOL     OW14422   1.215   5.347   6.549
 4508SOL    HW114423   1.198   5.428   6.605
 4508SOL    HW214424   1.196   5.265   6.603
 4509SOL     OW14425   4.390   2.355   2.693
 4509SOL    HW114426   4.295   2.324   2.700
 4509SOL    HW214427   4.413   2.411   2.772
 4510SOL     OW14428   3.619   1.504   4.237
 4510SOL    HW114429   3.701   1.546   4.277
 4510SOL    HW214430   3.538   1.536   4.285
 4511SOL     OW14431   6.464   3.356   0.570
 4511SOL    HW114432   6.512   3.294   0.632
 4511SOL    HW214433   6.500   3.448   0.580
 4512SOL     OW14434   2.839   1.399   5.599
 4512SOL    HW114435   2.794   1.407   5.511
 4512SOL    HW214436   2.780   1.349   5.663
 4513SOL     OW14437   6.276   5.327   0.345
 4513SOL    HW114438   6.367   5.288   0.334
 4513SOL    HW214439   6.251   5.379   0.263
 4514SOL     OW14440   4.307   1.956   6.524
 4514SOL    HW114441   4.365   2.036   6.511
 4514SOL    HW214442   4.215   1.986   6.553
 4515SOL     OW14443   6.796   1.341   5.770
 4515SOL    HW114444   6.759   1.344   5.863
 4515SOL    HW214445   6.792   1.247   5.736
 4516SOL     OW14446   1.855   0.262   6.684
 4516SOL    HW114447   1.919   0.219   6.747
 4516SOL    HW214448   1.771   0.286   6.732
 4517SOL     OW14449   3.857   0.911   6.835
 4517SOL    HW114450   3.911   0.951   6.761
 4517SOL    HW214451   3.843   0.979   6.906
 4518SOL     OW14452   6.544   0.353   3.045
 4518SOL    HW114453   6.508   0.279   3.102
 4518SOL    HW214454   6.469   0.398   2.997
 4519SOL     OW14455   6.605   0.205   1.547
 4519SOL    HW114456   6.642   0.224   1.456
 4519SOL    HW214457   6.573   0.290   1.588
 4520SOL     OW14458   4.613   6.328   4.698
 4520SOL    HW114459   4.576   6.411   4.655
 4520SOL    HW214460   4.551   6.252   4.681
 4521SOL     OW14461   6.365   1.602   4.051
 4521SOL    HW114462   6.286   1.651   4.089
 4521SOL    HW214463   6.423   1.666   4.000
 4522SOL     OW14464   5.850   6.034   3.145
 4522SOL    HW114465   5.899   6.069   3.225
 4522SOL    HW214466   5.914   6.022   3.069
 4523SOL     OW14467   0.756   4.347   0.083
 4523SOL    HW114468   0.770   4.295   7.021
 4523SOL    HW214469   0.786   4.293   0.161
 4524SOL     OW14470   6.359   2.668   3.336
 4524SOL    HW114471   6.393   2.597   3.276
 4524SOL    HW214472   6.355   2.755   3.286
 4525SOL     OW14473   4.909   1.441   5.413
 4525SOL    HW114474   4.866   1.444   5.503
 4525SOL    HW214475   4.848   1.484   5.346
 4526SOL     OW14476   6.645   0.321   0.995
 4526SOL    HW114477   6.664   0.351   1.089
 4526SOL    HW214478   6.710   0.249   0.970
 4527SOL     OW14479   5.078   1.068   3.602
 4527SOL    HW114480   5.080   1.164   3.628
 4527SOL    HW214481   5.165   1.043   3.560
 4528SOL     OW14482   5.162   0.550   0.592
 4528SOL    HW114483   5.109   0.632   0.572
 4528SOL    HW214484   5.250   0.576   0.632
 4529SOL     OW14485   2.452   0.692   5.248
 4529SOL    HW114486   2.504   0.606   5.253
 4529SOL    HW214487   2.469   0.745   5.331
 4530SOL     OW14488   2.005   5.039   5.163
 4530SOL    HW114489   2.025   4.956   5.111
 4530SOL    HW214490   2.090   5.085   5.186
 4531SOL     OW14491   0.312   2.652   4.861
 4531SOL    HW114492   0.229   2.626   4.910
 4531SOL    HW214493   0.303   2.746   4.828
 4532SOL     OW14494   6.621   1.567   2.780
 4532SOL    HW114495   6.697   1.510   2.749
 4532SOL    HW214496   6.561   1.588   2.702
 4533SOL     OW14497   1.106   1.774   1.980
 4533SOL    HW114498   1.148   1.863   1.966
 4533SOL    HW214499   1.128   1.714   1.903
 4534SOL     OW14500   4.817   4.118   3.919
 4534SOL    HW114501   4.782   4.048   3.982
 4534SOL    HW214502   4.826   4.205   3.968
 4535SOL     OW14503   3.615   0.793   2.832
 4535SOL    HW114504   3.547   0.726   2.859
 4535SOL    HW214505   3.612   0.871   2.894
 4536SOL     OW14506   3.379   1.656   4.329
 4536SOL    HW114507   3.461   1.702   4.295
 4536SOL    HW214508   3.342   1.597   4.258
 4537SOL     OW14509   4.474   3.430   6.983
 4537SOL    HW114510   4.394   3.386   0.002
 4537SOL    HW214511   4.493   3.388   6.894
 4538SOL     OW14512   1.427   0.569   3.124
 4538SOL    HW114513   1.422   0.509   3.044
 4538SOL    HW214514   1.374   0.530   3.199
 4539SOL     OW14515   2.598   0.172   4.840
 4539SOL    HW114516   2.597   0.256   4.894
 4539SOL    HW214517   2.616   0.094   4.900
 4540SOL     OW14518   2.904   2.403   5.637
 4540SOL    HW114519   2.975   2.445   5.581
 4540SOL    HW214520   2.849   2.475   5.681
 4541SOL     OW14521   6.184   1.739   0.984
 4541SOL    HW114522   6.116   1.792   1.035
 4541SOL    HW214523   6.159   1.643   0.984
 4542SOL     OW14524   0.108   1.276   2.066
 4542SOL    HW114525   0.073   1.246   2.155
 4542SOL    HW214526   0.199   1.238   2.051
 4543SOL     OW14527   4.363   2.131   1.822
 4543SOL    HW114528   4.356   2.138   1.723
 4543SOL    HW214529   4.281   2.171   1.864
 4544SOL     OW14530   3.242   6.403   5.877
 4544SOL    HW114531   3.292   6.429   5.959
 4544SOL    HW214532   3.256   6.305   5.859
 4545SOL     OW14533   5.479   3.729   4.325
 4545SOL    HW114534   5.476   3.744   4.226
 4545SOL    HW214535   5.387   3.738   4.363
 4546SOL     OW14536   1.588   1.136   5.240
 4546SOL    HW114537   1.557   1.147   5.145
 4546SOL    HW214538   1.509   1.144   5.301
 4547SOL     OW14539   5.702   2.301   2.768
 4547SOL    HW114540   5.639   2.291   2.691
 4547SOL    HW214541   5.785   2.348   2.737
 4548SOL     OW14542   1.173   3.430   3.610
 4548SOL    HW114543   1.199   3.467   3.699
 4548SOL    HW214544   1.077   3.404   3.611
 4549SOL     OW14545   6.931   3.932   1.550
 4549SOL    HW114546   6.860   4.002   1.543
 4549SOL    HW214547   6.890   3.843   1.568
 4550SOL     OW14548   1.043   4.790   3.086
 4550SOL    HW114549   1.106   4.793   3.164
 4550SOL    HW214550   0.963   4.845   3.106
 4551SOL     OW14551   0.428   2.394   5.168
 4551SOL    HW114552   0.370   2.476   5.163
 4551SOL    HW214553   0.377   2.320   5.212
 4552SOL     OW14554   6.212   3.404   1.708
 4552SOL    HW114555   6.234   3.425   1.804
 4552SOL    HW214556   6.297   3.383   1.659
 4553SOL     OW14557   3.164   4.542   6.468
 4553SOL    HW114558   3.152   4.592   6.554
 4553SOL    HW214559   3.253   4.567   6.428
 4554SOL     OW14560   5.946   0.227   1.629
 4554SOL    HW114561   5.882   0.252   1.556
 4554SOL    HW214562   6.035   0.271   1.612
 4555SOL     OW14563   2.583   2.539   5.728
 4555SOL    HW114564   2.509   2.607   5.727
 4555SOL    HW214565   2.616   2.527   5.821
 4556SOL     OW14566   5.546   3.098   4.129
 4556SOL    HW114567   5.541   3.022   4.065
 4556SOL    HW214568   5.506   3.071   4.216
 4557SOL     OW14569   4.840   6.260   5.713
 4557SOL    HW114570   4.914   6.201   5.681
 4557SOL    HW214571   4.760   6.205   5.734
 4558SOL     OW14572   0.506   4.127   5.020
 4558SOL    HW114573   0.510   4.038   5.066
 4558SOL    HW214574   0.454   4.191   5.076
 4559SOL     OW14575   0.342   4.062   1.417
 4559SOL    HW114576   0.261   4.005   1.432
 4559SOL    HW214577   0.367   4.109   1.501
 4560SOL     OW14578   5.334   4.401   1.547
 4560SOL    HW114579   5.269   4.471   1.577
 4560SOL    HW214580   5.403   4.443   1.487
 4561SOL     OW14581   1.996   1.960   2.790
 4561SOL    HW114582   1.925   1.910   2.740
 4561SOL    HW214583   1.954   2.030   2.847
 4562SOL     OW14584   2.538   6.109   5.570
 4562SOL    HW114585   2.621   6.061   5.543
 4562SOL    HW214586   2.560   6.176   5.641
 4563SOL     OW14587   0.367   2.947   1.424
 4563SOL    HW114588   0.457   2.929   1.383
 4563SOL    HW214589   0.377   3.011   1.500
 4564SOL     OW14590   6.747   6.171   1.572
 4564SOL    HW114591   6.685   6.101   1.535
 4564SOL    HW214592   6.807   6.129   1.640
 4565SOL     OW14593   0.820   1.198   4.849
 4565SOL    HW114594   0.746   1.141   4.886
 4565SOL    HW214595   0.837   1.274   4.911
 4566SOL     OW14596   6.554   2.973   0.341
 4566SOL    HW114597   6.513   2.927   0.262
 4566SOL    HW214598   6.614   2.909   0.389
 4567SOL     OW14599   6.413   0.266   0.072
 4567SOL    HW114600   6.485   0.334   0.086
 4567SOL    HW214601   6.393   0.221   0.159
 4568SOL     OW14602   2.620   3.960   5.546
 4568SOL    HW114603   2.659   4.041   5.591
 4568SOL    HW214604   2.645   3.960   5.450
 4569SOL     OW14605   2.043   1.766   2.970
 4569SOL    HW114606   2.050   1.801   2.877
 4569SOL    HW214607   2.119   1.801   3.025
 4570SOL     OW14608   1.003   6.702   3.320
 4570SOL    HW114609   1.074   6.739   3.260
 4570SOL    HW214610   1.026   6.608   3.344
 4571SOL     OW14611   4.015   4.058   6.289
 4571SOL    HW114612   4.040   4.138   6.345
 4571SOL    HW214613   3.920   4.033   6.307
 4572SOL     OW14614   1.626   0.475   6.459
 4572SOL    HW114615   1.545   0.434   6.500
 4572SOL    HW214616   1.628   0.455   6.361
 4573SOL     OW14617   6.399   1.046   0.366
 4573SOL    HW114618   6.390   1.115   0.293
 4573SOL    HW214619   6.489   1.054   0.408
 4574SOL     OW14620   5.900   4.026   0.942
 4574SOL    HW114621   5.949   4.091   0.999
 4574SOL    HW214622   5.943   4.022   0.852
 4575SOL     OW14623   5.894   0.853   6.449
 4575SOL    HW114624   5.854   0.769   6.485
 4575SOL    HW214625   5.991   0.839   6.431
 4576SOL     OW14626   2.816   6.386   5.843
 4576SOL    HW114627   2.830   6.359   5.938
 4576SOL    HW214628   2.895   6.359   5.789
 4577SOL     OW14629   1.657   2.658   4.658
 4577SOL    HW114630   1.580   2.595   4.672
 4577SOL    HW214631   1.738   2.605   4.633
 4578SOL     OW14632   0.823   2.756   5.160
 4578SOL    HW114633   0.834   2.778   5.063
 4578SOL    HW214634   0.832   2.840   5.214
 4579SOL     OW14635   3.889   0.832   3.418
 4579SOL    HW114636   3.912   0.780   3.500
 4579SOL    HW214637   3.801   0.800   3.382
 4580SOL     OW14638   5.737   5.321   0.318
 4580SOL    HW114639   5.742   5.371   0.404
 4580SOL    HW214640   5.828   5.311   0.280
 4581SOL     OW14641   2.155   5.008   2.683
 4581SOL    HW114642   2.119   5.008   2.777
 4581SOL    HW214643   2.233   5.071   2.678
 4582SOL     OW14644   5.349   0.205   5.129
 4582SOL    HW114645   5.349   0.260   5.046
 4582SOL    HW214646   5.334   0.264   5.209
 4583SOL     OW14647   2.310   2.592   6.598
 4583SOL    HW114648   2.369   2.574   6.519
 4583SOL    HW214649   2.353   2.555   6.681
 4584SOL     OW14650   0.648   4.643   5.841
 4584SOL    HW114651   0.706   4.642   5.760
 4584SOL    HW214652   0.613   4.736   5.855
 4585SOL     OW14653   3.463   5.851   2.985
 4585SOL    HW114654   3.476   5.754   2.962
 4585SOL    HW214655   3.376   5.863   3.032
 4586SOL     OW14656   3.287   5.267   0.383
 4586SOL    HW114657   3.211   5.294   0.442
 4586SOL    HW214658   3.374   5.292   0.427
 4587SOL     OW14659   3.790   3.765   3.179
 4587SOL    HW114660   3.744   3.833   3.235
 4587SOL    HW214661   3.888   3.784   3.177
 4588SOL     OW14662   2.835   3.293   5.188
 4588SOL    HW114663   2.811   3.226   5.258
 4588SOL    HW214664   2.880   3.247   5.112
 4589SOL     OW14665   6.450   1.049   2.497
 4589SOL    HW114666   6.441   0.958   2.456
 4589SOL    HW214667   6.378   1.063   2.565
 4590SOL     OW14668   4.898   6.114   1.381
 4590SOL    HW114669   4.940   6.199   1.349
 4590SOL    HW214670   4.819   6.134   1.438
 4591SOL     OW14671   0.934   6.476   4.874
 4591SOL    HW114672   1.017   6.476   4.817
 4591SOL    HW214673   0.873   6.404   4.844
 4592SOL     OW14674   2.707   1.582   2.237
 4592SOL    HW114675   2.651   1.506   2.270
 4592SOL    HW214676   2.655   1.634   2.169
 4593SOL     OW14677   4.778   5.691   2.571
 4593SOL    HW114678   4.736   5.777   2.599
 4593SOL    HW214679   4.822   5.649   2.650
 4594SOL     OW14680   2.759   1.554   2.900
 4594SOL    HW114681   2.744   1.577   2.804
 4594SOL    HW214682   2.780   1.638   2.951
 4595SOL     OW14683   3.518   3.244   6.314
 4595SOL    HW114684   3.577   3.250   6.234
 4595SOL    HW214685   3.546   3.167   6.371
 4596SOL     OW14686   5.635   0.037   2.071
 4596SOL    HW114687   5.614   7.012   1.985
 4596SOL    HW214688   5.607   0.133   2.063
 4597SOL     OW14689   4.030   5.290   5.851
 4597SOL    HW114690   4.127   5.304   5.831
 4597SOL    HW214691   4.021   5.216   5.919
 4598SOL     OW14692   2.598   6.329   6.740
 4598SOL    HW114693   2.574   6.308   6.834
 4598SOL    HW214694   2.652   6.254   6.701
 4599SOL     OW14695   1.462   4.704   0.771
 4599SOL    HW114696   1.473   4.625   0.832
 4599SOL    HW214697   1.475   4.675   0.676
 4600SOL     OW14698   0.847   5.336   5.806
 4600SOL    HW114699   0.790   5.368   5.731
 4600SOL    HW214700   0.836   5.237   5.817
 4601SOL     OW14701   1.922   1.195   5.437
 4601SOL    HW114702   1.919   1.264   5.510
 4601SOL    HW214703   2.014   1.192   5.398
 4602SOL     OW14704   2.100   6.340   1.535
 4602SOL    HW114705   2.088   6.251   1.580
 4602SOL    HW214706   2.127   6.326   1.440
 4603SOL     OW14707   3.000   6.436   0.558
 4603SOL    HW114708   2.949   6.375   0.618
 4603SOL    HW214709   3.030   6.386   0.477
 4604SOL     OW14710   4.303   0.857   0.747
 4604SOL    HW114711   4.365   0.786   0.714
 4604SOL    HW214712   4.223   0.862   0.688
 4605SOL     OW14713   2.944   0.179   2.792
 4605SOL    HW114714   3.001   0.194   2.873
 4605SOL    HW214715   2.923   0.266   2.749
 4606SOL     OW14716   1.035   6.018   2.311
 4606SOL    HW114717   1.099   6.006   2.235
 4606SOL    HW214718   1.073   6.083   2.377
 4607SOL     OW14719   1.686   3.327   1.210
 4607SOL    HW114720   1.672   3.228   1.202
 4607SOL    HW214721   1.621   3.365   1.275
 4608SOL     OW14722   0.670   6.395   3.562
 4608SOL    HW114723   0.664   6.490   3.591
 4608SOL    HW214724   0.761   6.359   3.584
 4609SOL     OW14725   4.255   5.535   6.729
 4609SOL    HW114726   4.188   5.462   6.739
 4609SOL    HW214727   4.254   5.592   6.811
 4610SOL     OW14728   4.708   2.757   0.644
 4610SOL    HW114729   4.786   2.696   0.628
 4610SOL    HW214730   4.736   2.852   0.627
 4611SOL     OW14731   0.651   5.759   6.484
 4611SOL    HW114732   0.598   5.844   6.487
 4611SOL    HW214733   0.745   5.779   6.456
 4612SOL     OW14734   1.604   5.913   0.085
 4612SOL    HW114735   1.547   5.968   0.024
 4612SOL    HW214736   1.700   5.919   0.055
 4613SOL     OW14737   2.696   6.095   1.993
 4613SOL    HW114738   2.659   6.005   1.970
 4613SOL    HW214739   2.757   6.127   1.920
 4614SOL     OW14740   6.982   3.016   4.473
 4614SOL    HW114741   6.949   2.954   4.544
 4614SOL    HW214742   0.059   3.007   4.464
 4615SOL     OW14743   1.959   0.243   7.012
 4615SOL    HW114744   1.869   0.200   7.012
 4615SOL    HW214745   2.027   0.178   6.977
 4616SOL     OW14746   6.430   0.546   5.018
 4616SOL    HW114747   6.401   0.479   5.085
 4616SOL    HW214748   6.351   0.573   4.962
 4617SOL     OW14749   0.442   2.360   2.495
 4617SOL    HW114750   0.346   2.334   2.510
 4617SOL    HW214751   0.486   2.292   2.437
 4618SOL     OW14752   2.425   2.742   4.629
 4618SOL    HW114753   2.428   2.821   4.690
 4618SOL    HW214754   2.468   2.664   4.674
 4619SOL     OW14755   3.330   6.323   3.271
 4619SOL    HW114756   3.291   6.363   3.354
 4619SOL    HW214757   3.428   6.309   3.283
 4620SOL     OW14758   2.712   4.805   0.782
 4620SOL    HW114759   2.802   4.761   0.791
 4620SOL    HW214760   2.663   4.796   0.869
 4621SOL     OW14761   5.292   0.801   2.150
 4621SOL    HW114762   5.218   0.735   2.139
 4621SOL    HW214763   5.341   0.780   2.235
 4622SOL     OW14764   2.566   4.815   1.029
 4622SOL    HW114765   2.622   4.784   1.106
 4622SOL    HW214766   2.501   4.743   1.004
 4623SOL     OW14767   4.835   6.549   0.605
 4623SOL    HW114768   4.869   6.462   0.571
 4623SOL    HW214769   4.738   6.559   0.583
 4624SOL     OW14770   4.655   0.241   3.223
 4624SOL    HW114771   4.615   0.189   3.148
 4624SOL    HW214772   4.643   0.339   3.207
 4625SOL     OW14773   2.520   4.418   1.126
 4625SOL    HW114774   2.509   4.466   1.213
 4625SOL    HW214775   2.543   4.322   1.144
 4626SOL     OW14776   5.139   4.547   1.699
 4626SOL    HW114777   5.213   4.537   1.765
 4626SOL    HW214778   5.057   4.503   1.734
 4627SOL     OW14779   2.394   4.605   4.708
 4627SOL    HW114780   2.463   4.631   4.777
 4627SOL    HW214781   2.360   4.514   4.728
 4628SOL     OW14782   6.545   4.143   3.756
 4628SOL    HW114783   6.549   4.057   3.806
 4628SOL    HW214784   6.569   4.219   3.816
 4629SOL     OW14785   2.309   5.480   5.816
 4629SOL    HW114786   2.223   5.427   5.815
 4629SOL    HW214787   2.325   5.518   5.725
 4630SOL     OW14788   3.086   5.479   2.573
 4630SOL    HW114789   3.045   5.398   2.615
 4630SOL    HW214790   3.122   5.539   2.644
 4631SOL     OW14791   1.765   5.812   3.340
 4631SOL    HW114792   1.720   5.879   3.281
 4631SOL    HW214793   1.806   5.740   3.284
 4632SOL     OW14794   3.403   4.933   2.538
 4632SOL    HW114795   3.438   4.907   2.628
 4632SOL    HW214796   3.303   4.934   2.539
 4633SOL     OW14797   5.583   0.242   4.472
 4633SOL    HW114798   5.595   0.143   4.466
 4633SOL    HW214799   5.645   0.287   4.408
 4634SOL     OW14800   3.546   4.431   5.751
 4634SOL    HW114801   3.504   4.480   5.675
 4634SOL    HW214802   3.640   4.462   5.762
 4635SOL     OW14803   4.550   3.997   1.225
 4635SOL    HW114804   4.455   3.989   1.196
 4635SOL    HW214805   4.569   3.930   1.297
 4636SOL     OW14806   1.614   4.473   0.057
 4636SOL    HW114807   1.522   4.458   0.091
 4636SOL    HW214808   1.654   4.553   0.102
 4637SOL     OW14809   0.818   6.049   1.471
 4637SOL    HW114810   0.764   6.120   1.424
 4637SOL    HW214811   0.896   6.024   1.414
 4638SOL     OW14812   4.542   4.684   6.415
 4638SOL    HW114813   4.608   4.745   6.459
 4638SOL    HW214814   4.451   4.703   6.450
 4639SOL     OW14815   3.410   4.201   5.780
 4639SOL    HW114816   3.456   4.289   5.767
 4639SOL    HW214817   3.375   4.168   5.692
 4640SOL     OW14818   4.935   3.976   3.696
 4640SOL    HW114819   4.888   3.888   3.687
 4640SOL    HW214820   4.893   4.029   3.769
 4641SOL     OW14821   2.679   6.939   5.007
 4641SOL    HW114822   2.606   6.870   5.007
 4641SOL    HW214823   2.767   6.894   4.989
 4642SOL     OW14824   1.027   5.466   4.581
 4642SOL    HW114825   1.064   5.542   4.634
 4642SOL    HW214826   0.976   5.502   4.503
 4643SOL     OW14827   6.409   2.678   1.166
 4643SOL    HW114828   6.341   2.605   1.157
 4643SOL    HW214829   6.363   2.766   1.175
 4644SOL     OW14830   6.562   5.283   5.130
 4644SOL    HW114831   6.476   5.232   5.124
 4644SOL    HW214832   6.548   5.366   5.183
 4645SOL     OW14833   0.405   0.460   4.028
 4645SOL    HW114834   0.476   0.516   3.985
 4645SOL    HW214835   0.387   0.380   3.971
 4646SOL     OW14836   1.833   5.986   4.014
 4646SOL    HW114837   1.876   5.945   4.095
 4646SOL    HW214838   1.818   5.916   3.945
 4647SOL     OW14839   1.695   0.539   3.238
 4647SOL    HW114840   1.710   0.445   3.270
 4647SOL    HW214841   1.615   0.541   3.177
 4648SOL     OW14842   3.724   1.091   2.597
 4648SOL    HW114843   3.647   1.044   2.553
 4648SOL    HW214844   3.799   1.100   2.533
 4649SOL     OW14845   5.481   0.351   0.116
 4649SOL    HW114846   5.402   0.311   0.071
 4649SOL    HW214847   5.454   0.387   0.206
 4650SOL     OW14848   4.621   5.331   2.484
 4650SOL    HW114849   4.663   5.418   2.458
 4650SOL    HW214850   4.522   5.343   2.492
 4651SOL     OW14851   6.721   3.008   0.901
 4651SOL    HW114852   6.766   2.996   0.812
 4651SOL    HW214853   6.687   2.920   0.934
 4652SOL     OW14854   6.536   6.869   4.007
 4652SOL    HW114855   6.578   6.816   3.933
 4652SOL    HW214856   6.580   6.959   4.013
 4653SOL     OW14857   5.531   5.060   0.752
 4653SOL    HW114858   5.521   4.975   0.700
 4653SOL    HW214859   5.615   5.106   0.723
 4654SOL     OW14860   0.955   0.024   0.342
 4654SOL    HW114861   0.866   7.001   0.342
 4654SOL    HW214862   0.964   0.079   0.426
 4655SOL     OW14863   4.782   4.062   1.078
 4655SOL    HW114864   4.818   4.146   1.120
 4655SOL    HW214865   4.698   4.035   1.124
 4656SOL     OW14866   1.422   0.298   2.366
 4656SOL    HW114867   1.512   0.297   2.409
 4656SOL    HW214868   1.431   0.319   2.269
 4657SOL     OW14869   4.570   6.628   1.551
 4657SOL    HW114870   4.647   6.606   1.491
 4657SOL    HW214871   4.506   6.688   1.503
 4658SOL     OW14872   3.486   1.301   2.926
 4658SOL    HW114873   3.388   1.282   2.930
 4658SOL    HW214874   3.522   1.312   3.019
 4659SOL     OW14875   3.618   5.154   5.191
 4659SOL    HW114876   3.532   5.120   5.229
 4659SOL    HW214877   3.611   5.159   5.092
 4660SOL     OW14878   1.336   3.884   5.871
 4660SOL    HW114879   1.244   3.862   5.839
 4660SOL    HW214880   1.383   3.799   5.897
 4661SOL     OW14881   2.730   4.420   5.582
 4661SOL    HW114882   2.751   4.323   5.597
 4661SOL    HW214883   2.716   4.465   5.670
 4662SOL     OW14884   3.136   0.004   5.481
 4662SOL    HW114885   3.181   7.006   5.568
 4662SOL    HW214886   3.051   0.054   5.498
 4663SOL     OW14887   0.463   1.711   1.691
 4663SOL    HW114888   0.509   1.678   1.774
 4663SOL    HW214889   0.365   1.690   1.697
 4664SOL     OW14890   1.434   0.951   0.923
 4664SOL    HW114891   1.385   1.018   0.978
 4664SOL    HW214892   1.454   0.989   0.833
 4665SOL     OW14893   3.750   0.223   6.359
 4665SOL    HW114894   3.727   0.139   6.408
 4665SOL    HW214895   3.685   0.295   6.386
 4666SOL     OW14896   1.582   2.525   0.520
 4666SOL    HW114897   1.622   2.562   0.436
 4666SOL    HW214898   1.628   2.565   0.599
 4667SOL     OW14899   6.469   3.242   2.187
 4667SOL    HW114900   6.513   3.265   2.100
 4667SOL    HW214901   6.442   3.146   2.186
 4668SOL     OW14902   4.457   2.270   2.443
 4668SOL    HW114903   4.435   2.302   2.536
 4668SOL    HW214904   4.511   2.186   2.449
 4669SOL     OW14905   4.657   6.653   6.170
 4669SOL    HW114906   4.702   6.574   6.212
 4669SOL    HW214907   4.655   6.642   6.071
 4670SOL     OW14908   2.247   2.660   5.735
 4670SOL    HW114909   2.305   2.741   5.745
 4670SOL    HW214910   2.162   2.686   5.688
 4671SOL     OW14911   6.983   2.403   0.860
 4671SOL    HW114912   6.899   2.405   0.915
 4671SOL    HW214913   0.023   2.474   0.894
 4672SOL     OW14914   2.326   4.644   5.906
 4672SOL    HW114915   2.397   4.574   5.894
 4672SOL    HW214916   2.238   4.600   5.922
 4673SOL     OW14917   5.160   0.371   1.821
 4673SOL    HW114918   5.179   0.460   1.781
 4673SOL    HW214919   5.245   0.319   1.829
 4674SOL     OW14920   5.499   0.527   6.605
 4674SOL    HW114921   5.532   0.441   6.565
 4674SOL    HW214922   5.443   0.576   6.538
 4675SOL     OW14923   1.920   1.266   6.374
 4675SOL    HW114924   1.827   1.293   6.349
 4675SOL    HW214925   1.982   1.343   6.356
 4676SOL     OW14926   6.951   6.228   3.687
 4676SOL    HW114927   6.965   6.187   3.596
 4676SOL    HW214928   7.003   6.177   3.755
 4677SOL     OW14929   2.306   1.665   6.541
 4677SOL    HW114930   2.206   1.673   6.538
 4677SOL    HW214931   2.346   1.738   6.486
 4678SOL     OW14932   2.051   4.226   3.145
 4678SOL    HW114933   2.035   4.261   3.053
 4678SOL    HW214934   2.024   4.295   3.212
 4679SOL     OW14935   4.072   1.085   0.539
 4679SOL    HW114936   4.080   1.170   0.487
 4679SOL    HW214937   4.064   1.008   0.476
 4680SOL     OW14938   3.299   1.450   0.717
 4680SOL    HW114939   3.294   1.493   0.806
 4680SOL    HW214940   3.389   1.466   0.676
 4681SOL     OW14941   5.059   6.005   6.119
 4681SOL    HW114942   5.016   5.915   6.107
 4681SOL    HW214943   5.098   6.010   6.211
 4682SOL     OW14944   4.582   4.536   5.731
 4682SOL    HW114945   4.592   4.628   5.695
 4682SOL    HW214946   4.602   4.469   5.659
 4683SOL     OW14947   4.346   5.014   2.775
 4683SOL    HW114948   4.429   5.041   2.726
 4683SOL    HW214949   4.357   4.922   2.812
 4684SOL     OW14950   6.509   1.358   4.904
 4684SOL    HW114951   6.480   1.274   4.950
 4684SOL    HW214952   6.566   1.412   4.966
 4685SOL     OW14953   0.587   5.902   5.669
 4685SOL    HW114954   0.549   5.819   5.711
 4685SOL    HW214955   0.566   5.981   5.726
 4686SOL     OW14956   4.096   5.185   0.021
 4686SOL    HW114957   4.019   5.124   0.038
 4686SOL    HW214958   4.172   5.161   0.081
 4687SOL     OW14959   6.441   3.939   4.803
 4687SOL    HW114960   6.459   3.954   4.901
 4687SOL    HW214961   6.444   4.027   4.755
 4688SOL     OW14962   6.103   4.369   4.588
 4688SOL    HW114963   6.079   4.455   4.544
 4688SOL    HW214964   6.032   4.301   4.569
 4689SOL     OW14965   5.692   1.095   0.433
 4689SOL    HW114966   5.696   0.996   0.417
 4689SOL    HW214967   5.688   1.112   0.532
 4690SOL     OW14968   1.045   6.747   6.991
 4690SOL    HW114969   1.122   6.693   6.956
 4690SOL    HW214970   1.066   6.844   6.981
 4691SOL     OW14971   3.185   5.339   1.918
 4691SOL    HW114972   3.093   5.353   1.953
 4691SOL    HW214973   3.184   5.265   1.851
 4692SOL     OW14974   5.865   5.439   1.823
 4692SOL    HW114975   5.950   5.490   1.809
 4692SOL    HW214976   5.880   5.367   1.891
 4693SOL     OW14977   0.707   1.749   3.112
 4693SOL    HW114978   0.737   1.654   3.118
 4693SOL    HW214979   0.719   1.782   3.019
 4694SOL     OW14980   1.938   0.516   6.898
 4694SOL    HW114981   1.946   0.420   6.925
 4694SOL    HW214982   1.995   0.533   6.817
 4695SOL     OW14983   1.682   3.659   1.874
 4695SOL    HW114984   1.767   3.614   1.900
 4695SOL    HW214985   1.606   3.595   1.885
 4696SOL     OW14986   0.408   4.067   0.376
 4696SOL    HW114987   0.414   4.086   0.474
 4696SOL    HW214988   0.400   3.968   0.362
 4697SOL     OW14989   2.003   3.102   0.947
 4697SOL    HW114990   1.908   3.084   0.975
 4697SOL    HW214991   2.065   3.079   1.022
 4698SOL     OW14992   4.559   5.113   2.653
 4698SOL    HW114993   4.577   5.031   2.600
 4698SOL    HW214994   4.607   5.191   2.612
 4699SOL     OW14995   1.887   6.807   2.140
 4699SOL    HW114996   1.917   6.857   2.221
 4699SOL    HW214997   1.870   6.872   2.065
 4700SOL     OW14998   6.717   1.246   3.015
 4700SOL    HW114999   6.625   1.207   3.021
 4700SOL    HW215000   6.710   1.346   3.017
 4701SOL     OW15001   2.430   2.260   6.991
 4701SOL    HW115002   2.393   2.176   0.007
 4701SOL    HW215003   2.516   2.283   0.015
 4702SOL     OW15004   3.952   5.333   0.324
 4702SOL    HW115005   4.048   5.350   0.347
 4702SOL    HW215006   3.937   5.349   0.227
 4703SOL     OW15007   0.892   1.268   1.569
 4703SOL    HW115008   0.944   1.327   1.507
 4703SOL    HW215009   0.950   1.240   1.646
 4704SOL     OW15010   0.438   6.400   0.668
 4704SOL    HW115011   0.426   6.405   0.569
 4704SOL    HW215012   0.479   6.312   0.693
 4705SOL     OW15013   3.723   3.241   2.258
 4705SOL    HW115014   3.666   3.178   2.206
 4705SOL    HW215015   3.716   3.333   2.218
 4706SOL     OW15016   3.421   0.370   6.813
 4706SOL    HW115017   3.517   0.378   6.788
 4706SOL    HW215018   3.380   0.461   6.818
 4707SOL     OW15019   1.818   6.432   1.431
 4707SOL    HW115020   1.844   6.398   1.341
 4707SOL    HW215021   1.901   6.450   1.485
 4708SOL     OW15022   1.205   1.588   6.707
 4708SOL    HW115023   1.276   1.655   6.728
 4708SOL    HW215024   1.189   1.587   6.608
 4709SOL     OW15025   4.399   6.033   5.743
 4709SOL    HW115026   4.309   6.073   5.724
 4709SOL    HW215027   4.448   6.020   5.657
 4710SOL     OW15028   4.232   0.813   5.404
 4710SOL    HW115029   4.188   0.775   5.485
 4710SOL    HW215030   4.302   0.879   5.432
 4711SOL     OW15031   5.931   1.169   1.757
 4711SOL    HW115032   5.879   1.158   1.672
 4711SOL    HW215033   6.010   1.108   1.755
 4712SOL     OW15034   2.959   4.508   0.245
 4712SOL    HW115035   3.033   4.491   0.180
 4712SOL    HW215036   2.951   4.606   0.263
 4713SOL     OW15037   3.722   4.061   0.431
 4713SOL    HW115038   3.719   4.111   0.518
 4713SOL    HW215039   3.628   4.047   0.398
 4714SOL     OW15040   0.713   2.220   6.849
 4714SOL    HW115041   0.776   2.245   6.777
 4714SOL    HW215042   0.736   2.270   6.933
 4715SOL     OW15043   5.495   2.317   2.569
 4715SOL    HW115044   5.410   2.364   2.593
 4715SOL    HW215045   5.474   2.226   2.534
 4716SOL     OW15046   4.724   6.090   6.370
 4716SOL    HW115047   4.641   6.035   6.365
 4716SOL    HW215048   4.733   6.129   6.462
 4717SOL     OW15049   0.015   0.261   3.885
 4717SOL    HW115050   6.989   0.318   3.819
 4717SOL    HW215051   0.107   0.242   3.853
 4718SOL     OW15052   5.467   2.796   1.614
 4718SOL    HW115053   5.425   2.886   1.627
 4718SOL    HW215054   5.396   2.726   1.605
 4719SOL     OW15055   4.938   3.224   1.590
 4719SOL    HW115056   4.994   3.143   1.605
 4719SOL    HW215057   4.842   3.202   1.606
 4720SOL     OW15058   2.095   5.771   5.798
 4720SOL    HW115059   2.036   5.744   5.874
 4720SOL    HW215060   2.189   5.782   5.831
 4721SOL     OW15061   6.510   2.169   2.121
 4721SOL    HW115062   6.475   2.263   2.113
 4721SOL    HW215063   6.473   2.113   2.048
 4722SOL     OW15064   0.896   5.845   6.404
 4722SOL    HW115065   0.958   5.885   6.471
 4722SOL    HW215066   0.943   5.839   6.315
 4723SOL     OW15067   2.500   4.030   5.920
 4723SOL    HW115068   2.425   3.996   5.863
 4723SOL    HW215069   2.482   4.007   6.016
 4724SOL     OW15070   6.309   6.108   2.287
 4724SOL    HW115071   6.248   6.111   2.208
 4724SOL    HW215072   6.358   6.020   2.288
 4725SOL     OW15073   6.388   5.480   2.197
 4725SOL    HW115074   6.334   5.519   2.271
 4725SOL    HW215075   6.402   5.382   2.214
 4726SOL     OW15076   1.527   2.296   6.044
 4726SOL    HW115077   1.537   2.279   6.142
 4726SOL    HW215078   1.602   2.354   6.013
 4727SOL     OW15079   1.416   5.837   1.075
 4727SOL    HW115080   1.506   5.797   1.061
 4727SOL    HW215081   1.348   5.784   1.024
 4728SOL     OW15082   6.543   1.000   1.979
 4728SOL    HW115083   6.605   1.071   1.947
 4728SOL    HW215084   6.596   0.920   2.006
 4729SOL     OW15085   2.854   1.403   0.564
 4729SOL    HW115086   2.893   1.311   0.572
 4729SOL    HW215087   2.776   1.411   0.626
 4730SOL     OW15088   3.303   5.975   5.222
 4730SOL    HW115089   3.323   5.894   5.276
 4730SOL    HW215090   3.218   5.961   5.170
 4731SOL     OW15091   4.280   6.919   7.014
 4731SOL    HW115092   4.305   6.868   6.931
 4731SOL    HW215093   4.246   6.855   0.061
 4732SOL     OW15094   1.031   2.938   5.964
 4732SOL    HW115095   1.111   2.969   5.914
 4732SOL    HW215096   0.957   3.004   5.954
 4733SOL     OW15097   1.227   3.875   3.596
 4733SOL    HW115098   1.222   3.778   3.574
 4733SOL    HW215099   1.321   3.907   3.585
 4734SOL     OW15100   4.238   2.681   0.105
 4734SOL    HW115101   4.269   2.718   0.193
 4734SOL    HW215102   4.202   2.756   0.049
 4735SOL     OW15103   6.824   5.501   4.541
 4735SOL    HW115104   6.837   5.439   4.618
 4735SOL    HW215105   6.814   5.594   4.575
 4736SOL     OW15106   6.940   1.521   5.949
 4736SOL    HW115107   6.896   1.469   5.876
 4736SOL    HW215108   0.009   1.484   5.966
 4737SOL     OW15109   2.601   4.547   2.346
 4737SOL    HW115110   2.662   4.615   2.305
 4737SOL    HW215111   2.534   4.593   2.405
 4738SOL     OW15112   0.459   6.391   2.869
 4738SOL    HW115113   0.406   6.459   2.818
 4738SOL    HW215114   0.483   6.315   2.808
 4739SOL     OW15115   3.986   0.345   3.508
 4739SOL    HW115116   4.058   0.288   3.469
 4739SOL    HW215117   4.007   0.442   3.493
 4740SOL     OW15118   1.081   1.182   1.759
 4740SOL    HW115119   1.164   1.149   1.715
 4740SOL    HW215120   1.101   1.207   1.854
 4741SOL     OW15121   3.867   3.637   0.997
 4741SOL    HW115122   3.868   3.568   0.925
 4741SOL    HW215123   3.918   3.718   0.967
 4742SOL     OW15124   3.571   6.785   6.089
 4742SOL    HW115125   3.585   6.768   5.991
 4742SOL    HW215126   3.594   6.880   6.109
 4743SOL     OW15127   1.554   3.181   3.549
 4743SOL    HW115128   1.613   3.237   3.608
 4743SOL    HW215129   1.607   3.144   3.474
 4744SOL     OW15130   2.176   4.384   0.582
 4744SOL    HW115131   2.086   4.407   0.547
 4744SOL    HW215132   2.173   4.296   0.630
 4745SOL     OW15133   3.137   4.507   5.997
 4745SOL    HW115134   3.126   4.445   6.075
 4745SOL    HW215135   3.222   4.559   6.007
 4746SOL     OW15136   5.511   5.592   2.281
 4746SOL    HW115137   5.430   5.651   2.288
 4746SOL    HW215138   5.501   5.514   2.343
 4747SOL     OW15139   1.937   3.984   0.276
 4747SOL    HW115140   1.960   3.925   0.354
 4747SOL    HW215141   1.989   3.955   0.196
 4748SOL     OW15142   2.170   5.574   0.929
 4748SOL    HW115143   2.167   5.476   0.911
 4748SOL    HW215144   2.122   5.623   0.857
 4749SOL     OW15145   1.928   6.520   5.832
 4749SOL    HW115146   1.878   6.541   5.748
 4749SOL    HW215147   1.895   6.435   5.871
 4750SOL     OW15148   0.613   4.085   4.291
 4750SOL    HW115149   0.658   4.128   4.370
 4750SOL    HW215150   0.656   3.997   4.273
 4751SOL     OW15151   3.892   2.025   2.307
 4751SOL    HW115152   3.940   1.947   2.347
 4751SOL    HW215153   3.913   2.031   2.210
 4752SOL     OW15154   4.538   1.306   6.576
 4752SOL    HW115155   4.487   1.226   6.608
 4752SOL    HW215156   4.518   1.321   6.480
 4753SOL     OW15157   5.819   0.100   3.881
 4753SOL    HW115158   5.857   0.115   3.790
 4753SOL    HW215159   5.733   0.051   3.874
 4754SOL     OW15160   5.947   5.909   4.363
 4754SOL    HW115161   5.935   5.950   4.454
 4754SOL    HW215162   5.972   5.813   4.374
 4755SOL     OW15163   3.042   0.566   0.370
 4755SOL    HW115164   3.097   0.515   0.303
 4755SOL    HW215165   3.094   0.576   0.454
 4756SOL     OW15166   5.498   2.640   0.267
 4756SOL    HW115167   5.465   2.561   0.319
 4756SOL    HW215168   5.587   2.668   0.303
 4757SOL     OW15169   2.647   1.390   0.733
 4757SOL    HW115170   2.618   1.408   0.827
 4757SOL    HW215171   2.567   1.382   0.674
 4758SOL     OW15172   1.662   6.436   3.455
 4758SOL    HW115173   1.651   6.358   3.394
 4758SOL    HW215174   1.581   6.444   3.514
 4759SOL     OW15175   6.409   4.752   4.869
 4759SOL    HW115176   6.396   4.653   4.860
 4759SOL    HW215177   6.479   4.770   4.938
 4760SOL     OW15178   2.511   1.736   0.730
 4760SOL    HW115179   2.492   1.776   0.820
 4760SOL    HW215180   2.610   1.732   0.715
 4761SOL     OW15181   0.771   5.526   0.283
 4761SOL    HW115182   0.681   5.534   0.241
 4761SOL    HW215183   0.839   5.506   0.213
 4762SOL     OW15184   1.347   5.741   2.339
 4762SOL    HW115185   1.283   5.732   2.262
 4762SOL    HW215186   1.296   5.769   2.421
 4763SOL     OW15187   5.911   6.616   3.192
 4763SOL    HW115188   5.827   6.565   3.171
 4763SOL    HW215189   5.891   6.685   3.261
 4764SOL     OW15190   4.948   3.723   4.840
 4764SOL    HW115191   4.900   3.684   4.918
 4764SOL    HW215192   4.984   3.649   4.783
 4765SOL     OW15193   4.730   1.204   4.597
 4765SOL    HW115194   4.827   1.223   4.610
 4765SOL    HW215195   4.698   1.140   4.666
 4766SOL     OW15196   5.287   5.832   4.116
 4766SOL    HW115197   5.232   5.819   4.199
 4766SOL    HW215198   5.381   5.854   4.140
 4767SOL     OW15199   2.978   5.443   5.197
 4767SOL    HW115200   3.037   5.368   5.166
 4767SOL    HW215201   3.008   5.528   5.154
 4768SOL     OW15202   4.174   2.468   6.293
 4768SOL    HW115203   4.141   2.554   6.254
 4768SOL    HW215204   4.214   2.486   6.383
 4769SOL     OW15205   4.730   5.181   6.983
 4769SOL    HW115206   4.696   5.118   6.913
 4769SOL    HW215207   4.734   5.133   0.049
 4770SOL     OW15208   0.570   1.112   4.164
 4770SOL    HW115209   0.504   1.075   4.229
 4770SOL    HW215210   0.627   1.039   4.129
 4771SOL     OW15211   2.934   5.722   5.424
 4771SOL    HW115212   2.910   5.626   5.437
 4771SOL    HW215213   3.020   5.741   5.472
 4772SOL     OW15214   4.243   5.168   0.978
 4772SOL    HW115215   4.239   5.221   0.893
 4772SOL    HW215216   4.306   5.091   0.966
 4773SOL     OW15217   6.557   5.403   4.481
 4773SOL    HW115218   6.647   5.427   4.517
 4773SOL    HW215219   6.512   5.485   4.444
 4774SOL     OW15220   1.823   2.993   1.780
 4774SOL    HW115221   1.801   3.078   1.733
 4774SOL    HW215222   1.826   3.009   1.879
 4775SOL     OW15223   5.315   6.675   2.625
 4775SOL    HW115224   5.358   6.584   2.628
 4775SOL    HW215225   5.218   6.665   2.606
 4776SOL     OW15226   1.256   6.181   6.009
 4776SOL    HW115227   1.274   6.112   5.938
 4776SOL    HW215228   1.228   6.135   6.093
 4777SOL     OW15229   2.311   5.252   1.173
 4777SOL    HW115230   2.217   5.222   1.191
 4777SOL    HW215231   2.373   5.174   1.180
 4778SOL     OW15232   6.617   2.517   3.997
 4778SOL    HW115233   6.704   2.534   3.949
 4778SOL    HW215234   6.618   2.564   4.085
 4779SOL     OW15235   5.972   5.443   2.556
 4779SOL    HW115236   5.948   5.494   2.473
 4779SOL    HW215237   5.919   5.478   2.633
 4780SOL     OW15238   5.751   1.572   0.083
 4780SOL    HW115239   5.694   1.519   0.020
 4780SOL    HW215240   5.753   1.528   0.172
 4781SOL     OW15241   2.446   6.026   2.481
 4781SOL    HW115242   2.499   6.100   2.439
 4781SOL    HW215243   2.489   5.938   2.461
 4782SOL     OW15244   6.177   5.829   0.175
 4782SOL    HW115245   6.158   5.785   0.262
 4782SOL    HW215246   6.199   5.760   0.106
 4783SOL     OW15247   4.870   4.224   0.109
 4783SOL    HW115248   4.799   4.279   0.065
 4783SOL    HW215249   4.953   4.226   0.055
 4784SOL     OW15250   6.007   3.643   6.743
 4784SOL    HW115251   6.038   3.571   6.681
 4784SOL    HW215252   6.071   3.720   6.739
 4785SOL     OW15253   1.303   6.460   2.935
 4785SOL    HW115254   1.307   6.559   2.946
 4785SOL    HW215255   1.340   6.416   3.017
 4786SOL     OW15256   2.456   0.569   0.300
 4786SOL    HW115257   2.407   0.635   0.242
 4786SOL    HW215258   2.433   0.586   0.396
 4787SOL     OW15259   4.008   1.365   3.018
 4787SOL    HW115260   3.982   1.281   2.969
 4787SOL    HW215261   4.031   1.436   2.953
 4788SOL     OW15262   6.627   6.351   6.562
 4788SOL    HW115263   6.540   6.302   6.551
 4788SOL    HW215264   6.637   6.418   6.488
 4789SOL     OW15265   4.553   2.409   1.538
 4789SOL    HW115266   4.583   2.413   1.442
 4789SOL    HW215267   4.605   2.339   1.586
 4790SOL     OW15268   6.436   2.151   5.519
 4790SOL    HW115269   6.374   2.081   5.554
 4790SOL    HW215270   6.413   2.240   5.559
 4791SOL     OW15271   0.122   2.822   1.235
 4791SOL    HW115272   0.067   2.837   1.152
 4791SOL    HW215273   0.174   2.904   1.256
 4792SOL     OW15274   2.917   4.784   3.189
 4792SOL    HW115275   2.876   4.778   3.099
 4792SOL    HW215276   3.013   4.813   3.180
 4793SOL     OW15277   2.421   2.358   5.174
 4793SOL    HW115278   2.407   2.451   5.209
 4793SOL    HW215279   2.426   2.294   5.250
 4794SOL     OW15280   5.434   0.383   4.658
 4794SOL    HW115281   5.477   0.323   4.590
 4794SOL    HW215282   5.345   0.413   4.624
 4795SOL     OW15283   6.255   2.057   4.311
 4795SOL    HW115284   6.329   2.083   4.373
 4795SOL    HW215285   6.223   2.137   4.261
 4796SOL     OW15286   4.799   1.627   4.752
 4796SOL    HW115287   4.888   1.658   4.718
 4796SOL    HW215288   4.728   1.688   4.717
 4797SOL     OW15289   0.692   6.304   5.302
 4797SOL    HW115290   0.632   6.256   5.365
 4797SOL    HW215291   0.757   6.361   5.353
 4798SOL     OW15292   0.022   4.077   5.597
 4798SOL    HW115293   6.994   4.022   5.531
 4798SOL    HW215294   0.044   4.166   5.557
 4799SOL     OW15295   4.636   1.566   0.334
 4799SOL    HW115296   4.580   1.574   0.416
 4799SOL    HW215297   4.696   1.487   0.342
 4800SOL     OW15298   3.025   2.365   6.958
 4800SOL    HW115299   2.931   2.391   6.938
 4800SOL    HW215300   3.047   2.281   6.908
 4801SOL     OW15301   3.463   2.212   6.244
 4801SOL    HW115302   3.370   2.243   6.221
 4801SOL    HW215303   3.509   2.281   6.299
 4802SOL     OW15304   0.851   6.426   1.891
 4802SOL    HW115305   0.880   6.424   1.987
 4802SOL    HW215306   0.837   6.333   1.858
 4803SOL     OW15307   6.844   4.920   0.232
 4803SOL    HW115308   6.806   4.905   0.323
 4803SOL    HW215309   6.862   4.832   0.187
 4804SOL     OW15310   6.913   6.613   1.805
 4804SOL    HW115311   7.010   6.615   1.828
 4804SOL    HW215312   6.891   6.689   1.744
 4805SOL     OW15313   6.676   1.777   2.313
 4805SOL    HW115314   6.740   1.837   2.360
 4805SOL    HW215315   6.669   1.691   2.364
 4806SOL     OW15316   0.939   4.174   2.839
 4806SOL    HW115317   0.941   4.081   2.876
 4806SOL    HW215318   1.000   4.232   2.893
 4807SOL     OW15319   0.856   4.778   0.234
 4807SOL    HW115320   0.951   4.788   0.261
 4807SOL    HW215321   0.851   4.725   0.149
 4808SOL     OW15322   4.860   5.275   0.858
 4808SOL    HW115323   4.917   5.223   0.795
 4808SOL    HW215324   4.901   5.365   0.874
 4809SOL     OW15325   3.241   4.798   0.328
 4809SOL    HW115326   3.149   4.778   0.362
 4809SOL    HW215327   3.236   4.871   0.260
 4810SOL     OW15328   1.813   4.596   2.641
 4810SOL    HW115329   1.764   4.511   2.621
 4810SOL    HW215330   1.754   4.674   2.622
 4811SOL     OW15331   2.467   4.299   1.841
 4811SOL    HW115332   2.446   4.201   1.842
 4811SOL    HW215333   2.559   4.312   1.804
 4812SOL     OW15334   0.456   5.525   2.342
 4812SOL    HW115335   0.550   5.508   2.313
 4812SOL    HW215336   0.426   5.614   2.308
 4813SOL     OW15337   6.094   1.890   6.638
 4813SOL    HW115338   6.098   1.791   6.629
 4813SOL    HW215339   6.186   1.928   6.632
 4814SOL     OW15340   0.103   3.097   1.381
 4814SOL    HW115341   0.053   3.146   1.452
 4814SOL    HW215342   0.187   3.058   1.421
 4815SOL     OW15343   5.090   3.991   2.457
 4815SOL    HW115344   5.098   3.969   2.360
 4815SOL    HW215345   4.994   3.985   2.484
 4816SOL     OW15346   2.480   4.817   1.397
 4816SOL    HW115347   2.559   4.777   1.352
 4816SOL    HW215348   2.498   4.914   1.415
 4817SOL     OW15349   2.193   1.495   6.814
 4817SOL    HW115350   2.231   1.432   6.745
 4817SOL    HW215351   2.095   1.479   6.823
 4818SOL     OW15352   1.041   6.646   4.510
 4818SOL    HW115353   1.083   6.594   4.585
 4818SOL    HW215354   0.978   6.587   4.460
 4819SOL     OW15355   1.923   1.547   0.553
 4819SOL    HW115356   1.834   1.573   0.590
 4819SOL    HW215357   1.968   1.483   0.616
 4820SOL     OW15358   6.154   2.694   2.537
 4820SOL    HW115359   6.215   2.755   2.589
 4820SOL    HW215360   6.065   2.689   2.582
 4821SOL     OW15361   0.264   6.452   2.214
 4821SOL    HW115362   0.318   6.401   2.148
 4821SOL    HW215363   0.190   6.500   2.167
 4822SOL     OW15364   2.125   3.590   4.715
 4822SOL    HW115365   2.192   3.522   4.746
 4822SOL    HW215366   2.050   3.545   4.668
 4823SOL     OW15367   1.781   0.540   4.384
 4823SOL    HW115368   1.785   0.540   4.284
 4823SOL    HW215369   1.733   0.458   4.415
 4824SOL     OW15370   5.669   2.152   4.514
 4824SOL    HW115371   5.642   2.107   4.599
 4824SOL    HW215372   5.669   2.086   4.439
 4825SOL     OW15373   1.418   2.412   3.850
 4825SOL    HW115374   1.443   2.507   3.834
 4825SOL    HW215375   1.318   2.402   3.843
 4826SOL     OW15376   6.705   1.391   6.038
 4826SOL    HW115377   6.620   1.417   6.085
 4826SOL    HW215378   6.771   1.466   6.044
 4827SOL     OW15379   6.413   1.540   1.095
 4827SOL    HW115380   6.454   1.630   1.110
 4827SOL    HW215381   6.314   1.549   1.089
 4828SOL     OW15382   5.330   3.250   0.774
 4828SOL    HW115383   5.420   3.208   0.790
 4828SOL    HW215384   5.258   3.185   0.801
 4829SOL     OW15385   4.332   6.801   6.782
 4829SOL    HW115386   4.384   6.717   6.801
 4829SOL    HW215387   4.241   6.777   6.749
 4830SOL     OW15388   4.292   6.889   3.511
 4830SOL    HW115389   4.263   6.875   3.416
 4830SOL    HW215390   4.256   6.815   3.568
 4831SOL     OW15391   6.992   4.440   6.151
 4831SOL    HW115392   0.069   4.428   6.153
 4831SOL    HW215393   6.947   4.351   6.147
 4832SOL     OW15394   3.438   3.406   4.806
 4832SOL    HW115395   3.372   3.460   4.754
 4832SOL    HW215396   3.401   3.385   4.896
 4833SOL     OW15397   4.707   2.361   3.045
 4833SOL    HW115398   4.706   2.320   3.136
 4833SOL    HW215399   4.619   2.404   3.026
 4834SOL     OW15400   3.696   6.232   0.828
 4834SOL    HW115401   3.769   6.279   0.878
 4834SOL    HW215402   3.715   6.235   0.730
 4835SOL     OW15403   6.554   1.415   6.363
 4835SOL    HW115404   6.506   1.452   6.283
 4835SOL    HW215405   6.496   1.347   6.407
 4836SOL     OW15406   5.360   3.072   4.707
 4836SOL    HW115407   5.315   3.043   4.791
 4836SOL    HW215408   5.428   3.003   4.680
 4837SOL     OW15409   6.310   3.782   2.664
 4837SOL    HW115410   6.311   3.882   2.656
 4837SOL    HW215411   6.364   3.755   2.744
 4838SOL     OW15412   1.079   5.174   7.003
 4838SOL    HW115413   1.120   5.253   6.957
 4838SOL    HW215414   1.102   5.090   6.953
 4839SOL     OW15415   1.781   3.476   6.845
 4839SOL    HW115416   1.828   3.455   6.931
 4839SOL    HW215417   1.810   3.411   6.774
 4840SOL     OW15418   6.847   4.722   6.351
 4840SOL    HW115419   6.868   4.657   6.424
 4840SOL    HW215420   6.914   4.712   6.278
 4841SOL     OW15421   2.885   5.661   1.755
 4841SOL    HW115422   2.843   5.577   1.792
 4841SOL    HW215423   2.882   5.657   1.655
 4842SOL     OW15424   3.839   5.087   2.871
 4842SOL    HW115425   3.830   5.026   2.950
 4842SOL    HW215426   3.809   5.039   2.788
 4843SOL     OW15427   6.721   3.202   1.078
 4843SOL    HW115428   6.795   3.198   1.145
 4843SOL    HW215429   6.726   3.123   1.018
 4844SOL     OW15430   0.624   2.958   5.858
 4844SOL    HW115431   0.681   2.877   5.849
 4844SOL    HW215432   0.551   2.956   5.790
 4845SOL     OW15433   5.167   5.638   6.329
 4845SOL    HW115434   5.208   5.641   6.238
 4845SOL    HW215435   5.110   5.556   6.337
 4846SOL     OW15436   6.931   3.210   4.275
 4846SOL    HW115437   6.971   3.193   4.185
 4846SOL    HW215438   6.953   3.133   4.336
 4847SOL     OW15439   2.971   0.848   5.957
 4847SOL    HW115440   2.947   0.775   5.893
 4847SOL    HW215441   2.898   0.916   5.960
 4848SOL     OW15442   1.520   0.718   3.877
 4848SOL    HW115443   1.604   0.754   3.836
 4848SOL    HW215444   1.448   0.788   3.871
 4849SOL     OW15445   1.105   5.814   6.682
 4849SOL    HW115446   1.202   5.827   6.703
 4849SOL    HW215447   1.065   5.901   6.655
 4850SOL     OW15448   3.845   1.480   2.092
 4850SOL    HW115449   3.844   1.571   2.133
 4850SOL    HW215450   3.797   1.484   2.004
 4851SOL     OW15451   4.269   7.012   5.816
 4851SOL    HW115452   4.298   0.084   5.799
 4851SOL    HW215453   4.275   6.992   5.914
 4852SOL     OW15454   1.672   6.021   4.706
 4852SOL    HW115455   1.631   5.960   4.638
 4852SOL    HW215456   1.631   6.004   4.795
 4853SOL     OW15457   3.222   1.214   2.959
 4853SOL    HW115458   3.150   1.246   2.897
 4853SOL    HW215459   3.200   1.242   3.052
 4854SOL     OW15460   4.464   6.976   1.239
 4854SOL    HW115461   4.417   6.976   1.150
 4854SOL    HW215462   4.545   6.918   1.234
 4855SOL     OW15463   5.962   2.639   3.445
 4855SOL    HW115464   5.991   2.733   3.428
 4855SOL    HW215465   5.878   2.621   3.393
 4856SOL     OW15466   1.205   3.415   2.871
 4856SOL    HW115467   1.212   3.384   2.966
 4856SOL    HW215468   1.108   3.424   2.847
 4857SOL     OW15469   2.686   1.848   4.847
 4857SOL    HW115470   2.714   1.926   4.790
 4857SOL    HW215471   2.672   1.879   4.941
 4858SOL     OW15472   0.844   0.381   4.159
 4858SOL    HW115473   0.877   0.419   4.245
 4858SOL    HW215474   0.903   0.413   4.084
 4859SOL     OW15475   1.114   0.252   4.482
 4859SOL    HW115476   1.138   0.156   4.470
 4859SOL    HW215477   1.015   0.262   4.486
 4860SOL     OW15478   4.493   4.378   1.637
 4860SOL    HW115479   4.502   4.316   1.715
 4860SOL    HW215480   4.521   4.332   1.553
 4861SOL     OW15481   6.160   5.515   0.166
 4861SOL    HW115482   6.180   5.450   0.093
 4861SOL    HW215483   6.070   5.556   0.151
 4862SOL     OW15484   2.408   4.637   5.165
 4862SOL    HW115485   2.310   4.625   5.177
 4862SOL    HW215486   2.457   4.596   5.242
 4863SOL     OW15487   5.500   3.859   1.012
 4863SOL    HW115488   5.549   3.897   0.934
 4863SOL    HW215489   5.427   3.798   0.980
 4864SOL     OW15490   3.866   1.196   2.849
 4864SOL    HW115491   3.802   1.224   2.778
 4864SOL    HW215492   3.911   1.110   2.822
 4865SOL     OW15493   1.945   6.435   3.947
 4865SOL    HW115494   2.012   6.413   3.876
 4865SOL    HW215495   1.947   6.364   4.018
 4866SOL     OW15496   6.082   3.641   1.976
 4866SOL    HW115497   6.070   3.563   2.038
 4866SOL    HW215498   6.028   3.719   2.010
 4867SOL     OW15499   3.845   5.383   1.736
 4867SOL    HW115500   3.935   5.352   1.765
 4867SOL    HW215501   3.805   5.316   1.673
 4868SOL     OW15502   6.528   4.905   2.904
 4868SOL    HW115503   6.565   4.883   2.814
 4868SOL    HW215504   6.470   4.830   2.935
 4869SOL     OW15505   1.330   1.116   1.635
 4869SOL    HW115506   1.383   1.059   1.698
 4869SOL    HW215507   1.351   1.091   1.541
 4870SOL     OW15508   0.344   6.074   2.363
 4870SOL    HW115509   0.342   5.977   2.386
 4870SOL    HW215510   0.435   6.099   2.329
 4871SOL     OW15511   1.310   0.822   4.470
 4871SOL    HW115512   1.347   0.854   4.383
 4871SOL    HW215513   1.385   0.802   4.533
 4872SOL     OW15514   6.735   6.341   3.958
 4872SOL    HW115515   6.652   6.391   3.982
 4872SOL    HW215516   6.783   6.389   3.884
 4873SOL     OW15517   6.671   4.707   3.824
 4873SOL    HW115518   6.721   4.747   3.901
 4873SOL    HW215519   6.690   4.759   3.741
 4874SOL     OW15520   6.292   3.486   3.117
 4874SOL    HW115521   6.360   3.518   3.051
 4874SOL    HW215522   6.339   3.438   3.191
 4875SOL     OW15523   5.554   2.530   1.242
 4875SOL    HW115524   5.457   2.553   1.241
 4875SOL    HW215525   5.574   2.474   1.322
 4876SOL     OW15526   5.534   1.544   4.234
 4876SOL    HW115527   5.463   1.607   4.266
 4876SOL    HW215528   5.614   1.551   4.294
 4877SOL     OW15529   1.307   2.194   6.565
 4877SOL    HW115530   1.257   2.223   6.647
 4877SOL    HW215531   1.254   2.124   6.517
 4878SOL     OW15532   6.214   0.852   2.894
 4878SOL    HW115533   6.199   0.904   2.978
 4878SOL    HW215534   6.294   0.793   2.904
 4879SOL     OW15535   4.487   6.097   2.751
 4879SOL    HW115536   4.405   6.083   2.806
 4879SOL    HW215537   4.566   6.110   2.811
 4880SOL     OW15538   5.712   3.634   7.004
 4880SOL    HW115539   5.777   3.709   6.996
 4880SOL    HW215540   5.758   3.548   6.981
 4881SOL     OW15541   1.731   1.180   6.126
 4881SOL    HW115542   1.815   1.154   6.173
 4881SOL    HW215543   1.670   1.226   6.190
 4882SOL     OW15544   5.352   1.485   5.105
 4882SOL    HW115545   5.336   1.400   5.055
 4882SOL    HW215546   5.401   1.465   5.190
 4883SOL     OW15547   5.594   4.467   1.671
 4883SOL    HW115548   5.597   4.466   1.571
 4883SOL    HW215549   5.680   4.431   1.707
 4884SOL     OW15550   3.225   6.854   1.548
 4884SOL    HW115551   3.149   6.806   1.592
 4884SOL    HW215552   3.195   6.891   1.461
 4885SOL     OW15553   1.728   5.150   2.410
 4885SOL    HW115554   1.722   5.240   2.454
 4885SOL    HW215555   1.812   5.104   2.441
 4886SOL     OW15556   1.099   5.123   0.969
 4886SOL    HW115557   1.183   5.096   1.017
 4886SOL    HW215558   1.116   5.207   0.918
 4887SOL     OW15559   0.707   0.348   2.467
 4887SOL    HW115560   0.782   0.393   2.516
 4887SOL    HW215561   0.633   0.413   2.452
 4888SOL     OW15562   2.146   6.883   4.341
 4888SOL    HW115563   2.095   6.852   4.261
 4888SOL    HW215564   2.187   6.804   4.388
 4889SOL     OW15565   6.202   1.222   6.218
 4889SOL    HW115566   6.143   1.212   6.137
 4889SOL    HW215567   6.255   1.138   6.231
 4890SOL     OW15568   1.264   1.950   6.953
 4890SOL    HW115569   1.241   2.044   6.976
 4890SOL    HW215570   1.235   1.890   0.006
 4891SOL     OW15571   1.385   4.866   6.545
 4891SOL    HW115572   1.400   4.963   6.527
 4891SOL    HW215573   1.454   4.812   6.497
 4892SOL     OW15574   3.391   6.429   2.153
 4892SOL    HW115575   3.323   6.404   2.085
 4892SOL    HW215576   3.345   6.454   2.239
 4893SOL     OW15577   6.819   3.692   1.548
 4893SOL    HW115578   6.836   3.685   1.450
 4893SOL    HW215579   6.725   3.663   1.568
 4894SOL     OW15580   2.502   1.517   2.989
 4894SOL    HW115581   2.456   1.509   2.900
 4894SOL    HW215582   2.599   1.495   2.978
 4895SOL     OW15583   0.826   4.913   3.326
 4895SOL    HW115584   0.904   4.974   3.313
 4895SOL    HW215585   0.757   4.959   3.382
 4896SOL     OW15586   2.205   5.838   2.302
 4896SOL    HW115587   2.303   5.818   2.302
 4896SOL    HW215588   2.172   5.839   2.397
 4897SOL     OW15589   2.845   4.219   6.207
 4897SOL    HW115590   2.850   4.225   6.307
 4897SOL    HW215591   2.903   4.288   6.166
 4898SOL     OW15592   3.391   0.902   4.215
 4898SOL    HW115593   3.404   0.951   4.301
 4898SOL    HW215594   3.294   0.903   4.191
 4899SOL     OW15595   6.207   5.360   3.164
 4899SOL    HW115596   6.195   5.456   3.140
 4899SOL    HW215597   6.120   5.312   3.150
 4900SOL     OW15598   1.976   5.873   4.243
 4900SOL    HW115599   2.016   5.878   4.335
 4900SOL    HW215600   1.916   5.793   4.238
 4901SOL     OW15601   3.082   6.639   5.520
 4901SOL    HW115602   3.164   6.602   5.478
 4901SOL    HW215603   3.104   6.677   5.610
 4902SOL     OW15604   2.460   1.722   4.179
 4902SOL    HW115605   2.456   1.805   4.124
 4902SOL    HW215606   2.551   1.713   4.221
 4903SOL     OW15607   3.832   6.507   6.377
 4903SOL    HW115608   3.768   6.431   6.391
 4903SOL    HW215609   3.855   6.514   6.280
 4904SOL     OW15610   1.951   6.734   3.789
 4904SOL    HW115611   1.962   6.686   3.876
 4904SOL    HW215612   1.866   6.704   3.745
 4905SOL     OW15613   4.396   0.429   2.513
 4905SOL    HW115614   4.422   0.491   2.439
 4905SOL    HW215615   4.317   0.374   2.484
 4906SOL     OW15616   4.543   1.763   5.840
 4906SOL    HW115617   4.503   1.803   5.757
 4906SOL    HW215618   4.640   1.784   5.844
 4907SOL     OW15619   4.058   6.346   1.130
 4907SOL    HW115620   4.041   6.411   1.204
 4907SOL    HW215621   4.141   6.294   1.149
 4908SOL     OW15622   5.119   4.765   6.845
 4908SOL    HW115623   5.105   4.811   6.932
 4908SOL    HW215624   5.137   4.668   6.861
 4909SOL     OW15625   6.622   0.086   4.379
 4909SOL    HW115626   6.707   0.084   4.326
 4909SOL    HW215627   6.545   0.068   4.318
 4910SOL     OW15628   5.383   6.864   4.727
 4910SOL    HW115629   5.285   6.867   4.707
 4910SOL    HW215630   5.411   6.948   4.773
 4911SOL     OW15631   0.935   3.375   4.181
 4911SOL    HW115632   0.910   3.345   4.273
 4911SOL    HW215633   0.969   3.297   4.129
 4912SOL     OW15634   5.510   0.975   6.396
 4912SOL    HW115635   5.520   1.028   6.312
 4912SOL    HW215636   5.598   0.971   6.443
 4913SOL     OW15637   3.922   3.004   5.104
 4913SOL    HW115638   3.841   2.947   5.096
 4913SOL    HW215639   3.919   3.078   5.036
 4914SOL     OW15640   3.491   0.205   5.019
 4914SOL    HW115641   3.516   0.239   4.928
 4914SOL    HW215642   3.430   0.127   5.009
 4915SOL     OW15643   4.469   0.419   4.777
 4915SOL    HW115644   4.406   0.484   4.735
 4915SOL    HW215645   4.417   0.353   4.831
 4916SOL     OW15646   1.648   0.779   4.160
 4916SOL    HW115647   1.576   0.836   4.200
 4916SOL    HW215648   1.609   0.694   4.125
 4917SOL     OW15649   2.168   4.791   1.590
 4917SOL    HW115650   2.241   4.723   1.600
 4917SOL    HW215651   2.161   4.819   1.494
 4918SOL     OW15652   4.436   5.536   2.017
 4918SOL    HW115653   4.400   5.472   2.085
 4918SOL    HW215654   4.503   5.596   2.060
 4919SOL     OW15655   3.098   2.122   6.830
 4919SOL    HW115656   3.093   2.103   6.732
 4919SOL    HW215657   3.033   2.063   6.879
 4920SOL     OW15658   6.035   0.861   4.798
 4920SOL    HW115659   6.058   0.804   4.877
 4920SOL    HW215660   6.003   0.802   4.724
 4921SOL     OW15661   1.680   4.567   0.534
 4921SOL    HW115662   1.662   4.643   0.471
 4921SOL    HW215663   1.777   4.544   0.532
 4922SOL     OW15664   2.060   2.231   5.074
 4922SOL    HW115665   2.003   2.272   5.003
 4922SOL    HW215666   2.144   2.197   5.033
 4923SOL     OW15667   4.126   1.785   1.787
 4923SOL    HW115668   4.202   1.798   1.724
 4923SOL    HW215669   4.067   1.712   1.753
 4924SOL     OW15670   2.695   1.726   5.617
 4924SOL    HW115671   2.749   1.807   5.596
 4924SOL    HW215672   2.711   1.656   5.547
 4925SOL     OW15673   6.290   6.352   2.051
 4925SOL    HW115674   6.384   6.338   2.019
 4925SOL    HW215675   6.248   6.264   2.071
 4926SOL     OW15676   5.358   1.578   0.354
 4926SOL    HW115677   5.397   1.490   0.379
 4926SOL    HW215678   5.424   1.651   0.374
 4927SOL     OW15679   3.782   3.381   4.483
 4927SOL    HW115680   3.867   3.328   4.482
 4927SOL    HW215681   3.754   3.396   4.578
 4928SOL     OW15682   1.150   0.309   6.901
 4928SOL    HW115683   1.113   0.217   6.891
 4928SOL    HW215684   1.202   0.314   6.987
 4929SOL     OW15685   0.833   5.175   4.875
 4929SOL    HW115686   0.766   5.112   4.836
 4929SOL    HW215687   0.788   5.261   4.898
 4930SOL     OW15688   4.878   1.065   3.406
 4930SOL    HW115689   4.950   1.052   3.474
 4930SOL    HW215690   4.843   0.976   3.377
 4931SOL     OW15691   6.762   6.727   0.778
 4931SOL    HW115692   6.766   6.694   0.872
 4931SOL    HW215693   6.819   6.809   0.769
 4932SOL     OW15694   2.446   3.277   1.642
 4932SOL    HW115695   2.453   3.348   1.712
 4932SOL    HW215696   2.375   3.302   1.576
 4933SOL     OW15697   2.294   6.888   3.335
 4933SOL    HW115698   2.264   6.903   3.240
 4933SOL    HW215699   2.262   6.963   3.392
 4934SOL     OW15700   2.830   5.915   2.832
 4934SOL    HW115701   2.891   5.951   2.904
 4934SOL    HW215702   2.835   5.973   2.752
 4935SOL     OW15703   1.305   1.286   5.999
 4935SOL    HW115704   1.308   1.325   6.091
 4935SOL    HW215705   1.373   1.331   5.941
 4936SOL     OW15706   2.632   4.808   1.930
 4936SOL    HW115707   2.702   4.752   1.974
 4936SOL    HW215708   2.542   4.768   1.946
 4937SOL     OW15709   6.799   3.013   6.385
 4937SOL    HW115710   6.846   3.085   6.436
 4937SOL    HW215711   6.863   2.939   6.365
 4938SOL     OW15712   2.240   6.270   5.741
 4938SOL    HW115713   2.223   6.368   5.751
 4938SOL    HW215714   2.230   6.244   5.645
 4939SOL     OW15715   6.330   1.918   4.079
 4939SOL    HW115716   6.318   1.983   4.154
 4939SOL    HW215717   6.392   1.958   4.010
 4940SOL     OW15718   0.185   0.957   5.116
 4940SOL    HW115719   0.164   0.959   5.019
 4940SOL    HW215720   0.241   0.876   5.136
 4941SOL     OW15721   4.710   2.275   5.215
 4941SOL    HW115722   4.761   2.360   5.209
 4941SOL    HW215723   4.670   2.253   5.126
 4942SOL     OW15724   5.615   3.372   6.276
 4942SOL    HW115725   5.622   3.307   6.200
 4942SOL    HW215726   5.600   3.322   6.362
 4943SOL     OW15727   4.277   3.578   5.842
 4943SOL    HW115728   4.239   3.549   5.930
 4943SOL    HW215729   4.210   3.634   5.794
 4944SOL     OW15730   2.244   4.389   1.751
 4944SOL    HW115731   2.254   4.407   1.654
 4944SOL    HW215732   2.333   4.364   1.790
 4945SOL     OW15733   1.254   0.316   4.702
 4945SOL    HW115734   1.326   0.247   4.710
 4945SOL    HW215735   1.197   0.297   4.622
 4946SOL     OW15736   1.434   5.380   6.873
 4946SOL    HW115737   1.465   5.462   6.825
 4946SOL    HW215738   1.496   5.304   6.852
 4947SOL     OW15739   2.317   0.240   0.814
 4947SOL    HW115740   2.370   0.159   0.789
 4947SOL    HW215741   2.220   0.218   0.814
 4948SOL     OW15742   1.463   2.840   2.518
 4948SOL    HW115743   1.441   2.743   2.506
 4948SOL    HW215744   1.406   2.878   2.590
 4949SOL     OW15745   5.728   5.449   6.098
 4949SOL    HW115746   5.725   5.353   6.124
 4949SOL    HW215747   5.678   5.503   6.166
 4950SOL     OW15748   1.966   5.466   4.343
 4950SOL    HW115749   1.909   5.472   4.261
 4950SOL    HW215750   1.932   5.392   4.401
 4951SOL     OW15751   5.967   0.909   5.124
 4951SOL    HW115752   5.892   0.957   5.079
 4951SOL    HW215753   5.971   0.815   5.090
 4952SOL     OW15754   0.308   0.795   5.965
 4952SOL    HW115755   0.232   0.819   5.904
 4952SOL    HW215756   0.287   0.709   6.012
 4953SOL     OW15757   1.785   6.363   3.028
 4953SOL    HW115758   1.791   6.359   2.928
 4953SOL    HW215759   1.797   6.458   3.058
 4954SOL     OW15760   3.535   3.364   0.412
 4954SOL    HW115761   3.442   3.353   0.379
 4954SOL    HW215762   3.572   3.451   0.379
 4955SOL     OW15763   3.050   6.749   6.924
 4955SOL    HW115764   2.974   6.716   6.867
 4955SOL    HW215765   3.070   6.844   6.901
 4956SOL     OW15766   2.128   0.236   4.974
 4956SOL    HW115767   2.034   0.205   4.961
 4956SOL    HW215768   2.189   0.157   4.984
 4957SOL     OW15769   5.646   2.161   2.032
 4957SOL    HW115770   5.558   2.208   2.024
 4957SOL    HW215771   5.683   2.145   1.940
 4958SOL     OW15772   0.064   5.120   5.621
 4958SOL    HW115773   6.994   5.130   5.657
 4958SOL    HW215774   0.066   5.045   5.554
 4959SOL     OW15775   6.405   1.840   0.082
 4959SOL    HW115776   6.309   1.814   0.068
 4959SOL    HW215777   6.429   1.828   0.178
 4960SOL     OW15778   3.343   4.998   3.353
 4960SOL    HW115779   3.333   4.985   3.451
 4960SOL    HW215780   3.252   5.011   3.312
 4961SOL     OW15781   4.586   1.286   5.697
 4961SOL    HW115782   4.611   1.218   5.766
 4961SOL    HW215783   4.511   1.342   5.732
 4962SOL     OW15784   6.139   2.250   0.361
 4962SOL    HW115785   6.128   2.298   0.448
 4962SOL    HW215786   6.232   2.213   0.354
 4963SOL     OW15787   6.232   5.916   0.685
 4963SOL    HW115788   6.214   5.943   0.779
 4963SOL    HW215789   6.156   5.862   0.650
 4964SOL     OW15790   2.817   0.391   3.575
 4964SOL    HW115791   2.797   0.298   3.607
 4964SOL    HW215792   2.897   0.389   3.516
 4965SOL     OW15793   0.638   1.190   2.583
 4965SOL    HW115794   0.635   1.224   2.677
 4965SOL    HW215795   0.732   1.162   2.561
 4966SOL     OW15796   2.219   6.616   5.300
 4966SOL    HW115797   2.257   6.668   5.376
 4966SOL    HW215798   2.160   6.674   5.245
 4967SOL     OW15799   3.897   5.290   5.516
 4967SOL    HW115800   3.888   5.352   5.437
 4967SOL    HW215801   3.866   5.198   5.489
 4968SOL     OW15802   6.711   1.731   3.883
 4968SOL    HW115803   6.786   1.779   3.838
 4968SOL    HW215804   6.662   1.675   3.816
 4969SOL     OW15805   2.752   6.200   3.016
 4969SOL    HW115806   2.735   6.235   2.924
 4969SOL    HW215807   2.803   6.269   3.068
 4970SOL     OW15808   2.234   2.552   3.010
 4970SOL    HW115809   2.141   2.545   3.045
 4970SOL    HW215810   2.248   2.642   2.968
 4971SOL     OW15811   5.972   5.448   3.374
 4971SOL    HW115812   5.979   5.541   3.410
 4971SOL    HW215813   5.957   5.452   3.276
 4972SOL     OW15814   1.362   3.470   0.886
 4972SOL    HW115815   1.415   3.548   0.853
 4972SOL    HW215816   1.421   3.408   0.938
 4973SOL     OW15817   1.754   6.628   2.316
 4973SOL    HW115818   1.690   6.553   2.301
 4973SOL    HW215819   1.787   6.662   2.228
 4974SOL     OW15820   6.497   4.383   1.199
 4974SOL    HW115821   6.435   4.364   1.276
 4974SOL    HW215822   6.519   4.480   1.198
 4975SOL     OW15823   5.851   4.228   5.495
 4975SOL    HW115824   5.764   4.252   5.454
 4975SOL    HW215825   5.841   4.144   5.547
 4976SOL     OW15826   1.778   1.043   3.681
 4976SOL    HW115827   1.858   1.103   3.677
 4976SOL    HW215828   1.698   1.097   3.709
 4977SOL     OW15829   4.096   4.927   0.271
 4977SOL    HW115830   4.051   4.937   0.360
 4977SOL    HW215831   4.162   5.001   0.259
 4978SOL     OW15832   6.656   3.880   4.668
 4978SOL    HW115833   6.584   3.916   4.727
 4978SOL    HW215834   6.709   3.811   4.718
 4979SOL     OW15835   0.269   0.293   6.704
 4979SOL    HW115836   0.211   0.215   6.727
 4979SOL    HW215837   0.260   0.314   6.607
 4980SOL     OW15838   5.093   6.305   3.346
 4980SOL    HW115839   5.138   6.317   3.258
 4980SOL    HW215840   5.065   6.395   3.382
 4981SOL     OW15841   4.644   6.104   0.272
 4981SOL    HW115842   4.736   6.109   0.233
 4981SOL    HW215843   4.595   6.189   0.252
 4982SOL     OW15844   3.013   1.246   6.044
 4982SOL    HW115845   2.990   1.198   6.128
 4982SOL    HW215846   2.972   1.198   5.966
 4983SOL     OW15847   5.678   3.342   4.804
 4983SOL    HW115848   5.658   3.244   4.801
 4983SOL    HW215849   5.707   3.373   4.713
 4984SOL     OW15850   5.629   3.842   3.384
 4984SOL    HW115851   5.543   3.877   3.423
 4984SOL    HW215852   5.617   3.746   3.359
 4985SOL     OW15853   6.392   6.758   3.408
 4985SOL    HW115854   6.414   6.674   3.358
 4985SOL    HW215855   6.391   6.739   3.506
 4986SOL     OW15856   6.451   4.230   1.737
 4986SOL    HW115857   6.402   4.147   1.709
 4986SOL    HW215858   6.503   4.212   1.821
 4987SOL     OW15859   1.291   0.671   2.154
 4987SOL    HW115860   1.371   0.729   2.134
 4987SOL    HW215861   1.239   0.656   2.070
 4988SOL     OW15862   5.396   0.917   2.856
 4988SOL    HW115863   5.362   1.011   2.868
 4988SOL    HW215864   5.332   0.853   2.898
 4989SOL     OW15865   4.975   0.140   1.323
 4989SOL    HW115866   4.904   0.208   1.343
 4989SOL    HW215867   5.033   0.174   1.249
 4990SOL     OW15868   2.242   1.895   5.815
 4990SOL    HW115869   2.276   1.930   5.902
 4990SOL    HW215870   2.316   1.894   5.748
 4991SOL     OW15871   6.320   5.157   4.156
 4991SOL    HW115872   6.319   5.069   4.203
 4991SOL    HW215873   6.406   5.204   4.176
 4992SOL     OW15874   5.288   0.825   3.722
 4992SOL    HW115875   5.302   0.907   3.666
 4992SOL    HW215876   5.317   0.844   3.816
 4993SOL     OW15877   2.798   6.006   4.041
 4993SOL    HW115878   2.772   6.095   4.079
 4993SOL    HW215879   2.725   5.940   4.056
 4994SOL     OW15880   1.945   0.172   3.225
 4994SOL    HW115881   1.972   0.128   3.139
 4994SOL    HW215882   2.017   0.236   3.253
 4995SOL     OW15883   0.158   2.077   6.009
 4995SOL    HW115884   0.251   2.090   6.042
 4995SOL    HW215885   0.136   2.149   5.943
 4996SOL     OW15886   0.946   1.322   2.695
 4996SOL    HW115887   1.002   1.379   2.755
 4996SOL    HW215888   0.863   1.294   2.743
 4997SOL     OW15889   5.618   2.805   2.692
 4997SOL    HW115890   5.621   2.895   2.735
 4997SOL    HW215891   5.558   2.807   2.613
 4998SOL     OW15892   2.219   4.296   5.073
 4998SOL    HW115893   2.295   4.324   5.133
 4998SOL    HW215894   2.225   4.198   5.055
 4999SOL     OW15895   6.703   3.667   0.403
 4999SOL    HW115896   6.797   3.700   0.408
 4999SOL    HW215897   6.700   3.584   0.347
 5000SOL     OW15898   2.863   6.568   3.527
 5000SOL    HW115899   2.921   6.611   3.457
 5000SOL    HW215900   2.884   6.470   3.531
 5001SOL     OW15901   0.629   3.971   0.882
 5001SOL    HW115902   0.602   4.034   0.809
 5001SOL    HW215903   0.705   4.010   0.933
 5002SOL     OW15904   0.537   3.304   3.468
 5002SOL    HW115905   0.475   3.343   3.400
 5002SOL    HW215906   0.558   3.209   3.443
 5003SOL     OW15907   2.905   6.225   2.736
 5003SOL    HW115908   2.990   6.215   2.787
 5003SOL    HW215909   2.857   6.308   2.767
 5004SOL     OW15910   3.744   4.983   6.102
 5004SOL    HW115911   3.716   4.973   6.006
 5004SOL    HW215912   3.739   5.080   6.128
 5005SOL     OW15913   3.037   2.348   0.700
 5005SOL    HW115914   3.123   2.297   0.700
 5005SOL    HW215915   2.994   2.341   0.610
 5006SOL     OW15916   5.378   0.905   0.550
 5006SOL    HW115917   5.460   0.949   0.585
 5006SOL    HW215918   5.354   0.944   0.461
 5007SOL     OW15919   1.379   7.003   0.490
 5007SOL    HW115920   1.310   6.937   0.520
 5007SOL    HW215921   1.389   6.998   0.391
 5008SOL     OW15922   6.517   6.513   2.756
 5008SOL    HW115923   6.477   6.442   2.813
 5008SOL    HW215924   6.616   6.497   2.747
 5009SOL     OW15925   0.779   6.605   0.894
 5009SOL    HW115926   0.694   6.630   0.940
 5009SOL    HW215927   0.834   6.686   0.879
 5010SOL     OW15928   3.689   3.631   2.920
 5010SOL    HW115929   3.786   3.654   2.927
 5010SOL    HW215930   3.660   3.582   3.002
 5011SOL     OW15931   1.932   3.855   2.698
 5011SOL    HW115932   2.012   3.879   2.644
 5011SOL    HW215933   1.909   3.759   2.682
 5012SOL     OW15934   5.669   4.141   6.133
 5012SOL    HW115935   5.755   4.118   6.179
 5012SOL    HW215936   5.682   4.223   6.077
 5013SOL     OW15937   4.891   1.588   6.400
 5013SOL    HW115938   4.858   1.655   6.333
 5013SOL    HW215939   4.846   1.604   6.488
 5014SOL     OW15940   5.524   4.450   0.489
 5014SOL    HW115941   5.600   4.389   0.510
 5014SOL    HW215942   5.438   4.399   0.488
 5015SOL     OW15943   4.521   1.772   4.270
 5015SOL    HW115944   4.458   1.791   4.194
 5015SOL    HW215945   4.608   1.817   4.252
 5016SOL     OW15946   1.795   1.987   0.456
 5016SOL    HW115947   1.762   2.054   0.522
 5016SOL    HW215948   1.720   1.957   0.398
 5017SOL     OW15949   1.813   2.205   6.815
 5017SOL    HW115950   1.790   2.295   6.779
 5017SOL    HW215951   1.796   2.203   6.913
 5018SOL     OW15952   0.084   4.128   1.955
 5018SOL    HW115953   0.084   4.207   2.016
 5018SOL    HW215954   0.153   4.063   1.985
 5019SOL     OW15955   1.025   4.900   6.456
 5019SOL    HW115956   1.065   4.845   6.530
 5019SOL    HW215957   1.098   4.950   6.409
 5020SOL     OW15958   5.257   0.355   6.630
 5020SOL    HW115959   5.330   0.396   6.685
 5020SOL    HW215960   5.291   0.273   6.585
 5021SOL     OW15961   1.219   1.560   5.744
 5021SOL    HW115962   1.220   1.582   5.841
 5021SOL    HW215963   1.279   1.624   5.695
 5022SOL     OW15964   1.374   1.421   0.049
 5022SOL    HW115965   1.414   1.473   0.123
 5022SOL    HW215966   1.281   1.453   0.032
 5023SOL     OW15967   6.514   2.853   1.475
 5023SOL    HW115968   6.544   2.938   1.518
 5023SOL    HW215969   6.439   2.874   1.412
 5024SOL     OW15970   5.642   5.802   1.925
 5024SOL    HW115971   5.543   5.814   1.929
 5024SOL    HW215972   5.664   5.704   1.924
 5025SOL     OW15973   3.467   1.900   1.666
 5025SOL    HW115974   3.462   1.836   1.742
 5025SOL    HW215975   3.521   1.980   1.693
 5026SOL     OW15976   6.386   6.098   6.163
 5026SOL    HW115977   6.478   6.111   6.199
 5026SOL    HW215978   6.344   6.018   6.204
 5027SOL     OW15979   0.647   5.832   2.363
 5027SOL    HW115980   0.665   5.916   2.413
 5027SOL    HW215981   0.548   5.817   2.356
 5028SOL     OW15982   0.533   0.790   3.185
 5028SOL    HW115983   0.627   0.806   3.215
 5028SOL    HW215984   0.480   0.874   3.194
 5029SOL     OW15985   6.765   2.494   3.036
 5029SOL    HW115986   6.824   2.550   2.977
 5029SOL    HW215987   6.723   2.422   2.981
 5030SOL     OW15988   0.167   6.731   0.070
 5030SOL    HW115989   0.080   6.734   0.119
 5030SOL    HW215990   0.163   6.658   0.001
 5031SOL     OW15991   5.911   0.205   5.087
 5031SOL    HW115992   5.910   0.210   5.187
 5031SOL    HW215993   6.003   0.184   5.056
 5032SOL     OW15994   1.233   3.537   1.287
 5032SOL    HW115995   1.212   3.543   1.385
 5032SOL    HW215996   1.322   3.580   1.269
 5033SOL     OW15997   2.953   6.075   5.637
 5033SOL    HW115998   2.964   6.010   5.713
 5033SOL    HW215999   2.963   6.168   5.672
 5034SOL     OW16000   4.783   1.048   2.892
 5034SOL    HW116001   4.720   1.125   2.897
 5034SOL    HW216002   4.820   1.029   2.983
 5035SOL     OW16003   0.484   4.490   0.125
 5035SOL    HW116004   0.451   4.425   0.193
 5035SOL    HW216005   0.554   4.447   0.068
 5036SOL     OW16006   0.095   4.910   0.271
 5036SOL    HW116007   0.146   4.996   0.271
 5036SOL    HW216008   0.003   4.926   0.233
 5037SOL     OW16009   5.555   2.799   3.650
 5037SOL    HW116010   5.509   2.712   3.630
 5037SOL    HW216011   5.646   2.780   3.687
 5038SOL     OW16012   1.972   4.114   6.645
 5038SOL    HW116013   1.917   4.107   6.562
 5038SOL    HW216014   2.032   4.034   6.652
 5039SOL     OW16015   3.082   4.378   5.365
 5039SOL    HW116016   3.020   4.421   5.299
 5039SOL    HW216017   3.031   4.313   5.421
 5040SOL     OW16018   2.252   5.022   6.185
 5040SOL    HW116019   2.168   4.970   6.167
 5040SOL    HW216020   2.323   4.991   6.122
 5041SOL     OW16021   1.876   1.666   1.845
 5041SOL    HW116022   1.945   1.650   1.916
 5041SOL    HW216023   1.907   1.626   1.759
 5042SOL     OW16024   6.229   3.104   0.902
 5042SOL    HW116025   6.131   3.094   0.921
 5042SOL    HW216026   6.247   3.083   0.806
 5043SOL     OW16027   3.479   0.629   5.898
 5043SOL    HW116028   3.542   0.705   5.911
 5043SOL    HW216029   3.389   0.653   5.934
 5044SOL     OW16030   0.373   6.273   1.126
 5044SOL    HW116031   0.437   6.241   1.196
 5044SOL    HW216032   0.414   6.350   1.076
 5045SOL     OW16033   5.657   1.853   7.003
 5045SOL    HW116034   5.697   1.768   6.968
 5045SOL    HW216035   5.601   1.833   0.061
 5046SOL     OW16036   3.656   4.171   3.537
 5046SOL    HW116037   3.724   4.228   3.491
 5046SOL    HW216038   3.700   4.120   3.611
 5047SOL     OW16039   6.922   3.201   2.753
 5047SOL    HW116040   6.952   3.106   2.745
 5047SOL    HW216041   6.889   3.218   2.846
 5048SOL     OW16042   0.472   0.807   2.195
 5048SOL    HW116043   0.533   0.806   2.116
 5048SOL    HW216044   0.521   0.844   2.274
 5049SOL     OW16045   6.553   1.803   5.267
 5049SOL    HW116046   6.572   1.884   5.322
 5049SOL    HW216047   6.515   1.731   5.325
 5050SOL     OW16048   1.597   0.519   1.706
 5050SOL    HW116049   1.693   0.503   1.682
 5050SOL    HW216050   1.542   0.441   1.676
 5051SOL     OW16051   4.892   4.519   1.142
 5051SOL    HW116052   4.908   4.612   1.110
 5051SOL    HW216053   4.952   4.498   1.219
 5052SOL     OW16054   2.318   6.577   6.165
 5052SOL    HW116055   2.379   6.555   6.241
 5052SOL    HW216056   2.230   6.610   6.201
 5053SOL     OW16057   2.260   4.095   3.456
 5053SOL    HW116058   2.252   4.182   3.504
 5053SOL    HW216059   2.345   4.094   3.403
 5054SOL     OW16060   3.762   6.292   4.625
 5054SOL    HW116061   3.781   6.195   4.644
 5054SOL    HW216062   3.681   6.320   4.677
 5055SOL     OW16063   1.994   0.220   5.335
 5055SOL    HW116064   2.086   0.259   5.327
 5055SOL    HW216065   1.928   0.285   5.297
 5056SOL     OW16066   6.574   4.467   0.762
 5056SOL    HW116067   6.577   4.386   0.704
 5056SOL    HW216068   6.661   4.517   0.755
 5057SOL     OW16069   6.416   6.226   5.549
 5057SOL    HW116070   6.336   6.286   5.539
 5057SOL    HW216071   6.400   6.163   5.625
 5058SOL     OW16072   2.710   3.117   5.379
 5058SOL    HW116073   2.624   3.106   5.329
 5058SOL    HW216074   2.691   3.150   5.471
 5059SOL     OW16075   5.793   2.757   3.758
 5059SOL    HW116076   5.822   2.852   3.769
 5059SOL    HW216077   5.872   2.700   3.736
 5060SOL     OW16078   0.340   2.103   5.643
 5060SOL    HW116079   0.350   2.201   5.655
 5060SOL    HW216080   0.243   2.081   5.629
 5061SOL     OW16081   3.730   3.519   3.171
 5061SOL    HW116082   3.786   3.469   3.104
 5061SOL    HW216083   3.766   3.612   3.181
 5062SOL     OW16084   5.396   0.380   3.332
 5062SOL    HW116085   5.473   0.438   3.362
 5062SOL    HW216086   5.323   0.385   3.400
 5063SOL     OW16087   1.186   6.909   2.147
 5063SOL    HW116088   1.226   6.894   2.237
 5063SOL    HW216089   1.144   7.000   2.143
 5064SOL     OW16090   4.496   3.812   1.711
 5064SOL    HW116091   4.459   3.905   1.708
 5064SOL    HW216092   4.595   3.817   1.730
 5065SOL     OW16093   1.383   1.726   3.913
 5065SOL    HW116094   1.347   1.657   3.975
 5065SOL    HW216095   1.351   1.817   3.942
 5066SOL     OW16096   3.784   4.711   1.056
 5066SOL    HW116097   3.856   4.644   1.038
 5066SOL    HW216098   3.695   4.666   1.046
 5067SOL     OW16099   2.911   1.058   2.468
 5067SOL    HW116100   2.916   1.157   2.481
 5067SOL    HW216101   3.003   1.020   2.472
 5068SOL     OW16102   3.131   4.723   6.658
 5068SOL    HW116103   3.163   4.817   6.652
 5068SOL    HW216104   3.127   4.695   6.754
 5069SOL     OW16105   2.253   3.096   5.917
 5069SOL    HW116106   2.169   3.058   5.878
 5069SOL    HW216107   2.265   3.061   6.010
 5070SOL     OW16108   4.828   4.344   4.094
 5070SOL    HW116109   4.766   4.294   4.155
 5070SOL    HW216110   4.813   4.442   4.105
 5071SOL     OW16111   3.649   1.013   3.443
 5071SOL    HW116112   3.630   0.943   3.512
 5071SOL    HW216113   3.689   1.093   3.487
 5072SOL     OW16114   0.978   0.878   1.724
 5072SOL    HW116115   0.985   0.937   1.644
 5072SOL    HW216116   0.914   0.919   1.790
 5073SOL     OW16117   1.434   4.528   1.653
 5073SOL    HW116118   1.484   4.524   1.566
 5073SOL    HW216119   1.469   4.603   1.709
 5074SOL     OW16120   3.236   2.105   1.288
 5074SOL    HW116121   3.144   2.141   1.269
 5074SOL    HW216122   3.277   2.157   1.363
 5075SOL     OW16123   1.171   2.243   6.310
 5075SOL    HW116124   1.248   2.235   6.374
 5075SOL    HW216125   1.156   2.155   6.265
 5076SOL     OW16126   5.010   0.453   0.798
 5076SOL    HW116127   5.066   0.435   0.879
 5076SOL    HW216128   5.068   0.489   0.725
 5077SOL     OW16129   2.298   4.361   5.483
 5077SOL    HW116130   2.210   4.399   5.454
 5077SOL    HW216131   2.345   4.322   5.404
 5078SOL     OW16132   0.348   0.715   3.797
 5078SOL    HW116133   0.323   0.619   3.787
 5078SOL    HW216134   0.325   0.764   3.713
 5079SOL     OW16135   2.081   3.268   4.839
 5079SOL    HW116136   2.069   3.184   4.892
 5079SOL    HW216137   1.992   3.305   4.814
 5080SOL     OW16138   5.957   6.658   6.349
 5080SOL    HW116139   5.981   6.640   6.253
 5080SOL    HW216140   5.881   6.724   6.352
 5081SOL     OW16141   3.617   3.872   5.298
 5081SOL    HW116142   3.599   3.824   5.212
 5081SOL    HW216143   3.546   3.940   5.314
 5082SOL     OW16144   5.198   5.616   1.495
 5082SOL    HW116145   5.269   5.600   1.563
 5082SOL    HW216146   5.150   5.701   1.516
 5083SOL     OW16147   2.597   0.451   2.909
 5083SOL    HW116148   2.600   0.352   2.902
 5083SOL    HW216149   2.502   0.482   2.899
 5084SOL     OW16150   0.328   4.127   4.333
 5084SOL    HW116151   0.321   4.131   4.432
 5084SOL    HW216152   0.410   4.075   4.308
 5085SOL     OW16153   6.634   2.616   6.137
 5085SOL    HW116154   6.669   2.687   6.198
 5085SOL    HW216155   6.535   2.626   6.127
 5086SOL     OW16156   1.199   5.207   3.179
 5086SOL    HW116157   1.143   5.147   3.237
 5086SOL    HW216158   1.196   5.300   3.215
 5087SOL     OW16159   1.510   5.688   2.905
 5087SOL    HW116160   1.478   5.760   2.967
 5087SOL    HW216161   1.433   5.629   2.881
 5088SOL     OW16162   5.979   0.187   4.074
 5088SOL    HW116163   5.940   0.156   3.987
 5088SOL    HW216164   6.075   0.158   4.080
 5089SOL     OW16165   5.658   3.504   4.152
 5089SOL    HW116166   5.757   3.502   4.143
 5089SOL    HW216167   5.632   3.482   4.246
 5090SOL     OW16168   2.165   3.919   2.566
 5090SOL    HW116169   2.219   4.003   2.578
 5090SOL    HW216170   2.154   3.901   2.468
 5091SOL     OW16171   6.978   1.484   1.298
 5091SOL    HW116172   6.995   1.386   1.289
 5091SOL    HW216173   6.987   1.510   1.394
 5092SOL     OW16174   3.464   3.832   3.277
 5092SOL    HW116175   3.448   3.734   3.293
 5092SOL    HW216176   3.393   3.885   3.323
 5093SOL     OW16177   2.818   1.005   0.447
 5093SOL    HW116178   2.908   0.990   0.408
 5093SOL    HW216179   2.777   1.087   0.406
 5094SOL     OW16180   2.334   5.889   5.900
 5094SOL    HW116181   2.341   5.984   5.929
 5094SOL    HW216182   2.305   5.832   5.977
 5095SOL     OW16183   6.202   2.119   3.841
 5095SOL    HW116184   6.217   2.146   3.936
 5095SOL    HW216185   6.150   2.191   3.794
 5096SOL     OW16186   3.911   4.863   6.638
 5096SOL    HW116187   3.852   4.943   6.648
 5096SOL    HW216188   3.862   4.782   6.669
 5097SOL     OW16189   0.945   0.151   6.518
 5097SOL    HW116190   0.968   0.228   6.577
 5097SOL    HW216191   0.959   0.177   6.422
 5098SOL     OW16192   2.935   0.555   2.130
 5098SOL    HW116193   3.015   0.571   2.188
 5098SOL    HW216194   2.852   0.553   2.187
 5099SOL     OW16195   0.764   0.153   0.871
 5099SOL    HW116196   0.743   0.220   0.800
 5099SOL    HW216197   0.854   0.113   0.853
 5100SOL     OW16198   3.346   5.562   4.398
 5100SOL    HW116199   3.305   5.650   4.376
 5100SOL    HW216200   3.326   5.496   4.326
 5101SOL     OW16201   4.860   0.360   0.067
 5101SOL    HW116202   4.876   0.378   6.992
 5101SOL    HW216203   4.937   0.397   0.120
 5102SOL     OW16204   5.621   6.960   4.301
 5102SOL    HW116205   5.624   6.912   4.213
 5102SOL    HW216206   5.672   0.023   4.294
 5103SOL     OW16207   0.617   0.315   4.272
 5103SOL    HW116208   0.620   0.215   4.271
 5103SOL    HW216209   0.699   0.351   4.227
 5104SOL     OW16210   1.747   6.320   2.130
 5104SOL    HW116211   1.747   6.350   2.034
 5104SOL    HW216212   1.841   6.315   2.164
 5105SOL     OW16213   2.461   2.575   0.513
 5105SOL    HW116214   2.367   2.542   0.514
 5105SOL    HW216215   2.505   2.552   0.600
 5106SOL     OW16216   4.125   2.263   0.230
 5106SOL    HW116217   4.038   2.262   0.280
 5106SOL    HW216218   4.180   2.184   0.256
 5107SOL     OW16219   3.741   1.743   1.258
 5107SOL    HW116220   3.746   1.822   1.197
 5107SOL    HW216221   3.646   1.713   1.267
 5108SOL     OW16222   4.005   4.055   5.085
 5108SOL    HW116223   3.930   4.107   5.124
 5108SOL    HW216224   4.052   4.110   5.015
 5109SOL     OW16225   0.907   1.720   0.083
 5109SOL    HW116226   0.921   1.622   0.101
 5109SOL    HW216227   0.814   1.734   0.048
 5110SOL     OW16228   0.844   0.755   5.466
 5110SOL    HW116229   0.809   0.705   5.545
 5110SOL    HW216230   0.866   0.849   5.494
 5111SOL     OW16231   1.165   0.679   4.992
 5111SOL    HW116232   1.117   0.623   4.925
 5111SOL    HW216233   1.121   0.670   5.081
 5112SOL     OW16234   1.296   1.045   3.623
 5112SOL    HW116235   1.350   1.085   3.548
 5112SOL    HW216236   1.358   1.012   3.694
 5113SOL     OW16237   1.823   6.979   0.915
 5113SOL    HW116238   1.824   6.909   0.986
 5113SOL    HW216239   1.761   0.030   0.942
 5114SOL     OW16240   3.606   1.158   6.532
 5114SOL    HW116241   3.525   1.130   6.584
 5114SOL    HW216242   3.687   1.154   6.591
 5115SOL     OW16243   1.819   5.010   4.398
 5115SOL    HW116244   1.764   5.023   4.481
 5115SOL    HW216245   1.885   5.086   4.391
 5116SOL     OW16246   0.577   0.206   6.014
 5116SOL    HW116247   0.623   0.233   5.929
 5116SOL    HW216248   0.538   0.115   6.004
 5117SOL     OW16249   2.297   4.341   4.691
 5117SOL    HW116250   2.199   4.327   4.673
 5117SOL    HW216251   2.347   4.257   4.671
 5118SOL     OW16252   5.086   0.441   0.196
 5118SOL    HW116253   5.153   0.385   0.146
 5118SOL    HW216254   5.128   0.530   0.218
 5119SOL     OW16255   5.404   0.806   1.883
 5119SOL    HW116256   5.383   0.786   1.978
 5119SOL    HW216257   5.393   0.904   1.866
 5120SOL     OW16258   3.743   0.504   4.211
 5120SOL    HW116259   3.710   0.435   4.146
 5120SOL    HW216260   3.799   0.459   4.281
 5121SOL     OW16261   2.826   2.376   6.739
 5121SOL    HW116262   2.874   2.461   6.716
 5121SOL    HW216263   2.731   2.382   6.709
 5122SOL     OW16264   3.215   6.719   3.643
 5122SOL    HW116265   3.276   6.755   3.572
 5122SOL    HW216266   3.263   6.649   3.696
 5123SOL     OW16267   4.211   2.356   4.410
 5123SOL    HW116268   4.245   2.386   4.321
 5123SOL    HW216269   4.137   2.289   4.397
 5124SOL     OW16270   2.251   5.580   4.608
 5124SOL    HW116271   2.317   5.645   4.646
 5124SOL    HW216272   2.296   5.492   4.593
 5125SOL     OW16273   5.958   3.496   4.148
 5125SOL    HW116274   6.033   3.432   4.165
 5125SOL    HW216275   5.987   3.565   4.081
 5126SOL     OW16276   5.902   4.957   5.347
 5126SOL    HW116277   5.876   5.007   5.430
 5126SOL    HW216278   5.967   4.885   5.370
 5127SOL     OW16279   1.550   4.183   6.701
 5127SOL    HW116280   1.530   4.088   6.677
 5127SOL    HW216281   1.572   4.189   6.799
 5128SOL     OW16282   6.963   0.608   6.719
 5128SOL    HW116283   0.040   0.606   6.731
 5128SOL    HW216284   6.930   0.702   6.730
 5129SOL     OW16285   5.820   0.033   2.599
 5129SOL    HW116286   5.916   0.014   2.617
 5129SOL    HW216287   5.812   0.120   2.550
 5130SOL     OW16288   0.467   5.808   3.841
 5130SOL    HW116289   0.424   5.738   3.784
 5130SOL    HW216290   0.552   5.839   3.798
 5131SOL     OW16291   2.472   4.900   3.787
 5131SOL    HW116292   2.550   4.904   3.850
 5131SOL    HW216293   2.494   4.843   3.709
 5132SOL     OW16294   3.140   2.594   6.432
 5132SOL    HW116295   3.054   2.583   6.382
 5132SOL    HW216296   3.217   2.577   6.371
 5133SOL     OW16297   1.370   5.917   6.708
 5133SOL    HW116298   1.419   5.947   6.790
 5133SOL    HW216299   1.428   5.929   6.628
 5134SOL     OW16300   0.013   2.483   1.981
 5134SOL    HW116301   0.071   2.472   2.061
 5134SOL    HW216302   0.003   2.396   1.934
 5135SOL     OW16303   5.814   3.119   4.587
 5135SOL    HW116304   5.801   3.084   4.680
 5135SOL    HW216305   5.809   3.219   4.588
 5136SOL     OW16306   5.035   0.506   6.643
 5136SOL    HW116307   5.066   0.559   6.721
 5136SOL    HW216308   5.105   0.439   6.618
 5137SOL     OW16309   5.379   3.935   5.798
 5137SOL    HW116310   5.353   3.984   5.882
 5137SOL    HW216311   5.478   3.923   5.796
 5138SOL     OW16312   4.107   2.986   5.340
 5138SOL    HW116313   4.062   3.008   5.253
 5138SOL    HW216314   4.109   2.886   5.352
 5139SOL     OW16315   1.011   1.205   3.340
 5139SOL    HW116316   1.099   1.157   3.348
 5139SOL    HW216317   0.959   1.191   3.424
 5140SOL     OW16318   3.775   2.897   6.379
 5140SOL    HW116319   3.718   2.936   6.452
 5140SOL    HW216320   3.717   2.870   6.302
 5141SOL     OW16321   6.260   3.793   0.957
 5141SOL    HW116322   6.301   3.772   0.868
 5141SOL    HW216323   6.250   3.892   0.967
 5142SOL     OW16324   6.115   6.650   2.840
 5142SOL    HW116325   6.129   6.596   2.758
 5142SOL    HW216326   6.143   6.744   2.824
 5143SOL     OW16327   6.427   4.675   4.289
 5143SOL    HW116328   6.512   4.652   4.242
 5143SOL    HW216329   6.378   4.745   4.237
 5144SOL     OW16330   1.024   4.410   5.953
 5144SOL    HW116331   0.958   4.349   5.908
 5144SOL    HW216332   1.005   4.505   5.926
 5145SOL     OW16333   3.365   5.619   5.461
 5145SOL    HW116334   3.299   5.676   5.510
 5145SOL    HW216335   3.361   5.638   5.363
 5146SOL     OW16336   3.563   3.941   5.625
 5146SOL    HW116337   3.624   3.919   5.548
 5146SOL    HW216338   3.511   4.024   5.604
 5147SOL     OW16339   6.841   5.379   2.715
 5147SOL    HW116340   6.880   5.395   2.806
 5147SOL    HW216341   6.745   5.353   2.725
 5148SOL     OW16342   6.534   6.972   1.542
 5148SOL    HW116343   6.562   0.042   1.569
 5148SOL    HW216344   6.455   6.943   1.595
 5149SOL     OW16345   6.576   5.722   2.979
 5149SOL    HW116346   6.546   5.697   2.887
 5149SOL    HW216347   6.639   5.799   2.974
 5150SOL     OW16348   2.141   5.891   3.326
 5150SOL    HW116349   2.176   5.816   3.382
 5150SOL    HW216350   2.108   5.964   3.385
 5151SOL     OW16351   6.859   3.037   1.877
 5151SOL    HW116352   6.819   2.986   1.801
 5151SOL    HW216353   6.834   3.133   1.870
 5152SOL     OW16354   1.783   4.888   6.854
 5152SOL    HW116355   1.722   4.949   6.904
 5152SOL    HW216356   1.732   4.809   6.822
 5153SOL     OW16357   1.529   1.223   6.956
 5153SOL    HW116358   1.455   1.286   6.982
 5153SOL    HW216359   1.560   1.244   6.863
 5154SOL     OW16360   1.304   2.533   6.171
 5154SOL    HW116361   1.351   2.446   6.159
 5154SOL    HW216362   1.205   2.519   6.161
 5155SOL     OW16363   4.246   0.780   2.306
 5155SOL    HW116364   4.332   0.731   2.320
 5155SOL    HW216365   4.197   0.739   2.229
 5156SOL     OW16366   5.645   3.997   6.383
 5156SOL    HW116367   5.573   3.950   6.434
 5156SOL    HW216368   5.604   4.048   6.307
 5157SOL     OW16369   3.805   2.112   3.184
 5157SOL    HW116370   3.866   2.090   3.108
 5157SOL    HW216371   3.717   2.142   3.148
 5158SOL     OW16372   3.327   1.371   1.546
 5158SOL    HW116373   3.287   1.418   1.468
 5158SOL    HW216374   3.354   1.438   1.615
 5159SOL     OW16375   5.976   4.138   4.969
 5159SOL    HW116376   5.881   4.164   4.951
 5159SOL    HW216377   6.037   4.194   4.913
 5160SOL     OW16378   0.502   4.941   3.209
 5160SOL    HW116379   0.569   4.867   3.200
 5160SOL    HW216380   0.462   4.939   3.300
 5161SOL     OW16381   1.910   3.553   5.813
 5161SOL    HW116382   1.843   3.500   5.865
 5161SOL    HW216383   1.998   3.505   5.814
 5162SOL     OW16384   0.679   4.797   2.833
 5162SOL    HW116385   0.620   4.758   2.903
 5162SOL    HW216386   0.662   4.895   2.825
 5163SOL     OW16387   3.177   5.976   0.008
 5163SOL    HW116388   3.260   6.000   6.979
 5163SOL    HW216389   3.136   6.060   0.044
 5164SOL     OW16390   4.016   2.546   6.686
 5164SOL    HW116391   3.976   2.600   6.760
 5164SOL    HW216392   4.105   2.512   6.714
 5165SOL     OW16393   6.698   4.182   5.663
 5165SOL    HW116394   6.766   4.240   5.708
 5165SOL    HW216395   6.714   4.182   5.565
 5166SOL     OW16396   0.770   5.322   1.977
 5166SOL    HW116397   0.691   5.365   1.934
 5166SOL    HW216398   0.740   5.267   2.055
 5167SOL     OW16399   6.894   6.014   5.966
 5167SOL    HW116400   6.860   6.084   5.904
 5167SOL    HW216401   6.950   5.948   5.915
 5168SOL     OW16402   4.876   3.503   2.108
 5168SOL    HW116403   4.805   3.521   2.177
 5168SOL    HW216404   4.851   3.421   2.056
 5169SOL     OW16405   4.009   2.160   4.381
 5169SOL    HW116406   4.029   2.062   4.381
 5169SOL    HW216407   3.912   2.175   4.396
 5170SOL     OW16408   0.555   4.483   5.558
 5170SOL    HW116409   0.613   4.404   5.537
 5170SOL    HW216410   0.476   4.453   5.611
 5171SOL     OW16411   0.622   4.917   5.052
 5171SOL    HW116412   0.569   4.971   4.985
 5171SOL    HW216413   0.592   4.822   5.049
 5172SOL     OW16414   1.249   2.580   2.340
 5172SOL    HW116415   1.225   2.624   2.426
 5172SOL    HW216416   1.255   2.649   2.268
 5173SOL     OW16417   5.058   5.039   5.453
 5173SOL    HW116418   5.119   5.113   5.427
 5173SOL    HW216419   5.107   4.975   5.512
 5174SOL     OW16420   1.988   4.989   3.263
 5174SOL    HW116421   1.911   4.927   3.250
 5174SOL    HW216422   1.954   5.081   3.285
 5175SOL     OW16423   2.895   3.869   6.626
 5175SOL    HW116424   2.944   3.844   6.542
 5175SOL    HW216425   2.800   3.838   6.619
 5176SOL     OW16426   4.950   3.561   6.868
 5176SOL    HW116427   4.888   3.639   6.869
 5176SOL    HW216428   5.017   3.571   6.942
 5177SOL     OW16429   5.623   0.600   0.532
 5177SOL    HW116430   5.572   0.633   0.611
 5177SOL    HW216431   5.695   0.537   0.563
 5178SOL     OW16432   1.333   4.010   2.104
 5178SOL    HW116433   1.426   4.003   2.069
 5178SOL    HW216434   1.287   4.088   2.061
 5179SOL     OW16435   3.948   5.172   3.652
 5179SOL    HW116436   3.913   5.107   3.719
 5179SOL    HW216437   4.008   5.124   3.588
 5180SOL     OW16438   2.192   2.223   1.028
 5180SOL    HW116439   2.130   2.290   0.987
 5180SOL    HW216440   2.269   2.270   1.070
 5181SOL     OW16441   5.754   1.281   2.823
 5181SOL    HW116442   5.751   1.299   2.921
 5181SOL    HW216443   5.848   1.261   2.795
 5182SOL     OW16444   4.065   4.250   1.615
 5182SOL    HW116445   4.061   4.154   1.642
 5182SOL    HW216446   3.973   4.285   1.602
 5183SOL     OW16447   3.926   1.777   2.805
 5183SOL    HW116448   3.950   1.771   2.901
 5183SOL    HW216449   3.858   1.707   2.783
 5184SOL     OW16450   0.169   1.637   4.705
 5184SOL    HW116451   0.227   1.680   4.636
 5184SOL    HW216452   0.186   1.680   4.794
 5185SOL     OW16453   5.915   0.548   2.531
 5185SOL    HW116454   5.824   0.589   2.533
 5185SOL    HW216455   5.977   0.607   2.478
 5186SOL     OW16456   6.286   2.310   0.825
 5186SOL    HW116457   6.279   2.218   0.863
 5186SOL    HW216458   6.218   2.369   0.868
 5187SOL     OW16459   1.195   6.746   4.332
 5187SOL    HW116460   1.138   6.693   4.395
 5187SOL    HW216461   1.143   6.823   4.298
 5188SOL     OW16462   0.700   5.441   1.033
 5188SOL    HW116463   0.687   5.347   1.065
 5188SOL    HW216464   0.639   5.503   1.084
 5189SOL     OW16465   3.885   4.471   0.974
 5189SOL    HW116466   3.873   4.383   1.018
 5189SOL    HW216467   3.850   4.466   0.880
 5190SOL     OW16468   0.600   1.818   4.294
 5190SOL    HW116469   0.543   1.867   4.228
 5190SOL    HW216470   0.584   1.720   4.286
 5191SOL     OW16471   3.923   0.333   1.970
 5191SOL    HW116472   3.945   0.335   1.872
 5191SOL    HW216473   4.006   0.346   2.024
 5192SOL     OW16474   2.698   5.844   2.437
 5192SOL    HW116475   2.750   5.927   2.457
 5192SOL    HW216476   2.725   5.772   2.501
 5193SOL     OW16477   5.010   4.445   4.659
 5193SOL    HW116478   4.980   4.540   4.653
 5193SOL    HW216479   5.049   4.428   4.750
 5194SOL     OW16480   4.827   1.972   6.925
 5194SOL    HW116481   4.786   1.901   6.982
 5194SOL    HW216482   4.843   1.936   6.833
 5195SOL     OW16483   0.003   6.557   4.218
 5195SOL    HW116484   7.009   6.499   4.298
 5195SOL    HW216485   0.043   6.501   4.145
 5196SOL     OW16486   3.354   5.362   0.724
 5196SOL    HW116487   3.353   5.453   0.684
 5196SOL    HW216488   3.386   5.366   0.818
 5197SOL     OW16489   2.004   5.158   5.479
 5197SOL    HW116490   2.041   5.165   5.387
 5197SOL    HW216491   1.938   5.232   5.495
 5198SOL     OW16492   4.688   6.883   3.230
 5198SOL    HW116493   4.710   6.977   3.256
 5198SOL    HW216494   4.721   6.865   3.138
 5199SOL     OW16495   2.024   5.878   0.482
 5199SOL    HW116496   1.992   5.973   0.479
 5199SOL    HW216497   2.036   5.844   0.389
 5200SOL     OW16498   0.838   2.491   5.228
 5200SOL    HW116499   0.835   2.582   5.187
 5200SOL    HW216500   0.916   2.440   5.192
 5201SOL     OW16501   0.122   6.492   3.628
 5201SOL    HW116502   0.084   6.438   3.553
 5201SOL    HW216503   0.203   6.446   3.665
 5202SOL     OW16504   6.441   4.124   5.728
 5202SOL    HW116505   6.533   4.126   5.688
 5202SOL    HW216506   6.373   4.145   5.658
 5203SOL     OW16507   2.363   1.384   6.618
 5203SOL    HW116508   2.346   1.481   6.603
 5203SOL    HW216509   2.343   1.333   6.534
 5204SOL     OW16510   4.126   5.894   6.736
 5204SOL    HW116511   4.167   5.827   6.674
 5204SOL    HW216512   4.090   5.847   6.817
 5205SOL     OW16513   0.934   5.500   0.931
 5205SOL    HW116514   0.928   5.575   0.865
 5205SOL    HW216515   0.848   5.494   0.982
 5206SOL     OW16516   0.707   4.707   6.125
 5206SOL    HW116517   0.736   4.677   6.034
 5206SOL    HW216518   0.742   4.799   6.143
 5207SOL     OW16519   0.936   5.919   4.185
 5207SOL    HW116520   0.885   5.925   4.271
 5207SOL    HW216521   0.900   5.844   4.130
 5208SOL     OW16522   4.981   2.981   6.376
 5208SOL    HW116523   4.904   3.000   6.316
 5208SOL    HW216524   5.027   2.897   6.347
 5209SOL     OW16525   5.676   6.625   2.189
 5209SOL    HW116526   5.670   6.724   2.191
 5209SOL    HW216527   5.731   6.592   2.265
 5210SOL     OW16528   4.472   3.037   0.037
 5210SOL    HW116529   4.518   3.030   6.970
 5210SOL    HW216530   4.476   2.949   0.084
 5211SOL     OW16531   3.670   2.458   5.484
 5211SOL    HW116532   3.750   2.439   5.427
 5211SOL    HW216533   3.621   2.373   5.503
 5212SOL     OW16534   0.083   2.856   0.743
 5212SOL    HW116535   0.179   2.872   0.766
 5212SOL    HW216536   0.051   2.773   0.789
 5213SOL     OW16537   4.512   4.009   6.497
 5213SOL    HW116538   4.527   4.013   6.398
 5213SOL    HW216539   4.421   4.046   6.518
 5214SOL     OW16540   5.586   1.929   6.146
 5214SOL    HW116541   5.507   1.956   6.091
 5214SOL    HW216542   5.651   2.005   6.150
 5215SOL     OW16543   0.129   4.477   4.022
 5215SOL    HW116544   0.192   4.446   4.092
 5215SOL    HW216545   0.066   4.404   3.998
 5216SOL     OW16546   4.946   4.920   1.982
 5216SOL    HW116547   4.925   4.968   1.897
 5216SOL    HW216548   4.985   4.830   1.960
 5217SOL     OW16549   4.165   5.333   4.001
 5217SOL    HW116550   4.151   5.262   4.069
 5217SOL    HW216551   4.077   5.375   3.978
 5218SOL     OW16552   1.094   0.748   2.600
 5218SOL    HW116553   1.114   0.726   2.504
 5218SOL    HW216554   1.178   0.771   2.648
 5219SOL     OW16555   4.528   1.543   4.876
 5219SOL    HW116556   4.547   1.629   4.924
 5219SOL    HW216557   4.554   1.552   4.780
 5220SOL     OW16558   0.745   6.062   2.489
 5220SOL    HW116559   0.842   6.046   2.509
 5220SOL    HW216560   0.700   6.103   2.568
 5221SOL     OW16561   5.823   1.814   3.735
 5221SOL    HW116562   5.792   1.825   3.640
 5221SOL    HW216563   5.838   1.717   3.754
 5222SOL     OW16564   4.092   6.281   3.267
 5222SOL    HW116565   4.079   6.311   3.173
 5222SOL    HW216566   4.027   6.208   3.289
 5223SOL     OW16567   6.270   2.776   0.723
 5223SOL    HW116568   6.312   2.763   0.634
 5223SOL    HW216569   6.175   2.806   0.712
 5224SOL     OW16570   6.679   2.668   4.696
 5224SOL    HW116571   6.589   2.674   4.654
 5224SOL    HW216572   6.718   2.578   4.676
 5225SOL     OW16573   0.233   0.465   3.256
 5225SOL    HW116574   0.196   0.406   3.329
 5225SOL    HW216575   0.225   0.561   3.284
 5226SOL     OW16576   6.617   6.584   4.914
 5226SOL    HW116577   6.606   6.530   4.998
 5226SOL    HW216578   6.576   6.535   4.838
 5227SOL     OW16579   0.149   3.769   5.375
 5227SOL    HW116580   0.138   3.678   5.334
 5227SOL    HW216581   0.246   3.784   5.396
 5228SOL     OW16582   6.103   2.177   1.124
 5228SOL    HW116583   6.124   2.257   1.179
 5228SOL    HW216584   6.009   2.184   1.089
 5229SOL     OW16585   1.828   6.024   6.979
 5229SOL    HW116586   1.782   6.096   0.008
 5229SOL    HW216587   1.923   6.051   6.961
 5230SOL     OW16588   0.799   5.508   1.701
 5230SOL    HW116589   0.832   5.499   1.795
 5230SOL    HW216590   0.878   5.522   1.640
 5231SOL     OW16591   4.774   2.800   4.798
 5231SOL    HW116592   4.773   2.805   4.898
 5231SOL    HW216593   4.707   2.733   4.767
 5232SOL     OW16594   2.524   3.493   6.212
 5232SOL    HW116595   2.552   3.401   6.240
 5232SOL    HW216596   2.531   3.501   6.112
 5233SOL     OW16597   4.986   0.849   2.299
 5233SOL    HW116598   5.050   0.926   2.309
 5233SOL    HW216599   4.992   0.791   2.380
 5234SOL     OW16600   2.915   1.468   5.920
 5234SOL    HW116601   2.965   1.402   5.976
 5234SOL    HW216602   2.923   1.442   5.823
 5235SOL     OW16603   1.703   2.452   1.040
 5235SOL    HW116604   1.692   2.372   1.099
 5235SOL    HW216605   1.646   2.442   0.959
 5236SOL     OW16606   5.205   4.936   2.051
 5236SOL    HW116607   5.253   4.870   2.109
 5236SOL    HW216608   5.110   4.943   2.081
 5237SOL     OW16609   1.578   1.210   4.855
 5237SOL    HW116610   1.576   1.253   4.765
 5237SOL    HW216611   1.655   1.247   4.908
 5238SOL     OW16612   0.382   4.595   6.892
 5238SOL    HW116613   0.294   4.550   6.879
 5238SOL    HW216614   0.450   4.553   6.831
 5239SOL     OW16615   3.190   2.998   4.522
 5239SOL    HW116616   3.101   3.027   4.489
 5239SOL    HW216617   3.245   2.963   4.446
 5240SOL     OW16618   2.965   1.896   5.743
 5240SOL    HW116619   3.059   1.889   5.711
 5240SOL    HW216620   2.907   1.933   5.670
 5241SOL     OW16621   0.240   5.340   4.846
 5241SOL    HW116622   0.257   5.438   4.847
 5241SOL    HW216623   0.287   5.299   4.768
 5242SOL     OW16624   6.844   6.285   6.247
 5242SOL    HW116625   6.906   6.300   6.170
 5242SOL    HW216626   6.863   6.352   6.319
 5243SOL     OW16627   1.225   5.466   1.355
 5243SOL    HW116628   1.189   5.374   1.338
 5243SOL    HW216629   1.219   5.486   1.452
 5244SOL     OW16630   3.536   5.347   6.950
 5244SOL    HW116631   3.513   5.251   6.969
 5244SOL    HW216632   3.469   5.406   6.994
 5245SOL     OW16633   3.905   4.799   0.071
 5245SOL    HW116634   3.967   4.837   0.139
 5245SOL    HW216635   3.823   4.855   0.065
 5246SOL     OW16636   5.481   3.850   1.959
 5246SOL    HW116637   5.383   3.869   1.960
 5246SOL    HW216638   5.519   3.866   2.050
 5247SOL     OW16639   1.743   0.702   6.907
 5247SOL    HW116640   1.784   0.779   6.955
 5247SOL    HW216641   1.812   0.631   6.892
 5248SOL     OW16642   5.772   1.511   3.352
 5248SOL    HW116643   5.756   1.413   3.366
 5248SOL    HW216644   5.856   1.523   3.299
 5249SOL     OW16645   6.840   5.212   5.729
 5249SOL    HW116646   6.788   5.251   5.653
 5249SOL    HW216647   6.784   5.142   5.774
 5250SOL     OW16648   2.039   6.059   5.811
 5250SOL    HW116649   2.092   6.141   5.790
 5250SOL    HW216650   2.091   5.978   5.783
 5251SOL     OW16651   0.419   3.561   6.964
 5251SOL    HW116652   0.348   3.615   6.918
 5251SOL    HW216653   0.377   3.500   0.008
 5252SOL     OW16654   1.430   6.311   0.518
 5252SOL    HW116655   1.406   6.254   0.440
 5252SOL    HW216656   1.423   6.258   0.602
 5253SOL     OW16657   5.782   4.821   4.670
 5253SOL    HW116658   5.836   4.904   4.676
 5253SOL    HW216659   5.800   4.763   4.749
 5254SOL     OW16660   4.166   1.007   3.240
 5254SOL    HW116661   4.240   1.016   3.173
 5254SOL    HW216662   4.191   1.055   3.324
 5255SOL     OW16663   5.682   1.099   5.527
 5255SOL    HW116664   5.742   1.173   5.495
 5255SOL    HW216665   5.630   1.131   5.606
 5256SOL     OW16666   4.029   1.470   3.680
 5256SOL    HW116667   4.128   1.485   3.677
 5256SOL    HW216668   3.986   1.541   3.736
 5257SOL     OW16669   5.846   6.884   2.196
 5257SOL    HW116670   5.882   6.811   2.139
 5257SOL    HW216671   5.772   6.931   2.148
 5258SOL     OW16672   5.892   3.384   1.882
 5258SOL    HW116673   5.962   3.415   1.946
 5258SOL    HW216674   5.924   3.396   1.788
 5259SOL     OW16675   5.886   6.462   1.986
 5259SOL    HW116676   5.874   6.456   1.887
 5259SOL    HW216677   5.844   6.382   2.030
 5260SOL     OW16678   5.271   3.676   1.024
 5260SOL    HW116679   5.319   3.612   1.085
 5260SOL    HW216680   5.173   3.663   1.032
 5261SOL     OW16681   0.831   4.187   6.846
 5261SOL    HW116682   0.754   4.131   6.814
 5261SOL    HW216683   0.898   4.128   6.890
 5262SOL     OW16684   2.429   0.814   2.959
 5262SOL    HW116685   2.462   0.907   2.973
 5262SOL    HW216686   2.418   0.770   3.048
 5263SOL     OW16687   1.346   1.913   4.337
 5263SOL    HW116688   1.268   1.867   4.379
 5263SOL    HW216689   1.374   1.990   4.396
 5264SOL     OW16690   6.371   2.545   2.822
 5264SOL    HW116691   6.407   2.475   2.760
 5264SOL    HW216692   6.271   2.542   2.820
 5265SOL     OW16693   6.568   3.892   3.875
 5265SOL    HW116694   6.629   3.844   3.938
 5265SOL    HW216695   6.473   3.871   3.898
 5266SOL     OW16696   2.742   5.409   0.415
 5266SOL    HW116697   2.752   5.475   0.490
 5266SOL    HW216698   2.828   5.360   0.401
 5267SOL     OW16699   5.133   3.822   4.990
 5267SOL    HW116700   5.051   3.797   4.939
 5267SOL    HW216701   5.178   3.740   5.024
 5268SOL     OW16702   5.636   0.491   6.944
 5268SOL    HW116703   5.618   0.469   0.017
 5268SOL    HW216704   5.633   0.407   6.889
 5269SOL     OW16705   1.346   6.881   3.616
 5269SOL    HW116706   1.438   6.905   3.648
 5269SOL    HW216707   1.308   6.808   3.673
 5270SOL     OW16708   5.848   1.347   1.295
 5270SOL    HW116709   5.867   1.381   1.387
 5270SOL    HW216710   5.803   1.258   1.300
 5271SOL     OW16711   5.909   5.441   4.680
 5271SOL    HW116712   5.937   5.401   4.767
 5271SOL    HW216713   5.860   5.372   4.626
 5272SOL     OW16714   2.976   5.403   2.078
 5272SOL    HW116715   2.948   5.364   2.166
 5272SOL    HW216716   3.023   5.490   2.094
 5273SOL     OW16717   6.825   2.977   3.872
 5273SOL    HW116718   6.741   2.950   3.826
 5273SOL    HW216719   6.814   3.067   3.913
 5274SOL     OW16720   6.618   6.958   2.858
 5274SOL    HW116721   6.680   6.886   2.889
 5274SOL    HW216722   6.539   6.916   2.813
 5275SOL     OW16723   3.462   2.119   0.913
 5275SOL    HW116724   3.443   2.217   0.923
 5275SOL    HW216725   3.396   2.079   0.849
 5276SOL     OW16726   1.905   0.324   0.939
 5276SOL    HW116727   1.898   0.416   0.978
 5276SOL    HW216728   1.834   0.311   0.870
 5277SOL     OW16729   1.263   1.719   2.671
 5277SOL    HW116730   1.229   1.649   2.609
 5277SOL    HW216731   1.190   1.747   2.734
 5278SOL     OW16732   5.595   0.196   3.252
 5278SOL    HW116733   5.516   0.249   3.280
 5278SOL    HW216734   5.594   0.107   3.298
 5279SOL     OW16735   2.079   5.113   5.878
 5279SOL    HW116736   2.170   5.080   5.853
 5279SOL    HW216737   2.045   5.061   5.956
 5280SOL     OW16738   2.736   5.774   4.784
 5280SOL    HW116739   2.713   5.705   4.715
 5280SOL    HW216740   2.681   5.856   4.770
 5281SOL     OW16741   0.667   1.619   2.576
 5281SOL    HW116742   0.718   1.569   2.506
 5281SOL    HW216743   0.624   1.699   2.534
 5282SOL     OW16744   2.494   2.120   3.208
 5282SOL    HW116745   2.434   2.129   3.288
 5282SOL    HW216746   2.452   2.164   3.129
 5283SOL     OW16747   3.969   6.695   1.619
 5283SOL    HW116748   4.017   6.692   1.707
 5283SOL    HW216749   3.997   6.777   1.569
 5284SOL     OW16750   5.047   3.773   3.269
 5284SOL    HW116751   5.008   3.715   3.340
 5284SOL    HW216752   5.142   3.745   3.251
 5285SOL     OW16753   2.526   5.059   3.425
 5285SOL    HW116754   2.580   5.097   3.499
 5285SOL    HW216755   2.438   5.107   3.420
 5286SOL     OW16756   1.591   4.108   0.343
 5286SOL    HW116757   1.604   4.025   0.397
 5286SOL    HW216758   1.680   4.144   0.316
 5287SOL     OW16759   2.754   6.513   1.134
 5287SOL    HW116760   2.756   6.610   1.158
 5287SOL    HW216761   2.833   6.468   1.175
 5288SOL     OW16762   3.753   0.132   1.425
 5288SOL    HW116763   3.696   0.182   1.490
 5288SOL    HW216764   3.731   0.035   1.431
 5289SOL     OW16765   1.693   4.466   5.921
 5289SOL    HW116766   1.751   4.429   5.995
 5289SOL    HW216767   1.673   4.393   5.856
 5290SOL     OW16768   1.724   5.294   5.226
 5290SOL    HW116769   1.731   5.196   5.243
 5290SOL    HW216770   1.633   5.316   5.192
 5291SOL     OW16771   2.568   5.282   5.845
 5291SOL    HW116772   2.547   5.202   5.789
 5291SOL    HW216773   2.495   5.350   5.834
 5292SOL     OW16774   6.489   3.339   6.943
 5292SOL    HW116775   6.394   3.364   6.921
 5292SOL    HW216776   6.537   3.419   6.978
 5293SOL     OW16777   0.780   0.075   4.639
 5293SOL    HW116778   0.833   7.017   4.611
 5293SOL    HW216779   0.784   0.144   4.567
 5294SOL     OW16780   4.541   3.509   5.868
 5294SOL    HW116781   4.587   3.474   5.786
 5294SOL    HW216782   4.452   3.546   5.843
 5295SOL     OW16783   5.197   0.515   2.651
 5295SOL    HW116784   5.147   0.456   2.714
 5295SOL    HW216785   5.145   0.526   2.567
 5296SOL     OW16786   2.139   5.088   0.355
 5296SOL    HW116787   2.175   5.169   0.401
 5296SOL    HW216788   2.135   5.105   0.256
 5297SOL     OW16789   3.144   2.512   1.122
 5297SOL    HW116790   3.167   2.467   1.208
 5297SOL    HW216791   3.177   2.606   1.124
 5298SOL     OW16792   0.906   5.453   0.011
 5298SOL    HW116793   0.881   5.360   0.037
 5298SOL    HW216794   0.999   5.453   6.997
 5299SOL     OW16795   2.291   2.491   1.113
 5299SOL    HW116796   2.259   2.469   1.205
 5299SOL    HW216797   2.215   2.529   1.059
 5300SOL     OW16798   0.039   6.010   1.971
 5300SOL    HW116799   0.098   6.033   2.049
 5300SOL    HW216800   0.077   5.931   1.922
 5301SOL     OW16801   4.230   2.650   0.776
 5301SOL    HW116802   4.241   2.635   0.678
 5301SOL    HW216803   4.319   2.669   0.817
 5302SOL     OW16804   6.024   4.039   2.848
 5302SOL    HW116805   5.984   3.951   2.820
 5302SOL    HW216806   6.105   4.022   2.903
 5303SOL     OW16807   6.760   5.949   2.967
 5303SOL    HW116808   6.682   6.012   2.955
 5303SOL    HW216809   6.772   5.931   3.064
 5304SOL     OW16810   6.666   1.968   5.751
 5304SOL    HW116811   6.653   1.945   5.654
 5304SOL    HW216812   6.746   1.920   5.786
 5305SOL     OW16813   1.303   6.228   4.479
 5305SOL    HW116814   1.361   6.162   4.527
 5305SOL    HW216815   1.315   6.216   4.380
 5306SOL     OW16816   0.311   6.228   5.053
 5306SOL    HW116817   0.410   6.214   5.064
 5306SOL    HW216818   0.291   6.247   4.957
 5307SOL     OW16819   4.285   0.147   6.925
 5307SOL    HW116820   4.268   0.054   6.956
 5307SOL    HW216821   4.288   0.209   7.004
 5308SOL     OW16822   1.034   6.314   4.489
 5308SOL    HW116823   1.022   6.344   4.395
 5308SOL    HW216824   1.120   6.263   4.498
 5309SOL     OW16825   3.354   3.917   2.340
 5309SOL    HW116826   3.430   3.877   2.288
 5309SOL    HW216827   3.268   3.876   2.311
 5310SOL     OW16828   5.155   2.652   2.058
 5310SOL    HW116829   5.095   2.689   1.987
 5310SOL    HW216830   5.216   2.724   2.091
 5311SOL     OW16831   0.170   5.700   1.051
 5311SOL    HW116832   0.142   5.726   1.143
 5311SOL    HW216833   0.249   5.639   1.057
 5312SOL     OW16834   0.383   4.195   2.295
 5312SOL    HW116835   0.367   4.282   2.342
 5312SOL    HW216836   0.353   4.202   2.200
 5313SOL     OW16837   1.106   4.577   6.808
 5313SOL    HW116838   1.078   4.670   6.834
 5313SOL    HW216839   1.025   4.519   6.800
 5314SOL     OW16840   3.296   5.061   0.178
 5314SOL    HW116841   3.247   5.098   0.099
 5314SOL    HW216842   3.271   5.113   0.260
 5315SOL     OW16843   3.930   3.751   1.454
 5315SOL    HW116844   3.992   3.805   1.512
 5315SOL    HW216845   3.941   3.779   1.359
 5316SOL     OW16846   6.877   5.110   5.388
 5316SOL    HW116847   6.960   5.055   5.398
 5316SOL    HW216848   6.801   5.051   5.359
 5317SOL     OW16849   6.820   0.699   4.810
 5317SOL    HW116850   6.745   0.743   4.762
 5317SOL    HW216851   6.903   0.755   4.802
 5318SOL     OW16852   0.521   1.518   5.825
 5318SOL    HW116853   0.503   1.424   5.796
 5318SOL    HW216854   0.480   1.582   5.760
 5319SOL     OW16855   4.756   6.449   6.570
 5319SOL    HW116856   4.657   6.460   6.561
 5319SOL    HW216857   4.776   6.362   6.614
 5320SOL     OW16858   5.725   5.280   6.807
 5320SOL    HW116859   5.709   5.371   6.769
 5320SOL    HW216860   5.703   5.280   6.904
 5321SOL     OW16861   0.977   3.840   2.894
 5321SOL    HW116862   1.058   3.864   2.947
 5321SOL    HW216863   1.000   3.840   2.796
 5322SOL     OW16864   3.753   6.114   6.073
 5322SOL    HW116865   3.681   6.182   6.066
 5322SOL    HW216866   3.831   6.153   6.122
 5323SOL     OW16867   4.208   3.468   0.745
 5323SOL    HW116868   4.215   3.396   0.677
 5323SOL    HW216869   4.290   3.467   0.803
 5324SOL     OW16870   3.661   2.667   1.809
 5324SOL    HW116871   3.671   2.683   1.710
 5324SOL    HW216872   3.664   2.569   1.827
 5325SOL     OW16873   5.709   6.451   3.717
 5325SOL    HW116874   5.762   6.477   3.637
 5325SOL    HW216875   5.758   6.477   3.800
 5326SOL     OW16876   6.863   4.917   3.324
 5326SOL    HW116877   6.938   4.938   3.260
 5326SOL    HW216878   6.898   4.863   3.400
 5327SOL     OW16879   6.317   5.142   5.445
 5327SOL    HW116880   6.341   5.220   5.503
 5327SOL    HW216881   6.237   5.096   5.482
 5328SOL     OW16882   4.538   2.611   5.549
 5328SOL    HW116883   4.540   2.637   5.453
 5328SOL    HW216884   4.506   2.688   5.604
 5329SOL     OW16885   0.743   3.930   0.223
 5329SOL    HW116886   0.646   3.955   0.232
 5329SOL    HW216887   0.799   4.013   0.226
 5330SOL     OW16888   3.469   4.799   6.962
 5330SOL    HW116889   3.466   4.780   0.038
 5330SOL    HW216890   3.563   4.812   6.933
 5331SOL     OW16891   5.309   1.312   1.797
 5331SOL    HW116892   5.377   1.335   1.866
 5331SOL    HW216893   5.247   1.389   1.784
 5332SOL     OW16894   6.495   4.238   0.606
 5332SOL    HW116895   6.523   4.164   0.668
 5332SOL    HW216896   6.475   4.200   0.516
 5333SOL     OW16897   1.181   0.798   3.774
 5333SOL    HW116898   1.199   0.856   3.694
 5333SOL    HW216899   1.200   0.703   3.751
 5334SOL     OW16900   3.759   5.050   5.475
 5334SOL    HW116901   3.775   4.955   5.504
 5334SOL    HW216902   3.713   5.100   5.549
 5335SOL     OW16903   0.231   4.838   2.661
 5335SOL    HW116904   0.293   4.916   2.669
 5335SOL    HW216905   0.263   4.764   2.720
 5336SOL     OW16906   2.070   1.963   3.550
 5336SOL    HW116907   1.980   1.970   3.595
 5336SOL    HW216908   2.061   1.991   3.455
 5337SOL     OW16909   5.349   4.498   1.861
 5337SOL    HW116910   5.412   4.518   1.785
 5337SOL    HW216911   5.350   4.400   1.879
 5338SOL     OW16912   6.123   1.513   6.193
 5338SOL    HW116913   6.046   1.450   6.203
 5338SOL    HW216914   6.204   1.461   6.164
 5339SOL     OW16915   5.317   1.681   3.123
 5339SOL    HW116916   5.271   1.597   3.096
 5339SOL    HW216917   5.405   1.659   3.166
 5340SOL     OW16918   5.987   4.330   1.386
 5340SOL    HW116919   5.935   4.286   1.460
 5340SOL    HW216920   5.933   4.405   1.348
 5341SOL     OW16921   3.061   4.969   5.072
 5341SOL    HW116922   2.973   4.947   5.029
 5341SOL    HW216923   3.068   4.921   5.160
 5342SOL     OW16924   5.379   6.156   4.664
 5342SOL    HW116925   5.362   6.141   4.761
 5342SOL    HW216926   5.478   6.155   4.647
 5343SOL     OW16927   4.069   3.417   4.777
 5343SOL    HW116928   4.072   3.350   4.702
 5343SOL    HW216929   4.005   3.386   4.847
 5344SOL     OW16930   0.766   1.799   0.692
 5344SOL    HW116931   0.679   1.836   0.724
 5344SOL    HW216932   0.836   1.818   0.761
 5345SOL     OW16933   5.122   0.047   0.260
 5345SOL    HW116934   5.095   0.044   0.357
 5345SOL    HW216935   5.216   0.015   0.252
 5346SOL     OW16936   3.346   5.869   3.964
 5346SOL    HW116937   3.347   5.953   4.019
 5346SOL    HW216938   3.351   5.893   3.868
 5347SOL     OW16939   6.815   4.006   3.202
 5347SOL    HW116940   6.840   4.092   3.158
 5347SOL    HW216941   6.791   4.024   3.298
 5348SOL     OW16942   0.214   1.495   6.791
 5348SOL    HW116943   0.159   1.443   6.857
 5348SOL    HW216944   0.265   1.566   6.839
 5349SOL     OW16945   2.722   3.533   0.691
 5349SOL    HW116946   2.723   3.600   0.616
 5349SOL    HW216947   2.808   3.482   0.691
 5350SOL     OW16948   2.356   0.101   5.059
 5350SOL    HW116949   2.437   0.114   5.117
 5350SOL    HW216950   2.330   0.005   5.060
 5351SOL     OW16951   0.145   5.693   2.158
 5351SOL    HW116952   0.055   5.714   2.196
 5351SOL    HW216953   0.154   5.594   2.145
 5352SOL     OW16954   2.044   4.976   2.937
 5352SOL    HW116955   2.021   5.074   2.932
 5352SOL    HW216956   2.031   4.943   3.030
 5353SOL     OW16957   3.745   6.166   4.175
 5353SOL    HW116958   3.798   6.109   4.237
 5353SOL    HW216959   3.767   6.142   4.080
 5354SOL     OW16960   1.992   4.616   0.751
 5354SOL    HW116961   2.071   4.565   0.785
 5354SOL    HW216962   1.950   4.565   0.676
 5355SOL     OW16963   6.067   5.144   4.019
 5355SOL    HW116964   6.162   5.151   4.050
 5355SOL    HW216965   6.027   5.058   4.051
 5356SOL     OW16966   6.840   3.629   2.447
 5356SOL    HW116967   6.857   3.530   2.444
 5356SOL    HW216968   6.921   3.675   2.481
 5357SOL     OW16969   3.621   4.682   0.802
 5357SOL    HW116970   3.575   4.766   0.774
 5357SOL    HW216971   3.611   4.613   0.730
 5358SOL     OW16972   4.501   2.545   0.988
 5358SOL    HW116973   4.449   2.459   0.989
 5358SOL    HW216974   4.552   2.551   0.902
 5359SOL     OW16975   2.506   1.604   6.116
 5359SOL    HW116976   2.549   1.591   6.205
 5359SOL    HW216977   2.575   1.628   6.048
 5360SOL     OW16978   4.907   5.973   3.578
 5360SOL    HW116979   4.893   6.000   3.673
 5360SOL    HW216980   4.882   6.049   3.518
 5361SOL     OW16981   2.040   6.700   4.151
 5361SOL    HW116982   2.124   6.725   4.103
 5361SOL    HW216983   2.042   6.602   4.173
 5362SOL     OW16984   6.791   5.746   2.647
 5362SOL    HW116985   6.792   5.833   2.598
 5362SOL    HW216986   6.850   5.752   2.728
 5363SOL     OW16987   5.847   6.049   6.008
 5363SOL    HW116988   5.896   5.999   5.937
 5363SOL    HW216989   5.748   6.040   5.993
 5364SOL     OW16990   6.140   6.617   1.624
 5364SOL    HW116991   6.199   6.586   1.550
 5364SOL    HW216992   6.153   6.559   1.705
 5365SOL     OW16993   2.914   3.221   2.300
 5365SOL    HW116994   2.996   3.167   2.279
 5365SOL    HW216995   2.839   3.191   2.242
 5366SOL     OW16996   6.735   6.547   2.047
 5366SOL    HW116997   6.733   6.644   2.073
 5366SOL    HW216998   6.780   6.538   1.958
 5367SOL     OW16999   0.403   0.064   1.547
 5367SOL    HW117000   0.348   0.146   1.564
 5367SOL    HW217001   0.462   0.045   1.625
 5368SOL     OW17002   6.269   6.879   2.800
 5368SOL    HW117003   6.330   6.814   2.755
 5368SOL    HW217004   6.268   6.965   2.749
 5369SOL     OW17005   2.719   6.431   0.834
 5369SOL    HW117006   2.791   6.364   0.850
 5369SOL    HW217007   2.727   6.505   0.901
 5370SOL     OW17008   4.259   3.789   0.929
 5370SOL    HW117009   4.290   3.842   0.850
 5370SOL    HW217010   4.321   3.712   0.944
 5371SOL     OW17011   0.358   4.971   5.331
 5371SOL    HW117012   0.437   4.951   5.388
 5371SOL    HW217013   0.387   5.026   5.252
 5372SOL     OW17014   1.004   6.214   2.888
 5372SOL    HW117015   0.917   6.184   2.848
 5372SOL    HW217016   1.034   6.298   2.843
 5373SOL     OW17017   4.127   6.702   5.260
 5373SOL    HW117018   4.161   6.678   5.351
 5373SOL    HW217019   4.191   6.668   5.191
 5374SOL     OW17020   2.427   4.945   0.833
 5374SOL    HW117021   2.491   4.944   0.910
 5374SOL    HW217022   2.411   5.039   0.804
 5375SOL     OW17023   0.016   5.750   5.858
 5375SOL    HW117024   0.071   5.769   5.939
 5375SOL    HW217025   0.074   5.755   5.776
 5376SOL     OW17026   1.508   2.268   1.362
 5376SOL    HW117027   1.507   2.368   1.350
 5376SOL    HW217028   1.428   2.228   1.318
 5377SOL     OW17029   0.843   0.186   2.685
 5377SOL    HW117030   0.764   0.241   2.711
 5377SOL    HW217031   0.879   0.219   2.597
 5378SOL     OW17032   0.084   0.102   2.497
 5378SOL    HW117033   0.065   0.185   2.550
 5378SOL    HW217034   0.170   0.061   2.528
 5379SOL     OW17035   0.929   3.300   4.634
 5379SOL    HW117036   0.865   3.309   4.710
 5379SOL    HW217037   0.981   3.385   4.623
 5380SOL     OW17038   2.818   6.943   1.485
 5380SOL    HW117039   2.818   6.898   1.396
 5380SOL    HW217040   2.802   6.875   1.557
 5381SOL     OW17041   0.100   6.131   2.224
 5381SOL    HW117042   0.171   6.124   2.295
 5381SOL    HW217043   0.018   6.083   2.256
 5382SOL     OW17044   3.047   2.138   1.858
 5382SOL    HW117045   3.000   2.205   1.916
 5382SOL    HW217046   2.983   2.066   1.831
 5383SOL     OW17047   1.562   3.068   4.858
 5383SOL    HW117048   1.479   3.082   4.804
 5383SOL    HW217049   1.630   3.020   4.803
 5384SOL     OW17050   4.976   6.121   4.596
 5384SOL    HW117051   4.977   6.214   4.631
 5384SOL    HW217052   4.881   6.091   4.585
 5385SOL     OW17053   4.787   2.891   5.402
 5385SOL    HW117054   4.877   2.919   5.368
 5385SOL    HW217055   4.785   2.899   5.501
 5386SOL     OW17056   5.516   1.671   3.821
 5386SOL    HW117057   5.611   1.693   3.843
 5386SOL    HW217058   5.485   1.596   3.880
 5387SOL     OW17059   2.503   6.543   2.927
 5387SOL    HW117060   2.484   6.450   2.894
 5387SOL    HW217061   2.553   6.537   3.014
 5388SOL     OW17062   0.969   0.231   2.462
 5388SOL    HW117063   1.049   0.265   2.413
 5388SOL    HW217064   0.894   0.215   2.397
 5389SOL     OW17065   3.600   1.356   4.562
 5389SOL    HW117066   3.661   1.295   4.511
 5389SOL    HW217067   3.647   1.391   4.643
 5390SOL     OW17068   5.755   4.095   3.362
 5390SOL    HW117069   5.730   3.998   3.368
 5390SOL    HW217070   5.801   4.123   3.446
 5391SOL     OW17071   2.315   1.714   0.542
 5391SOL    HW117072   2.222   1.741   0.569
 5391SOL    HW217073   2.378   1.730   0.617
 5392SOL     OW17074   5.449   4.002   0.747
 5392SOL    HW117075   5.474   3.925   0.688
 5392SOL    HW217076   5.359   3.986   0.787
 5393SOL     OW17077   4.965   0.918   4.940
 5393SOL    HW117078   4.872   0.893   4.912
 5393SOL    HW217079   5.030   0.852   4.901
 5394SOL     OW17080   1.008   5.566   1.215
 5394SOL    HW117081   1.006   5.546   1.117
 5394SOL    HW217082   1.099   5.544   1.252
 5395SOL     OW17083   4.756   0.339   1.408
 5395SOL    HW117084   4.657   0.323   1.414
 5395SOL    HW217085   4.781   0.414   1.469
 5396SOL     OW17086   5.814   4.854   1.891
 5396SOL    HW117087   5.747   4.811   1.831
 5396SOL    HW217088   5.906   4.835   1.857
 5397SOL     OW17089   6.711   1.843   2.037
 5397SOL    HW117090   6.755   1.754   2.045
 5397SOL    HW217091   6.614   1.830   2.016
 5398SOL     OW17092   3.232   2.093   4.108
 5398SOL    HW117093   3.176   2.014   4.080
 5398SOL    HW217094   3.189   2.137   4.186
 5399SOL     OW17095   2.677   6.742   6.204
 5399SOL    HW117096   2.771   6.776   6.205
 5399SOL    HW217097   2.655   6.705   6.114
 5400SOL     OW17098   3.335   3.729   0.385
 5400SOL    HW117099   3.417   3.701   0.435
 5400SOL    HW217100   3.325   3.671   0.303
 5401SOL     OW17101   5.774   4.084   2.131
 5401SOL    HW117102   5.844   4.115   2.194
 5401SOL    HW217103   5.685   4.083   2.177
 5402SOL     OW17104   2.788   6.801   1.237
 5402SOL    HW117105   2.872   6.782   1.187
 5402SOL    HW217106   2.737   6.873   1.190
 5403SOL     OW17107   5.070   3.475   5.895
 5403SOL    HW117108   5.085   3.380   5.922
 5403SOL    HW217109   4.984   3.508   5.933
 5404SOL     OW17110   0.659   0.401   1.596
 5404SOL    HW117111   0.709   0.484   1.620
 5404SOL    HW217112   0.692   0.325   1.652
 5405SOL     OW17113   5.667   4.784   6.711
 5405SOL    HW117114   5.585   4.727   6.701
 5405SOL    HW217115   5.743   4.741   6.661
 5406SOL     OW17116   1.912   0.988   4.995
 5406SOL    HW117117   1.817   1.014   5.011
 5406SOL    HW217118   1.946   1.034   4.913
 5407SOL     OW17119   3.406   1.829   0.941
 5407SOL    HW117120   3.399   1.862   1.035
 5407SOL    HW217121   3.401   1.906   0.878
 5408SOL     OW17122   3.981   0.661   5.046
 5408SOL    HW117123   3.957   0.724   4.971
 5408SOL    HW217124   4.064   0.693   5.090
 5409SOL     OW17125   6.384   1.708   2.661
 5409SOL    HW117126   6.307   1.675   2.606
 5409SOL    HW217127   6.422   1.790   2.619
 5410SOL     OW17128   0.955   2.308   6.617
 5410SOL    HW117129   0.955   2.212   6.588
 5410SOL    HW217130   0.861   2.342   6.616
 5411SOL     OW17131   5.473   5.413   6.323
 5411SOL    HW117132   5.450   5.413   6.226
 5411SOL    HW217133   5.431   5.333   6.367
 5412SOL     OW17134   3.114   1.301   6.449
 5412SOL    HW117135   3.213   1.291   6.437
 5412SOL    HW217136   3.095   1.346   6.536
 5413SOL     OW17137   0.638   6.833   6.959
 5413SOL    HW117138   0.696   6.759   6.992
 5413SOL    HW217139   0.677   6.921   6.986
 5414SOL     OW17140   6.141   4.944   4.468
 5414SOL    HW117141   6.160   4.910   4.376
 5414SOL    HW217142   6.224   4.986   4.506
 5415SOL     OW17143   2.474   6.613   1.157
 5415SOL    HW117144   2.568   6.579   1.157
 5415SOL    HW217145   2.412   6.538   1.133
 5416SOL     OW17146   2.806   4.875   5.026
 5416SOL    HW117147   2.811   4.779   5.054
 5416SOL    HW217148   2.782   4.881   4.929
 5417SOL     OW17149   3.868   0.039   5.173
 5417SOL    HW117150   3.918   0.080   5.249
 5417SOL    HW217151   3.838   0.112   5.111
 5418SOL     OW17152   5.851   5.600   5.021
 5418SOL    HW117153   5.770   5.649   4.988
 5418SOL    HW217154   5.840   5.503   5.003
 5419SOL     OW17155   3.569   5.980   0.457
 5419SOL    HW117156   3.545   5.885   0.478
 5419SOL    HW217157   3.661   6.000   0.492
 5420SOL     OW17158   1.879   1.657   0.898
 5420SOL    HW117159   1.899   1.737   0.842
 5420SOL    HW217160   1.899   1.678   0.994
 5421SOL     OW17161   3.464   5.160   1.613
 5421SOL    HW117162   3.428   5.195   1.526
 5421SOL    HW217163   3.395   5.103   1.658
 5422SOL     OW17164   1.004   4.565   4.512
 5422SOL    HW117165   1.072   4.520   4.569
 5422SOL    HW217166   1.006   4.664   4.527
 5423SOL     OW17167   5.326   4.974   6.993
 5423SOL    HW117168   5.255   4.911   0.001
 5423SOL    HW217169   5.285   5.045   6.935
 5424SOL     OW17170   5.717   3.794   4.434
 5424SOL    HW117171   5.626   3.776   4.397
 5424SOL    HW217172   5.719   3.771   4.531
 5425SOL     OW17173   5.999   2.177   4.888
 5425SOL    HW117174   6.046   2.264   4.876
 5425SOL    HW217175   6.062   2.102   4.863
 5426SOL     OW17176   5.311   5.602   2.636
 5426SOL    HW117177   5.286   5.517   2.589
 5426SOL    HW217178   5.229   5.656   2.653
 5427SOL     OW17179   5.158   3.201   0.153
 5427SOL    HW117180   5.236   3.162   0.202
 5427SOL    HW217181   5.140   3.147   0.071
 5428SOL     OW17182   5.411   6.768   1.553
 5428SOL    HW117183   5.486   6.751   1.618
 5428SOL    HW217184   5.372   6.681   1.525
 5429SOL     OW17185   1.890   6.991   5.306
 5429SOL    HW117186   1.941   0.052   5.327
 5429SOL    HW217187   1.824   7.009   5.233
 5430SOL     OW17188   1.980   3.032   5.000
 5430SOL    HW117189   2.037   3.061   5.076
 5430SOL    HW217190   1.946   2.939   5.017
 5431SOL     OW17191   2.716   3.914   6.283
 5431SOL    HW117192   2.682   4.005   6.304
 5431SOL    HW217193   2.804   3.922   6.235
 5432SOL     OW17194   3.734   5.434   6.310
 5432SOL    HW117195   3.700   5.509   6.253
 5432SOL    HW217196   3.828   5.412   6.284
 5433SOL     OW17197   1.038   0.549   1.746
 5433SOL    HW117198   1.035   0.496   1.661
 5433SOL    HW217199   0.991   0.636   1.732
 5434SOL     OW17200   4.120   1.057   4.586
 5434SOL    HW117201   4.169   1.113   4.653
 5434SOL    HW217202   4.106   1.110   4.502
 5435SOL     OW17203   6.577   3.627   0.638
 5435SOL    HW117204   6.645   3.613   0.710
 5435SOL    HW217205   6.623   3.654   0.553
 5436SOL     OW17206   6.185   4.678   3.956
 5436SOL    HW117207   6.267   4.634   3.919
 5436SOL    HW217208   6.130   4.611   4.005
 5437SOL     OW17209   3.329   4.917   4.985
 5437SOL    HW117210   3.367   4.848   5.046
 5437SOL    HW217211   3.229   4.909   4.984
 5438SOL     OW17212   5.700   4.353   2.255
 5438SOL    HW117213   5.711   4.383   2.160
 5438SOL    HW217214   5.713   4.431   2.317
 5439SOL     OW17215   0.252   3.400   6.711
 5439SOL    HW117216   0.310   3.351   6.775
 5439SOL    HW217217   0.254   3.354   6.622
 5440SOL     OW17218   6.666   6.250   3.422
 5440SOL    HW117219   6.739   6.182   3.419
 5440SOL    HW217220   6.582   6.211   3.384
 5441SOL     OW17221   4.877   3.359   3.625
 5441SOL    HW117222   4.839   3.319   3.708
 5441SOL    HW217223   4.941   3.431   3.649
 5442SOL     OW17224   3.757   0.246   3.659
 5442SOL    HW117225   3.729   0.333   3.698
 5442SOL    HW217226   3.835   0.260   3.598
 5443SOL     OW17227   3.982   5.854   3.567
 5443SOL    HW117228   3.886   5.846   3.539
 5443SOL    HW217229   3.987   5.864   3.666
 5444SOL     OW17230   0.070   0.547   3.968
 5444SOL    HW117231   0.159   0.577   4.000
 5444SOL    HW217232   0.077   0.453   3.934
 5445SOL     OW17233   6.018   4.424   3.468
 5445SOL    HW117234   5.930   4.398   3.507
 5445SOL    HW217235   6.039   4.519   3.492
 5446SOL     OW17236   5.985   5.681   4.112
 5446SOL    HW117237   6.041   5.683   4.194
 5446SOL    HW217238   6.040   5.710   4.033
 5447SOL     OW17239   1.562   1.081   0.703
 5447SOL    HW117240   1.654   1.099   0.737
 5447SOL    HW217241   1.510   1.167   0.697
 5448SOL     OW17242   4.454   4.506   3.619
 5448SOL    HW117243   4.504   4.496   3.533
 5448SOL    HW217244   4.392   4.585   3.612
 5449SOL     OW17245   2.297   1.008   0.760
 5449SOL    HW117246   2.381   0.987   0.810
 5449SOL    HW217247   2.282   1.107   0.759
 5450SOL     OW17248   3.178   0.411   1.420
 5450SOL    HW117249   3.178   0.319   1.381
 5450SOL    HW217250   3.266   0.455   1.402
 5451SOL     OW17251   2.153   6.115   3.487
 5451SOL    HW117252   2.146   6.184   3.415
 5451SOL    HW217253   2.135   6.158   3.576
 5452SOL     OW17254   2.749   4.538   1.080
 5452SOL    HW117255   2.810   4.517   1.003
 5452SOL    HW217256   2.676   4.470   1.083
 5453SOL     OW17257   5.033   3.966   2.186
 5453SOL    HW117258   5.132   3.961   2.175
 5453SOL    HW217259   4.995   4.028   2.118
 5454SOL     OW17260   5.829   5.936   1.100
 5454SOL    HW117261   5.902   5.974   1.156
 5454SOL    HW217262   5.809   5.842   1.129
 5455SOL     OW17263   0.320   2.311   3.766
 5455SOL    HW117264   0.360   2.219   3.760
 5455SOL    HW217265   0.253   2.322   3.693
 5456SOL     OW17266   3.599   1.930   6.636
 5456SOL    HW117267   3.615   1.968   6.545
 5456SOL    HW217268   3.530   1.984   6.684
 5457SOL     OW17269   6.535   2.029   1.157
 5457SOL    HW117270   6.454   2.044   1.213
 5457SOL    HW217271   6.562   1.933   1.164
 5458SOL     OW17272   6.815   5.321   0.450
 5458SOL    HW117273   6.783   5.414   0.433
 5458SOL    HW217274   6.905   5.308   0.409
 5459SOL     OW17275   1.857   4.522   5.530
 5459SOL    HW117276   1.894   4.581   5.602
 5459SOL    HW217277   1.797   4.576   5.471
 5460SOL     OW17278   2.875   6.963   2.245
 5460SOL    HW117279   2.891   6.951   2.343
 5460SOL    HW217280   2.846   0.034   2.227
 5461SOL     OW17281   0.835   6.927   4.212
 5461SOL    HW117282   0.922   6.966   4.243
 5461SOL    HW217283   0.831   6.830   4.238
 5462SOL     OW17284   5.474   6.168   0.014
 5462SOL    HW117285   5.557   6.118   7.013
 5462SOL    HW217286   5.491   6.266   0.005
 5463SOL     OW17287   0.483   1.960   0.151
 5463SOL    HW117288   0.446   1.867   0.146
 5463SOL    HW217289   0.411   2.022   0.184
 5464SOL     OW17290   5.696   6.034   4.638
 5464SOL    HW117291   5.704   6.109   4.703
 5464SOL    HW217292   5.698   6.070   4.545
 5465SOL     OW17293   6.501   0.977   3.360
 5465SOL    HW117294   6.546   1.000   3.274
 5465SOL    HW217295   6.420   1.034   3.372
 5466SOL     OW17296   4.824   2.688   5.867
 5466SOL    HW117297   4.755   2.626   5.829
 5466SOL    HW217298   4.896   2.703   5.801
 5467SOL     OW17299   6.347   3.641   3.491
 5467SOL    HW117300   6.339   3.550   3.449
 5467SOL    HW217301   6.256   3.683   3.497
 5468SOL     OW17302   6.713   1.515   5.010
 5468SOL    HW117303   6.710   1.511   5.110
 5468SOL    HW217304   6.804   1.488   4.979
 5469SOL     OW17305   3.314   5.685   5.203
 5469SOL    HW117306   3.380   5.720   5.137
 5469SOL    HW217307   3.223   5.686   5.164
 5470SOL     OW17308   3.974   5.428   4.395
 5470SOL    HW117309   4.070   5.453   4.389
 5470SOL    HW217310   3.965   5.345   4.451
 5471SOL     OW17311   6.282   0.416   2.571
 5471SOL    HW117312   6.246   0.463   2.490
 5471SOL    HW217313   6.382   0.410   2.565
 5472SOL     OW17314   3.283   3.428   6.584
 5472SOL    HW117315   3.188   3.454   6.599
 5472SOL    HW217316   3.297   3.404   6.488
 5473SOL     OW17317   1.971   3.324   0.813
 5473SOL    HW117318   1.990   3.245   0.870
 5473SOL    HW217319   2.029   3.322   0.732
 5474SOL     OW17320   0.990   4.673   4.963
 5474SOL    HW117321   0.927   4.739   4.922
 5474SOL    HW217322   1.062   4.723   5.012
 5475SOL     OW17323   1.486   2.065   0.583
 5475SOL    HW117324   1.415   2.094   0.647
 5475SOL    HW217325   1.492   1.965   0.584
 5476SOL     OW17326   2.063   4.536   5.116
 5476SOL    HW117327   2.120   4.459   5.087
 5476SOL    HW217328   2.056   4.602   5.042
 5477SOL     OW17329   2.006   4.045   3.364
 5477SOL    HW117330   2.101   4.038   3.395
 5477SOL    HW217331   2.004   4.082   3.271
 5478SOL     OW17332   4.651   0.130   5.437
 5478SOL    HW117333   4.611   0.038   5.441
 5478SOL    HW217334   4.661   0.158   5.342
 5479SOL     OW17335   4.863   2.178   4.915
 5479SOL    HW117336   4.844   2.139   4.825
 5479SOL    HW217337   4.789   2.241   4.940
 5480SOL     OW17338   5.212   5.517   4.359
 5480SOL    HW117339   5.180   5.609   4.338
 5480SOL    HW217340   5.309   5.520   4.386
 5481SOL     OW17341   4.629   1.744   4.546
 5481SOL    HW117342   4.598   1.655   4.579
 5481SOL    HW217343   4.619   1.749   4.447
 5482SOL     OW17344   3.798   3.777   2.046
 5482SOL    HW117345   3.789   3.854   1.982
 5482SOL    HW217346   3.889   3.780   2.089
 5483SOL     OW17347   0.627   1.882   4.868
 5483SOL    HW117348   0.679   1.966   4.885
 5483SOL    HW217349   0.655   1.811   4.933
 5484SOL     OW17350   5.122   0.462   3.917
 5484SOL    HW117351   5.037   0.507   3.888
 5484SOL    HW217352   5.193   0.530   3.931
 5485SOL     OW17353   3.134   0.146   5.194
 5485SOL    HW117354   3.152   0.115   5.101
 5485SOL    HW217355   3.043   0.188   5.199
 5486SOL     OW17356   1.900   5.757   5.142
 5486SOL    HW117357   1.898   5.658   5.151
 5486SOL    HW217358   1.972   5.784   5.078
 5487SOL     OW17359   4.927   3.327   6.518
 5487SOL    HW117360   4.942   3.271   6.600
 5487SOL    HW217361   4.829   3.343   6.506
 5488SOL     OW17362   5.349   1.163   1.195
 5488SOL    HW117363   5.259   1.203   1.212
 5488SOL    HW217364   5.366   1.088   1.259
 5489SOL     OW17365   1.259   4.853   0.861
 5489SOL    HW117366   1.333   4.800   0.818
 5489SOL    HW217367   1.211   4.797   0.928
 5490SOL     OW17368   3.520   6.943   0.519
 5490SOL    HW117369   3.542   6.893   0.435
 5490SOL    HW217370   3.566   6.899   0.597
 5491SOL     OW17371   2.093   4.350   0.905
 5491SOL    HW117372   2.180   4.307   0.930
 5491SOL    HW217373   2.019   4.311   0.959
 5492SOL     OW17374   0.580   2.249   6.434
 5492SOL    HW117375   0.582   2.194   6.518
 5492SOL    HW217376   0.623   2.338   6.452
 5493SOL     OW17377   3.755   4.100   4.285
 5493SOL    HW117378   3.700   4.017   4.283
 5493SOL    HW217379   3.701   4.177   4.251
 5494SOL     OW17380   6.932   2.775   6.354
 5494SOL    HW117381   6.937   2.758   6.255
 5494SOL    HW217382   0.000   2.760   6.395
 5495SOL     OW17383   4.209   2.450   1.438
 5495SOL    HW117384   4.306   2.429   1.426
 5495SOL    HW217385   4.162   2.371   1.477
 5496SOL     OW17386   2.486   7.014   2.998
 5496SOL    HW117387   2.494   7.001   2.899
 5496SOL    HW217388   2.552   6.954   3.044
 5497SOL     OW17389   0.422   1.640   4.100
 5497SOL    HW117390   0.482   1.603   4.029
 5497SOL    HW217391   0.334   1.591   4.096
 5498SOL     OW17392   5.488   6.636   1.117
 5498SOL    HW117393   5.391   6.649   1.137
 5498SOL    HW217394   5.525   6.565   1.176
 5499SOL     OW17395   6.801   0.616   4.323
 5499SOL    HW117396   6.825   0.519   4.316
 5499SOL    HW217397   6.873   0.672   4.283
 5500SOL     OW17398   1.639   0.036   0.567
 5500SOL    HW117399   1.683   6.973   0.541
 5500SOL    HW217400   1.541   0.029   0.553
 5501SOL     OW17401   4.110   6.428   0.298
 5501SOL    HW117402   4.057   6.467   0.222
 5501SOL    HW217403   4.087   6.331   0.308
 5502SOL     OW17404   5.888   3.432   0.308
 5502SOL    HW117405   5.833   3.497   0.361
 5502SOL    HW217406   5.836   3.403   0.227
 5503SOL     OW17407   0.097   5.181   2.924
 5503SOL    HW117408   0.085   5.106   2.990
 5503SOL    HW217409   0.030   5.252   2.942
 5504SOL     OW17410   3.923   0.897   4.916
 5504SOL    HW117411   3.888   0.920   4.825
 5504SOL    HW217412   4.016   0.930   4.926
 5505SOL     OW17413   1.666   5.576   4.598
 5505SOL    HW117414   1.699   5.489   4.561
 5505SOL    HW217415   1.713   5.596   4.684
 5506SOL     OW17416   1.866   1.695   5.939
 5506SOL    HW117417   1.936   1.650   5.995
 5506SOL    HW217418   1.780   1.645   5.948
 5507SOL     OW17419   2.825   0.152   3.744
 5507SOL    HW117420   2.801   0.075   3.685
 5507SOL    HW217421   2.747   0.175   3.802
 5508SOL     OW17422   1.636   0.871   6.236
 5508SOL    HW117423   1.726   0.914   6.234
 5508SOL    HW217424   1.613   0.847   6.331
 5509SOL     OW17425   0.843   6.367   0.792
 5509SOL    HW117426   0.756   6.322   0.813
 5509SOL    HW217427   0.832   6.466   0.803
 5510SOL     OW17428   4.628   5.825   1.302
 5510SOL    HW117429   4.676   5.739   1.290
 5510SOL    HW217430   4.674   5.897   1.250
 5511SOL     OW17431   2.265   1.287   4.250
 5511SOL    HW117432   2.288   1.306   4.345
 5511SOL    HW217433   2.246   1.189   4.240
 5512SOL     OW17434   5.717   1.860   1.906
 5512SOL    HW117435   5.712   1.834   1.810
 5512SOL    HW217436   5.652   1.806   1.960
 5513SOL     OW17437   4.336   5.244   6.886
 5513SOL    HW117438   4.417   5.302   6.893
 5513SOL    HW217439   4.335   5.199   6.797
 5514SOL     OW17440   3.983   6.661   3.314
 5514SOL    HW117441   3.947   6.730   3.378
 5514SOL    HW217442   4.019   6.584   3.365
 5515SOL     OW17443   0.492   4.837   1.083
 5515SOL    HW117444   0.477   4.831   0.984
 5515SOL    HW217445   0.448   4.919   1.119
 5516SOL     OW17446   1.469   3.927   6.741
 5516SOL    HW117447   1.410   3.849   6.717
 5516SOL    HW217448   1.565   3.902   6.728
 5517SOL     OW17449   2.069   3.286   1.956
 5517SOL    HW117450   2.121   3.368   1.932
 5517SOL    HW217451   2.045   3.290   2.053
 5518SOL     OW17452   6.593   6.698   6.688
 5518SOL    HW117453   6.599   6.795   6.711
 5518SOL    HW217454   6.547   6.649   6.762
 5519SOL     OW17455   5.356   3.379   3.127
 5519SOL    HW117456   5.439   3.325   3.141
 5519SOL    HW217457   5.276   3.324   3.147
 5520SOL     OW17458   6.320   6.040   1.724
 5520SOL    HW117459   6.226   6.007   1.714
 5520SOL    HW217460   6.331   6.125   1.673
 5521SOL     OW17461   5.009   6.948   1.704
 5521SOL    HW117462   5.006   0.024   1.723
 5521SOL    HW217463   4.961   6.898   1.777
 5522SOL     OW17464   6.892   5.223   0.685
 5522SOL    HW117465   6.854   5.267   0.604
 5522SOL    HW217466   6.938   5.291   0.742
 5523SOL     OW17467   3.652   0.306   1.968
 5523SOL    HW117468   3.600   0.378   1.923
 5523SOL    HW217469   3.750   0.322   1.954
 5524SOL     OW17470   5.030   5.201   4.980
 5524SOL    HW117471   4.994   5.294   4.980
 5524SOL    HW217472   4.957   5.137   4.956
 5525SOL     OW17473   0.101   2.463   0.566
 5525SOL    HW117474   0.007   2.495   0.564
 5525SOL    HW217475   0.117   2.406   0.647
 5526SOL     OW17476   4.901   4.702   4.340
 5526SOL    HW117477   4.913   4.800   4.360
 5526SOL    HW217478   4.900   4.688   4.241
 5527SOL     OW17479   5.636   3.775   3.713
 5527SOL    HW117480   5.612   3.792   3.808
 5527SOL    HW217481   5.597   3.687   3.684
 5528SOL     OW17482   1.127   1.519   6.956
 5528SOL    HW117483   1.144   1.530   6.858
 5528SOL    HW217484   1.116   1.609   6.998
 5529SOL     OW17485   2.063   0.234   2.961
 5529SOL    HW117486   2.058   0.162   2.891
 5529SOL    HW217487   2.157   0.242   2.993
 5530SOL     OW17488   6.274   2.278   2.340
 5530SOL    HW117489   6.259   2.291   2.242
 5530SOL    HW217490   6.249   2.185   2.366
 5531SOL     OW17491   3.820   2.935   2.302
 5531SOL    HW117492   3.908   2.978   2.281
 5531SOL    HW217493   3.803   2.941   2.401
 5532SOL     OW17494   1.091   2.402   0.624
 5532SOL    HW117495   1.163   2.417   0.556
 5532SOL    HW217496   1.023   2.474   0.617
 5533SOL     OW17497   3.282   1.029   3.475
 5533SOL    HW117498   3.325   0.962   3.414
 5533SOL    HW217499   3.296   1.121   3.437
 5534SOL     OW17500   1.106   2.136   5.966
 5534SOL    HW117501   1.073   2.197   5.893
 5534SOL    HW217502   1.204   2.149   5.978
 5535SOL     OW17503   0.023   2.953   3.704
 5535SOL    HW117504   0.095   2.884   3.712
 5535SOL    HW217505   6.976   2.937   3.774
 5536SOL     OW17506   2.995   1.356   4.292
 5536SOL    HW117507   3.076   1.329   4.343
 5536SOL    HW217508   3.010   1.342   4.194
 5537SOL     OW17509   2.211   0.958   2.773
 5537SOL    HW117510   2.220   0.904   2.857
 5537SOL    HW217511   2.223   0.899   2.694
 5538SOL     OW17512   2.674   6.896   5.590
 5538SOL    HW117513   2.661   6.799   5.610
 5538SOL    HW217514   2.733   6.906   5.510
 5539SOL     OW17515   1.057   3.757   0.968
 5539SOL    HW117516   1.086   3.662   0.979
 5539SOL    HW217517   1.041   3.798   1.058
 5540SOL     OW17518   5.792   3.453   3.792
 5540SOL    HW117519   5.868   3.483   3.850
 5540SOL    HW217520   5.827   3.433   3.700
 5541SOL     OW17521   6.060   0.455   6.447
 5541SOL    HW117522   6.159   0.443   6.458
 5541SOL    HW217523   6.028   0.396   6.373
 5542SOL     OW17524   6.124   4.522   6.212
 5542SOL    HW117525   6.189   4.449   6.190
 5542SOL    HW217526   6.032   4.485   6.213
 5543SOL     OW17527   3.754   5.355   5.784
 5543SOL    HW117528   3.846   5.323   5.805
 5543SOL    HW217529   3.757   5.450   5.753
 5544SOL     OW17530   5.662   6.405   6.000
 5544SOL    HW117531   5.730   6.333   6.012
 5544SOL    HW217532   5.708   6.491   5.980
 5545SOL     OW17533   4.059   1.856   2.060
 5545SOL    HW117534   4.096   1.821   1.974
 5545SOL    HW217535   3.959   1.852   2.057
 5546SOL     OW17536   0.810   6.008   4.725
 5546SOL    HW117537   0.766   5.981   4.639
 5546SOL    HW217538   0.873   5.936   4.754
 5547SOL     OW17539   3.228   6.862   4.385
 5547SOL    HW117540   3.184   6.949   4.405
 5547SOL    HW217541   3.328   6.874   4.388
 5548SOL     OW17542   5.643   3.551   5.901
 5548SOL    HW117543   5.606   3.582   5.813
 5548SOL    HW217544   5.588   3.589   5.976
 5549SOL     OW17545   4.548   4.007   7.019
 5549SOL    HW117546   4.475   4.064   6.982
 5549SOL    HW217547   4.508   3.932   0.049
 5550SOL     OW17548   2.459   4.482   2.082
 5550SOL    HW117549   2.487   4.397   2.036
 5550SOL    HW217550   2.500   4.485   2.174
 5551SOL     OW17551   1.696   0.272   3.267
 5551SOL    HW117552   1.788   0.241   3.242
 5551SOL    HW217553   1.671   0.231   3.355
 5552SOL     OW17554   0.024   0.112   0.106
 5552SOL    HW117555   0.088   0.183   0.135
 5552SOL    HW217556   6.954   0.150   0.100
 5553SOL     OW17557   5.474   6.343   6.714
 5553SOL    HW117558   5.489   6.247   6.735
 5553SOL    HW217559   5.401   6.353   6.647
 5554SOL     OW17560   4.557   1.392   5.257
 5554SOL    HW117561   4.554   1.314   5.318
 5554SOL    HW217562   4.513   1.369   5.171
 5555SOL     OW17563   2.022   4.576   3.988
 5555SOL    HW117564   2.079   4.505   3.945
 5555SOL    HW217565   2.044   4.582   4.085
 5556SOL     OW17566   6.664   1.383   3.645
 5556SOL    HW117567   6.598   1.455   3.621
 5556SOL    HW217568   6.755   1.423   3.655
 5557SOL     OW17569   3.653   7.012   2.583
 5557SOL    HW117570   3.557   0.015   2.597
 5557SOL    HW217571   3.660   6.949   2.506
 5558SOL     OW17572   4.825   3.523   5.968
 5558SOL    HW117573   4.740   3.491   5.925
 5558SOL    HW217574   4.805   3.551   6.062
 5559SOL     OW17575   2.183   0.617   2.334
 5559SOL    HW117576   2.186   0.687   2.262
 5559SOL    HW217577   2.205   0.528   2.296
 5560SOL     OW17578   1.120   0.218   2.943
 5560SOL    HW117579   1.084   0.145   2.885
 5560SOL    HW217580   1.192   0.182   3.001
 5561SOL     OW17581   1.427   2.217   4.076
 5561SOL    HW117582   1.471   2.273   4.005
 5561SOL    HW217583   1.459   2.247   4.166
 5562SOL     OW17584   3.440   2.088   6.842
 5562SOL    HW117585   3.379   2.166   6.853
 5562SOL    HW217586   3.532   2.113   6.872
 5563SOL     OW17587   4.294   5.420   2.230
 5563SOL    HW117588   4.196   5.436   2.213
 5563SOL    HW217589   4.311   5.423   2.328
 5564SOL     OW17590   4.642   1.198   1.950
 5564SOL    HW117591   4.625   1.185   1.852
 5564SOL    HW217592   4.591   1.278   1.982
 5565SOL     OW17593   4.858   1.840   5.882
 5565SOL    HW117594   4.872   1.743   5.903
 5565SOL    HW217595   4.880   1.857   5.786
 5566SOL     OW17596   1.960   5.448   6.892
 5566SOL    HW117597   1.911   5.363   6.911
 5566SOL    HW217598   1.919   5.493   6.812
 5567SOL     OW17599   0.300   3.374   1.591
 5567SOL    HW117600   0.331   3.443   1.656
 5567SOL    HW217601   0.321   3.403   1.498
 5568SOL     OW17602   4.220   2.298   3.259
 5568SOL    HW117603   4.184   2.292   3.166
 5568SOL    HW217604   4.307   2.347   3.257
 5569SOL     OW17605   1.751   1.491   2.788
 5569SOL    HW117606   1.776   1.560   2.856
 5569SOL    HW217607   1.654   1.501   2.765
 5570SOL     OW17608   5.507   4.416   4.925
 5570SOL    HW117609   5.561   4.395   4.843
 5570SOL    HW217610   5.527   4.349   4.996
 5571SOL     OW17611   0.099   5.442   0.528
 5571SOL    HW117612   0.099   5.383   0.448
 5571SOL    HW217613   0.187   5.436   0.575
 5572SOL     OW17614   0.736   2.383   4.932
 5572SOL    HW117615   0.638   2.362   4.933
 5572SOL    HW217616   0.775   2.363   5.022
 5573SOL     OW17617   1.678   3.672   6.641
 5573SOL    HW117618   1.599   3.617   6.668
 5573SOL    HW217619   1.758   3.612   6.632
 5574SOL     OW17620   6.486   1.862   3.340
 5574SOL    HW117621   6.570   1.831   3.294
 5574SOL    HW217622   6.502   1.952   3.380
 5575SOL     OW17623   6.804   1.404   0.884
 5575SOL    HW117624   6.715   1.373   0.917
 5575SOL    HW217625   6.829   1.352   0.803
 5576SOL     OW17626   0.997   5.827   2.801
 5576SOL    HW117627   0.908   5.873   2.799
 5576SOL    HW217628   1.005   5.774   2.885
 5577SOL     OW17629   2.773   2.533   5.319
 5577SOL    HW117630   2.714   2.469   5.368
 5577SOL    HW217631   2.738   2.626   5.330
 5578SOL     OW17632   4.149   4.169   0.096
 5578SOL    HW117633   4.180   4.245   0.152
 5578SOL    HW217634   4.098   4.104   0.153
 5579SOL     OW17635   0.185   3.703   6.109
 5579SOL    HW117636   0.208   3.607   6.126
 5579SOL    HW217637   0.162   3.748   6.196
 5580SOL     OW17638   5.159   2.930   5.983
 5580SOL    HW117639   5.144   2.834   6.005
 5580SOL    HW217640   5.108   2.954   5.900
 5581SOL     OW17641   2.728   0.090   1.757
 5581SOL    HW117642   2.708   7.015   1.748
 5581SOL    HW217643   2.716   0.135   1.668
 5582SOL     OW17644   3.599   3.196   4.292
 5582SOL    HW117645   3.642   3.179   4.381
 5582SOL    HW217646   3.500   3.194   4.302
 5583SOL     OW17647   4.060   0.673   2.948
 5583SOL    HW117648   4.097   0.712   3.032
 5583SOL    HW217649   3.998   0.739   2.906
 5584SOL     OW17650   5.721   4.066   3.832
 5584SOL    HW117651   5.629   4.027   3.826
 5584SOL    HW217652   5.716   4.159   3.870
 5585SOL     OW17653   4.829   6.441   4.052
 5585SOL    HW117654   4.873   6.469   4.137
 5585SOL    HW217655   4.865   6.352   4.023
 5586SOL     OW17656   0.207   2.290   6.753
 5586SOL    HW117657   0.179   2.375   6.797
 5586SOL    HW217658   0.204   2.215   6.819
 5587SOL     OW17659   3.762   6.185   2.605
 5587SOL    HW117660   3.783   6.105   2.549
 5587SOL    HW217661   3.798   6.267   2.560
 5588SOL     OW17662   1.618   0.020   2.593
 5588SOL    HW117663   1.688   0.010   2.664
 5588SOL    HW217664   1.614   6.958   2.539
 5589SOL     OW17665   5.876   3.175   6.128
 5589SOL    HW117666   5.892   3.198   6.033
 5589SOL    HW217667   5.893   3.254   6.186
 5590SOL     OW17668   6.732   5.526   3.176
 5590SOL    HW117669   6.696   5.586   3.105
 5590SOL    HW217670   6.698   5.556   3.265
 5591SOL     OW17671   5.819   1.142   6.957
 5591SOL    HW117672   5.767   1.160   0.017
 5591SOL    HW217673   5.821   1.043   6.939
 5592SOL     OW17674   0.417   4.432   2.808
 5592SOL    HW117675   0.334   4.378   2.793
 5592SOL    HW217676   0.440   4.480   2.724
 5593SOL     OW17677   0.001   2.397   6.015
 5593SOL    HW117678   7.006   2.466   5.945
 5593SOL    HW217679   6.937   2.365   6.053
 5594SOL     OW17680   3.036   1.023   6.779
 5594SOL    HW117681   2.964   1.087   6.752
 5594SOL    HW217682   3.081   0.986   6.697
 5595SOL     OW17683   5.848   0.201   5.344
 5595SOL    HW117684   5.903   0.138   5.399
 5595SOL    HW217685   5.751   0.177   5.353
 5596SOL     OW17686   5.007   0.372   3.208
 5596SOL    HW117687   4.985   0.414   3.120
 5596SOL    HW217688   4.932   0.389   3.272
 5597SOL     OW17689   6.746   1.685   5.440
 5597SOL    HW117690   6.706   1.772   5.410
 5597SOL    HW217691   6.710   1.661   5.530
 5598SOL     OW17692   6.358   2.734   4.387
 5598SOL    HW117693   6.378   2.720   4.484
 5598SOL    HW217694   6.273   2.687   4.363
 5599SOL     OW17695   0.397   2.148   1.796
 5599SOL    HW117696   0.303   2.118   1.784
 5599SOL    HW217697   0.402   2.247   1.793
 5600SOL     OW17698   2.574   0.288   2.382
 5600SOL    HW117699   2.611   0.211   2.435
 5600SOL    HW217700   2.538   0.254   2.295
 5601SOL     OW17701   3.408   1.310   6.336
 5601SOL    HW117702   3.398   1.261   6.249
 5601SOL    HW217703   3.505   1.328   6.353
 5602SOL     OW17704   0.542   0.344   2.018
 5602SOL    HW117705   0.505   0.268   2.070
 5602SOL    HW217706   0.521   0.430   2.064
 5603SOL     OW17707   5.446   1.916   6.811
 5603SOL    HW117708   5.508   1.902   6.889
 5603SOL    HW217709   5.489   1.882   6.728
 5604SOL     OW17710   6.864   2.251   5.228
 5604SOL    HW117711   6.854   2.338   5.277
 5604SOL    HW217712   6.791   2.189   5.256
 5605SOL     OW17713   1.690   0.141   4.566
 5605SOL    HW117714   1.643   0.182   4.487
 5605SOL    HW217715   1.776   0.100   4.535
 5606SOL     OW17716   5.703   1.091   0.975
 5606SOL    HW117717   5.704   1.045   1.064
 5606SOL    HW217718   5.756   1.176   0.981
 5607SOL     OW17719   5.659   1.386   3.865
 5607SOL    HW117720   5.648   1.327   3.784
 5607SOL    HW217721   5.739   1.443   3.854
 5608SOL     OW17722   6.356   1.793   2.947
 5608SOL    HW117723   6.360   1.725   3.020
 5608SOL    HW217724   6.365   1.748   2.858
 5609SOL     OW17725   4.428   6.140   1.495
 5609SOL    HW117726   4.337   6.102   1.479
 5609SOL    HW217727   4.432   6.233   1.459
 5610SOL     OW17728   5.122   4.331   1.286
 5610SOL    HW117729   5.147   4.427   1.301
 5610SOL    HW217730   5.176   4.294   1.211
 5611SOL     OW17731   0.814   5.039   2.881
 5611SOL    HW117732   0.870   4.964   2.845
 5611SOL    HW217733   0.768   5.084   2.805
 5612SOL     OW17734   4.169   3.236   0.578
 5612SOL    HW117735   4.131   3.185   0.655
 5612SOL    HW217736   4.139   3.192   0.492
 5613SOL     OW17737   5.521   5.315   4.889
 5613SOL    HW117738   5.566   5.231   4.921
 5613SOL    HW217739   5.467   5.354   4.963
 5614SOL     OW17740   5.282   3.621   5.106
 5614SOL    HW117741   5.206   3.559   5.087
 5614SOL    HW217742   5.332   3.588   5.186
 5615SOL     OW17743   6.329   1.339   3.963
 5615SOL    HW117744   6.372   1.417   4.008
 5615SOL    HW217745   6.398   1.270   3.942
 5616SOL     OW17746   2.081   2.742   4.631
 5616SOL    HW117747   2.110   2.771   4.540
 5616SOL    HW217748   2.046   2.821   4.682
 5617SOL     OW17749   1.402   4.365   4.855
 5617SOL    HW117750   1.446   4.306   4.786
 5617SOL    HW217751   1.442   4.456   4.851
 5618SOL     OW17752   6.428   4.901   3.241
 5618SOL    HW117753   6.510   4.845   3.226
 5618SOL    HW217754   6.456   4.994   3.264
 5619SOL     OW17755   3.083   3.873   3.915
 5619SOL    HW117756   3.124   3.864   3.824
 5619SOL    HW217757   3.143   3.929   3.973
 5620SOL     OW17758   4.722   4.112   6.804
 5620SOL    HW117759   4.691   4.058   6.882
 5620SOL    HW217760   4.669   4.086   6.723
 5621SOL     OW17761   1.661   2.832   0.131
 5621SOL    HW117762   1.614   2.920   0.134
 5621SOL    HW217763   1.732   2.834   0.060
 5622SOL     OW17764   5.031   0.434   5.599
 5622SOL    HW117765   4.954   0.396   5.548
 5622SOL    HW217766   5.092   0.360   5.627
 5623SOL     OW17767   4.506   6.717   4.933
 5623SOL    HW117768   4.516   6.621   4.959
 5623SOL    HW217769   4.585   6.744   4.877
 5624SOL     OW17770   0.495   4.593   3.989
 5624SOL    HW117771   0.478   4.548   3.901
 5624SOL    HW217772   0.471   4.531   4.063
 5625SOL     OW17773   6.805   6.414   5.636
 5625SOL    HW117774   6.873   6.470   5.588
 5625SOL    HW217775   6.742   6.375   5.569
 5626SOL     OW17776   2.723   4.937   3.913
 5626SOL    HW117777   2.719   5.036   3.922
 5626SOL    HW217778   2.746   4.896   4.001
 5627SOL     OW17779   0.132   4.757   6.545
 5627SOL    HW117780   0.154   4.749   6.642
 5627SOL    HW217781   0.049   4.706   6.526
 5628SOL     OW17782   1.842   2.525   1.386
 5628SOL    HW117783   1.813   2.540   1.291
 5628SOL    HW217784   1.816   2.432   1.413
 5629SOL     OW17785   4.891   3.284   1.912
 5629SOL    HW117786   4.948   3.251   1.837
 5629SOL    HW217787   4.837   3.208   1.948
 5630SOL     OW17788   1.845   4.479   6.707
 5630SOL    HW117789   1.936   4.441   6.695
 5630SOL    HW217790   1.783   4.440   6.638
 5631SOL     OW17791   4.787   1.781   1.482
 5631SOL    HW117792   4.737   1.716   1.425
 5631SOL    HW217793   4.764   1.875   1.454
 5632SOL     OW17794   3.339   2.136   5.213
 5632SOL    HW117795   3.382   2.176   5.132
 5632SOL    HW217796   3.259   2.190   5.238
 5633SOL     OW17797   6.011   4.620   4.418
 5633SOL    HW117798   5.970   4.701   4.377
 5633SOL    HW217799   6.063   4.647   4.499
 5634SOL     OW17800   2.033   4.675   4.857
 5634SOL    HW117801   2.040   4.613   4.778
 5634SOL    HW217802   1.989   4.760   4.828
 5635SOL     OW17803   1.522   6.291   6.832
 5635SOL    HW117804   1.565   6.251   6.751
 5635SOL    HW217805   1.486   6.382   6.809
 5636SOL     OW17806   6.578   6.964   5.252
 5636SOL    HW117807   6.632   0.025   5.258
 5636SOL    HW217808   6.595   6.920   5.164
 5637SOL     OW17809   3.868   6.826   3.496
 5637SOL    HW117810   3.825   6.912   3.468
 5637SOL    HW217811   3.930   6.843   3.572
 5638SOL     OW17812   6.283   4.075   0.989
 5638SOL    HW117813   6.196   4.089   1.038
 5638SOL    HW217814   6.337   4.159   0.994
 5639SOL     OW17815   2.325   0.498   1.909
 5639SOL    HW117816   2.388   0.431   1.870
 5639SOL    HW217817   2.342   0.507   2.007
 5640SOL     OW17818   2.818   0.724   2.434
 5640SOL    HW117819   2.883   0.787   2.394
 5640SOL    HW217820   2.802   0.749   2.530
 5641SOL     OW17821   0.974   4.682   5.897
 5641SOL    HW117822   1.022   4.717   5.977
 5641SOL    HW217823   0.964   4.754   5.829
 5642SOL     OW17824   0.424   5.738   4.899
 5642SOL    HW117825   0.330   5.714   4.922
 5642SOL    HW217826   0.468   5.781   4.978
 5643SOL     OW17827   2.933   0.789   4.377
 5643SOL    HW117828   2.983   0.811   4.293
 5643SOL    HW217829   2.887   0.871   4.410
 5644SOL     OW17830   3.634   0.207   4.492
 5644SOL    HW117831   3.579   0.290   4.504
 5644SOL    HW217832   3.619   0.170   4.401
 5645SOL     OW17833   5.776   5.085   2.719
 5645SOL    HW117834   5.817   5.075   2.628
 5645SOL    HW217835   5.773   4.995   2.764
 5646SOL     OW17836   1.017   5.483   3.313
 5646SOL    HW117837   0.918   5.469   3.300
 5646SOL    HW217838   1.057   5.515   3.227
 5647SOL     OW17839   5.909   0.313   1.121
 5647SOL    HW117840   5.965   0.313   1.039
 5647SOL    HW217841   5.825   0.365   1.105
 5648SOL     OW17842   1.683   0.892   3.214
 5648SOL    HW117843   1.721   0.968   3.267
 5648SOL    HW217844   1.757   0.833   3.182
 5649SOL     OW17845   6.863   7.011   5.042
 5649SOL    HW117846   6.913   7.013   4.956
 5649SOL    HW217847   6.786   6.949   5.035
 5650SOL     OW17848   1.363   5.061   1.014
 5650SOL    HW117849   1.431   5.027   1.078
 5650SOL    HW217850   1.319   4.984   0.968
 5651SOL     OW17851   0.482   1.119   1.393
 5651SOL    HW117852   0.558   1.106   1.330
 5651SOL    HW217853   0.515   1.163   1.476
 5652SOL     OW17854   6.660   0.070   2.017
 5652SOL    HW117855   6.584   0.025   1.971
 5652SOL    HW217856   6.736   0.006   2.027
 5653SOL     OW17857   0.770   6.185   6.630
 5653SOL    HW117858   0.835   6.163   6.558
 5653SOL    HW217859   0.784   6.124   6.708
 5654SOL     OW17860   6.646   7.022   5.901
 5654SOL    HW117861   6.680   0.063   5.971
 5654SOL    HW217862   6.718   6.957   5.878
 5655SOL     OW17863   1.940   3.690   4.940
 5655SOL    HW117864   2.001   3.701   4.862
 5655SOL    HW217865   1.955   3.764   5.005
 5656SOL     OW17866   0.355   3.328   0.121
 5656SOL    HW117867   0.295   3.251   0.145
 5656SOL    HW217868   0.349   3.398   0.192
 5657SOL     OW17869   5.559   1.407   6.941
 5657SOL    HW117870   5.593   1.329   6.889
 5657SOL    HW217871   5.540   1.483   6.879
 5658SOL     OW17872   3.993   4.747   5.946
 5658SOL    HW117873   4.047   4.735   6.029
 5658SOL    HW217874   4.016   4.835   5.904
 5659SOL     OW17875   3.494   3.432   4.009
 5659SOL    HW117876   3.460   3.494   3.938
 5659SOL    HW217877   3.420   3.371   4.038
 5660SOL     OW17878   5.836   0.645   6.870
 5660SOL    HW117879   5.818   0.730   6.920
 5660SOL    HW217880   5.763   0.579   6.888
 5661SOL     OW17881   1.303   5.115   5.082
 5661SOL    HW117882   1.293   5.155   4.991
 5661SOL    HW217883   1.293   5.187   5.151
 5662SOL     OW17884   2.906   5.313   2.732
 5662SOL    HW117885   2.853   5.397   2.742
 5662SOL    HW217886   2.881   5.250   2.806
 5663SOL     OW17887   2.368   3.268   0.179
 5663SOL    HW117888   2.369   3.179   0.224
 5663SOL    HW217889   2.343   3.256   0.083
 5664SOL     OW17890   6.665   4.332   4.516
 5664SOL    HW117891   6.576   4.372   4.496
 5664SOL    HW217892   6.718   4.323   4.432
 5665SOL     OW17893   1.804   1.610   0.308
 5665SOL    HW117894   1.836   1.569   0.394
 5665SOL    HW217895   1.853   1.568   0.231
 5666SOL     OW17896   5.866   5.989   1.867
 5666SOL    HW117897   5.821   5.921   1.925
 5666SOL    HW217898   5.844   6.081   1.899
 5667SOL     OW17899   1.206   4.946   4.245
 5667SOL    HW117900   1.138   4.997   4.296
 5667SOL    HW217901   1.290   5.001   4.237
 5668SOL     OW17902   5.295   1.923   5.177
 5668SOL    HW117903   5.320   1.971   5.093
 5668SOL    HW217904   5.322   1.978   5.256
 5669SOL     OW17905   0.401   3.263   6.872
 5669SOL    HW117906   0.381   3.287   6.967
 5669SOL    HW217907   0.499   3.243   6.862
 5670SOL     OW17908   6.658   2.628   3.720
 5670SOL    HW117909   6.738   2.614   3.778
 5670SOL    HW217910   6.674   2.705   3.658
 5671SOL     OW17911   0.271   6.218   7.015
 5671SOL    HW117912   0.290   6.256   6.924
 5671SOL    HW217913   0.347   6.241   0.055
 5672SOL     OW17914   4.261   5.027   6.134
 5672SOL    HW117915   4.344   5.013   6.081
 5672SOL    HW217916   4.263   4.969   6.216
 5673SOL     OW17917   0.604   6.806   2.021
 5673SOL    HW117918   0.619   6.708   2.012
 5673SOL    HW217919   0.566   6.826   2.111
 5674SOL     OW17920   0.009   5.009   5.097
 5674SOL    HW117921   0.042   4.928   5.049
 5674SOL    HW217922   0.031   5.002   5.194
 5675SOL     OW17923   4.065   2.095   5.601
 5675SOL    HW117924   3.967   2.087   5.620
 5675SOL    HW217925   4.115   2.024   5.651
 5676SOL     OW17926   1.654   2.663   2.248
 5676SOL    HW117927   1.652   2.563   2.250
 5676SOL    HW217928   1.732   2.695   2.303
 5677SOL     OW17929   6.838   1.049   1.356
 5677SOL    HW117930   6.905   1.122   1.343
 5677SOL    HW217931   6.803   1.051   1.449
 5678SOL     OW17932   4.160   6.642   2.907
 5678SOL    HW117933   4.210   6.555   2.907
 5678SOL    HW217934   4.127   6.661   3.000
 5679SOL     OW17935   1.048   1.361   4.092
 5679SOL    HW117936   1.003   1.272   4.096
 5679SOL    HW217937   1.124   1.357   4.026
 5680SOL     OW17938   1.421   5.138   6.509
 5680SOL    HW117939   1.371   5.224   6.515
 5680SOL    HW217940   1.519   5.156   6.508
 5681SOL     OW17941   0.243   4.650   0.301
 5681SOL    HW117942   0.275   4.609   0.387
 5681SOL    HW217943   0.185   4.728   0.321
 5682SOL     OW17944   2.351   4.018   5.657
 5682SOL    HW117945   2.313   4.055   5.572
 5682SOL    HW217946   2.443   3.982   5.639
 5683SOL     OW17947   3.985   0.680   6.534
 5683SOL    HW117948   3.924   0.626   6.476
 5683SOL    HW217949   4.055   0.723   6.477
 5684SOL     OW17950   2.867   3.490   5.545
 5684SOL    HW117951   2.846   3.587   5.542
 5684SOL    HW217952   2.907   3.461   5.458
 5685SOL     OW17953   1.533   3.120   2.338
 5685SOL    HW117954   1.522   3.134   2.239
 5685SOL    HW217955   1.512   3.025   2.360
 5686SOL     OW17956   3.276   0.951   5.788
 5686SOL    HW117957   3.269   1.042   5.830
 5686SOL    HW217958   3.212   0.945   5.711
 5687SOL     OW17959   0.272   4.879   6.349
 5687SOL    HW117960   0.286   4.805   6.283
 5687SOL    HW217961   0.214   4.846   6.423
 5688SOL     OW17962   0.404   2.388   0.834
 5688SOL    HW117963   0.442   2.462   0.778
 5688SOL    HW217964   0.449   2.387   0.923
 5689SOL     OW17965   4.050   1.438   1.075
 5689SOL    HW117966   4.014   1.448   0.983
 5689SOL    HW217967   4.004   1.502   1.137
 5690SOL     OW17968   2.477   5.978   0.465
 5690SOL    HW117969   2.563   5.963   0.512
 5690SOL    HW217970   2.451   6.075   0.471
 5691SOL     OW17971   3.158   0.300   2.007
 5691SOL    HW117972   3.068   0.258   1.998
 5691SOL    HW217973   3.229   0.234   1.981
 5692SOL     OW17974   5.842   3.100   0.450
 5692SOL    HW117975   5.932   3.058   0.455
 5692SOL    HW217976   5.834   3.150   0.363
 5693SOL     OW17977   5.773   2.099   2.465
 5693SOL    HW117978   5.829   2.180   2.449
 5693SOL    HW217979   5.755   2.053   2.378
 5694SOL     OW17980   0.400   1.856   3.483
 5694SOL    HW117981   0.441   1.784   3.539
 5694SOL    HW217982   0.320   1.820   3.435
 5695SOL     OW17983   0.936   2.682   2.853
 5695SOL    HW117984   0.977   2.627   2.925
 5695SOL    HW217985   0.988   2.767   2.842
 5696SOL     OW17986   1.155   1.084   2.906
 5696SOL    HW117987   1.077   1.064   2.846
 5696SOL    HW217988   1.139   1.044   2.996
 5697SOL     OW17989   5.925   2.475   1.808
 5697SOL    HW117990   5.866   2.544   1.850
 5697SOL    HW217991   5.954   2.409   1.877
 5698SOL     OW17992   0.802   3.585   3.318
 5698SOL    HW117993   0.864   3.656   3.352
 5698SOL    HW217994   0.715   3.627   3.291
 5699SOL     OW17995   0.461   2.163   3.279
 5699SOL    HW117996   0.503   2.073   3.267
 5699SOL    HW217997   0.507   2.211   3.353
 5700SOL     OW17998   0.159   0.023   4.201
 5700SOL    HW117999   0.188   7.013   4.111
 5700SOL    HW218000   0.123   0.116   4.192
 5701SOL     OW18001   1.632   0.863   2.286
 5701SOL    HW118002   1.725   0.828   2.275
 5701SOL    HW218003   1.595   0.833   2.374
 5702SOL     OW18004   2.565   5.990   4.765
 5702SOL    HW118005   2.584   6.035   4.853
 5702SOL    HW218006   2.526   6.056   4.702
 5703SOL     OW18007   6.498   4.657   1.174
 5703SOL    HW118008   6.438   4.688   1.248
 5703SOL    HW218009   6.527   4.736   1.119
 5704SOL     OW18010   4.458   4.671   2.460
 5704SOL    HW118011   4.443   4.597   2.395
 5704SOL    HW218012   4.375   4.727   2.468
 5705SOL     OW18013   5.238   1.036   0.767
 5705SOL    HW118014   5.147   1.059   0.733
 5705SOL    HW218015   5.276   0.962   0.712
 5706SOL     OW18016   6.774   3.928   0.579
 5706SOL    HW118017   6.824   3.873   0.645
 5706SOL    HW218018   6.827   4.009   0.556
 5707SOL     OW18019   0.335   6.811   0.583
 5707SOL    HW118020   0.333   6.896   0.530
 5707SOL    HW218021   0.274   6.744   0.540
 5708SOL     OW18022   5.058   6.383   1.545
 5708SOL    HW118023   5.048   6.295   1.592
 5708SOL    HW218024   4.999   6.451   1.589
 5709SOL     OW18025   1.349   6.880   2.358
 5709SOL    HW118026   1.432   6.842   2.398
 5709SOL    HW218027   1.309   6.946   2.422
 5710SOL     OW18028   2.902   2.903   0.394
 5710SOL    HW118029   2.968   2.906   0.469
 5710SOL    HW218030   2.809   2.897   0.431
 5711SOL     OW18031   4.902   1.329   2.542
 5711SOL    HW118032   4.832   1.390   2.580
 5711SOL    HW218033   4.885   1.236   2.573
 5712SOL     OW18034   0.325   6.337   6.521
 5712SOL    HW118035   0.366   6.400   6.455
 5712SOL    HW218036   0.396   6.304   6.584
 5713SOL     OW18037   2.752   2.912   1.662
 5713SOL    HW118038   2.791   2.820   1.674
 5713SOL    HW218039   2.754   2.960   1.749
 5714SOL     OW18040   0.562   5.824   0.076
 5714SOL    HW118041   0.613   5.902   0.114
 5714SOL    HW218042   0.473   5.855   0.044
 5715SOL     OW18043   0.673   6.621   3.687
 5715SOL    HW118044   0.591   6.675   3.672
 5715SOL    HW218045   0.705   6.633   3.781
 5716SOL     OW18046   1.353   3.905   6.989
 5716SOL    HW118047   1.404   3.918   6.905
 5716SOL    HW218048   1.399   3.952   0.042
 5717SOL     OW18049   2.210   5.629   0.443
 5717SOL    HW118050   2.290   5.688   0.447
 5717SOL    HW218051   2.135   5.677   0.397
 5718SOL     OW18052   0.232   2.768   5.621
 5718SOL    HW118053   0.266   2.689   5.569
 5718SOL    HW218054   0.162   2.737   5.686
 5719SOL     OW18055   3.057   1.396   6.710
 5719SOL    HW118056   3.129   1.379   6.778
 5719SOL    HW218057   2.989   1.458   6.748
 5720SOL     OW18058   1.471   5.499   5.212
 5720SOL    HW118059   1.448   5.442   5.133
 5720SOL    HW218060   1.520   5.580   5.181
 5721SOL     OW18061   0.492   3.788   1.037
 5721SOL    HW118062   0.563   3.835   0.985
 5721SOL    HW218063   0.490   3.823   1.131
 5722SOL     OW18064   6.421   1.663   5.500
 5722SOL    HW118065   6.473   1.659   5.586
 5722SOL    HW218066   6.325   1.641   5.518
 5723SOL     OW18067   4.850   3.596   0.262
 5723SOL    HW118068   4.910   3.517   0.249
 5723SOL    HW218069   4.762   3.578   0.218
 5724SOL     OW18070   5.161   2.988   5.013
 5724SOL    HW118071   5.122   2.897   5.029
 5724SOL    HW218072   5.095   3.045   4.964
 5725SOL     OW18073   5.215   4.961   3.536
 5725SOL    HW118074   5.277   4.898   3.582
 5725SOL    HW218075   5.261   5.002   3.458
 5726SOL     OW18076   0.122   4.663   5.310
 5726SOL    HW118077   0.082   4.634   5.396
 5726SOL    HW218078   0.221   4.655   5.315
 5727SOL     OW18079   6.731   1.129   4.143
 5727SOL    HW118080   6.798   1.058   4.120
 5727SOL    HW218081   6.663   1.136   4.070
 5728SOL     OW18082   3.861   1.243   5.981
 5728SOL    HW118083   3.887   1.320   6.039
 5728SOL    HW218084   3.838   1.277   5.890
 5729SOL     OW18085   1.037   1.034   0.706
 5729SOL    HW118086   1.095   1.062   0.629
 5729SOL    HW218087   1.028   1.110   0.770
 5730SOL     OW18088   4.946   5.539   6.038
 5730SOL    HW118089   4.900   5.472   5.979
 5730SOL    HW218090   5.045   5.530   6.028
 5731SOL     OW18091   0.591   6.929   3.925
 5731SOL    HW118092   0.563   6.860   3.991
 5731SOL    HW218093   0.639   7.003   3.972
 5732SOL     OW18094   6.160   5.310   4.433
 5732SOL    HW118095   6.221   5.299   4.353
 5732SOL    HW218096   6.081   5.364   4.407
 5733SOL     OW18097   3.845   6.922   4.823
 5733SOL    HW118098   3.850   6.918   4.923
 5733SOL    HW218099   3.844   7.018   4.794
 5734SOL     OW18100   0.790   6.920   6.007
 5734SOL    HW118101   0.742   7.008   6.008
 5734SOL    HW218102   0.781   6.878   5.917
 5735SOL     OW18103   3.875   2.118   1.982
 5735SOL    HW118104   3.897   2.046   1.917
 5735SOL    HW218105   3.786   2.158   1.959
 5736SOL     OW18106   6.136   4.355   0.397
 5736SOL    HW118107   6.185   4.288   0.454
 5736SOL    HW218108   6.071   4.406   0.455
 5737SOL     OW18109   4.786   6.233   0.559
 5737SOL    HW118110   4.700   6.254   0.512
 5737SOL    HW218111   4.768   6.168   0.633
 5738SOL     OW18112   2.811   3.121   6.452
 5738SOL    HW118113   2.805   3.023   6.433
 5738SOL    HW218114   2.901   3.141   6.491
 5739SOL     OW18115   1.163   0.621   5.703
 5739SOL    HW118116   1.187   0.677   5.624
 5739SOL    HW218117   1.112   0.677   5.769
 5740SOL     OW18118   4.323   3.687   1.289
 5740SOL    HW118119   4.299   3.599   1.329
 5740SOL    HW218120   4.397   3.674   1.223
 5741SOL     OW18121   0.081   4.049   4.216
 5741SOL    HW118122   0.134   4.063   4.133
 5741SOL    HW218123   0.142   4.046   4.295
 5742SOL     OW18124   4.839   6.648   3.036
 5742SOL    HW118125   4.839   6.736   2.988
 5742SOL    HW218126   4.745   6.619   3.051
 5743SOL     OW18127   2.599   5.152   5.548
 5743SOL    HW118128   2.559   5.240   5.523
 5743SOL    HW218129   2.533   5.079   5.531
 5744SOL     OW18130   5.165   1.540   2.029
 5744SOL    HW118131   5.184   1.526   1.932
 5744SOL    HW218132   5.144   1.636   2.046
 5745SOL     OW18133   1.918   0.792   4.083
 5745SOL    HW118134   1.941   0.816   4.177
 5745SOL    HW218135   1.818   0.791   4.073
 5746SOL     OW18136   5.293   6.568   1.414
 5746SOL    HW118137   5.291   6.468   1.425
 5746SOL    HW218138   5.279   6.590   1.317
 5747SOL     OW18139   0.173   4.328   2.767
 5747SOL    HW118140   0.130   4.414   2.739
 5747SOL    HW218141   0.113   4.281   2.832
 5748SOL     OW18142   1.705   5.670   0.462
 5748SOL    HW118143   1.634   5.616   0.416
 5748SOL    HW218144   1.734   5.624   0.546
 5749SOL     OW18145   1.357   6.483   4.588
 5749SOL    HW118146   1.345   6.404   4.529
 5749SOL    HW218147   1.410   6.554   4.540
 5750SOL     OW18148   6.857   5.936   4.396
 5750SOL    HW118149   6.926   5.891   4.340
 5750SOL    HW218150   6.822   6.017   4.348
 5751SOL     OW18151   2.791   2.267   4.438
 5751SOL    HW118152   2.885   2.288   4.467
 5751SOL    HW218153   2.728   2.325   4.489
 5752SOL     OW18154   6.676   0.917   0.397
 5752SOL    HW118155   6.663   0.938   0.300
 5752SOL    HW218156   6.747   0.847   0.407
 5753SOL     OW18157   3.896   3.028   4.638
 5753SOL    HW118158   3.973   2.965   4.647
 5753SOL    HW218159   3.833   2.994   4.569
 5754SOL     OW18160   6.866   5.013   1.295
 5754SOL    HW118161   6.918   5.018   1.380
 5754SOL    HW218162   6.786   4.954   1.307
 5755SOL     OW18163   2.024   3.565   6.197
 5755SOL    HW118164   1.996   3.487   6.140
 5755SOL    HW218165   2.074   3.631   6.142
 5756SOL     OW18166   6.170   6.907   3.425
 5756SOL    HW118167   6.162   7.003   3.397
 5756SOL    HW218168   6.260   6.873   3.401
 5757SOL     OW18169   6.598   6.562   3.123
 5757SOL    HW118170   6.593   6.658   3.152
 5757SOL    HW218171   6.538   6.507   3.181
 5758SOL     OW18172   2.589   0.785   4.381
 5758SOL    HW118173   2.636   0.791   4.293
 5758SOL    HW218174   2.562   0.876   4.411
 5759SOL     OW18175   5.193   1.688   6.756
 5759SOL    HW118176   5.187   1.706   6.658
 5759SOL    HW218177   5.283   1.718   6.790
 5760SOL     OW18178   0.308   4.506   0.788
 5760SOL    HW118179   0.216   4.524   0.751
 5760SOL    HW218180   0.319   4.408   0.802
 5761SOL     OW18181   5.532   6.704   6.366
 5761SOL    HW118182   5.615   6.715   6.420
 5761SOL    HW218183   5.454   6.746   6.414
 5762SOL     OW18184   4.659   5.734   0.252
 5762SOL    HW118185   4.752   5.721   0.218
 5762SOL    HW218186   4.609   5.794   0.189
 5763SOL     OW18187   0.321   0.001   0.413
 5763SOL    HW118188   0.345   0.097   0.429
 5763SOL    HW218189   0.357   6.994   0.325
 5764SOL     OW18190   5.358   5.280   5.146
 5764SOL    HW118191   5.276   5.335   5.161
 5764SOL    HW218192   5.333   5.193   5.104
 5765SOL     OW18193   6.160   3.295   0.188
 5765SOL    HW118194   6.245   3.344   0.208
 5765SOL    HW218195   6.088   3.327   0.250
 5766SOL     OW18196   1.807   2.503   6.756
 5766SOL    HW118197   1.887   2.508   6.697
 5766SOL    HW218198   1.724   2.511   6.701
 5767SOL     OW18199   2.186   0.984   0.241
 5767SOL    HW118200   2.247   0.985   0.161
 5767SOL    HW218201   2.191   0.894   0.285
 5768SOL     OW18202   0.970   6.314   3.161
 5768SOL    HW118203   0.983   6.287   3.066
 5768SOL    HW218204   0.908   6.393   3.165
 5769SOL     OW18205   2.221   5.815   4.138
 5769SOL    HW118206   2.128   5.834   4.170
 5769SOL    HW218207   2.244   5.720   4.162
 5770SOL     OW18208   5.895   6.821   0.516
 5770SOL    HW118209   5.926   6.896   0.575
 5770SOL    HW218210   5.870   6.743   0.573
 5771SOL     OW18211   1.597   6.895   3.510
 5771SOL    HW118212   1.534   6.853   3.445
 5771SOL    HW218213   1.681   6.922   3.462
 5772SOL     OW18214   5.993   1.911   1.067
 5772SOL    HW118215   6.041   1.996   1.090
 5772SOL    HW218216   5.908   1.932   1.020
 5773SOL     OW18217   4.307   0.993   3.867
 5773SOL    HW118218   4.334   1.088   3.853
 5773SOL    HW218219   4.231   0.988   3.932
 5774SOL     OW18220   2.999   5.375   3.663
 5774SOL    HW118221   3.024   5.472   3.659
 5774SOL    HW218222   2.920   5.359   3.603
 5775SOL     OW18223   1.482   1.097   2.298
 5775SOL    HW118224   1.408   1.031   2.316
 5775SOL    HW218225   1.564   1.047   2.269
 5776SOL     OW18226   0.187   0.616   5.611
 5776SOL    HW118227   0.134   0.654   5.686
 5776SOL    HW218228   0.132   0.549   5.561
 5777SOL     OW18229   6.230   0.165   4.809
 5777SOL    HW118230   6.325   0.137   4.824
 5777SOL    HW218231   6.228   0.250   4.756
 5778SOL     OW18232   1.374   0.692   1.656
 5778SOL    HW118233   1.300   0.666   1.718
 5778SOL    HW218234   1.459   0.648   1.686
 5779SOL     OW18235   4.570   2.229   0.507
 5779SOL    HW118236   4.532   2.160   0.444
 5779SOL    HW218237   4.550   2.203   0.601
 5780SOL     OW18238   5.998   5.157   3.145
 5780SOL    HW118239   5.908   5.124   3.116
 5780SOL    HW218240   6.058   5.079   3.161
 5781SOL     OW18241   6.863   3.957   4.506
 5781SOL    HW118242   6.909   4.046   4.509
 5781SOL    HW218243   6.796   3.953   4.581
 5782SOL     OW18244   0.752   0.999   0.662
 5782SOL    HW118245   0.849   1.018   0.647
 5782SOL    HW218246   0.742   0.911   0.709
 5783SOL     OW18247   1.817   0.970   1.338
 5783SOL    HW118248   1.910   0.973   1.300
 5783SOL    HW218249   1.751   0.983   1.264
 5784SOL     OW18250   7.021   6.256   6.985
 5784SOL    HW118251   0.083   6.223   0.004
 5784SOL    HW218252   0.019   6.304   6.900
 5785SOL     OW18253   1.466   1.803   0.867
 5785SOL    HW118254   1.402   1.827   0.940
 5785SOL    HW218255   1.492   1.707   0.875
 5786SOL     OW18256   0.599   4.276   1.003
 5786SOL    HW118257   0.682   4.222   1.017
 5786SOL    HW218258   0.594   4.308   0.908
 5787SOL     OW18259   4.006   2.716   5.588
 5787SOL    HW118260   3.979   2.727   5.492
 5787SOL    HW218261   4.049   2.626   5.600
 5788SOL     OW18262   2.982   1.425   1.487
 5788SOL    HW118263   3.008   1.507   1.537
 5788SOL    HW218264   3.035   1.347   1.522
 5789SOL     OW18265   3.085   4.338   6.836
 5789SOL    HW118266   3.105   4.313   6.741
 5789SOL    HW218267   3.078   4.256   6.892
 5790SOL     OW18268   0.399   4.437   4.908
 5790SOL    HW118269   0.409   4.494   4.827
 5790SOL    HW218270   0.475   4.372   4.914
 5791SOL     OW18271   3.259   1.789   2.170
 5791SOL    HW118272   3.254   1.880   2.129
 5791SOL    HW218273   3.226   1.721   2.104
 5792SOL     OW18274   5.388   2.541   2.344
 5792SOL    HW118275   5.375   2.638   2.322
 5792SOL    HW218276   5.326   2.485   2.290
 5793SOL     OW18277   6.100   0.697   4.316
 5793SOL    HW118278   6.142   0.678   4.227
 5793SOL    HW218279   6.028   0.766   4.305
 5794SOL     OW18280   2.820   0.381   5.977
 5794SOL    HW118281   2.793   0.369   5.882
 5794SOL    HW218282   2.751   0.436   6.025
 5795SOL     OW18283   0.218   6.172   0.736
 5795SOL    HW118284   0.311   6.195   0.708
 5795SOL    HW218285   0.166   6.256   0.752
 5796SOL     OW18286   4.913   1.164   6.672
 5796SOL    HW118287   4.911   1.065   6.678
 5796SOL    HW218288   4.917   1.192   6.576
 5797SOL     OW18289   5.083   2.242   0.179
 5797SOL    HW118290   5.018   2.194   0.238
 5797SOL    HW218291   5.151   2.177   0.144
 5798SOL     OW18292   6.756   5.314   4.744
 5798SOL    HW118293   6.787   5.226   4.781
 5798SOL    HW218294   6.659   5.327   4.767
 5799SOL     OW18295   0.203   0.432   4.708
 5799SOL    HW118296   0.175   0.344   4.669
 5799SOL    HW218297   0.146   0.452   4.788
 5800SOL     OW18298   0.464   0.014   1.845
 5800SOL    HW118299   0.371   0.011   1.806
 5800SOL    HW218300   0.471   6.969   1.918
 5801SOL     OW18301   1.741   2.041   3.216
 5801SOL    HW118302   1.707   2.126   3.174
 5801SOL    HW218303   1.678   1.967   3.196
 5802SOL     OW18304   6.505   3.009   2.822
 5802SOL    HW118305   6.575   2.946   2.856
 5802SOL    HW218306   6.471   3.065   2.897
 5803SOL     OW18307   2.073   6.174   2.901
 5803SOL    HW118308   2.049   6.095   2.843
 5803SOL    HW218309   1.991   6.205   2.949
 5804SOL     OW18310   0.245   5.261   3.209
 5804SOL    HW118311   0.233   5.264   3.308
 5804SOL    HW218312   0.216   5.171   3.174
 5805SOL     OW18313   1.836   2.895   1.134
 5805SOL    HW118314   1.766   2.823   1.141
 5805SOL    HW218315   1.925   2.858   1.160
 5806SOL     OW18316   6.864   5.672   4.795
 5806SOL    HW118317   6.902   5.762   4.818
 5806SOL    HW218318   6.764   5.676   4.802
 5807SOL     OW18319   1.233   5.172   0.460
 5807SOL    HW118320   1.243   5.202   0.365
 5807SOL    HW218321   1.147   5.121   0.470
 5808SOL     OW18322   0.103   6.200   4.156
 5808SOL    HW118323   0.101   6.195   4.256
 5808SOL    HW218324   0.118   6.294   4.127
 5809SOL     OW18325   6.716   1.439   5.283
 5809SOL    HW118326   6.684   1.503   5.353
 5809SOL    HW218327   6.816   1.443   5.279
 5810SOL     OW18328   5.067   0.892   5.876
 5810SOL    HW118329   5.067   0.938   5.965
 5810SOL    HW218330   4.994   0.823   5.875
 5811SOL     OW18331   3.176   1.261   5.041
 5811SOL    HW118332   3.249   1.196   5.019
 5811SOL    HW218333   3.099   1.212   5.081
 5812SOL     OW18334   5.218   3.225   5.698
 5812SOL    HW118335   5.199   3.321   5.677
 5812SOL    HW218336   5.134   3.179   5.726
 5813SOL     OW18337   2.533   0.653   0.960
 5813SOL    HW118338   2.624   0.633   0.997
 5813SOL    HW218339   2.508   0.583   0.893
 5814SOL     OW18340   6.772   3.115   2.335
 5814SOL    HW118341   6.724   3.180   2.394
 5814SOL    HW218342   6.725   3.027   2.337
 5815SOL     OW18343   3.679   1.465   3.770
 5815SOL    HW118344   3.713   1.469   3.676
 5815SOL    HW218345   3.644   1.373   3.789
 5816SOL     OW18346   4.704   4.562   0.159
 5816SOL    HW118347   4.655   4.475   0.156
 5816SOL    HW218348   4.638   4.637   0.168
 5817SOL     OW18349   5.968   4.990   5.834
 5817SOL    HW118350   6.019   4.918   5.786
 5817SOL    HW218351   5.992   5.079   5.797
 5818SOL     OW18352   6.432   5.308   5.650
 5818SOL    HW118353   6.528   5.292   5.626
 5818SOL    HW218354   6.426   5.342   5.744
 5819SOL     OW18355   3.949   0.027   6.848
 5819SOL    HW118356   4.001   0.093   6.795
 5819SOL    HW218357   3.986   6.958   6.834
 5820SOL     OW18358   4.328   4.781   2.940
 5820SOL    HW118359   4.376   4.716   2.880
 5820SOL    HW218360   4.339   4.753   3.035
 5821SOL     OW18361   7.022   0.828   1.778
 5821SOL    HW118362   6.945   0.768   1.797
 5821SOL    HW218363   0.031   0.814   1.684
 5822SOL     OW18364   1.841   2.313   1.641
 5822SOL    HW118365   1.850   2.412   1.642
 5822SOL    HW218366   1.829   2.282   1.547
 5823SOL     OW18367   2.772   0.471   4.559
 5823SOL    HW118368   2.814   0.392   4.604
 5823SOL    HW218369   2.771   0.456   4.460
 5824SOL     OW18370   7.014   5.907   2.895
 5824SOL    HW118371   6.923   5.936   2.926
 5824SOL    HW218372   0.047   5.883   2.974
 5825SOL     OW18373   0.271   6.815   4.547
 5825SOL    HW118374   0.343   6.836   4.612
 5825SOL    HW218375   0.182   6.829   4.589
 5826SOL     OW18376   6.996   5.634   6.749
 5826SOL    HW118377   0.046   5.570   6.775
 5826SOL    HW218378   6.962   5.611   6.659
 5827SOL     OW18379   1.650   3.672   4.887
 5827SOL    HW118380   1.629   3.766   4.913
 5827SOL    HW218381   1.749   3.658   4.890
 5828SOL     OW18382   5.222   1.909   2.684
 5828SOL    HW118383   5.136   1.871   2.717
 5828SOL    HW218384   5.298   1.855   2.720
 5829SOL     OW18385   1.707   0.357   4.182
 5829SOL    HW118386   1.681   0.273   4.135
 5829SOL    HW218387   1.802   0.350   4.212
 5830SOL     OW18388   5.515   7.000   6.059
 5830SOL    HW118389   5.531   0.022   5.971
 5830SOL    HW218390   5.515   6.901   6.048
 5831SOL     OW18391   1.003   0.838   5.803
 5831SOL    HW118392   0.976   0.903   5.732
 5831SOL    HW218393   1.006   0.884   5.891
 5832SOL     OW18394   3.181   4.800   6.944
 5832SOL    HW118395   3.279   4.806   6.927
 5832SOL    HW218396   3.162   4.719   7.000
 5833SOL     OW18397   4.321   3.748   5.251
 5833SOL    HW118398   4.417   3.764   5.277
 5833SOL    HW218399   4.316   3.666   5.193
 5834SOL     OW18400   0.107   3.536   0.008
 5834SOL    HW118401   0.115   3.607   6.961
 5834SOL    HW218402   0.115   3.446   6.987
 5835SOL     OW18403   5.862   2.376   3.163
 5835SOL    HW118404   5.817   2.291   3.191
 5835SOL    HW218405   5.824   2.452   3.216
 5836SOL     OW18406   3.285   0.361   1.671
 5836SOL    HW118407   3.242   0.378   1.582
 5836SOL    HW218408   3.256   0.430   1.737
 5837SOL     OW18409   3.361   3.563   0.172
 5837SOL    HW118410   3.448   3.609   0.156
 5837SOL    HW218411   3.289   3.606   0.117
 5838SOL     OW18412   2.805   1.682   0.711
 5838SOL    HW118413   2.777   1.653   0.620
 5838SOL    HW218414   2.860   1.611   0.754
 5839SOL     OW18415   0.728   2.041   1.355
 5839SOL    HW118416   0.807   1.982   1.335
 5839SOL    HW218417   0.698   2.026   1.449
 5840SOL     OW18418   1.577   4.374   6.290
 5840SOL    HW118419   1.489   4.328   6.278
 5840SOL    HW218420   1.585   4.448   6.223
 5841SOL     OW18421   5.044   1.397   2.316
 5841SOL    HW118422   4.986   1.372   2.393
 5841SOL    HW218423   4.990   1.452   2.251
 5842SOL     OW18424   4.560   2.818   1.750
 5842SOL    HW118425   4.562   2.916   1.766
 5842SOL    HW218426   4.593   2.798   1.657
 5843SOL     OW18427   1.295   4.512   2.264
 5843SOL    HW118428   1.348   4.570   2.202
 5843SOL    HW218429   1.356   4.449   2.312
 5844SOL     OW18430   1.624   6.137   5.591
 5844SOL    HW118431   1.616   6.229   5.554
 5844SOL    HW218432   1.540   6.086   5.575
 5845SOL     OW18433   0.637   0.674   1.894
 5845SOL    HW118434   0.541   0.655   1.914
 5845SOL    HW218435   0.650   0.682   1.795
 5846SOL     OW18436   6.117   3.571   6.024
 5846SOL    HW118437   6.183   3.603   6.092
 5846SOL    HW218438   6.095   3.646   5.962
 5847SOL     OW18439   2.727   2.203   2.158
 5847SOL    HW118440   2.800   2.263   2.127
 5847SOL    HW218441   2.766   2.123   2.204
 5848SOL     OW18442   1.387   5.538   3.480
 5848SOL    HW118443   1.466   5.477   3.491
 5848SOL    HW218444   1.392   5.612   3.548
 5849SOL     OW18445   1.814   0.324   5.146
 5849SOL    HW118446   1.789   0.228   5.134
 5849SOL    HW218447   1.736   0.382   5.125
 5850SOL     OW18448   6.796   3.546   1.981
 5850SOL    HW118449   6.860   3.621   1.969
 5850SOL    HW218450   6.832   3.482   2.049
 5851SOL     OW18451   5.171   3.022   3.492
 5851SOL    HW118452   5.164   2.985   3.400
 5851SOL    HW218453   5.268   3.031   3.517
 5852SOL     OW18454   5.667   6.211   3.074
 5852SOL    HW118455   5.738   6.148   3.105
 5852SOL    HW218456   5.577   6.168   3.086
 5853SOL     OW18457   4.145   5.297   5.208
 5853SOL    HW118458   4.046   5.286   5.200
 5853SOL    HW218459   4.168   5.394   5.205
 5854SOL     OW18460   4.256   4.208   5.855
 5854SOL    HW118461   4.208   4.156   5.925
 5854SOL    HW218462   4.323   4.149   5.810
 5855SOL     OW18463   1.702   0.849   4.481
 5855SOL    HW118464   1.636   0.809   4.544
 5855SOL    HW218465   1.724   0.783   4.409
 5856SOL     OW18466   1.931   5.583   3.280
 5856SOL    HW118467   1.993   5.516   3.320
 5856SOL    HW218468   1.845   5.539   3.255
 5857SOL     OW18469   6.200   3.045   5.776
 5857SOL    HW118470   6.216   3.019   5.871
 5857SOL    HW218471   6.284   3.082   5.737
 5858SOL     OW18472   2.595   2.268   2.393
 5858SOL    HW118473   2.640   2.233   2.311
 5858SOL    HW218474   2.496   2.254   2.385
 5859SOL     OW18475   6.601   6.366   1.727
 5859SOL    HW118476   6.590   6.329   1.819
 5859SOL    HW218477   6.655   6.302   1.671
 5860SOL     OW18478   0.147   4.419   3.440
 5860SOL    HW118479   0.067   4.460   3.483
 5860SOL    HW218480   0.180   4.343   3.496
 5861SOL     OW18481   5.220   1.599   4.390
 5861SOL    HW118482   5.169   1.631   4.311
 5861SOL    HW218483   5.163   1.608   4.472
 5862SOL     OW18484   5.806   5.640   1.019
 5862SOL    HW118485   5.824   5.544   0.996
 5862SOL    HW218486   5.790   5.649   1.117
 5863SOL     OW18487   3.048   2.006   5.030
 5863SOL    HW118488   3.111   1.941   5.073
 5863SOL    HW218489   3.098   2.088   5.002
 5864SOL     OW18490   3.685   4.053   2.464
 5864SOL    HW118491   3.595   4.094   2.477
 5864SOL    HW218492   3.699   4.033   2.367
 5865SOL     OW18493   6.402   7.020   6.029
 5865SOL    HW118494   6.342   6.940   6.022
 5865SOL    HW218495   6.486   7.004   5.978
 5866SOL     OW18496   3.614   3.776   0.978
 5866SOL    HW118497   3.682   3.702   0.973
 5866SOL    HW218498   3.535   3.752   0.922
 5867SOL     OW18499   2.336   3.569   0.853
 5867SOL    HW118500   2.240   3.558   0.826
 5867SOL    HW218501   2.348   3.657   0.898
 5868SOL     OW18502   1.542   1.520   5.398
 5868SOL    HW118503   1.456   1.507   5.348
 5868SOL    HW218504   1.565   1.617   5.402
 5869SOL     OW18505   1.664   6.634   3.254
 5869SOL    HW118506   1.751   6.673   3.284
 5869SOL    HW218507   1.639   6.559   3.315
 5870SOL     OW18508   4.657   6.779   4.709
 5870SOL    HW118509   4.742   6.797   4.660
 5870SOL    HW218510   4.593   6.854   4.693
 5871SOL     OW18511   3.257   3.066   1.635
 5871SOL    HW118512   3.175   3.043   1.686
 5871SOL    HW218513   3.257   3.017   1.548
 5872SOL     OW18514   4.865   6.809   0.900
 5872SOL    HW118515   4.778   6.760   0.899
 5872SOL    HW218516   4.938   6.749   0.867
 5873SOL     OW18517   3.394   1.002   2.231
 5873SOL    HW118518   3.439   0.956   2.308
 5873SOL    HW218519   3.327   1.067   2.266
 5874SOL     OW18520   2.489   4.756   5.637
 5874SOL    HW118521   2.400   4.763   5.683
 5874SOL    HW218522   2.510   4.660   5.621
 5875SOL     OW18523   4.280   1.461   0.002
 5875SOL    HW118524   4.376   1.443   7.003
 5875SOL    HW218525   4.231   1.374   0.009
 5876SOL     OW18526   3.530   3.024   1.696
 5876SOL    HW118527   3.536   3.093   1.768
 5876SOL    HW218528   3.444   3.035   1.646
 5877SOL     OW18529   0.621   6.742   1.617
 5877SOL    HW118530   0.657   6.649   1.610
 5877SOL    HW218531   0.545   6.743   1.681
 5878SOL     OW18532   6.960   5.508   4.309
 5878SOL    HW118533   6.907   5.506   4.394
 5878SOL    HW218534   6.968   5.415   4.273
 5879SOL     OW18535   1.390   4.136   6.448
 5879SOL    HW118536   1.474   4.108   6.493
 5879SOL    HW218537   1.326   4.059   6.447
 5880SOL     OW18538   4.436   4.241   6.128
 5880SOL    HW118539   4.393   4.239   6.038
 5880SOL    HW218540   4.486   4.327   6.140
 5881SOL     OW18541   0.895   6.794   2.676
 5881SOL    HW118542   0.973   6.766   2.731
 5881SOL    HW218543   0.916   6.781   2.579
 5882SOL     OW18544   0.298   5.321   1.664
 5882SOL    HW118545   0.331   5.399   1.611
 5882SOL    HW218546   0.285   5.243   1.603
 5883SOL     OW18547   0.822   1.189   6.762
 5883SOL    HW118548   0.911   1.205   6.721
 5883SOL    HW218549   0.833   1.137   6.847
 5884SOL     OW18550   3.171   1.572   4.698
 5884SOL    HW118551   3.193   1.666   4.674
 5884SOL    HW218552   3.244   1.511   4.665
 5885SOL     OW18553   0.711   6.973   2.733
 5885SOL    HW118554   0.765   0.032   2.712
 5885SOL    HW218555   0.769   6.892   2.726
 5886SOL     OW18556   0.862   2.019   4.671
 5886SOL    HW118557   0.849   1.997   4.574
 5886SOL    HW218558   0.884   1.936   4.722
 5887SOL     OW18559   2.686   1.873   2.638
 5887SOL    HW118560   2.641   1.901   2.553
 5887SOL    HW218561   2.693   1.773   2.641
 5888SOL     OW18562   3.084   0.815   1.518
 5888SOL    HW118563   3.055   0.720   1.525
 5888SOL    HW218564   3.091   0.841   1.421
 5889SOL     OW18565   1.202   6.756   0.539
 5889SOL    HW118566   1.148   6.722   0.462
 5889SOL    HW218567   1.284   6.700   0.549
 5890SOL     OW18568   2.054   0.933   3.538
 5890SOL    HW118569   1.984   0.891   3.481
 5890SOL    HW218570   2.092   0.865   3.600
 5891SOL     OW18571   3.551   3.035   6.454
 5891SOL    HW118572   3.526   3.099   6.526
 5891SOL    HW218573   3.478   2.968   6.442
 5892SOL     OW18574   0.917   5.410   1.432
 5892SOL    HW118575   0.858   5.334   1.408
 5892SOL    HW218576   0.946   5.458   1.348
 5893SOL     OW18577   2.183   3.914   4.037
 5893SOL    HW118578   2.178   3.875   4.129
 5893SOL    HW218579   2.169   3.842   3.969
 5894SOL     OW18580   6.555   5.302   4.193
 5894SOL    HW118581   6.563   5.324   4.291
 5894SOL    HW218582   6.578   5.383   4.139
 5895SOL     OW18583   5.461   4.016   3.937
 5895SOL    HW118584   5.398   4.067   3.879
 5895SOL    HW218585   5.409   3.950   3.992
 5896SOL     OW18586   3.870   0.650   0.430
 5896SOL    HW118587   3.834   0.638   0.523
 5896SOL    HW218588   3.840   0.574   0.373
 5897SOL     OW18589   4.189   0.625   1.392
 5897SOL    HW118590   4.241   0.588   1.469
 5897SOL    HW218591   4.249   0.636   1.313
 5898SOL     OW18592   2.063   6.331   3.693
 5898SOL    HW118593   2.159   6.359   3.701
 5898SOL    HW218594   2.013   6.398   3.638
 5899SOL     OW18595   5.881   6.002   6.699
 5899SOL    HW118596   5.882   6.036   6.605
 5899SOL    HW218597   5.815   5.927   6.706
 5900SOL     OW18598   5.856   5.466   3.693
 5900SOL    HW118599   5.905   5.384   3.722
 5900SOL    HW218600   5.845   5.464   3.593
 5901SOL     OW18601   2.253   0.675   0.074
 5901SOL    HW118602   2.200   0.729   0.009
 5901SOL    HW218603   2.219   0.690   0.166
 5902SOL     OW18604   6.358   2.401   5.713
 5902SOL    HW118605   6.432   2.469   5.719
 5902SOL    HW218606   6.279   2.442   5.668
 5903SOL     OW18607   5.068   4.886   0.062
 5903SOL    HW118608   5.023   4.975   0.066
 5903SOL    HW218609   5.003   4.815   0.091
 5904SOL     OW18610   1.310   4.306   1.602
 5904SOL    HW118611   1.263   4.315   1.514
 5904SOL    HW218612   1.304   4.392   1.652
 5905SOL     OW18613   6.235   6.384   3.474
 5905SOL    HW118614   6.248   6.430   3.562
 5905SOL    HW218615   6.138   6.389   3.449
 5906SOL     OW18616   3.742   2.145   4.101
 5906SOL    HW118617   3.656   2.138   4.051
 5906SOL    HW218618   3.726   2.125   4.198
 5907SOL     OW18619   1.575   4.946   0.669
 5907SOL    HW118620   1.516   4.877   0.709
 5907SOL    HW218621   1.668   4.935   0.704
 5908SOL     OW18622   0.242   2.661   0.246
 5908SOL    HW118623   0.260   2.583   0.186
 5908SOL    HW218624   0.327   2.691   0.288
 5909SOL     OW18625   6.183   5.552   0.831
 5909SOL    HW118626   6.265   5.527   0.882
 5909SOL    HW218627   6.142   5.633   0.871
 5910SOL     OW18628   0.181   3.706   4.010
 5910SOL    HW118629   0.174   3.734   4.106
 5910SOL    HW218630   0.093   3.670   3.979
 5911SOL     OW18631   6.943   6.404   6.495
 5911SOL    HW118632   6.965   6.307   6.509
 5911SOL    HW218633   6.972   6.456   6.575
 5912SOL     OW18634   6.446   1.478   6.103
 5912SOL    HW118635   6.410   1.572   6.099
 5912SOL    HW218636   6.419   1.428   6.021
 5913SOL     OW18637   5.265   3.077   6.421
 5913SOL    HW118638   5.312   3.047   6.338
 5913SOL    HW218639   5.168   3.056   6.413
 5914SOL     OW18640   1.159   4.534   5.667
 5914SOL    HW118641   1.176   4.631   5.685
 5914SOL    HW218642   1.175   4.482   5.751
 5915SOL     OW18643   4.737   5.668   0.879
 5915SOL    HW118644   4.760   5.734   0.807
 5915SOL    HW218645   4.767   5.704   0.968
 5916SOL     OW18646   5.342   6.893   3.913
 5916SOL    HW118647   5.296   6.965   3.860
 5916SOL    HW218648   5.297   6.805   3.896
 5917SOL     OW18649   2.950   3.441   4.581
 5917SOL    HW118650   2.935   3.536   4.606
 5917SOL    HW218651   2.920   3.381   4.655
 5918SOL     OW18652   1.709   3.515   6.297
 5918SOL    HW118653   1.734   3.418   6.298
 5918SOL    HW218654   1.785   3.570   6.330
 5919SOL     OW18655   3.514   3.362   3.171
 5919SOL    HW118656   3.516   3.311   3.257
 5919SOL    HW218657   3.601   3.412   3.161
 5920SOL     OW18658   4.786   0.912   6.558
 5920SOL    HW118659   4.848   0.904   6.636
 5920SOL    HW218660   4.792   0.829   6.502
 5921SOL     OW18661   3.742   5.618   6.554
 5921SOL    HW118662   3.666   5.623   6.619
 5921SOL    HW218663   3.732   5.536   6.497
 5922SOL     OW18664   5.352   4.952   2.567
 5922SOL    HW118665   5.417   5.024   2.592
 5922SOL    HW218666   5.267   4.965   2.618
 5923SOL     OW18667   6.149   1.377   1.419
 5923SOL    HW118668   6.130   1.283   1.447
 5923SOL    HW218669   6.200   1.424   1.491
 5924SOL     OW18670   6.041   0.102   2.852
 5924SOL    HW118671   6.078   0.063   2.767
 5924SOL    HW218672   6.038   0.032   2.922
 5925SOL     OW18673   3.947   0.014   2.326
 5925SOL    HW118674   3.931   6.943   2.359
 5925SOL    HW218675   3.989   0.068   2.399
 5926SOL     OW18676   4.248   5.430   1.343
 5926SOL    HW118677   4.218   5.477   1.260
 5926SOL    HW218678   4.307   5.490   1.397
 5927SOL     OW18679   1.546   3.889   2.419
 5927SOL    HW118680   1.469   3.947   2.393
 5927SOL    HW218681   1.575   3.912   2.512
 5928SOL     OW18682   4.123   0.318   1.114
 5928SOL    HW118683   4.057   0.296   1.043
 5928SOL    HW218684   4.161   0.410   1.098
 5929SOL     OW18685   0.045   6.863   6.466
 5929SOL    HW118686   6.990   6.802   6.484
 5929SOL    HW218687   0.012   6.956   6.454
 5930SOL     OW18688   6.471   3.682   2.903
 5930SOL    HW118689   6.526   3.739   2.964
 5930SOL    HW218690   6.528   3.651   2.826
 5931SOL     OW18691   0.293   5.594   2.847
 5931SOL    HW118692   0.371   5.568   2.790
 5931SOL    HW218693   0.307   5.686   2.882
 5932SOL     OW18694   3.275   0.313   0.310
 5932SOL    HW118695   3.183   0.338   0.280
 5932SOL    HW218696   3.331   0.290   0.230
 5933SOL     OW18697   0.151   5.465   3.031
 5933SOL    HW118698   0.184   5.389   3.087
 5933SOL    HW218699   0.220   5.490   2.963
 5934SOL     OW18700   3.468   2.939   4.730
 5934SOL    HW118701   3.456   2.849   4.688
 5934SOL    HW218702   3.414   2.943   4.814
 5935SOL     OW18703   5.421   5.217   6.552
 5935SOL    HW118704   5.460   5.187   6.464
 5935SOL    HW218705   5.483   5.192   6.626
 5936SOL     OW18706   3.607   2.477   1.355
 5936SOL    HW118707   3.706   2.471   1.363
 5936SOL    HW218708   3.565   2.453   1.443
 5937SOL     OW18709   6.683   4.137   2.292
 5937SOL    HW118710   6.737   4.137   2.209
 5937SOL    HW218711   6.716   4.208   2.355
 5938SOL     OW18712   0.213   5.698   3.186
 5938SOL    HW118713   0.201   5.626   3.117
 5938SOL    HW218714   0.201   5.788   3.143
 5939SOL     OW18715   2.632   6.536   3.192
 5939SOL    HW118716   2.713   6.476   3.188
 5939SOL    HW218717   2.651   6.614   3.251
 5940SOL     OW18718   4.339   5.612   1.523
 5940SOL    HW118719   4.435   5.586   1.518
 5940SOL    HW218720   4.325   5.699   1.475
 5941SOL     OW18721   6.120   2.890   2.274
 5941SOL    HW118722   6.111   2.814   2.339
 5941SOL    HW218723   6.182   2.864   2.200
 5942SOL     OW18724   5.487   3.966   0.141
 5942SOL    HW118725   5.573   4.011   0.120
 5942SOL    HW218726   5.420   4.033   0.171
 5943SOL     OW18727   3.442   4.603   5.976
 5943SOL    HW118728   3.437   4.698   5.945
 5943SOL    HW218729   3.496   4.550   5.911
 5944SOL     OW18730   6.658   2.740   1.055
 5944SOL    HW118731   6.612   2.757   1.142
 5944SOL    HW218732   6.590   2.720   0.985
 5945SOL     OW18733   6.483   5.320   4.763
 5945SOL    HW118734   6.400   5.265   4.773
 5945SOL    HW218735   6.478   5.371   4.677
 5946SOL     OW18736   3.902   3.392   6.320
 5946SOL    HW118737   3.864   3.316   6.267
 5946SOL    HW218738   3.997   3.371   6.345
 5947SOL     OW18739   3.270   3.331   2.315
 5947SOL    HW118740   3.334   3.272   2.363
 5947SOL    HW218741   3.179   3.322   2.355
 5948SOL     OW18742   4.339   4.697   3.230
 5948SOL    HW118743   4.384   4.643   3.300
 5948SOL    HW218744   4.242   4.710   3.254
 5949SOL     OW18745   5.222   3.787   1.860
 5949SOL    HW118746   5.166   3.870   1.857
 5949SOL    HW218747   5.170   3.711   1.822
 5950SOL     OW18748   4.802   1.180   5.286
 5950SOL    HW118749   4.848   1.269   5.289
 5950SOL    HW218750   4.869   1.108   5.275
 5951SOL     OW18751   1.501   5.841   3.887
 5951SOL    HW118752   1.476   5.781   3.962
 5951SOL    HW218753   1.434   5.915   3.878
 5952SOL     OW18754   5.701   4.717   3.468
 5952SOL    HW118755   5.616   4.734   3.419
 5952SOL    HW218756   5.703   4.622   3.500
 5953SOL     OW18757   6.670   3.394   5.817
 5953SOL    HW118758   6.603   3.468   5.821
 5953SOL    HW218759   6.731   3.408   5.740
 5954SOL     OW18760   6.539   4.960   5.036
 5954SOL    HW118761   6.541   4.966   4.936
 5954SOL    HW218762   6.464   5.016   5.071
 5955SOL     OW18763   4.993   5.750   2.220
 5955SOL    HW118764   4.898   5.723   2.234
 5955SOL    HW218765   4.996   5.838   2.173
 5956SOL     OW18766   4.588   2.028   4.523
 5956SOL    HW118767   4.603   2.070   4.434
 5956SOL    HW218768   4.552   1.935   4.511
 5957SOL     OW18769   3.937   1.092   5.398
 5957SOL    HW118770   3.941   1.167   5.333
 5957SOL    HW218771   3.998   1.111   5.475
 5958SOL     OW18772   5.858   6.344   2.884
 5958SOL    HW118773   5.789   6.318   2.952
 5958SOL    HW218774   5.813   6.373   2.800
 5959SOL     OW18775   4.440   2.856   5.423
 5959SOL    HW118776   4.396   2.887   5.507
 5959SOL    HW218777   4.388   2.778   5.386
 5960SOL     OW18778   4.374   5.460   4.949
 5960SOL    HW118779   4.296   5.399   4.933
 5960SOL    HW218780   4.341   5.554   4.958
 5961SOL     OW18781   5.045   1.731   2.826
 5961SOL    HW118782   5.065   1.668   2.901
 5961SOL    HW218783   4.975   1.691   2.767
 5962SOL     OW18784   5.823   6.490   0.487
 5962SOL    HW118785   5.785   6.426   0.421
 5962SOL    HW218786   5.907   6.530   0.451
 5963SOL     OW18787   4.025   3.655   6.311
 5963SOL    HW118788   3.961   3.580   6.298
 5963SOL    HW218789   3.977   3.734   6.349
 5964SOL     OW18790   0.266   5.446   5.529
 5964SOL    HW118791   0.307   5.379   5.590
 5964SOL    HW218792   0.176   5.413   5.500
 5965SOL     OW18793   2.056   1.770   6.724
 5965SOL    HW118794   2.125   1.725   6.782
 5965SOL    HW218795   2.041   1.863   6.756
 5966SOL     OW18796   2.140   5.835   4.926
 5966SOL    HW118797   2.061   5.846   4.865
 5966SOL    HW218798   2.140   5.742   4.963
 5967SOL     OW18799   4.060   6.791   6.251
 5967SOL    HW118800   4.063   6.696   6.219
 5967SOL    HW218801   4.102   6.797   6.342
 5968SOL     OW18802   4.852   2.342   0.846
 5968SOL    HW118803   4.794   2.262   0.860
 5968SOL    HW218804   4.843   2.374   0.752
 5969SOL     OW18805   6.550   6.986   6.744
 5969SOL    HW118806   6.532   0.055   6.707
 5969SOL    HW218807   6.463   6.937   6.755
 5970SOL     OW18808   0.225   4.110   2.577
 5970SOL    HW118809   0.210   4.200   2.618
 5970SOL    HW218810   0.280   4.054   2.639
 5971SOL     OW18811   0.395   1.094   2.771
 5971SOL    HW118812   0.416   0.997   2.782
 5971SOL    HW218813   0.431   1.126   2.683
 5972SOL     OW18814   6.010   5.484   6.090
 5972SOL    HW118815   5.920   5.444   6.074
 5972SOL    HW218816   6.000   5.580   6.114
 5973SOL     OW18817   1.596   3.676   2.659
 5973SOL    HW118818   1.545   3.709   2.579
 5973SOL    HW218819   1.546   3.599   2.700
 5974SOL     OW18820   5.978   6.247   6.787
 5974SOL    HW118821   5.982   6.205   6.877
 5974SOL    HW218822   5.916   6.195   6.728
 5975SOL     OW18823   4.501   0.185   0.539
 5975SOL    HW118824   4.601   0.181   0.541
 5975SOL    HW218825   4.470   0.213   0.449
 5976SOL     OW18826   3.637   2.760   6.160
 5976SOL    HW118827   3.671   2.735   6.069
 5976SOL    HW218828   3.588   2.847   6.154
 5977SOL     OW18829   1.538   5.906   6.475
 5977SOL    HW118830   1.530   5.810   6.500
 5977SOL    HW218831   1.571   5.914   6.381
 5978SOL     OW18832   4.550   5.437   1.536
 5978SOL    HW118833   4.611   5.464   1.610
 5978SOL    HW218834   4.524   5.341   1.547
 5979SOL     OW18835   5.259   0.682   2.945
 5979SOL    HW118836   5.204   0.674   3.028
 5979SOL    HW218837   5.327   0.609   2.942
 5980SOL     OW18838   3.444   3.605   1.136
 5980SOL    HW118839   3.396   3.639   1.217
 5980SOL    HW218840   3.495   3.681   1.094
 5981SOL     OW18841   5.343   2.167   1.433
 5981SOL    HW118842   5.305   2.252   1.467
 5981SOL    HW218843   5.412   2.133   1.497
 5982SOL     OW18844   6.093   3.401   2.081
 5982SOL    HW118845   6.173   3.446   2.121
 5982SOL    HW218846   6.111   3.303   2.074
 5983SOL     OW18847   1.697   1.622   3.911
 5983SOL    HW118848   1.762   1.667   3.850
 5983SOL    HW218849   1.632   1.689   3.946
 5984SOL     OW18850   6.744   5.612   3.719
 5984SOL    HW118851   6.690   5.615   3.804
 5984SOL    HW218852   6.690   5.649   3.644
 5985SOL     OW18853   6.719   2.432   4.328
 5985SOL    HW118854   6.779   2.411   4.250
 5985SOL    HW218855   6.677   2.521   4.314
 5986SOL     OW18856   3.263   3.779   4.797
 5986SOL    HW118857   3.349   3.812   4.757
 5986SOL    HW218858   3.196   3.852   4.798
 5987SOL     OW18859   5.575   0.008   3.872
 5987SOL    HW118860   5.493   6.984   3.905
 5987SOL    HW218861   5.562   0.036   3.778
 5988SOL     OW18862   4.751   0.283   5.973
 5988SOL    HW118863   4.815   0.220   5.930
 5988SOL    HW218864   4.787   0.376   5.969
 5989SOL     OW18865   2.269   6.006   6.382
 5989SOL    HW118866   2.341   6.072   6.358
 5989SOL    HW218867   2.296   5.957   6.465
 5990SOL     OW18868   3.955   3.425   0.851
 5990SOL    HW118869   4.049   3.440   0.820
 5990SOL    HW218870   3.905   3.374   0.781
 5991SOL     OW18871   3.752   5.099   6.608
 5991SOL    HW118872   3.688   5.164   6.565
 5991SOL    HW218873   3.764   5.124   6.704
 5992SOL     OW18874   3.549   0.639   2.058
 5992SOL    HW118875   3.607   0.711   2.019
 5992SOL    HW218876   3.470   0.625   1.999
 5993SOL     OW18877   3.539   5.007   5.916
 5993SOL    HW118878   3.446   5.039   5.932
 5993SOL    HW218879   3.572   5.042   5.828
 5994SOL     OW18880   5.903   2.638   2.090
 5994SOL    HW118881   5.913   2.699   2.011
 5994SOL    HW218882   5.854   2.687   2.163
 5995SOL     OW18883   4.840   3.996   2.523
 5995SOL    HW118884   4.806   4.066   2.461
 5995SOL    HW218885   4.773   3.979   2.595
 5996SOL     OW18886   1.208   6.101   1.431
 5996SOL    HW118887   1.251   6.011   1.427
 5996SOL    HW218888   1.274   6.168   1.464
 5997SOL     OW18889   0.377   5.822   2.944
 5997SOL    HW118890   0.476   5.834   2.934
 5997SOL    HW218891   0.344   5.883   3.016
 5998SOL     OW18892   6.055   1.271   3.096
 5998SOL    HW118893   6.091   1.336   3.029
 5998SOL    HW218894   6.076   1.304   3.188
 5999SOL     OW18895   2.145   2.097   1.908
 5999SOL    HW118896   2.117   2.005   1.936
 5999SOL    HW218897   2.222   2.090   1.844
 6000SOL     OW18898   3.195   0.078   0.775
 6000SOL    HW118899   3.173   0.086   0.678
 6000SOL    HW218900   3.278   0.129   0.795
 6001SOL     OW18901   0.611   4.019   6.788
 6001SOL    HW118902   0.658   3.931   6.780
 6001SOL    HW218903   0.543   4.014   6.862
 6002SOL     OW18904   5.993   1.462   0.832
 6002SOL    HW118905   6.088   1.437   0.812
 6002SOL    HW218906   5.968   1.427   0.923
 6003SOL     OW18907   5.612   2.062   4.775
 6003SOL    HW118908   5.647   2.040   4.866
 6003SOL    HW218909   5.514   2.082   4.781
 6004SOL     OW18910   6.721   3.914   2.828
 6004SOL    HW118911   6.719   3.903   2.928
 6004SOL    HW218912   6.712   3.825   2.785
 6005SOL     OW18913   4.806   5.524   4.012
 6005SOL    HW118914   4.777   5.529   4.108
 6005SOL    HW218915   4.823   5.616   3.977
 6006SOL     OW18916   2.419   1.173   5.353
 6006SOL    HW118917   2.410   1.263   5.396
 6006SOL    HW218918   2.504   1.169   5.300
 6007SOL     OW18919   5.423   4.165   5.324
 6007SOL    HW118920   5.346   4.104   5.305
 6007SOL    HW218921   5.458   4.146   5.416
 6008SOL     OW18922   2.487   4.560   5.411
 6008SOL    HW118923   2.579   4.521   5.404
 6008SOL    HW218924   2.428   4.496   5.461
 6009SOL     OW18925   2.135   0.954   3.101
 6009SOL    HW118926   2.054   0.976   3.046
 6009SOL    HW218927   2.159   0.858   3.088
 6010SOL     OW18928   0.930   4.797   4.152
 6010SOL    HW118929   1.027   4.810   4.171
 6010SOL    HW218930   0.877   4.812   4.236
 6011SOL     OW18931   4.913   2.744   3.590
 6011SOL    HW118932   4.949   2.651   3.597
 6011SOL    HW218933   4.942   2.784   3.503
 6012SOL     OW18934   5.426   0.944   0.250
 6012SOL    HW118935   5.327   0.950   0.258
 6012SOL    HW218936   5.463   1.031   0.217
 6013SOL     OW18937   4.848   2.205   2.547
 6013SOL    HW118938   4.785   2.228   2.620
 6013SOL    HW218939   4.882   2.112   2.560
 6014SOL     OW18940   4.025   3.283   2.587
 6014SOL    HW118941   4.083   3.364   2.597
 6014SOL    HW218942   3.932   3.311   2.562
 6015SOL     OW18943   5.903   3.806   3.793
 6015SOL    HW118944   5.920   3.904   3.794
 6015SOL    HW218945   5.821   3.787   3.739
 6016SOL     OW18946   6.671   1.973   5.471
 6016SOL    HW118947   6.632   2.065   5.462
 6016SOL    HW218948   6.769   1.976   5.450
 6017SOL     OW18949   6.651   4.283   3.403
 6017SOL    HW118950   6.637   4.330   3.316
 6017SOL    HW218951   6.566   4.284   3.455
 6018SOL     OW18952   4.352   0.522   6.559
 6018SOL    HW118953   4.446   0.507   6.591
 6018SOL    HW218954   4.301   0.437   6.563
 6019SOL     OW18955   6.963   1.893   4.159
 6019SOL    HW118956   7.013   1.979   4.167
 6019SOL    HW218957   6.979   1.838   4.241
 6020SOL     OW18958   0.992   5.026   0.451
 6020SOL    HW118959   0.914   5.057   0.396
 6020SOL    HW218960   0.958   4.983   0.535
 6021SOL     OW18961   4.533   0.510   3.274
 6021SOL    HW118962   4.489   0.450   3.341
 6021SOL    HW218963   4.553   0.598   3.316
 6022SOL     OW18964   5.331   1.985   3.929
 6022SOL    HW118965   5.332   1.940   3.840
 6022SOL    HW218966   5.418   1.967   3.976
 6023SOL     OW18967   5.948   0.780   1.683
 6023SOL    HW118968   5.935   0.711   1.755
 6023SOL    HW218969   5.860   0.823   1.662
 6024SOL     OW18970   1.450   4.742   2.888
 6024SOL    HW118971   1.526   4.785   2.936
 6024SOL    HW218972   1.398   4.812   2.839
 6025SOL     OW18973   3.417   1.709   3.221
 6025SOL    HW118974   3.367   1.795   3.211
 6025SOL    HW218975   3.423   1.685   3.318
 6026SOL     OW18976   0.325   4.249   5.248
 6026SOL    HW118977   0.252   4.215   5.188
 6026SOL    HW218978   0.292   4.328   5.299
 6027SOL     OW18979   0.359   3.329   5.913
 6027SOL    HW118980   0.270   3.349   5.953
 6027SOL    HW218981   0.431   3.363   5.973
 6028SOL     OW18982   6.689   5.584   0.403
 6028SOL    HW118983   6.637   5.538   0.331
 6028SOL    HW218984   6.670   5.682   0.400
 6029SOL     OW18985   2.467   6.756   5.088
 6029SOL    HW118986   2.455   6.657   5.082
 6029SOL    HW218987   2.379   6.802   5.078
 6030SOL     OW18988   3.936   5.230   2.096
 6030SOL    HW118989   3.847   5.192   2.071
 6030SOL    HW218990   3.985   5.166   2.155
 6031SOL     OW18991   2.955   5.261   3.932
 6031SOL    HW118992   2.985   5.333   3.870
 6031SOL    HW218993   2.860   5.238   3.912
 6032SOL     OW18994   1.973   4.264   2.688
 6032SOL    HW118995   2.068   4.235   2.686
 6032SOL    HW218996   1.916   4.198   2.638
 6033SOL     OW18997   2.800   2.201   2.550
 6033SOL    HW118998   2.731   2.246   2.493
 6033SOL    HW218999   2.777   2.213   2.646
 6034SOL     OW19000   1.289   6.748   5.046
 6034SOL    HW119001   1.230   6.674   5.078
 6034SOL    HW219002   1.237   6.808   4.985
 6035SOL     OW19003   0.132   0.723   2.434
 6035SOL    HW119004   0.079   0.787   2.489
 6035SOL    HW219005   0.228   0.725   2.462
 6036SOL     OW19006   5.130   4.427   3.496
 6036SOL    HW119007   5.162   4.510   3.450
 6036SOL    HW219008   5.045   4.396   3.453
 6037SOL     OW19009   4.492   5.921   0.135
 6037SOL    HW119010   4.524   6.012   0.164
 6037SOL    HW219011   4.420   5.890   0.197
 6038SOL     OW19012   1.843   2.494   5.692
 6038SOL    HW119013   1.857   2.420   5.627
 6038SOL    HW219014   1.834   2.456   5.785
 6039SOL     OW19015   2.978   3.688   2.518
 6039SOL    HW119016   2.959   3.606   2.465
 6039SOL    HW219017   2.948   3.674   2.613
 6040SOL     OW19018   1.262   1.388   0.382
 6040SOL    HW119019   1.178   1.438   0.364
 6040SOL    HW219020   1.240   1.298   0.420
 6041SOL     OW19021   2.939   0.769   4.880
 6041SOL    HW119022   3.026   0.818   4.871
 6041SOL    HW219023   2.874   0.807   4.814
 6042SOL     OW19024   4.713   6.273   2.334
 6042SOL    HW119025   4.733   6.368   2.358
 6042SOL    HW219026   4.630   6.243   2.381
 6043SOL     OW19027   0.797   4.911   5.604
 6043SOL    HW119028   0.873   4.960   5.562
 6043SOL    HW219029   0.813   4.812   5.597
 6044SOL     OW19030   1.550   2.512   1.462
 6044SOL    HW119031   1.488   2.590   1.447
 6044SOL    HW219032   1.618   2.536   1.531
 6045SOL     OW19033   5.661   4.050   2.614
 6045SOL    HW119034   5.708   4.137   2.625
 6045SOL    HW219035   5.707   3.995   2.545
 6046SOL     OW19036   3.556   2.328   0.316
 6046SOL    HW119037   3.465   2.364   0.298
 6046SOL    HW219038   3.550   2.247   0.375
 6047SOL     OW19039   4.801   1.944   2.124
 6047SOL    HW119040   4.715   1.907   2.089
 6047SOL    HW219041   4.817   2.035   2.084
 6048SOL     OW19042   4.636   5.821   5.047
 6048SOL    HW119043   4.729   5.796   5.022
 6048SOL    HW219044   4.621   5.802   5.144
 6049SOL     OW19045   4.714   3.173   0.090
 6049SOL    HW119046   4.634   3.116   0.071
 6049SOL    HW219047   4.720   3.245   0.020
 6050SOL     OW19048   4.130   5.570   5.199
 6050SOL    HW119049   4.071   5.624   5.260
 6050SOL    HW219050   4.172   5.631   5.132
 6051SOL     OW19051   2.215   0.050   3.513
 6051SOL    HW119052   2.148   7.013   3.558
 6051SOL    HW219053   2.195   0.146   3.535
 6052SOL     OW19054   6.602   0.984   0.117
 6052SOL    HW119055   6.503   0.991   0.128
 6052SOL    HW219056   6.637   1.066   0.073
 6053SOL     OW19057   3.864   1.934   6.758
 6053SOL    HW119058   3.883   1.841   6.727
 6053SOL    HW219059   3.766   1.952   6.752
 6054SOL     OW19060   2.429   3.044   0.343
 6054SOL    HW119061   2.505   3.098   0.381
 6054SOL    HW219062   2.369   3.015   0.417
 6055SOL     OW19063   4.999   0.562   5.224
 6055SOL    HW119064   5.085   0.540   5.177
 6055SOL    HW219065   5.018   0.630   5.295
 6056SOL     OW19066   5.122   3.262   4.318
 6056SOL    HW119067   5.137   3.294   4.224
 6056SOL    HW219068   5.170   3.175   4.332
 6057SOL     OW19069   5.907   2.233   3.732
 6057SOL    HW119070   5.845   2.181   3.791
 6057SOL    HW219071   5.904   2.196   3.639
 6058SOL     OW19072   5.065   3.563   1.772
 6058SOL    HW119073   4.978   3.604   1.799
 6058SOL    HW219074   5.079   3.479   1.824
 6059SOL     OW19075   5.227   5.029   5.113
 6059SOL    HW119076   5.200   4.935   5.135
 6059SOL    HW219077   5.146   5.088   5.111
 6060SOL     OW19078   3.156   3.862   0.222
 6060SOL    HW119079   3.227   3.856   0.292
 6060SOL    HW219080   3.189   3.818   0.138
 6061SOL     OW19081   3.460   2.537   1.135
 6061SOL    HW119082   3.405   2.620   1.141
 6061SOL    HW219083   3.486   2.507   1.227
 6062SOL     OW19084   2.198   0.792   4.937
 6062SOL    HW119085   2.258   0.844   4.998
 6062SOL    HW219086   2.193   0.838   4.848
 6063SOL     OW19087   4.181   2.812   5.948
 6063SOL    HW119088   4.185   2.908   5.976
 6063SOL    HW219089   4.099   2.797   5.893
 6064SOL     OW19090   1.681   6.135   0.854
 6064SOL    HW119091   1.586   6.145   0.827
 6064SOL    HW219092   1.739   6.189   0.793
 6065SOL     OW19093   0.044   6.710   2.195
 6065SOL    HW119094   0.076   6.760   2.114
 6065SOL    HW219095   0.112   6.716   2.267
 6066SOL     OW19096   4.744   1.285   6.051
 6066SOL    HW119097   4.829   1.330   6.079
 6066SOL    HW219098   4.667   1.345   6.069
 6067SOL     OW19099   5.872   0.648   5.261
 6067SOL    HW119100   5.891   0.739   5.299
 6067SOL    HW219101   5.895   0.578   5.329
 6068SOL     OW19102   5.511   3.420   4.456
 6068SOL    HW119103   5.430   3.369   4.485
 6068SOL    HW219104   5.484   3.515   4.436
 6069SOL     OW19105   6.073   3.349   5.742
 6069SOL    HW119106   5.993   3.343   5.801
 6069SOL    HW219107   6.118   3.260   5.738
 6070SOL     OW19108   2.780   2.133   0.646
 6070SOL    HW119109   2.685   2.162   0.645
 6070SOL    HW219110   2.797   2.076   0.726
 6071SOL     OW19111   5.328   5.576   3.976
 6071SOL    HW119112   5.337   5.618   3.886
 6071SOL    HW219113   5.296   5.645   4.042
 6072SOL     OW19114   6.854   0.409   1.506
 6072SOL    HW119115   6.914   0.370   1.436
 6072SOL    HW219116   6.840   0.342   1.580
 6073SOL     OW19117   5.794   3.149   0.159
 6073SOL    HW119118   5.705   3.174   0.121
 6073SOL    HW219119   5.822   3.060   0.122
 6074SOL     OW19120   1.070   6.444   3.387
 6074SOL    HW119121   1.058   6.384   3.308
 6074SOL    HW219122   1.057   6.391   3.471
 6075SOL     OW19123   6.394   1.038   6.244
 6075SOL    HW119124   6.434   0.997   6.326
 6075SOL    HW219125   6.456   1.025   6.166
 6076SOL     OW19126   3.119   5.717   4.084
 6076SOL    HW119127   3.200   5.734   4.027
 6076SOL    HW219128   3.089   5.803   4.125
 6077SOL     OW19129   6.129   5.885   1.026
 6077SOL    HW119130   6.167   5.820   1.091
 6077SOL    HW219131   6.190   5.963   1.017
 6078SOL     OW19132   4.537   5.093   0.427
 6078SOL    HW119133   4.623   5.140   0.410
 6078SOL    HW219134   4.552   4.994   0.427
 6079SOL     OW19135   4.335   3.825   6.186
 6079SOL    HW119136   4.248   3.790   6.151
 6079SOL    HW219137   4.317   3.887   6.263
 6080SOL     OW19138   0.459   0.136   1.285
 6080SOL    HW119139   0.448   0.097   1.377
 6080SOL    HW219140   0.533   0.204   1.287
 6081SOL     OW19141   0.163   3.686   5.666
 6081SOL    HW119142   0.144   3.695   5.568
 6081SOL    HW219143   0.252   3.641   5.679
 6082SOL     OW19144   2.383   1.507   4.015
 6082SOL    HW119145   2.390   1.563   4.097
 6082SOL    HW219146   2.353   1.415   4.039
 6083SOL     OW19147   6.602   5.714   6.854
 6083SOL    HW119148   6.541   5.741   6.929
 6083SOL    HW219149   6.636   5.621   6.870
 6084SOL     OW19150   0.779   0.106   4.005
 6084SOL    HW119151   0.832   0.158   3.937
 6084SOL    HW219152   0.837   0.086   4.084
 6085SOL     OW19153   0.705   5.366   0.501
 6085SOL    HW119154   0.741   5.434   0.437
 6085SOL    HW219155   0.694   5.409   0.591
 6086SOL     OW19156   4.290   0.587   5.823
 6086SOL    HW119157   4.308   0.588   5.724
 6086SOL    HW219158   4.192   0.576   5.839
 6087SOL     OW19159   3.655   5.309   0.830
 6087SOL    HW119160   3.644   5.407   0.849
 6087SOL    HW219161   3.648   5.258   0.915
 6088SOL     OW19162   5.259   5.791   3.811
 6088SOL    HW119163   5.197   5.739   3.752
 6088SOL    HW219164   5.229   5.886   3.816
 6089SOL     OW19165   4.796   3.452   1.659
 6089SOL    HW119166   4.859   3.377   1.640
 6089SOL    HW219167   4.819   3.530   1.602
 6090SOL     OW19168   2.384   5.894   5.295
 6090SOL    HW119169   2.298   5.844   5.297
 6090SOL    HW219170   2.370   5.987   5.329
 6091SOL     OW19171   1.847   1.268   0.136
 6091SOL    HW119172   1.754   1.273   0.171
 6091SOL    HW219173   1.886   1.178   0.158
 6092SOL     OW19174   4.397   6.871   2.930
 6092SOL    HW119175   4.321   6.807   2.933
 6092SOL    HW219176   4.430   6.879   2.836
 6093SOL     OW19177   1.929   3.579   1.975
 6093SOL    HW119178   1.992   3.556   2.049
 6093SOL    HW219179   1.916   3.678   1.971
 6094SOL     OW19180   2.452   6.774   1.680
 6094SOL    HW119181   2.437   6.873   1.683
 6094SOL    HW219182   2.365   6.727   1.669
 6095SOL     OW19183   5.223   4.055   0.269
 6095SOL    HW119184   5.193   3.964   0.243
 6095SOL    HW219185   5.231   4.060   0.369
 6096SOL     OW19186   6.590   6.427   3.623
 6096SOL    HW119187   6.576   6.338   3.579
 6096SOL    HW219188   6.680   6.431   3.664
 6097SOL     OW19189   2.364   6.492   2.356
 6097SOL    HW119190   2.330   6.432   2.428
 6097SOL    HW219191   2.451   6.533   2.385
 6098SOL     OW19192   2.145   1.897   5.120
 6098SOL    HW119193   2.064   1.857   5.162
 6098SOL    HW219194   2.218   1.905   5.188
 6099SOL     OW19195   6.261   6.379   0.095
 6099SOL    HW119196   6.340   6.383   0.033
 6099SOL    HW219197   6.226   6.472   0.110
 6100SOL     OW19198   4.968   5.667   0.192
 6100SOL    HW119199   5.036   5.692   0.262
 6100SOL    HW219200   4.944   5.571   0.202
 6101SOL     OW19201   6.616   2.661   4.249
 6101SOL    HW119202   6.675   2.724   4.300
 6101SOL    HW219203   6.521   2.679   4.272
 6102SOL     OW19204   3.510   6.512   3.587
 6102SOL    HW119205   3.519   6.413   3.594
 6102SOL    HW219206   3.479   6.550   3.673
 6103SOL     OW19207   6.482   1.959   2.280
 6103SOL    HW119208   6.560   1.897   2.266
 6103SOL    HW219209   6.482   2.029   2.209
 6104SOL     OW19210   6.184   0.558   5.232
 6104SOL    HW119211   6.110   0.519   5.287
 6104SOL    HW219212   6.254   0.489   5.216
 6105SOL     OW19213   2.999   6.645   6.052
 6105SOL    HW119214   2.986   6.559   6.101
 6105SOL    HW219215   3.014   6.719   6.118
 6106SOL     OW19216   1.871   4.033   6.419
 6106SOL    HW119217   1.776   4.000   6.422
 6106SOL    HW219218   1.930   3.959   6.385
 6107SOL     OW19219   3.337   5.451   4.121
 6107SOL    HW119220   3.404   5.384   4.153
 6107SOL    HW219221   3.385   5.528   4.079
 6108SOL     OW19222   1.860   3.029   2.054
 6108SOL    HW119223   1.812   3.116   2.055
 6108SOL    HW219224   1.900   3.011   2.144
 6109SOL     OW19225   5.319   2.482   5.218
 6109SOL    HW119226   5.412   2.449   5.232
 6109SOL    HW219227   5.254   2.419   5.261
 6110SOL     OW19228   3.962   4.197   0.599
 6110SOL    HW119229   3.929   4.105   0.619
 6110SOL    HW219230   4.061   4.194   0.583
 6111SOL     OW19231   2.127   4.099   2.285
 6111SOL    HW119232   2.114   4.015   2.232
 6111SOL    HW219233   2.038   4.134   2.314
 6112SOL     OW19234   4.255   0.646   2.685
 6112SOL    HW119235   4.156   0.637   2.684
 6112SOL    HW219236   4.296   0.567   2.638
 6113SOL     OW19237   2.603   1.152   6.082
 6113SOL    HW119238   2.514   1.197   6.074
 6113SOL    HW219239   2.613   1.115   6.175
 6114SOL     OW19240   5.082   5.760   0.983
 6114SOL    HW119241   5.062   5.762   1.081
 6114SOL    HW219242   5.168   5.710   0.968
 6115SOL     OW19243   5.251   6.964   4.190
 6115SOL    HW119244   5.246   0.039   4.165
 6115SOL    HW219245   5.323   6.920   4.137
 6116SOL     OW19246   3.733   1.066   6.136
 6116SOL    HW119247   3.773   1.137   6.078
 6116SOL    HW219248   3.647   1.034   6.096
 6117SOL     OW19249   1.573   1.281   4.176
 6117SOL    HW119250   1.592   1.206   4.112
 6117SOL    HW219251   1.640   1.279   4.250
 6118SOL     OW19252   6.868   0.959   2.472
 6118SOL    HW119253   6.807   1.028   2.512
 6118SOL    HW219254   6.814   0.889   2.426
 6119SOL     OW19255   1.329   3.664   6.743
 6119SOL    HW119256   1.297   3.667   6.648
 6119SOL    HW219257   1.255   3.694   6.803
 6120SOL     OW19258   3.866   6.579   4.711
 6120SOL    HW119259   3.820   6.511   4.654
 6120SOL    HW219260   3.892   6.658   4.655
 6121SOL     OW19261   1.008   3.475   5.379
 6121SOL    HW119262   1.099   3.455   5.417
 6121SOL    HW219263   1.015   3.549   5.313
 6122SOL     OW19264   4.471   5.680   1.000
 6122SOL    HW119265   4.543   5.665   0.933
 6122SOL    HW219266   4.387   5.706   0.953
 6123SOL     OW19267   5.624   0.001   6.958
 6123SOL    HW119268   5.542   6.968   6.941
 6123SOL    HW219269   5.703   6.962   6.967
 6124SOL     OW19270   2.533   6.943   5.941
 6124SOL    HW119271   2.472   6.918   6.017
 6124SOL    HW219272   2.585   6.862   5.913
 6125SOL     OW19273   1.894   5.174   0.860
 6125SOL    HW119274   1.892   5.240   0.935
 6125SOL    HW219275   1.834   5.205   0.786
 6126SOL     OW19276   1.303   0.021   4.455
 6126SOL    HW119277   1.350   6.956   4.442
 6126SOL    HW219278   1.355   0.077   4.520
 6127SOL     OW19279   3.616   0.136   0.887
 6127SOL    HW119280   3.581   0.071   0.955
 6127SOL    HW219281   3.652   0.217   0.934
 6128SOL     OW19282   5.958   4.029   0.692
 6128SOL    HW119283   6.048   4.070   0.675
 6128SOL    HW219284   5.899   4.047   0.614
 6129SOL     OW19285   6.508   3.237   3.575
 6129SOL    HW119286   6.556   3.175   3.637
 6129SOL    HW219287   6.558   3.324   3.571
 6130SOL     OW19288   6.394   2.613   3.802
 6130SOL    HW119289   6.460   2.560   3.856
 6130SOL    HW219290   6.442   2.663   3.731
 6131SOL     OW19291   0.334   1.399   4.886
 6131SOL    HW119292   0.257   1.391   4.824
 6131SOL    HW219293   0.326   1.330   4.958
 6132SOL     OW19294   4.873   2.567   6.740
 6132SOL    HW119295   4.790   2.562   6.683
 6132SOL    HW219296   4.890   2.661   6.767
 6133SOL     OW19297   1.540   2.730   1.866
 6133SOL    HW119298   1.482   2.648   1.874
 6133SOL    HW219299   1.632   2.709   1.899
 6134SOL     OW19300   3.731   4.220   6.521
 6134SOL    HW119301   3.728   4.136   6.467
 6134SOL    HW219302   3.811   4.274   6.493
 6135SOL     OW19303   0.368   0.842   1.686
 6135SOL    HW119304   0.415   0.930   1.692
 6135SOL    HW219305   0.351   0.806   1.778
 6136SOL     OW19306   0.926   2.595   2.069
 6136SOL    HW119307   0.872   2.535   2.010
 6136SOL    HW219308   1.012   2.619   2.023
 6137SOL     OW19309   6.522   2.499   3.200
 6137SOL    HW119310   6.616   2.499   3.167
 6137SOL    HW219311   6.463   2.454   3.132
 6138SOL     OW19312   3.627   6.565   3.183
 6138SOL    HW119313   3.623   6.632   3.257
 6138SOL    HW219314   3.654   6.477   3.219
 6139SOL     OW19315   1.040   0.093   6.237
 6139SOL    HW119316   1.131   0.133   6.244
 6139SOL    HW219317   0.978   0.160   6.195
 6140SOL     OW19318   0.414   6.357   1.589
 6140SOL    HW119319   0.366   6.412   1.521
 6140SOL    HW219320   0.511   6.380   1.588
 6141SOL     OW19321   6.555   6.497   6.346
 6141SOL    HW119322   6.574   6.514   6.250
 6141SOL    HW219323   6.469   6.446   6.355
 6142SOL     OW19324   1.201   6.302   0.213
 6142SOL    HW119325   1.237   6.387   0.175
 6142SOL    HW219326   1.276   6.251   0.256
 6143SOL     OW19327   6.639   3.818   1.319
 6143SOL    HW119328   6.549   3.841   1.282
 6143SOL    HW219329   6.663   3.885   1.390
 6144SOL     OW19330   5.598   4.667   2.855
 6144SOL    HW119331   5.515   4.691   2.905
 6144SOL    HW219332   5.658   4.614   2.914
 6145SOL     OW19333   5.175   5.038   2.977
 6145SOL    HW119334   5.107   5.106   3.005
 6145SOL    HW219335   5.171   4.960   3.039
 6146SOL     OW19336   3.008   5.671   3.605
 6146SOL    HW119337   2.982   5.690   3.700
 6146SOL    HW219338   2.926   5.666   3.548
 6147SOL     OW19339   1.900   2.541   4.614
 6147SOL    HW119340   1.922   2.465   4.554
 6147SOL    HW219341   1.979   2.602   4.621
 6148SOL     OW19342   5.932   6.674   3.895
 6148SOL    HW119343   6.024   6.670   3.934
 6148SOL    HW219344   5.891   6.583   3.896
 6149SOL     OW19345   3.004   6.148   0.656
 6149SOL    HW119346   2.999   6.076   0.725
 6149SOL    HW219347   2.936   6.132   0.585
 6150SOL     OW19348   4.459   5.741   6.959
 6150SOL    HW119349   4.537   5.679   6.963
 6150SOL    HW219350   4.470   5.814   0.004
 6151SOL     OW19351   5.765   4.129   6.704
 6151SOL    HW119352   5.731   4.215   6.667
 6151SOL    HW219353   5.797   4.071   6.630
 6152SOL     OW19354   5.949   5.047   4.645
 6152SOL    HW119355   6.007   5.001   4.577
 6152SOL    HW219356   5.896   5.119   4.599
 6153SOL     OW19357   5.091   4.616   1.320
 6153SOL    HW119358   5.170   4.660   1.363
 6153SOL    HW219359   5.007   4.659   1.353
 6154SOL     OW19360   6.152   2.058   2.425
 6154SOL    HW119361   6.085   2.014   2.366
 6154SOL    HW219362   6.137   2.030   2.520
 6155SOL     OW19363   1.310   1.941   4.072
 6155SOL    HW119364   1.342   2.030   4.041
 6155SOL    HW219365   1.322   1.934   4.171
 6156SOL     OW19366   4.150   4.692   1.332
 6156SOL    HW119367   4.193   4.613   1.290
 6156SOL    HW219368   4.052   4.674   1.346
 6157SOL     OW19369   0.275   0.507   5.030
 6157SOL    HW119370   0.270   0.450   5.113
 6157SOL    HW219371   0.183   0.533   5.003
 6158SOL     OW19372   3.814   1.846   5.682
 6158SOL    HW119373   3.841   1.801   5.597
 6158SOL    HW219374   3.815   1.779   5.757
 6159SOL     OW19375   5.009   2.831   2.266
 6159SOL    HW119376   5.047   2.871   2.350
 6159SOL    HW219377   5.073   2.763   2.230
 6160SOL     OW19378   5.122   1.400   6.469
 6160SOL    HW119379   5.026   1.373   6.481
 6160SOL    HW219380   5.126   1.494   6.437
 6161SOL     OW19381   4.907   1.332   4.991
 6161SOL    HW119382   4.811   1.324   4.966
 6161SOL    HW219383   4.928   1.428   5.013
 6162SOL     OW19384   1.007   6.071   3.501
 6162SOL    HW119385   0.994   5.992   3.561
 6162SOL    HW219386   1.001   6.041   3.406
 6163SOL     OW19387   5.946   6.860   0.982
 6163SOL    HW119388   5.964   6.934   1.047
 6163SOL    HW219389   5.945   6.773   1.031
 6164SOL     OW19390   4.098   3.339   1.827
 6164SOL    HW119391   4.042   3.293   1.896
 6164SOL    HW219392   4.078   3.437   1.828
 6165SOL     OW19393   4.865   1.209   0.205
 6165SOL    HW119394   4.877   1.234   0.109
 6165SOL    HW219395   4.824   1.118   0.212
 6166SOL     OW19396   5.352   1.481   6.268
 6166SOL    HW119397   5.328   1.544   6.195
 6166SOL    HW219398   5.452   1.474   6.276
 6167SOL     OW19399   1.262   5.031   3.687
 6167SOL    HW119400   1.176   5.067   3.651
 6167SOL    HW219401   1.264   4.932   3.678
 6168SOL     OW19402   0.871   4.293   1.795
 6168SOL    HW119403   0.822   4.323   1.714
 6168SOL    HW219404   0.849   4.198   1.816
 6169SOL     OW19405   1.353   2.201   1.123
 6169SOL    HW119406   1.445   2.170   1.099
 6169SOL    HW219407   1.354   2.300   1.138
 6170SOL     OW19408   0.644   4.365   6.134
 6170SOL    HW119409   0.627   4.423   6.213
 6170SOL    HW219410   0.742   4.342   6.130
 6171SOL     OW19411   1.049   2.832   0.860
 6171SOL    HW119412   0.977   2.838   0.791
 6171SOL    HW219413   1.058   2.738   0.892
 6172SOL     OW19414   1.736   2.812   2.572
 6172SOL    HW119415   1.641   2.826   2.544
 6172SOL    HW219416   1.747   2.841   2.667
 6173SOL     OW19417   6.757   5.557   1.648
 6173SOL    HW119418   6.685   5.603   1.701
 6173SOL    HW219419   6.731   5.462   1.631
 6174SOL     OW19420   5.314   5.301   2.730
 6174SOL    HW119421   5.400   5.252   2.721
 6174SOL    HW219422   5.244   5.257   2.674
 6175SOL     OW19423   4.348   0.449   3.686
 6175SOL    HW119424   4.422   0.396   3.729
 6175SOL    HW219425   4.323   0.525   3.746
 6176SOL     OW19426   5.112   4.080   6.332
 6176SOL    HW119427   5.092   4.114   6.240
 6176SOL    HW219428   5.115   3.981   6.330
 6177SOL     OW19429   5.830   1.333   1.025
 6177SOL    HW119430   5.772   1.411   1.000
 6177SOL    HW219431   5.853   1.338   1.122
 6178SOL     OW19432   4.855   4.754   2.199
 6178SOL    HW119433   4.899   4.829   2.150
 6178SOL    HW219434   4.820   4.788   2.287
 6179SOL     OW19435   6.381   4.815   2.504
 6179SOL    HW119436   6.320   4.749   2.461
 6179SOL    HW219437   6.332   4.864   2.576
 6180SOL     OW19438   3.622   4.201   0.657
 6180SOL    HW119439   3.703   4.256   0.678
 6180SOL    HW219440   3.549   4.261   0.623
 6181SOL     OW19441   4.372   6.774   0.782
 6181SOL    HW119442   4.287   6.725   0.798
 6181SOL    HW219443   4.387   6.783   0.683
 6182SOL     OW19444   5.159   3.484   5.610
 6182SOL    HW119445   5.201   3.512   5.524
 6182SOL    HW219446   5.170   3.556   5.679
 6183SOL     OW19447   1.199   2.585   3.397
 6183SOL    HW119448   1.151   2.657   3.347
 6183SOL    HW219449   1.190   2.498   3.348
 6184SOL     OW19450   2.630   6.894   6.466
 6184SOL    HW119451   2.622   6.844   6.380
 6184SOL    HW219452   2.539   6.903   6.508
 6185SOL     OW19453   0.633   3.650   5.951
 6185SOL    HW119454   0.630   3.557   5.988
 6185SOL    HW219455   0.656   3.646   5.853
 6186SOL     OW19456   0.710   0.401   0.749
 6186SOL    HW119457   0.655   0.389   0.667
 6186SOL    HW219458   0.678   0.482   0.799
 6187SOL     OW19459   5.084   4.312   3.974
 6187SOL    HW119460   4.999   4.340   4.020
 6187SOL    HW219461   5.161   4.361   4.014
 6188SOL     OW19462   2.580   1.443   6.825
 6188SOL    HW119463   2.507   1.403   6.770
 6188SOL    HW219464   2.612   1.376   6.891
 6189SOL     OW19465   4.455   4.637   2.747
 6189SOL    HW119466   4.543   4.672   2.777
 6189SOL    HW219467   4.436   4.669   2.654
 6190SOL     OW19468   1.052   4.233   5.514
 6190SOL    HW119469   1.048   4.142   5.472
 6190SOL    HW219470   1.138   4.277   5.488
 6191SOL     OW19471   3.020   1.784   6.986
 6191SOL    HW119472   3.107   1.813   6.948
 6191SOL    HW219473   2.953   1.858   6.977
 6192SOL     OW19474   3.326   2.403   5.719
 6192SOL    HW119475   3.251   2.342   5.745
 6192SOL    HW219476   3.317   2.427   5.622
 6193SOL     OW19477   4.568   0.216   1.719
 6193SOL    HW119478   4.643   0.280   1.740
 6193SOL    HW219479   4.594   0.159   1.641
 6194SOL     OW19480   1.434   0.366   1.550
 6194SOL    HW119481   1.358   0.405   1.500
 6194SOL    HW219482   1.456   0.276   1.512
 6195SOL     OW19483   4.311   5.931   5.339
 6195SOL    HW119484   4.275   6.024   5.347
 6195SOL    HW219485   4.301   5.899   5.245
 6196SOL     OW19486   5.410   3.032   1.718
 6196SOL    HW119487   5.385   3.002   1.810
 6196SOL    HW219488   5.509   3.049   1.714
 6197SOL     OW19489   3.763   5.078   0.759
 6197SOL    HW119490   3.811   5.046   0.840
 6197SOL    HW219491   3.691   5.142   0.785
 6198SOL     OW19492   4.046   6.888   1.453
 6198SOL    HW119493   4.137   6.850   1.441
 6198SOL    HW219494   4.038   6.975   1.403
 6199SOL     OW19495   0.980   1.504   0.396
 6199SOL    HW119496   0.926   1.525   0.478
 6199SOL    HW219497   0.950   1.416   0.358
 6200SOL     OW19498   0.910   0.998   5.559
 6200SOL    HW119499   0.881   1.071   5.622
 6200SOL    HW219500   1.003   0.971   5.580
 6201SOL     OW19501   0.433   4.015   5.334
 6201SOL    HW119502   0.370   4.088   5.308
 6201SOL    HW219503   0.402   3.975   5.421
 6202SOL     OW19504   4.079   1.357   2.212
 6202SOL    HW119505   3.999   1.396   2.166
 6202SOL    HW219506   4.124   1.292   2.151
 6203SOL     OW19507   6.570   5.475   1.976
 6203SOL    HW119508   6.542   5.520   1.892
 6203SOL    HW219509   6.501   5.492   2.047
 6204SOL     OW19510   0.014   5.258   4.214
 6204SOL    HW119511   0.080   5.196   4.258
 6204SOL    HW219512   0.052   5.291   4.127
 6205SOL     OW19513   6.299   5.504   0.558
 6205SOL    HW119514   6.273   5.409   0.543
 6205SOL    HW219515   6.276   5.530   0.652
 6206SOL     OW19516   5.338   2.082   3.265
 6206SOL    HW119517   5.378   2.020   3.197
 6206SOL    HW219518   5.257   2.126   3.227
 6207SOL     OW19519   1.244   5.248   5.314
 6207SOL    HW119520   1.150   5.274   5.293
 6207SOL    HW219521   1.286   5.318   5.372
 6208SOL     OW19522   5.412   2.774   5.847
 6208SOL    HW119523   5.381   2.805   5.757
 6208SOL    HW219524   5.480   2.837   5.882
 6209SOL     OW19525   3.854   6.170   6.831
 6209SOL    HW119526   3.800   6.159   6.748
 6209SOL    HW219527   3.932   6.231   6.813
 6210SOL     OW19528   5.516   3.687   4.033
 6210SOL    HW119529   5.582   3.615   4.055
 6210SOL    HW219530   5.452   3.654   3.963
 6211SOL     OW19531   2.975   6.217   6.013
 6211SOL    HW119532   2.946   6.129   6.050
 6211SOL    HW219533   3.064   6.241   6.052
 6212SOL     OW19534   2.387   4.809   4.532
 6212SOL    HW119535   2.446   4.795   4.452
 6212SOL    HW219536   2.394   4.730   4.593
 6213SOL     OW19537   6.452   0.698   0.339
 6213SOL    HW119538   6.415   0.773   0.283
 6213SOL    HW219539   6.521   0.735   0.401
 6214SOL     OW19540   4.564   5.385   3.895
 6214SOL    HW119541   4.649   5.427   3.926
 6214SOL    HW219542   4.498   5.457   3.871
 6215SOL     OW19543   4.438   2.086   6.904
 6215SOL    HW119544   4.340   2.105   6.908
 6215SOL    HW219545   4.485   2.140   6.973
 6216SOL     OW19546   6.802   1.367   2.467
 6216SOL    HW119547   6.800   1.340   2.371
 6216SOL    HW219548   6.897   1.371   2.498
 6217SOL     OW19549   0.796   3.563   2.178
 6217SOL    HW119550   0.809   3.659   2.202
 6217SOL    HW219551   0.796   3.507   2.261
 6218SOL     OW19552   4.010   6.622   6.616
 6218SOL    HW119553   3.950   6.586   6.545
 6218SOL    HW219554   4.081   6.678   6.573
 6219SOL     OW19555   1.569   2.053   4.429
 6219SOL    HW119556   1.568   2.054   4.529
 6219SOL    HW219557   1.531   2.139   4.394
 6220SOL     OW19558   2.563   1.139   4.642
 6220SOL    HW119559   2.533   1.060   4.695
 6220SOL    HW219560   2.587   1.214   4.704
 6221SOL     OW19561   5.703   6.860   0.340
 6221SOL    HW119562   5.684   6.778   0.286
 6221SOL    HW219563   5.789   6.848   0.390
 6222SOL     OW19564   1.504   6.440   1.453
 6222SOL    HW119565   1.601   6.419   1.447
 6222SOL    HW219566   1.464   6.443   1.362
 6223SOL     OW19567   1.653   4.587   3.675
 6223SOL    HW119568   1.583   4.546   3.735
 6223SOL    HW219569   1.610   4.617   3.590
 6224SOL     OW19570   3.600   1.555   5.773
 6224SOL    HW119571   3.623   1.623   5.844
 6224SOL    HW219572   3.520   1.587   5.722
 6225SOL     OW19573   4.144   3.271   6.339
 6225SOL    HW119574   4.227   3.267   6.283
 6225SOL    HW219575   4.156   3.213   6.419
 6226SOL     OW19576   0.414   1.762   5.381
 6226SOL    HW119577   0.354   1.725   5.451
 6226SOL    HW219578   0.473   1.689   5.346
 6227SOL     OW19579   3.618   5.350   5.392
 6227SOL    HW119580   3.610   5.257   5.356
 6227SOL    HW219581   3.711   5.384   5.377
 6228SOL     OW19582   0.992   3.493   2.007
 6228SOL    HW119583   0.917   3.517   2.069
 6228SOL    HW219584   0.992   3.394   1.991
 6229SOL     OW19585   0.952   1.899   3.923
 6229SOL    HW119586   0.965   1.997   3.908
 6229SOL    HW219587   1.010   1.847   3.861
 6230SOL     OW19588   0.782   2.054   4.137
 6230SOL    HW119589   0.864   2.099   4.172
 6230SOL    HW219590   0.782   1.958   4.167
 6231SOL     OW19591   6.364   6.589   0.454
 6231SOL    HW119592   6.381   6.534   0.372
 6231SOL    HW219593   6.334   6.529   0.528
 6232SOL     OW19594   6.245   1.403   0.792
 6232SOL    HW119595   6.314   1.342   0.832
 6232SOL    HW219596   6.286   1.492   0.774
 6233SOL     OW19597   6.744   1.968   1.773
 6233SOL    HW119598   6.685   1.961   1.853
 6233SOL    HW219599   6.828   1.915   1.788
 6234SOL     OW19600   6.924   0.754   5.388
 6234SOL    HW119601   6.958   0.662   5.409
 6234SOL    HW219602   6.929   0.770   5.290
 6235SOL     OW19603   0.092   0.014   1.136
 6235SOL    HW119604   0.004   6.990   1.141
 6235SOL    HW219605   0.115   0.030   1.040
 6236SOL     OW19606   0.917   4.358   1.264
 6236SOL    HW119607   0.943   4.262   1.272
 6236SOL    HW219608   0.834   4.374   1.318
 6237SOL     OW19609   4.148   0.537   6.277
 6237SOL    HW119610   4.186   0.568   6.365
 6237SOL    HW219611   4.221   0.538   6.208
 6238SOL     OW19612   4.366   5.344   2.492
 6238SOL    HW119613   4.345   5.350   2.590
 6238SOL    HW219614   4.343   5.252   2.459
 6239SOL     OW19615   3.536   0.735   1.504
 6239SOL    HW119616   3.496   0.749   1.595
 6239SOL    HW219617   3.611   0.800   1.491
 6240SOL     OW19618   2.197   3.765   5.692
 6240SOL    HW119619   2.228   3.860   5.695
 6240SOL    HW219620   2.121   3.756   5.627
 6241SOL     OW19621   3.209   0.546   1.837
 6241SOL    HW119622   3.130   0.594   1.798
 6241SOL    HW219623   3.217   0.570   1.934
 6242SOL     OW19624   3.927   0.659   4.062
 6242SOL    HW119625   4.024   0.659   4.089
 6242SOL    HW219626   3.880   0.583   4.108
 6243SOL     OW19627   6.741   6.612   5.339
 6243SOL    HW119628   6.823   6.584   5.390
 6243SOL    HW219629   6.676   6.654   5.402
 6244SOL     OW19630   5.620   2.759   3.037
 6244SOL    HW119631   5.596   2.669   3.000
 6244SOL    HW219632   5.588   2.830   2.974
 6245SOL     OW19633   1.797   3.541   0.404
 6245SOL    HW119634   1.781   3.474   0.476
 6245SOL    HW219635   1.721   3.539   0.339
 6246SOL     OW19636   1.418   2.119   5.866
 6246SOL    HW119637   1.425   2.129   5.766
 6246SOL    HW219638   1.454   2.201   5.910
 6247SOL     OW19639   0.469   5.992   4.076
 6247SOL    HW119640   0.448   5.984   3.978
 6247SOL    HW219641   0.388   5.968   4.129
 6248SOL     OW19642   3.511   3.979   6.796
 6248SOL    HW119643   3.505   4.079   6.793
 6248SOL    HW219644   3.518   3.949   6.891
 6249SOL     OW19645   0.064   3.728   0.375
 6249SOL    HW119646   0.023   3.818   0.360
 6249SOL    HW219647   0.129   3.733   0.451
 6250SOL     OW19648   6.617   0.364   0.685
 6250SOL    HW119649   6.609   0.334   0.590
 6250SOL    HW219650   6.631   0.463   0.687
 6251SOL     OW19651   4.091   5.911   5.605
 6251SOL    HW119652   4.145   5.910   5.521
 6251SOL    HW219653   4.073   5.817   5.633
 6252SOL     OW19654   2.133   6.190   5.458
 6252SOL    HW119655   2.081   6.273   5.440
 6252SOL    HW219656   2.223   6.197   5.415
 6253SOL     OW19657   2.513   5.118   4.143
 6253SOL    HW119658   2.514   5.210   4.104
 6253SOL    HW219659   2.594   5.068   4.113
 6254SOL     OW19660   5.476   1.524   1.527
 6254SOL    HW119661   5.380   1.519   1.498
 6254SOL    HW219662   5.533   1.546   1.448
 6255SOL     OW19663   2.881   0.776   0.601
 6255SOL    HW119664   2.962   0.740   0.555
 6255SOL    HW219665   2.841   0.849   0.546
 6256SOL     OW19666   3.675   5.067   1.808
 6256SOL    HW119667   3.640   5.058   1.715
 6256SOL    HW219668   3.602   5.095   1.869
 6257SOL     OW19669   4.783   2.380   0.584
 6257SOL    HW119670   4.805   2.437   0.505
 6257SOL    HW219671   4.713   2.313   0.558
 6258SOL     OW19672   2.766   0.854   3.202
 6258SOL    HW119673   2.738   0.780   3.140
 6258SOL    HW219674   2.860   0.880   3.181
 6259SOL     OW19675   1.380   2.350   6.866
 6259SOL    HW119676   1.285   2.331   6.841
 6259SOL    HW219677   1.392   2.449   6.876
 6260SOL     OW19678   3.207   5.778   0.481
 6260SOL    HW119679   3.233   5.790   0.386
 6260SOL    HW219680   3.257   5.700   0.519
 6261SOL     OW19681   4.082   1.211   6.806
 6261SOL    HW119682   4.090   1.197   6.905
 6261SOL    HW219683   4.145   1.150   6.759
 6262SOL     OW19684   2.478   5.971   1.775
 6262SOL    HW119685   2.492   6.070   1.764
 6262SOL    HW219686   2.450   5.952   1.869
 6263SOL     OW19687   6.975   6.794   4.342
 6263SOL    HW119688   7.011   6.706   4.310
 6263SOL    HW219689   0.007   6.868   4.302
 6264SOL     OW19690   2.119   0.505   1.605
 6264SOL    HW119691   2.153   0.508   1.699
 6264SOL    HW219692   2.154   0.584   1.555
 6265SOL     OW19693   3.524   3.912   0.044
 6265SOL    HW119694   3.540   3.814   0.058
 6265SOL    HW219695   3.611   3.961   0.050
 6266SOL     OW19696   4.380   0.803   3.520
 6266SOL    HW119697   4.287   0.795   3.554
 6266SOL    HW219698   4.439   0.839   3.592
 6267SOL     OW19699   2.631   6.874   5.255
 6267SOL    HW119700   2.576   6.833   5.182
 6267SOL    HW219701   2.642   6.972   5.237
 6268SOL     OW19702   2.437   0.735   2.690
 6268SOL    HW119703   2.368   0.663   2.681
 6268SOL    HW219704   2.436   0.772   2.783
 6269SOL     OW19705   0.170   6.803   1.993
 6269SOL    HW119706   0.203   6.709   1.980
 6269SOL    HW219707   0.186   6.856   1.909
 6270SOL     OW19708   0.973   0.748   6.216
 6270SOL    HW119709   1.036   0.745   6.138
 6270SOL    HW219710   1.009   0.811   6.285
 6271SOL     OW19711   5.751   2.664   6.202
 6271SOL    HW119712   5.806   2.606   6.263
 6271SOL    HW219713   5.661   2.624   6.190
 6272SOL     OW19714   0.512   2.610   0.342
 6272SOL    HW119715   0.603   2.569   0.346
 6272SOL    HW219716   0.443   2.538   0.346
 6273SOL     OW19717   0.499   6.425   2.403
 6273SOL    HW119718   0.410   6.450   2.367
 6273SOL    HW219719   0.521   6.331   2.378
 6274SOL     OW19720   3.358   6.601   5.453
 6274SOL    HW119721   3.329   6.510   5.422
 6274SOL    HW219722   3.444   6.625   5.409
 6275SOL     OW19723   2.407   6.346   6.547
 6275SOL    HW119724   2.363   6.436   6.549
 6275SOL    HW219725   2.460   6.333   6.631
 6276SOL     OW19726   2.123   4.761   3.714
 6276SOL    HW119727   2.189   4.759   3.790
 6276SOL    HW219728   2.030   4.753   3.751
 6277SOL     OW19729   4.893   3.368   0.798
 6277SOL    HW119730   4.843   3.289   0.835
 6277SOL    HW219731   4.892   3.363   0.698
 6278SOL     OW19732   5.059   0.136   4.842
 6278SOL    HW119733   5.049   0.143   4.942
 6278SOL    HW219734   4.982   0.182   4.798
 6279SOL     OW19735   3.479   6.277   6.874
 6279SOL    HW119736   3.537   6.333   6.933
 6279SOL    HW219737   3.492   6.303   6.778
 6280SOL     OW19738   0.507   1.298   6.543
 6280SOL    HW119739   0.412   1.283   6.570
 6280SOL    HW219740   0.560   1.214   6.560
 6281SOL     OW19741   0.210   5.098   4.354
 6281SOL    HW119742   0.169   5.141   4.435
 6281SOL    HW219743   0.282   5.035   4.383
 6282SOL     OW19744   6.722   5.042   5.901
 6282SOL    HW119745   6.628   5.058   5.871
 6282SOL    HW219746   6.721   4.981   5.981
 6283SOL     OW19747   7.020   3.740   4.557
 6283SOL    HW119748   6.954   3.814   4.550
 6283SOL    HW219749   7.014   3.697   4.647
 6284SOL     OW19750   1.504   4.898   5.080
 6284SOL    HW119751   1.563   4.922   5.157
 6284SOL    HW219752   1.435   4.969   5.067
 6285SOL     OW19753   6.999   3.488   4.422
 6285SOL    HW119754   6.968   3.404   4.467
 6285SOL    HW219755   0.042   3.535   4.482
 6286SOL     OW19756   6.276   2.242   4.121
 6286SOL    HW119757   6.233   2.332   4.116
 6286SOL    HW219758   6.374   2.250   4.106
 6287SOL     OW19759   3.564   5.007   4.872
 6287SOL    HW119760   3.543   5.071   4.798
 6287SOL    HW219761   3.479   4.975   4.913
 6288SOL     OW19762   4.754   4.517   2.329
 6288SOL    HW119763   4.821   4.445   2.347
 6288SOL    HW219764   4.795   4.586   2.269
 6289SOL     OW19765   2.652   4.616   0.157
 6289SOL    HW119766   2.588   4.539   0.165
 6289SOL    HW219767   2.716   4.598   0.082
 6290SOL     OW19768   5.935   4.976   6.103
 6290SOL    HW119769   5.951   5.064   6.149
 6290SOL    HW219770   5.973   4.980   6.011
 6291SOL     OW19771   3.803   3.390   4.017
 6291SOL    HW119772   3.797   3.444   3.933
 6291SOL    HW219773   3.713   3.350   4.037
 6292SOL     OW19774   1.655   2.035   4.731
 6292SOL    HW119775   1.751   2.059   4.746
 6292SOL    HW219776   1.640   1.939   4.755
 6293SOL     OW19777   4.563   1.546   0.933
 6293SOL    HW119778   4.467   1.543   0.961
 6293SOL    HW219779   4.589   1.459   0.891
 6294SOL     OW19780   3.851   0.080   4.081
 6294SOL    HW119781   3.867   0.096   3.984
 6294SOL    HW219782   3.922   0.126   4.135
 6295SOL     OW19783   5.296   4.524   4.767
 6295SOL    HW119784   5.293   4.464   4.688
 6295SOL    HW219785   5.363   4.489   4.833
 6296SOL     OW19786   6.574   5.633   5.548
 6296SOL    HW119787   6.538   5.654   5.639
 6296SOL    HW219788   6.588   5.718   5.498
 6297SOL     OW19789   5.441   0.544   5.122
 6297SOL    HW119790   5.515   0.476   5.120
 6297SOL    HW219791   5.371   0.519   5.055
 6298SOL     OW19792   1.427   3.507   0.153
 6298SOL    HW119793   1.446   3.590   0.204
 6298SOL    HW219794   1.464   3.515   0.061
 6299SOL     OW19795   6.245   2.288   2.056
 6299SOL    HW119796   6.225   2.330   1.968
 6299SOL    HW219797   6.277   2.194   2.042
 6300SOL     OW19798   6.820   1.665   6.946
 6300SOL    HW119799   6.900   1.712   6.908
 6300SOL    HW219800   6.812   1.574   6.904
 6301SOL     OW19801   3.121   6.994   6.824
 6301SOL    HW119802   3.176   0.055   6.834
 6301SOL    HW219803   3.057   7.005   6.749
 6302SOL     OW19804   1.510   1.416   3.934
 6302SOL    HW119805   1.534   1.359   4.013
 6302SOL    HW219806   1.576   1.491   3.925
 6303SOL     OW19807   0.971   0.829   4.719
 6303SOL    HW119808   1.037   0.763   4.683
 6303SOL    HW219809   0.905   0.783   4.778
 6304SOL     OW19810   3.046   0.809   1.247
 6304SOL    HW119811   2.962   0.856   1.221
 6304SOL    HW219812   3.117   0.830   1.180
 6305SOL     OW19813   6.189   6.725   0.898
 6305SOL    HW119814   6.249   6.765   0.829
 6305SOL    HW219815   6.120   6.792   0.926
 6306SOL     OW19816   0.053   4.180   4.551
 6306SOL    HW119817   0.045   4.268   4.598
 6306SOL    HW219818   0.123   4.125   4.595
 6307SOL     OW19819   3.568   4.024   4.582
 6307SOL    HW119820   3.497   4.094   4.589
 6307SOL    HW219821   3.651   4.056   4.629
 6308SOL     OW19822   2.114   2.549   4.369
 6308SOL    HW119823   2.060   2.537   4.286
 6308SOL    HW219824   2.140   2.645   4.379
 6309SOL     OW19825   6.275   5.490   4.625
 6309SOL    HW119826   6.337   5.541   4.566
 6309SOL    HW219827   6.235   5.414   4.574
 6310SOL     OW19828   1.959   5.902   2.718
 6310SOL    HW119829   2.024   5.835   2.681
 6310SOL    HW219830   1.962   5.985   2.662
 6311SOL     OW19831   5.552   1.597   5.961
 6311SOL    HW119832   5.646   1.618   5.988
 6311SOL    HW219833   5.529   1.647   5.878
 6312SOL     OW19834   0.231   6.471   5.405
 6312SOL    HW119835   0.276   6.436   5.487
 6312SOL    HW219836   0.295   6.527   5.352
 6313SOL     OW19837   0.097   6.104   3.856
 6313SOL    HW119838   0.187   6.101   3.813
 6313SOL    HW219839   0.095   6.038   3.931
 6314SOL     OW19840   4.076   6.946   1.864
 6314SOL    HW119841   4.032   6.986   1.784
 6314SOL    HW219842   4.058   7.004   1.944
 6315SOL     OW19843   2.812   1.962   5.510
 6315SOL    HW119844   2.762   2.037   5.553
 6315SOL    HW219845   2.879   1.999   5.446
 6316SOL     OW19846   5.620   2.147   6.603
 6316SOL    HW119847   5.601   2.157   6.701
 6316SOL    HW219848   5.537   2.168   6.551
 6317SOL     OW19849   4.972   4.985   1.568
 6317SOL    HW119850   4.980   5.031   1.480
 6317SOL    HW219851   5.047   5.014   1.627
 6318SOL     OW19852   4.398   0.203   5.672
 6318SOL    HW119853   4.463   0.210   5.596
 6318SOL    HW219854   4.446   0.216   5.758
 6319SOL     OW19855   6.191   1.576   5.008
 6319SOL    HW119856   6.268   1.633   5.037
 6319SOL    HW219857   6.221   1.511   4.938
 6320SOL     OW19858   6.366   6.340   5.223
 6320SOL    HW119859   6.390   6.249   5.189
 6320SOL    HW219860   6.338   6.398   5.147
 6321SOL     OW19861   4.474   3.623   0.942
 6321SOL    HW119862   4.523   3.587   1.022
 6321SOL    HW219863   4.485   3.559   0.866
 6322SOL     OW19864   1.504   2.382   0.883
 6322SOL    HW119865   1.510   2.308   0.816
 6322SOL    HW219866   1.414   2.382   0.925
 6323SOL     OW19867   2.268   1.782   1.501
 6323SOL    HW119868   2.279   1.835   1.418
 6323SOL    HW219869   2.349   1.724   1.514
 6324SOL     OW19870   5.054   1.176   0.624
 6324SOL    HW119871   5.039   1.260   0.676
 6324SOL    HW219872   4.968   1.127   0.614
 6325SOL     OW19873   1.748   3.249   2.470
 6325SOL    HW119874   1.650   3.265   2.463
 6325SOL    HW219875   1.797   3.334   2.450
 6326SOL     OW19876   5.134   5.109   1.385
 6326SOL    HW119877   5.212   5.051   1.406
 6326SOL    HW219878   5.117   5.108   1.286
 6327SOL     OW19879   0.104   1.381   4.629
 6327SOL    HW119880   0.122   1.479   4.635
 6327SOL    HW219881   0.006   1.365   4.634
 6328SOL     OW19882   3.868   3.945   0.246
 6328SOL    HW119883   3.840   3.989   0.161
 6328SOL    HW219884   3.818   3.986   0.322
 6329SOL     OW19885   1.763   2.738   3.401
 6329SOL    HW119886   1.665   2.729   3.420
 6329SOL    HW219887   1.787   2.835   3.396
 6330SOL     OW19888   5.747   0.079   1.771
 6330SOL    HW119889   5.737   0.171   1.809
 6330SOL    HW219890   5.844   0.061   1.754
 6331SOL     OW19891   6.465   2.938   5.275
 6331SOL    HW119892   6.408   2.968   5.351
 6331SOL    HW219893   6.516   2.856   5.303
 6332SOL     OW19894   0.354   2.733   0.991
 6332SOL    HW119895   0.381   2.828   0.974
 6332SOL    HW219896   0.385   2.675   0.916
 6333SOL     OW19897   4.543   6.675   5.331
 6333SOL    HW119898   4.499   6.760   5.359
 6333SOL    HW219899   4.479   6.621   5.275
 6334SOL     OW19900   2.660   1.256   2.387
 6334SOL    HW119901   2.757   1.250   2.414
 6334SOL    HW219902   2.614   1.324   2.445
 6335SOL     OW19903   4.436   1.099   0.682
 6335SOL    HW119904   4.394   1.159   0.750
 6335SOL    HW219905   4.409   1.005   0.699
 6336SOL     OW19906   1.606   2.335   0.007
 6336SOL    HW119907   1.596   2.294   0.098
 6336SOL    HW219908   1.569   2.273   6.961
 6337SOL     OW19909   4.706   5.048   5.290
 6337SOL    HW119910   4.607   5.054   5.293
 6337SOL    HW219911   4.737   4.979   5.356
 6338SOL     OW19912   3.224   2.060   3.812
 6338SOL    HW119913   3.132   2.090   3.838
 6338SOL    HW219914   3.292   2.110   3.864
 6339SOL     OW19915   0.893   3.989   3.660
 6339SOL    HW119916   0.918   3.922   3.730
 6339SOL    HW219917   0.879   3.943   3.573
 6340SOL     OW19918   1.682   5.138   1.651
 6340SOL    HW119919   1.781   5.122   1.654
 6340SOL    HW219920   1.658   5.212   1.714
 6341SOL     OW19921   6.549   4.080   4.421
 6341SOL    HW119922   6.611   4.131   4.480
 6341SOL    HW219923   6.456   4.117   4.431
 6342SOL     OW19924   2.678   0.903   1.467
 6342SOL    HW119925   2.754   0.893   1.403
 6342SOL    HW219926   2.592   0.910   1.415
 6343SOL     OW19927   4.379   1.094   6.085
 6343SOL    HW119928   4.321   1.151   6.027
 6343SOL    HW219929   4.401   1.144   6.168
 6344SOL     OW19930   4.950   2.077   4.413
 6344SOL    HW119931   4.910   2.119   4.494
 6344SOL    HW219932   5.044   2.109   4.402
 6345SOL     OW19933   5.914   2.448   2.635
 6345SOL    HW119934   5.939   2.398   2.552
 6345SOL    HW219935   5.833   2.504   2.616
 6346SOL     OW19936   6.721   5.492   4.097
 6346SOL    HW119937   6.789   5.524   4.163
 6346SOL    HW219938   6.765   5.434   4.029
 6347SOL     OW19939   1.898   0.600   0.999
 6347SOL    HW119940   1.994   0.625   0.986
 6347SOL    HW219941   1.843   0.683   1.006
 6348SOL     OW19942   1.625   2.835   5.883
 6348SOL    HW119943   1.686   2.763   5.916
 6348SOL    HW219944   1.668   2.925   5.896
 6349SOL     OW19945   1.715   0.341   1.192
 6349SOL    HW119946   1.794   0.342   1.254
 6349SOL    HW219947   1.709   0.251   1.149
 6350SOL     OW19948   0.569   5.456   4.103
 6350SOL    HW119949   0.564   5.435   4.006
 6350SOL    HW219950   0.511   5.393   4.154
 6351SOL     OW19951   5.862   3.031   3.758
 6351SOL    HW119952   5.823   3.106   3.811
 6351SOL    HW219953   5.962   3.038   3.760
 6352SOL     OW19954   3.073   6.709   4.813
 6352SOL    HW119955   3.009   6.708   4.736
 6352SOL    HW219956   3.021   6.704   4.899
 6353SOL     OW19957   0.822   6.396   6.362
 6353SOL    HW119958   0.764   6.473   6.388
 6353SOL    HW219959   0.895   6.384   6.428
 6354SOL     OW19960   2.669   5.131   3.640
 6354SOL    HW119961   2.699   5.220   3.605
 6354SOL    HW219962   2.747   5.071   3.650
 6355SOL     OW19963   2.231   5.232   6.536
 6355SOL    HW119964   2.294   5.195   6.604
 6355SOL    HW219965   2.241   5.331   6.532
 6356SOL     OW19966   4.628   6.165   1.875
 6356SOL    HW119967   4.673   6.142   1.962
 6356SOL    HW219968   4.622   6.083   1.818
 6357SOL     OW19969   6.327   3.423   2.813
 6357SOL    HW119970   6.310   3.399   2.718
 6357SOL    HW219971   6.357   3.519   2.818
 6358SOL     OW19972   6.900   2.576   6.696
 6358SOL    HW119973   6.958   2.576   6.615
 6358SOL    HW219974   6.813   2.532   6.675
 6359SOL     OW19975   6.214   0.682   0.676
 6359SOL    HW119976   6.289   0.745   0.699
 6359SOL    HW219977   6.137   0.734   0.639
 6360SOL     OW19978   1.169   4.177   5.182
 6360SOL    HW119979   1.248   4.232   5.210
 6360SOL    HW219980   1.088   4.235   5.175
 6361SOL     OW19981   1.417   6.794   0.909
 6361SOL    HW119982   1.472   6.794   0.826
 6361SOL    HW219983   1.432   6.708   0.958
 6362SOL     OW19984   0.546   5.559   0.137
 6362SOL    HW119985   0.530   5.524   0.045
 6362SOL    HW219986   0.556   5.658   0.134
 6363SOL     OW19987   2.158   5.590   3.604
 6363SOL    HW119988   2.247   5.585   3.649
 6363SOL    HW219989   2.088   5.610   3.671
 6364SOL     OW19990   2.468   1.536   5.751
 6364SOL    HW119991   2.518   1.621   5.735
 6364SOL    HW219992   2.369   1.555   5.751
 6365SOL     OW19993   5.300   0.214   4.395
 6365SOL    HW119994   5.305   0.266   4.310
 6365SOL    HW219995   5.391   0.212   4.438
 6366SOL     OW19996   0.709   5.592   5.180
 6366SOL    HW119997   0.632   5.548   5.227
 6366SOL    HW219998   0.790   5.590   5.239
 6367SOL     OW19999   4.071   1.527   4.140
 6367SOL    HW120000   4.072   1.597   4.211
 6367SOL    HW220001   4.164   1.503   4.115
 6368SOL     OW20002   3.634   5.033   3.762
 6368SOL    HW120003   3.664   4.996   3.674
 6368SOL    HW220004   3.534   5.036   3.764
 6369SOL     OW20005   2.564   0.040   4.615
 6369SOL    HW120006   2.497   0.072   4.549
 6369SOL    HW220007   2.554   0.092   4.700
 6370SOL     OW20008   0.047   3.041   3.319
 6370SOL    HW120009   0.112   3.091   3.376
 6370SOL    HW220010   6.983   3.090   3.316
 6371SOL     OW20011   5.493   5.238   2.997
 6371SOL    HW120012   5.421   5.276   2.939
 6371SOL    HW220013   5.500   5.293   3.081
 6372SOL     OW20014   1.997   1.294   1.085
 6372SOL    HW120015   1.987   1.338   1.175
 6372SOL    HW220016   2.082   1.243   1.082
 6373SOL     OW20017   4.393   4.746   2.135
 6373SOL    HW120018   4.350   4.724   2.048
 6373SOL    HW220019   4.450   4.669   2.165
 6374SOL     OW20020   4.020   3.159   2.901
 6374SOL    HW120021   4.107   3.115   2.922
 6374SOL    HW220022   4.032   3.221   2.824
 6375SOL     OW20023   0.219   2.005   3.195
 6375SOL    HW120024   0.310   2.026   3.233
 6375SOL    HW220025   0.219   2.022   3.097
 6376SOL     OW20026   5.076   2.250   5.672
 6376SOL    HW120027   5.125   2.336   5.659
 6376SOL    HW220028   5.141   2.174   5.672
 6377SOL     OW20029   0.318   1.214   5.073
 6377SOL    HW120030   0.261   1.132   5.069
 6377SOL    HW220031   0.302   1.262   5.159
 6378SOL     OW20032   4.743   4.491   3.741
 6378SOL    HW120033   4.798   4.408   3.730
 6378SOL    HW220034   4.648   4.470   3.720
 6379SOL     OW20035   1.587   4.346   5.078
 6379SOL    HW120036   1.674   4.388   5.052
 6379SOL    HW220037   1.524   4.348   4.999
 6380SOL     OW20038   0.394   1.576   5.098
 6380SOL    HW120039   0.494   1.569   5.101
 6380SOL    HW220040   0.359   1.516   5.026
 6381SOL     OW20041   3.813   2.864   1.326
 6381SOL    HW120042   3.773   2.862   1.234
 6381SOL    HW220043   3.896   2.920   1.325
 6382SOL     OW20044   3.006   1.499   0.815
 6382SOL    HW120045   3.052   1.573   0.765
 6382SOL    HW220046   3.002   1.417   0.758
 6383SOL     OW20047   2.299   2.791   2.908
 6383SOL    HW120048   2.239   2.868   2.885
 6383SOL    HW220049   2.357   2.817   2.986
 6384SOL     OW20050   6.254   3.952   2.989
 6384SOL    HW120051   6.334   3.996   2.948
 6384SOL    HW220052   6.283   3.876   3.047
 6385SOL     OW20053   0.029   3.644   3.465
 6385SOL    HW120054   6.960   3.657   3.505
 6385SOL    HW220055   0.098   3.671   3.532
 6386SOL     OW20056   2.416   3.622   6.404
 6386SOL    HW120057   2.458   3.560   6.338
 6386SOL    HW220058   2.480   3.696   6.425
 6387SOL     OW20059   6.691   2.137   6.163
 6387SOL    HW120060   6.652   2.092   6.244
 6387SOL    HW220061   6.654   2.094   6.080
 6388SOL     OW20062   4.163   6.605   1.818
 6388SOL    HW120063   4.159   6.604   1.918
 6388SOL    HW220064   4.239   6.662   1.788
 6389SOL     OW20065   6.971   5.944   1.586
 6389SOL    HW120066   6.931   5.863   1.542
 6389SOL    HW220067   7.006   6.006   1.516
 6390SOL     OW20068   0.566   0.717   5.867
 6390SOL    HW120069   0.626   0.739   5.944
 6390SOL    HW220070   0.471   0.735   5.893
 6391SOL     OW20071   1.609   0.114   5.917
 6391SOL    HW120072   1.662   0.055   5.856
 6391SOL    HW220073   1.648   0.206   5.916
 6392SOL     OW20074   2.851   5.598   2.890
 6392SOL    HW120075   2.938   5.626   2.849
 6392SOL    HW220076   2.795   5.679   2.907
 6393SOL     OW20077   0.434   6.127   1.712
 6393SOL    HW120078   0.354   6.069   1.698
 6393SOL    HW220079   0.419   6.217   1.671
 6394SOL     OW20080   2.222   5.313   0.908
 6394SOL    HW120081   2.282   5.278   0.836
 6394SOL    HW220082   2.263   5.293   0.997
 6395SOL     OW20083   0.070   2.562   1.307
 6395SOL    HW120084   0.108   2.647   1.272
 6395SOL    HW220085   0.141   2.491   1.307
 6396SOL     OW20086   5.363   3.409   6.922
 6396SOL    HW120087   5.301   3.370   6.990
 6396SOL    HW220088   5.311   3.440   6.843
 6397SOL     OW20089   5.644   1.547   1.323
 6397SOL    HW120090   5.717   1.498   1.276
 6397SOL    HW220091   5.671   1.643   1.335
 6398SOL     OW20092   3.010   6.727   1.661
 6398SOL    HW120093   3.021   6.700   1.756
 6398SOL    HW220094   2.914   6.719   1.635
 6399SOL     OW20095   2.010   0.005   6.878
 6399SOL    HW120096   1.920   6.990   6.855
 6399SOL    HW220097   2.069   6.954   6.910
 6400SOL     OW20098   2.689   5.511   2.286
 6400SOL    HW120099   2.602   5.493   2.332
 6400SOL    HW220100   2.740   5.426   2.276
 6401SOL     OW20101   5.477   6.171   3.537
 6401SOL    HW120102   5.529   6.135   3.460
 6401SOL    HW220103   5.385   6.132   3.537
 6402SOL     OW20104   2.658   2.458   3.189
 6402SOL    HW120105   2.567   2.422   3.169
 6402SOL    HW220106   2.679   2.532   3.125
 6403SOL     OW20107   6.737   5.180   6.213
 6403SOL    HW120108   6.655   5.228   6.245
 6403SOL    HW220109   6.771   5.223   6.130
 6404SOL     OW20110   3.974   0.647   2.559
 6404SOL    HW120111   3.962   0.744   2.539
 6404SOL    HW220112   3.985   0.596   2.474
 6405SOL     OW20113   3.571   0.396   4.020
 6405SOL    HW120114   3.483   0.443   4.027
 6405SOL    HW220115   3.559   0.307   3.977
 6406SOL     OW20116   0.556   3.106   2.891
 6406SOL    HW120117   0.596   3.141   2.976
 6406SOL    HW220118   0.467   3.064   2.912
 6407SOL     OW20119   2.471   6.868   3.791
 6407SOL    HW120120   2.542   6.815   3.838
 6407SOL    HW220121   2.408   6.906   3.858
 6408SOL     OW20122   5.319   1.291   0.504
 6408SOL    HW120123   5.253   1.292   0.429
 6408SOL    HW220124   5.274   1.262   0.588
 6409SOL     OW20125   6.252   4.415   3.777
 6409SOL    HW120126   6.318   4.490   3.789
 6409SOL    HW220127   6.249   4.360   3.861
 6410SOL     OW20128   2.101   1.449   6.331
 6410SOL    HW120129   2.077   1.525   6.390
 6410SOL    HW220130   2.109   1.482   6.236
 6411SOL     OW20131   0.618   3.057   3.400
 6411SOL    HW120132   0.717   3.046   3.415
 6411SOL    HW220133   0.584   2.979   3.347
 6412SOL     OW20134   1.419   2.198   4.656
 6412SOL    HW120135   1.505   2.162   4.692
 6412SOL    HW220136   1.419   2.298   4.663
 6413SOL     OW20137   3.966   4.861   3.525
 6413SOL    HW120138   3.996   4.837   3.617
 6413SOL    HW220139   3.866   4.866   3.523
 6414SOL     OW20140   6.168   0.757   0.074
 6414SOL    HW120141   6.232   0.680   0.071
 6414SOL    HW220142   6.081   0.727   0.114
 6415SOL     OW20143   1.978   3.266   2.965
 6415SOL    HW120144   1.985   3.359   2.929
 6415SOL    HW220145   1.920   3.211   2.906
 6416SOL     OW20146   1.213   0.878   6.624
 6416SOL    HW120147   1.140   0.945   6.614
 6416SOL    HW220148   1.269   0.902   6.704
 6417SOL     OW20149   5.649   4.939   1.022
 6417SOL    HW120150   5.734   4.975   1.061
 6417SOL    HW220151   5.668   4.892   0.936
 6418SOL     OW20152   4.877   3.767   2.316
 6418SOL    HW120153   4.814   3.808   2.383
 6418SOL    HW220154   4.938   3.838   2.281
 6419SOL     OW20155   1.432   4.811   3.230
 6419SOL    HW120156   1.462   4.742   3.164
 6419SOL    HW220157   1.433   4.901   3.186
 6420SOL     OW20158   2.558   6.204   4.164
 6420SOL    HW120159   2.546   6.126   4.103
 6420SOL    HW220160   2.500   6.280   4.133
 6421SOL     OW20161   4.902   6.942   2.703
 6421SOL    HW120162   5.002   6.955   2.703
 6421SOL    HW220163   4.865   6.980   2.618
 6422SOL     OW20164   6.596   0.733   5.108
 6422SOL    HW120165   6.534   0.658   5.081
 6422SOL    HW220166   6.599   0.738   5.208
 6423SOL     OW20167   5.190   5.286   3.200
 6423SOL    HW120168   5.120   5.215   3.201
 6423SOL    HW220169   5.199   5.322   3.107
 6424SOL     OW20170   0.086   4.947   5.377
 6424SOL    HW120171   0.080   4.848   5.382
 6424SOL    HW220172   0.182   4.975   5.375
 6425SOL     OW20173   6.555   6.151   2.984
 6425SOL    HW120174   6.615   6.231   2.994
 6425SOL    HW220175   6.472   6.178   2.935
 6426SOL     OW20176   1.057   5.027   3.338
 6426SOL    HW120177   1.068   5.066   3.429
 6426SOL    HW220178   1.108   4.941   3.332
 6427SOL     OW20179   3.354   4.173   4.647
 6427SOL    HW120180   3.289   4.108   4.608
 6427SOL    HW220181   3.307   4.236   4.708
 6428SOL     OW20182   5.791   3.560   6.351
 6428SOL    HW120183   5.758   3.594   6.439
 6428SOL    HW220184   5.720   3.504   6.308
 6429SOL     OW20185   0.490   1.794   5.676
 6429SOL    HW120186   0.470   1.872   5.617
 6429SOL    HW220187   0.409   1.772   5.732
 6430SOL     OW20188   5.985   1.188   3.485
 6430SOL    HW120189   6.009   1.219   3.577
 6430SOL    HW220190   5.958   1.091   3.488
 6431SOL     OW20191   4.576   6.404   3.896
 6431SOL    HW120192   4.669   6.416   3.929
 6431SOL    HW220193   4.573   6.330   3.829
 6432SOL     OW20194   4.628   4.511   6.215
 6432SOL    HW120195   4.583   4.582   6.268
 6432SOL    HW220196   4.686   4.553   6.145
 6433SOL     OW20197   1.461   5.589   5.827
 6433SOL    HW120198   1.392   5.553   5.889
 6433SOL    HW220199   1.551   5.583   5.871
 6434SOL     OW20200   2.394   5.528   6.217
 6434SOL    HW120201   2.401   5.593   6.293
 6434SOL    HW220202   2.475   5.469   6.217
 6435SOL     OW20203   5.074   6.449   0.995
 6435SOL    HW120204   4.977   6.463   0.976
 6435SOL    HW220205   5.109   6.377   0.935
 6436SOL     OW20206   1.237   2.768   2.870
 6436SOL    HW120207   1.197   2.688   2.914
 6436SOL    HW220208   1.301   2.813   2.932
 6437SOL     OW20209   2.492   1.237   0.510
 6437SOL    HW120210   2.449   1.148   0.497
 6437SOL    HW220211   2.422   1.308   0.511
 6438SOL     OW20212   6.719   4.150   5.371
 6438SOL    HW120213   6.774   4.067   5.378
 6438SOL    HW220214   6.627   4.127   5.338
 6439SOL     OW20215   5.575   1.401   1.882
 6439SOL    HW120216   5.648   1.379   1.947
 6439SOL    HW220217   5.595   1.355   1.795
 6440SOL     OW20218   2.244   1.723   6.137
 6440SOL    HW120219   2.332   1.681   6.160
 6440SOL    HW220220   2.212   1.777   6.215
 6441SOL     OW20221   6.905   6.950   2.060
 6441SOL    HW120222   6.974   6.891   2.019
 6441SOL    HW220223   6.943   0.020   2.071
 6442SOL     OW20224   2.659   1.294   4.179
 6442SOL    HW120225   2.682   1.361   4.250
 6442SOL    HW220226   2.616   1.342   4.102
 6443SOL     OW20227   3.775   2.202   5.193
 6443SOL    HW120228   3.723   2.130   5.240
 6443SOL    HW220229   3.777   2.183   5.095
 6444SOL     OW20230   5.242   3.483   4.794
 6444SOL    HW120231   5.326   3.538   4.795
 6444SOL    HW220232   5.229   3.445   4.703
 6445SOL     OW20233   3.671   3.111   4.806
 6445SOL    HW120234   3.745   3.062   4.760
 6445SOL    HW220235   3.583   3.078   4.771
 6446SOL     OW20236   1.092   1.286   0.082
 6446SOL    HW120237   1.188   1.259   0.075
 6446SOL    HW220238   1.078   1.372   0.034
 6447SOL     OW20239   5.671   4.960   3.606
 6447SOL    HW120240   5.699   4.883   3.549
 6447SOL    HW220241   5.577   4.947   3.638
 6448SOL     OW20242   4.488   5.859   1.847
 6448SOL    HW120243   4.394   5.859   1.883
 6448SOL    HW220244   4.486   5.843   1.748
 6449SOL     OW20245   3.487   6.182   1.127
 6449SOL    HW120246   3.577   6.140   1.113
 6449SOL    HW220247   3.442   6.193   1.038
 6450SOL     OW20248   1.038   4.103   1.239
 6450SOL    HW120249   1.093   4.021   1.251
 6450SOL    HW220250   1.092   4.172   1.191
 6451SOL     OW20251   1.995   0.520   5.074
 6451SOL    HW120252   1.926   0.454   5.103
 6451SOL    HW220253   2.084   0.474   5.070
 6452SOL     OW20254   4.554   5.223   2.958
 6452SOL    HW120255   4.528   5.220   3.055
 6452SOL    HW220256   4.556   5.318   2.927
 6453SOL     OW20257   2.545   6.309   2.103
 6453SOL    HW120258   2.554   6.321   2.201
 6453SOL    HW220259   2.614   6.244   2.071
 6454SOL     OW20260   0.742   2.360   3.254
 6454SOL    HW120261   0.802   2.406   3.320
 6454SOL    HW220262   0.651   2.402   3.257
 6455SOL     OW20263   6.910   3.545   4.143
 6455SOL    HW120264   6.850   3.467   4.122
 6455SOL    HW220265   6.958   3.527   4.230
 6456SOL     OW20266   1.282   1.337   3.635
 6456SOL    HW120267   1.207   1.399   3.612
 6456SOL    HW220268   1.251   1.242   3.625
 6457SOL     OW20269   5.221   1.548   1.418
 6457SOL    HW120270   5.150   1.545   1.347
 6457SOL    HW220271   5.301   1.597   1.384
 6458SOL     OW20272   1.151   5.741   4.606
 6458SOL    HW120273   1.080   5.783   4.663
 6458SOL    HW220274   1.229   5.803   4.599
 6459SOL     OW20275   6.307   2.899   1.272
 6459SOL    HW120276   6.211   2.926   1.267
 6459SOL    HW220277   6.363   2.963   1.219
 6460SOL     OW20278   5.652   6.198   6.268
 6460SOL    HW120279   5.613   6.190   6.176
 6460SOL    HW220280   5.700   6.286   6.277
 6461SOL     OW20281   2.102   4.376   6.681
 6461SOL    HW120282   2.146   4.362   6.770
 6461SOL    HW220283   2.106   4.292   6.628
 6462SOL     OW20284   2.128   2.932   4.221
 6462SOL    HW120285   2.160   2.875   4.297
 6462SOL    HW220286   2.169   2.900   4.136
 6463SOL     OW20287   5.921   2.468   0.105
 6463SOL    HW120288   5.930   2.430   0.013
 6463SOL    HW220289   5.954   2.563   0.106
 6464SOL     OW20290   1.466   4.900   4.556
 6464SOL    HW120291   1.419   4.939   4.636
 6464SOL    HW220292   1.437   4.806   4.543
 6465SOL     OW20293   6.970   2.930   2.694
 6465SOL    HW120294   6.909   2.908   2.618
 6465SOL    HW220295   6.938   2.883   2.777
 6466SOL     OW20296   0.683   0.973   6.069
 6466SOL    HW120297   0.665   1.022   6.154
 6466SOL    HW220298   0.692   0.875   6.088
 6467SOL     OW20299   4.173   1.183   0.075
 6467SOL    HW120300   4.094   1.123   0.063
 6467SOL    HW220301   4.254   1.127   0.095
 6468SOL     OW20302   2.873   6.995   0.596
 6468SOL    HW120303   2.922   6.917   0.634
 6468SOL    HW220304   2.938   0.037   0.555
 6469SOL     OW20305   4.209   1.941   3.654
 6469SOL    HW120306   4.228   1.929   3.557
 6469SOL    HW220307   4.230   2.035   3.681
 6470SOL     OW20308   5.845   2.643   0.802
 6470SOL    HW120309   5.799   2.597   0.878
 6470SOL    HW220310   5.778   2.687   0.743
 6471SOL     OW20311   0.063   6.420   5.734
 6471SOL    HW120312   0.091   6.512   5.707
 6471SOL    HW220313   6.986   6.413   5.731
 6472SOL     OW20314   0.146   5.785   1.904
 6472SOL    HW120315   0.071   5.740   1.856
 6472SOL    HW220316   0.148   5.754   1.999
 6473SOL     OW20317   2.653   1.838   4.455
 6473SOL    HW120318   2.613   1.929   4.443
 6473SOL    HW220319   2.740   1.846   4.503
 6474SOL     OW20320   2.968   4.879   6.280
 6474SOL    HW120321   2.913   4.954   6.315
 6474SOL    HW220322   3.061   4.912   6.260
 6475SOL     OW20323   6.239   5.033   3.457
 6475SOL    HW120324   6.147   5.045   3.420
 6475SOL    HW220325   6.306   5.072   3.395
 6476SOL     OW20326   4.562   3.904   0.950
 6476SOL    HW120327   4.552   3.941   1.042
 6476SOL    HW220328   4.528   3.811   0.948
 6477SOL     OW20329   6.004   4.542   0.583
 6477SOL    HW120330   5.992   4.641   0.597
 6477SOL    HW220331   6.035   4.500   0.669
 6478SOL     OW20332   3.218   0.533   2.153
 6478SOL    HW120333   3.199   0.444   2.111
 6478SOL    HW220334   3.181   0.534   2.246
 6479SOL     OW20335   4.201   5.094   3.503
 6479SOL    HW120336   4.268   5.046   3.559
 6479SOL    HW220337   4.222   5.078   3.406
 6480SOL     OW20338   3.147   0.948   0.022
 6480SOL    HW120339   3.094   0.890   0.085
 6480SOL    HW220340   3.104   0.946   6.954
 6481SOL     OW20341   3.492   2.025   2.070
 6481SOL    HW120342   3.395   2.047   2.065
 6481SOL    HW220343   3.545   2.090   2.016
 6482SOL     OW20344   6.252   0.762   5.618
 6482SOL    HW120345   6.337   0.736   5.665
 6482SOL    HW220346   6.272   0.782   5.522
 6483SOL     OW20347   1.024   0.023   2.800
 6483SOL    HW120348   0.961   0.067   2.736
 6483SOL    HW220349   1.068   6.967   2.755
 6484SOL     OW20350   3.387   0.192   1.167
 6484SOL    HW120351   3.291   0.180   1.192
 6484SOL    HW220352   3.431   0.102   1.161
 6485SOL     OW20353   2.078   5.155   3.687
 6485SOL    HW120354   2.128   5.082   3.640
 6485SOL    HW220355   1.995   5.117   3.729
 6486SOL     OW20356   1.304   4.065   3.219
 6486SOL    HW120357   1.229   4.070   3.284
 6486SOL    HW220358   1.348   4.154   3.210
 6487SOL     OW20359   0.553   6.526   4.951
 6487SOL    HW120360   0.601   6.522   4.864
 6487SOL    HW220361   0.560   6.438   4.997
 6488SOL     OW20362   3.670   5.772   4.506
 6488SOL    HW120363   3.652   5.691   4.451
 6488SOL    HW220364   3.701   5.744   4.597
 6489SOL     OW20365   2.677   2.938   6.138
 6489SOL    HW120366   2.605   2.900   6.197
 6489SOL    HW220367   2.640   2.959   6.048
 6490SOL     OW20368   3.813   1.166   6.715
 6490SOL    HW120369   3.898   1.185   6.764
 6490SOL    HW220370   3.738   1.217   6.757
 6491SOL     OW20371   3.926   0.933   1.067
 6491SOL    HW120372   3.964   0.849   1.106
 6491SOL    HW220373   3.992   0.974   1.004
 6492SOL     OW20374   4.348   4.810   6.583
 6492SOL    HW120375   4.359   4.907   6.602
 6492SOL    HW220376   4.346   4.759   6.669
 6493SOL     OW20377   1.714   4.174   5.274
 6493SOL    HW120378   1.708   4.229   5.357
 6493SOL    HW220379   1.681   4.228   5.197
 6494SOL     OW20380   6.705   0.427   3.453
 6494SOL    HW120381   6.620   0.479   3.446
 6494SOL    HW220382   6.702   0.349   3.390
 6495SOL     OW20383   6.236   0.244   4.405
 6495SOL    HW120384   6.301   0.216   4.475
 6495SOL    HW220385   6.143   0.233   4.440
 6496SOL     OW20386   6.077   1.400   3.335
 6496SOL    HW120387   6.128   1.465   3.390
 6496SOL    HW220388   6.047   1.324   3.393
 6497SOL     OW20389   0.614   1.445   0.927
 6497SOL    HW120390   0.596   1.543   0.925
 6497SOL    HW220391   0.684   1.425   0.995
 6498SOL     OW20392   1.569   3.507   3.795
 6498SOL    HW120393   1.668   3.513   3.806
 6498SOL    HW220394   1.529   3.465   3.876
 6499SOL     OW20395   5.684   3.173   5.687
 6499SOL    HW120396   5.616   3.126   5.630
 6499SOL    HW220397   5.774   3.131   5.674
 6500SOL     OW20398   6.581   3.554   4.827
 6500SOL    HW120399   6.610   3.472   4.778
 6500SOL    HW220400   6.491   3.583   4.794
 6501SOL     OW20401   7.017   1.607   6.655
 6501SOL    HW120402   0.044   1.556   6.726
 6501SOL    HW220403   7.002   1.549   6.576
 6502SOL     OW20404   6.853   2.458   2.343
 6502SOL    HW120405   6.854   2.365   2.380
 6502SOL    HW220406   6.836   2.523   2.417
 6503SOL     OW20407   5.350   1.060   3.229
 6503SOL    HW120408   5.386   0.969   3.212
 6503SOL    HW220409   5.352   1.079   3.327
 6504SOL     OW20410   4.365   6.530   5.185
 6504SOL    HW120411   4.410   6.463   5.124
 6504SOL    HW220412   4.278   6.493   5.216
 6505SOL     OW20413   5.346   5.879   6.692
 6505SOL    HW120414   5.273   5.927   6.741
 6505SOL    HW220415   5.314   5.790   6.661
 6506SOL     OW20416   6.773   2.564   2.583
 6506SOL    HW120417   6.779   2.664   2.593
 6506SOL    HW220418   6.833   2.521   2.650
 6507SOL     OW20419   1.288   5.484   6.017
 6507SOL    HW120420   1.192   5.472   5.993
 6507SOL    HW220421   1.303   5.455   6.111
 6508SOL     OW20422   1.878   1.099   2.347
 6508SOL    HW120423   1.975   1.115   2.365
 6508SOL    HW220424   1.859   1.001   2.355
 6509SOL     OW20425   3.347   1.074   4.959
 6509SOL    HW120426   3.381   1.055   4.867
 6509SOL    HW220427   3.386   1.008   5.023
 6510SOL     OW20428   6.141   5.667   0.394
 6510SOL    HW120429   6.206   5.653   0.469
 6510SOL    HW220430   6.147   5.590   0.331
 6511SOL     OW20431   4.019   1.322   4.922
 6511SOL    HW120432   4.004   1.381   5.001
 6511SOL    HW220433   3.959   1.351   4.847
 6512SOL     OW20434   3.989   0.082   2.071
 6512SOL    HW120435   3.961   0.172   2.039
 6512SOL    HW220436   3.968   0.073   2.169
 6513SOL     OW20437   2.386   4.867   2.970
 6513SOL    HW120438   2.331   4.913   3.041
 6513SOL    HW220439   2.469   4.920   2.953
 6514SOL     OW20440   5.943   1.290   3.748
 6514SOL    HW120441   5.854   1.246   3.735
 6514SOL    HW220442   5.993   1.242   3.820
 6515SOL     OW20443   0.300   5.253   4.046
 6515SOL    HW120444   0.285   5.330   4.109
 6515SOL    HW220445   0.300   5.168   4.098
 6516SOL     OW20446   1.048   3.779   1.966
 6516SOL    HW120447   1.082   3.798   2.058
 6516SOL    HW220448   1.028   3.681   1.957
 6517SOL     OW20449   6.379   1.110   1.601
 6517SOL    HW120450   6.289   1.123   1.559
 6517SOL    HW220451   6.377   1.146   1.695
 6518SOL     OW20452   0.330   1.008   0.179
 6518SOL    HW120453   0.341   1.046   0.270
 6518SOL    HW220454   0.234   0.981   0.166
 6519SOL     OW20455   1.028   2.759   3.303
 6519SOL    HW120456   0.970   2.832   3.340
 6519SOL    HW220457   1.034   2.768   3.204
 6520SOL     OW20458   5.910   5.482   1.435
 6520SOL    HW120459   6.001   5.441   1.426
 6520SOL    HW220460   5.852   5.421   1.488
 6521SOL     OW20461   1.973   2.789   3.907
 6521SOL    HW120462   1.917   2.852   3.962
 6521SOL    HW220463   1.915   2.746   3.837
 6522SOL     OW20464   3.396   5.284   5.540
 6522SOL    HW120465   3.458   5.326   5.474
 6522SOL    HW220466   3.310   5.260   5.495
 6523SOL     OW20467   3.285   1.881   6.888
 6523SOL    HW120468   3.308   1.955   6.825
 6523SOL    HW220469   3.354   1.877   6.961
 6524SOL     OW20470   3.584   3.538   1.537
 6524SOL    HW120471   3.664   3.517   1.593
 6524SOL    HW220472   3.613   3.560   1.444
 6525SOL     OW20473   2.402   5.232   2.994
 6525SOL    HW120474   2.385   5.165   3.067
 6525SOL    HW220475   2.339   5.309   3.004
 6526SOL     OW20476   2.075   6.995   6.603
 6526SOL    HW120477   2.011   6.954   6.667
 6526SOL    HW220478   2.101   0.064   6.636
 6527SOL     OW20479   0.707   1.823   5.475
 6527SOL    HW120480   0.726   1.783   5.385
 6527SOL    HW220481   0.633   1.773   5.519
 6528SOL     OW20482   6.715   0.823   5.585
 6528SOL    HW120483   6.769   0.767   5.522
 6528SOL    HW220484   6.764   0.908   5.605
 6529SOL     OW20485   1.802   0.622   2.786
 6529SOL    HW120486   1.890   0.622   2.740
 6529SOL    HW220487   1.800   0.547   2.853
 6530SOL     OW20488   6.863   2.647   0.734
 6530SOL    HW120489   6.887   2.595   0.815
 6530SOL    HW220490   6.795   2.597   0.680
 6531SOL     OW20491   5.004   2.944   5.265
 6531SOL    HW120492   5.085   2.886   5.272
 6531SOL    HW220493   5.024   3.034   5.305
 6532SOL     OW20494   6.422   0.945   1.225
 6532SOL    HW120495   6.466   0.892   1.152
 6532SOL    HW220496   6.490   1.002   1.271
 6533SOL     OW20497   4.349   0.044   0.761
 6533SOL    HW120498   4.387   0.081   0.677
 6533SOL    HW220499   4.363   6.967   0.764
 6534SOL     OW20500   4.330   4.840   1.471
 6534SOL    HW120501   4.261   4.776   1.437
 6534SOL    HW220502   4.396   4.790   1.528
 6535SOL     OW20503   6.065   3.927   4.522
 6535SOL    HW120504   6.012   3.896   4.601
 6535SOL    HW220505   6.160   3.900   4.531
 6536SOL     OW20506   0.664   1.056   5.821
 6536SOL    HW120507   0.671   1.021   5.914
 6536SOL    HW220508   0.743   1.114   5.801
 6537SOL     OW20509   6.755   5.327   6.744
 6537SOL    HW120510   6.753   5.398   6.815
 6537SOL    HW220511   6.706   5.360   6.663
 6538SOL     OW20512   2.449   3.938   6.197
 6538SOL    HW120513   2.414   3.863   6.142
 6538SOL    HW220514   2.539   3.914   6.233
 6539SOL     OW20515   4.194   0.816   6.413
 6539SOL    HW120516   4.294   0.819   6.404
 6539SOL    HW220517   4.154   0.895   6.367
 6540SOL     OW20518   4.447   1.933   5.662
 6540SOL    HW120519   4.462   1.981   5.575
 6540SOL    HW220520   4.450   1.999   5.737
 6541SOL     OW20521   4.273   2.304   4.826
 6541SOL    HW120522   4.190   2.281   4.776
 6541SOL    HW220523   4.255   2.381   4.887
 6542SOL     OW20524   6.580   3.036   4.429
 6542SOL    HW120525   6.626   2.952   4.399
 6542SOL    HW220526   6.512   3.063   4.361
 6543SOL     OW20527   5.053   2.667   6.053
 6543SOL    HW120528   4.980   2.643   5.989
 6543SOL    HW220529   5.023   2.648   6.146
 6544SOL     OW20530   1.187   6.041   3.013
 6544SOL    HW120531   1.239   6.018   2.931
 6544SOL    HW220532   1.112   6.103   2.989
 6545SOL     OW20533   4.296   1.598   0.270
 6545SOL    HW120534   4.204   1.629   0.251
 6545SOL    HW220535   4.337   1.560   0.187
 6546SOL     OW20536   3.235   4.324   0.157
 6546SOL    HW120537   3.217   4.245   0.098
 6546SOL    HW220538   3.321   4.310   0.205
 6547SOL     OW20539   4.720   1.101   5.871
 6547SOL    HW120540   4.728   1.015   5.920
 6547SOL    HW220541   4.705   1.175   5.937
 6548SOL     OW20542   0.712   4.260   0.727
 6548SOL    HW120543   0.803   4.230   0.756
 6548SOL    HW220544   0.720   4.332   0.659
 6549SOL     OW20545   5.245   0.968   1.402
 6549SOL    HW120546   5.308   0.901   1.440
 6549SOL    HW220547   5.236   1.045   1.465
 6550SOL     OW20548   6.974   6.428   3.375
 6550SOL    HW120549   6.911   6.503   3.360
 6550SOL    HW220550   6.937   6.344   3.334
 6551SOL     OW20551   2.082   4.671   2.581
 6551SOL    HW120552   2.064   4.725   2.663
 6551SOL    HW220553   2.021   4.592   2.579
 6552SOL     OW20554   1.786   6.830   0.164
 6552SOL    HW120555   1.885   6.816   0.169
 6552SOL    HW220556   1.766   6.927   0.181
 6553SOL     OW20557   0.167   2.031   3.488
 6553SOL    HW120558   0.259   1.993   3.486
 6553SOL    HW220559   0.172   2.131   3.485
 6554SOL     OW20560   0.645   0.373   4.654
 6554SOL    HW120561   0.646   0.278   4.687
 6554SOL    HW220562   0.582   0.381   4.577
 6555SOL     OW20563   6.060   1.718   3.101
 6555SOL    HW120564   6.030   1.806   3.063
 6555SOL    HW220565   6.110   1.734   3.186
 6556SOL     OW20566   5.177   4.659   4.132
 6556SOL    HW120567   5.083   4.673   4.100
 6556SOL    HW220568   5.190   4.562   4.155
 6557SOL     OW20569   3.290   6.662   2.705
 6557SOL    HW120570   3.328   6.712   2.628
 6557SOL    HW220571   3.360   6.650   2.776
 6558SOL     OW20572   6.926   5.237   6.930
 6558SOL    HW120573   6.878   5.152   6.953
 6558SOL    HW220574   6.875   5.285   6.858
 6559SOL     OW20575   0.440   3.067   6.352
 6559SOL    HW120576   0.483   3.042   6.439
 6559SOL    HW220577   0.415   2.985   6.302
 6560SOL     OW20578   4.499   4.977   1.287
 6560SOL    HW120579   4.433   4.926   1.342
 6560SOL    HW220580   4.452   5.047   1.235
 6561SOL     OW20581   3.408   4.002   1.402
 6561SOL    HW120582   3.498   4.021   1.439
 6561SOL    HW220583   3.414   3.928   1.335
 6562SOL     OW20584   5.980   3.278   0.860
 6562SOL    HW120585   5.957   3.283   0.763
 6562SOL    HW220586   5.930   3.348   0.910
 6563SOL     OW20587   5.590   6.416   6.941
 6563SOL    HW120588   5.548   6.499   6.977
 6563SOL    HW220589   5.555   6.397   6.849
 6564SOL     OW20590   0.004   4.164   2.954
 6564SOL    HW120591   7.005   4.068   2.939
 6564SOL    HW220592   6.957   4.204   3.015
 6565SOL     OW20593   5.230   1.785   3.440
 6565SOL    HW120594   5.194   1.865   3.393
 6565SOL    HW220595   5.184   1.703   3.406
 6566SOL     OW20596   3.836   6.405   2.448
 6566SOL    HW120597   3.778   6.477   2.486
 6566SOL    HW220598   3.878   6.437   2.363
 6567SOL     OW20599   4.365   1.011   3.068
 6567SOL    HW120600   4.395   1.085   3.007
 6567SOL    HW220601   4.355   0.927   3.016
 6568SOL     OW20602   3.152   0.789   3.276
 6568SOL    HW120603   3.247   0.820   3.276
 6568SOL    HW220604   3.129   0.753   3.367
 6569SOL     OW20605   2.881   3.609   0.022
 6569SOL    HW120606   2.797   3.576   7.002
 6569SOL    HW220607   2.946   3.635   6.973
 6570SOL     OW20608   3.969   0.504   2.326
 6570SOL    HW120609   3.880   0.525   2.285
 6570SOL    HW220610   4.039   0.560   2.283
 6571SOL     OW20611   3.072   5.469   1.586
 6571SOL    HW120612   3.131   5.485   1.508
 6571SOL    HW220613   3.128   5.456   1.668
 6572SOL     OW20614   6.438   4.815   5.626
 6572SOL    HW120615   6.351   4.813   5.674
 6572SOL    HW220616   6.425   4.785   5.532
 6573SOL     OW20617   1.739   1.970   2.105
 6573SOL    HW120618   1.769   1.877   2.128
 6573SOL    HW220619   1.656   1.992   2.156
 6574SOL     OW20620   3.247   5.739   2.351
 6574SOL    HW120621   3.331   5.754   2.298
 6574SOL    HW220622   3.260   5.663   2.414
 6575SOL     OW20623   0.593   6.899   3.287
 6575SOL    HW120624   0.629   6.879   3.196
 6575SOL    HW220625   0.493   6.897   3.284
 6576SOL     OW20626   2.211   6.218   6.724
 6576SOL    HW120627   2.264   6.283   6.668
 6576SOL    HW220628   2.141   6.175   6.667
 6577SOL     OW20629   0.733   1.250   4.356
 6577SOL    HW120630   0.656   1.216   4.302
 6577SOL    HW220631   0.819   1.222   4.314
 6578SOL     OW20632   1.141   5.534   3.757
 6578SOL    HW120633   1.155   5.490   3.668
 6578SOL    HW220634   1.045   5.560   3.767
 6579SOL     OW20635   6.626   3.301   4.691
 6579SOL    HW120636   6.720   3.266   4.686
 6579SOL    HW220637   6.589   3.311   4.598
 6580SOL     OW20638   0.920   2.530   1.069
 6580SOL    HW120639   0.897   2.438   1.037
 6580SOL    HW220640   0.863   2.552   1.148
 6581SOL     OW20641   3.027   0.733   6.756
 6581SOL    HW120642   3.095   0.800   6.724
 6581SOL    HW220643   2.944   0.741   6.701
 6582SOL     OW20644   1.532   1.275   2.645
 6582SOL    HW120645   1.546   1.348   2.577
 6582SOL    HW220646   1.620   1.232   2.665
 6583SOL     OW20647   4.210   1.213   5.104
 6583SOL    HW120648   4.179   1.246   5.193
 6583SOL    HW220649   4.154   1.254   5.032
 6584SOL     OW20650   4.534   2.758   1.159
 6584SOL    HW120651   4.520   2.688   1.089
 6584SOL    HW220652   4.451   2.766   1.214
 6585SOL     OW20653   5.810   6.789   7.016
 6585SOL    HW120654   5.871   6.749   6.948
 6585SOL    HW220655   5.777   6.717   0.055
 6586SOL     OW20656   6.946   1.251   4.931
 6586SOL    HW120657   6.926   1.349   4.935
 6586SOL    HW220658   0.013   1.238   4.889
 6587SOL     OW20659   1.718   6.230   5.085
 6587SOL    HW120660   1.643   6.292   5.107
 6587SOL    HW220661   1.764   6.202   5.170
 6588SOL     OW20662   0.981   3.322   1.342
 6588SOL    HW120663   1.033   3.396   1.385
 6588SOL    HW220664   0.883   3.336   1.360
 6589SOL     OW20665   5.164   0.992   0.338
 6589SOL    HW120666   5.142   1.088   0.351
 6589SOL    HW220667   5.091   0.946   0.287
 6590SOL     OW20668   1.051   1.267   6.174
 6590SOL    HW120669   1.035   1.219   6.087
 6590SOL    HW220670   0.987   1.233   6.243
 6591SOL     OW20671   5.824   5.527   2.755
 6591SOL    HW120672   5.857   5.621   2.750
 6591SOL    HW220673   5.731   5.522   2.720
 6592SOL     OW20674   5.493   0.055   3.618
 6592SOL    HW120675   5.395   0.065   3.598
 6592SOL    HW220676   5.532   7.010   3.555
 6593SOL     OW20677   2.091   2.099   2.346
 6593SOL    HW120678   2.044   2.122   2.431
 6593SOL    HW220679   2.054   2.155   2.271
 6594SOL     OW20680   3.693   1.740   0.280
 6594SOL    HW120681   3.717   1.740   0.183
 6594SOL    HW220682   3.668   1.647   0.308
 6595SOL     OW20683   0.889   3.684   6.445
 6595SOL    HW120684   0.884   3.648   6.538
 6595SOL    HW220685   0.848   3.775   6.444
 6596SOL     OW20686   3.489   6.144   4.572
 6596SOL    HW120687   3.411   6.162   4.632
 6596SOL    HW220688   3.517   6.228   4.526
 6597SOL     OW20689   1.590   5.310   1.825
 6597SOL    HW120690   1.568   5.405   1.805
 6597SOL    HW220691   1.551   5.284   1.913
 6598SOL     OW20692   1.465   5.886   4.225
 6598SOL    HW120693   1.380   5.928   4.258
 6598SOL    HW220694   1.445   5.797   4.185
 6599SOL     OW20695   4.811   6.473   6.286
 6599SOL    HW120696   4.845   6.485   6.379
 6599SOL    HW220697   4.857   6.394   6.244
 6600SOL     OW20698   4.806   4.995   5.006
 6600SOL    HW120699   4.746   5.030   5.078
 6600SOL    HW220700   4.761   5.007   4.917
 6601SOL     OW20701   1.336   2.109   5.067
 6601SOL    HW120702   1.308   2.185   5.009
 6601SOL    HW220703   1.271   2.099   5.142
 6602SOL     OW20704   1.465   0.950   1.801
 6602SOL    HW120705   1.505   0.891   1.872
 6602SOL    HW220706   1.509   0.930   1.713
 6603SOL     OW20707   7.002   2.784   3.964
 6603SOL    HW120708   0.051   2.839   4.008
 6603SOL    HW220709   6.916   2.835   3.965
 6604SOL     OW20710   2.004   0.323   0.560
 6604SOL    HW120711   2.020   0.240   0.613
 6604SOL    HW220712   2.016   0.304   0.463
 6605SOL     OW20713   5.409   4.217   1.948
 6605SOL    HW120714   5.492   4.187   1.996
 6605SOL    HW220715   5.371   4.140   1.897
 6606SOL     OW20716   0.176   6.222   1.875
 6606SOL    HW120717   0.126   6.151   1.924
 6606SOL    HW220718   0.164   6.209   1.776
 6607SOL     OW20719   1.876   3.800   2.367
 6607SOL    HW120720   1.803   3.782   2.301
 6607SOL    HW220721   1.962   3.812   2.317
 6608SOL     OW20722   6.025   6.308   1.294
 6608SOL    HW120723   5.975   6.383   1.336
 6608SOL    HW220724   6.119   6.337   1.275
 6609SOL     OW20725   4.760   0.593   6.187
 6609SOL    HW120726   4.676   0.574   6.237
 6609SOL    HW220727   4.837   0.549   6.233
 6610SOL     OW20728   2.834   6.776   6.700
 6610SOL    HW120729   2.766   6.705   6.718
 6610SOL    HW220730   2.823   6.810   6.606
 6611SOL     OW20731   4.875   2.562   3.841
 6611SOL    HW120732   4.807   2.612   3.894
 6611SOL    HW220733   4.830   2.508   3.770
 6612SOL     OW20734   5.784   2.323   5.754
 6612SOL    HW120735   5.829   2.381   5.822
 6612SOL    HW220736   5.709   2.274   5.797
 6613SOL     OW20737   6.308   6.680   5.554
 6613SOL    HW120738   6.292   6.741   5.631
 6613SOL    HW220739   6.328   6.735   5.472
 6614SOL     OW20740   5.056   6.231   0.551
 6614SOL    HW120741   4.963   6.196   0.562
 6614SOL    HW220742   5.055   6.311   0.491
 6615SOL     OW20743   1.546   5.826   2.091
 6615SOL    HW120744   1.490   5.835   2.009
 6615SOL    HW220745   1.487   5.814   2.171
 6616SOL     OW20746   4.841   0.850   6.181
 6616SOL    HW120747   4.830   0.751   6.180
 6616SOL    HW220748   4.753   0.893   6.158
 6617SOL     OW20749   4.588   4.953   3.056
 6617SOL    HW120750   4.501   4.963   3.008
 6617SOL    HW220751   4.663   4.973   2.992
 6618SOL     OW20752   0.471   2.573   2.635
 6618SOL    HW120753   0.479   2.494   2.574
 6618SOL    HW220754   0.542   2.640   2.615
 6619SOL     OW20755   6.183   6.492   3.745
 6619SOL    HW120756   6.210   6.547   3.823
 6619SOL    HW220757   6.152   6.402   3.777
 6620SOL     OW20758   2.004   2.727   5.377
 6620SOL    HW120759   2.062   2.780   5.439
 6620SOL    HW220760   2.042   2.635   5.367
 6621SOL     OW20761   2.945   3.007   6.096
 6621SOL    HW120762   2.852   2.980   6.122
 6621SOL    HW220763   2.943   3.096   6.052
 6622SOL     OW20764   5.969   6.620   1.108
 6622SOL    HW120765   6.065   6.591   1.115
 6622SOL    HW220766   5.929   6.621   1.200
 6623SOL     OW20767   2.824   3.287   5.741
 6623SOL    HW120768   2.827   3.339   5.826
 6623SOL    HW220769   2.833   3.350   5.664
 6624SOL     OW20770   0.026   4.996   5.948
 6624SOL    HW120771   6.950   5.006   5.931
 6624SOL    HW220772   0.056   5.066   6.013
 6625SOL     OW20773   5.387   2.026   5.391
 6625SOL    HW120774   5.374   2.121   5.419
 6625SOL    HW220775   5.485   2.002   5.396
 6626SOL     OW20776   4.384   5.028   5.023
 6626SOL    HW120777   4.429   5.093   5.085
 6626SOL    HW220778   4.330   4.964   5.077
 6627SOL     OW20779   2.248   6.486   4.837
 6627SOL    HW120780   2.170   6.549   4.838
 6627SOL    HW220781   2.230   6.410   4.899
 6628SOL     OW20782   4.667   5.037   4.767
 6628SOL    HW120783   4.609   4.959   4.744
 6628SOL    HW220784   4.715   5.068   4.684
 6629SOL     OW20785   4.502   6.090   6.840
 6629SOL    HW120786   4.485   6.006   6.891
 6629SOL    HW220787   4.597   6.118   6.853
 6630SOL     OW20788   4.368   1.811   1.638
 6630SOL    HW120789   4.401   1.797   1.731
 6630SOL    HW220790   4.426   1.877   1.591
 6631SOL     OW20791   2.288   5.179   3.399
 6631SOL    HW120792   2.246   5.107   3.454
 6631SOL    HW220793   2.234   5.262   3.406
 6632SOL     OW20794   0.172   0.142   1.345
 6632SOL    HW120795   0.135   0.102   1.261
 6632SOL    HW220796   0.265   0.173   1.330
 6633SOL     OW20797   1.256   4.637   6.400
 6633SOL    HW120798   1.305   4.680   6.477
 6633SOL    HW220799   1.300   4.663   6.314
 6634SOL     OW20800   5.257   2.324   4.625
 6634SOL    HW120801   5.320   2.398   4.603
 6634SOL    HW220802   5.166   2.361   4.645
 6635SOL     OW20803   4.789   5.010   2.824
 6635SOL    HW120804   4.865   5.015   2.760
 6635SOL    HW220805   4.723   5.083   2.804
 6636SOL     OW20806   4.776   1.992   6.105
 6636SOL    HW120807   4.812   1.944   6.025
 6636SOL    HW220808   4.677   1.979   6.110
 6637SOL     OW20809   1.264   0.046   7.019
 6637SOL    HW120810   1.171   0.043   0.033
 6637SOL    HW220811   1.291   6.977   6.988
 6638SOL     OW20812   3.251   3.812   3.702
 6638SOL    HW120813   3.183   3.762   3.647
 6638SOL    HW220814   3.279   3.894   3.654
 6639SOL     OW20815   5.473   5.106   6.306
 6639SOL    HW120816   5.443   5.105   6.211
 6639SOL    HW220817   5.509   5.016   6.331
 6640SOL     OW20818   1.353   1.800   4.996
 6640SOL    HW120819   1.341   1.897   5.016
 6640SOL    HW220820   1.317   1.780   4.905
 6641SOL     OW20821   2.075   2.304   6.295
 6641SOL    HW120822   2.052   2.214   6.330
 6641SOL    HW220823   2.141   2.296   6.220
 6642SOL     OW20824   2.123   5.673   6.524
 6642SOL    HW120825   2.203   5.628   6.564
 6642SOL    HW220826   2.150   5.719   6.439
 6643SOL     OW20827   6.172   5.067   0.096
 6643SOL    HW120828   6.171   5.016   0.010
 6643SOL    HW220829   6.175   5.165   0.077
 6644SOL     OW20830   2.487   5.478   1.741
 6644SOL    HW120831   2.575   5.503   1.703
 6644SOL    HW220832   2.499   5.409   1.812
 6645SOL     OW20833   6.238   4.932   0.321
 6645SOL    HW120834   6.202   4.980   0.240
 6645SOL    HW220835   6.338   4.940   0.322
 6646SOL     OW20836   4.049   0.621   4.680
 6646SOL    HW120837   4.147   0.616   4.659
 6646SOL    HW220838   4.003   0.673   4.609
 6647SOL     OW20839   4.786   1.096   1.452
 6647SOL    HW120840   4.850   1.159   1.495
 6647SOL    HW220841   4.721   1.062   1.520
 6648SOL     OW20842   4.375   6.506   3.596
 6648SOL    HW120843   4.444   6.453   3.646
 6648SOL    HW220844   4.335   6.574   3.657
 6649SOL     OW20845   5.284   0.982   6.615
 6649SOL    HW120846   5.363   0.975   6.554
 6649SOL    HW220847   5.304   1.048   6.688
 6650SOL     OW20848   4.004   1.509   5.198
 6650SOL    HW120849   3.946   1.588   5.221
 6650SOL    HW220850   4.072   1.537   5.130
 6651SOL     OW20851   2.211   1.631   5.726
 6651SOL    HW120852   2.182   1.719   5.763
 6651SOL    HW220853   2.213   1.637   5.626
 6652SOL     OW20854   1.181   4.323   0.536
 6652SOL    HW120855   1.278   4.343   0.525
 6652SOL    HW220856   1.152   4.347   0.629
 6653SOL     OW20857   3.571   3.765   2.518
 6653SOL    HW120858   3.576   3.847   2.461
 6653SOL    HW220859   3.539   3.688   2.464
 6654SOL     OW20860   1.358   5.074   1.716
 6654SOL    HW120861   1.326   4.999   1.775
 6654SOL    HW220862   1.456   5.062   1.699
 6655SOL     OW20863   1.043   0.420   3.857
 6655SOL    HW120864   1.041   0.520   3.848
 6655SOL    HW220865   1.054   0.378   3.767
 6656SOL     OW20866   5.992   2.044   4.094
 6656SOL    HW120867   6.079   1.998   4.079
 6656SOL    HW220868   5.940   2.045   4.008
 6657SOL     OW20869   6.351   5.044   6.217
 6657SOL    HW120870   6.409   4.970   6.182
 6657SOL    HW220871   6.259   5.008   6.235
 6658SOL     OW20872   6.852   1.226   4.503
 6658SOL    HW120873   6.817   1.281   4.579
 6658SOL    HW220874   6.779   1.167   4.468
 6659SOL     OW20875   1.998   2.686   0.607
 6659SOL    HW120876   2.031   2.713   0.697
 6659SOL    HW220877   1.947   2.761   0.566
 6660SOL     OW20878   1.146   4.984   1.474
 6660SOL    HW120879   1.195   4.897   1.476
 6660SOL    HW220880   1.055   4.972   1.435
 6661SOL     OW20881   1.315   6.111   4.874
 6661SOL    HW120882   1.408   6.081   4.897
 6661SOL    HW220883   1.289   6.074   4.785
 6662SOL     OW20884   1.423   0.484   6.744
 6662SOL    HW120885   1.382   0.470   6.834
 6662SOL    HW220886   1.411   0.402   6.689
 6663SOL     OW20887   6.652   4.980   4.349
 6663SOL    HW120888   6.710   5.055   4.316
 6663SOL    HW220889   6.629   4.920   4.272
 6664SOL     OW20890   1.873   6.279   0.710
 6664SOL    HW120891   1.956   6.241   0.670
 6664SOL    HW220892   1.821   6.327   0.640
 6665SOL     OW20893   2.063   5.988   4.505
 6665SOL    HW120894   2.040   5.893   4.524
 6665SOL    HW220895   2.124   6.023   4.576
 6666SOL     OW20896   6.275   0.237   6.111
 6666SOL    HW120897   6.317   0.153   6.075
 6666SOL    HW220898   6.198   0.213   6.170
 6667SOL     OW20899   6.751   6.139   6.672
 6667SOL    HW120900   6.736   6.237   6.661
 6667SOL    HW220901   6.675   6.089   6.631
 6668SOL     OW20902   6.833   5.236   1.114
 6668SOL    HW120903   6.862   5.187   1.197
 6668SOL    HW220904   6.851   5.179   1.034
 6669SOL     OW20905   1.722   2.573   2.847
 6669SOL    HW120906   1.629   2.537   2.853
 6669SOL    HW220907   1.744   2.592   2.752
 6670SOL     OW20908   3.712   1.634   5.450
 6670SOL    HW120909   3.613   1.625   5.455
 6670SOL    HW220910   3.756   1.556   5.494
 6671SOL     OW20911   5.587   6.197   0.941
 6671SOL    HW120912   5.658   6.201   1.011
 6671SOL    HW220913   5.607   6.265   0.870
 6672SOL     OW20914   6.244   2.716   6.752
 6672SOL    HW120915   6.330   2.748   6.712
 6672SOL    HW220916   6.218   2.629   6.709
 6673SOL     OW20917   5.011   5.358   3.987
 6673SOL    HW120918   5.058   5.359   4.075
 6673SOL    HW220919   4.937   5.425   3.988
 6674SOL     OW20920   0.242   4.442   6.167
 6674SOL    HW120921   0.317   4.438   6.233
 6674SOL    HW220922   0.269   4.497   6.088
 6675SOL     OW20923   4.817   3.639   1.477
 6675SOL    HW120924   4.875   3.718   1.460
 6675SOL    HW220925   4.833   3.569   1.407
 6676SOL     OW20926   0.744   3.636   5.687
 6676SOL    HW120927   0.684   3.562   5.657
 6676SOL    HW220928   0.756   3.702   5.612
 6677SOL     OW20929   1.314   1.644   6.043
 6677SOL    HW120930   1.294   1.722   5.984
 6677SOL    HW220931   1.414   1.635   6.054
 6678SOL     OW20932   3.045   3.175   0.050
 6678SOL    HW120933   3.048   3.147   0.146
 6678SOL    HW220934   3.127   3.144   0.003
 6679SOL     OW20935   3.053   1.004   3.952
 6679SOL    HW120936   3.022   1.003   3.857
 6679SOL    HW220937   2.979   1.039   4.010
 6680SOL     OW20938   5.185   6.606   6.960
 6680SOL    HW120939   5.110   6.634   7.020
 6680SOL    HW220940   5.168   6.639   6.867
 6681SOL     OW20941   3.485   6.080   1.386
 6681SOL    HW120942   3.508   6.160   1.442
 6681SOL    HW220943   3.461   6.109   1.294
 6682SOL     OW20944   0.694   4.348   2.486
 6682SOL    HW120945   0.649   4.259   2.493
 6682SOL    HW220946   0.733   4.372   2.575
 6683SOL     OW20947   5.848   3.102   5.216
 6683SOL    HW120948   5.809   3.184   5.258
 6683SOL    HW220949   5.775   3.045   5.179
 6684SOL     OW20950   2.852   0.327   1.621
 6684SOL    HW120951   2.933   0.292   1.572
 6684SOL    HW220952   2.880   0.361   1.711
 6685SOL     OW20953   6.361   3.387   5.967
 6685SOL    HW120954   6.272   3.341   5.974
 6685SOL    HW220955   6.364   3.464   6.030
 6686SOL     OW20956   5.334   5.894   4.569
 6686SOL    HW120957   5.346   5.993   4.579
 6686SOL    HW220958   5.424   5.850   4.571
 6687SOL     OW20959   1.170   3.551   0.099
 6687SOL    HW120960   1.171   3.651   0.092
 6687SOL    HW220961   1.252   3.520   0.147
 6688SOL     OW20962   7.005   3.996   2.485
 6688SOL    HW120963   0.070   4.041   2.506
 6688SOL    HW220964   7.019   3.897   2.482
 6689SOL     OW20965   4.310   3.096   0.276
 6689SOL    HW120966   4.374   3.112   0.351
 6689SOL    HW220967   4.350   3.126   0.190
 6690SOL     OW20968   1.679   1.632   0.606
 6690SOL    HW120969   1.611   1.695   0.569
 6690SOL    HW220970   1.644   1.591   0.691
 6691SOL     OW20971   2.817   6.669   2.266
 6691SOL    HW120972   2.868   6.754   2.253
 6691SOL    HW220973   2.877   6.591   2.248
 6692SOL     OW20974   3.800   3.671   5.690
 6692SOL    HW120975   3.764   3.583   5.659
 6692SOL    HW220976   3.808   3.734   5.613
 6693SOL     OW20977   4.297   3.401   5.328
 6693SOL    HW120978   4.396   3.388   5.322
 6693SOL    HW220979   4.277   3.477   5.389
 6694SOL     OW20980   3.554   5.711   0.785
 6694SOL    HW120981   3.514   5.760   0.863
 6694SOL    HW220982   3.643   5.750   0.762
 6695SOL     OW20983   2.650   1.918   0.382
 6695SOL    HW120984   2.575   1.970   0.423
 6695SOL    HW220985   2.639   1.821   0.402
 6696SOL     OW20986   2.598   3.024   5.902
 6696SOL    HW120987   2.566   3.118   5.888
 6696SOL    HW220988   2.665   3.001   5.832
 6697SOL     OW20989   4.892   2.691   2.828
 6697SOL    HW120990   4.927   2.597   2.828
 6697SOL    HW220991   4.836   2.706   2.747
 6698SOL     OW20992   2.602   2.455   1.657
 6698SOL    HW120993   2.537   2.531   1.653
 6698SOL    HW220994   2.586   2.392   1.582
 6699SOL     OW20995   2.620   5.808   5.775
 6699SOL    HW120996   2.591   5.875   5.844
 6699SOL    HW220997   2.552   5.804   5.702
 6700SOL     OW20998   0.672   6.452   1.615
 6700SOL    HW120999   0.744   6.439   1.684
 6700SOL    HW221000   0.713   6.450   1.524
 6701SOL     OW21001   5.310   3.969   2.210
 6701SOL    HW121002   5.302   3.891   2.273
 6701SOL    HW221003   5.391   4.022   2.233
 6702SOL     OW21004   3.226   1.962   1.552
 6702SOL    HW121005   3.221   1.970   1.453
 6702SOL    HW221006   3.318   1.936   1.579
 6703SOL     OW21007   6.211   2.260   6.815
 6703SOL    HW121008   6.148   2.233   6.888
 6703SOL    HW221009   6.177   2.344   6.772
 6704SOL     OW21010   3.037   1.693   3.307
 6704SOL    HW121011   2.999   1.632   3.238
 6704SOL    HW221012   3.096   1.761   3.262
 6705SOL     OW21013   6.898   2.861   1.435
 6705SOL    HW121014   6.851   2.948   1.424
 6705SOL    HW221015   6.996   2.872   1.416
 6706SOL     OW21016   1.823   4.081   2.554
 6706SOL    HW121017   1.859   3.992   2.584
 6706SOL    HW221018   1.827   4.086   2.454
 6707SOL     OW21019   6.902   6.194   3.204
 6707SOL    HW121020   6.982   6.231   3.157
 6707SOL    HW221021   6.821   6.203   3.145
 6708SOL     OW21022   6.972   5.582   1.795
 6708SOL    HW121023   7.016   5.492   1.802
 6708SOL    HW221024   6.894   5.577   1.732
 6709SOL     OW21025   2.960   6.251   3.417
 6709SOL    HW121026   2.972   6.164   3.369
 6709SOL    HW221027   2.907   6.236   3.500
 6710SOL     OW21028   3.921   0.621   5.794
 6710SOL    HW121029   3.853   0.688   5.822
 6710SOL    HW221030   3.882   0.529   5.800
 6711SOL     OW21031   4.656   5.379   6.083
 6711SOL    HW121032   4.734   5.340   6.033
 6711SOL    HW221033   4.664   5.479   6.083
 6712SOL     OW21034   5.559   4.227   0.261
 6712SOL    HW121035   5.647   4.273   0.272
 6712SOL    HW221036   5.545   4.163   0.336
 6713SOL     OW21037   2.246   0.086   2.387
 6713SOL    HW121038   2.316   0.157   2.381
 6713SOL    HW221039   2.274   0.006   2.333
 6714SOL     OW21040   6.160   0.826   6.095
 6714SOL    HW121041   6.170   0.821   6.194
 6714SOL    HW221042   6.216   0.901   6.060
 6715SOL     OW21043   0.599   0.149   0.256
 6715SOL    HW121044   0.563   0.065   0.296
 6715SOL    HW221045   0.660   0.194   0.321
 6716SOL     OW21046   0.408   5.504   1.458
 6716SOL    HW121047   0.488   5.564   1.452
 6716SOL    HW221048   0.417   5.429   1.391
 6717SOL     OW21049   3.903   3.418   0.042
 6717SOL    HW121050   3.907   3.330   7.017
 6717SOL    HW221051   3.827   3.472   0.004
 6718SOL     OW21052   5.288   0.647   0.899
 6718SOL    HW121053   5.241   0.572   0.945
 6718SOL    HW221054   5.263   0.734   0.942
 6719SOL     OW21055   2.679   0.597   6.641
 6719SOL    HW121056   2.737   0.580   6.561
 6719SOL    HW221057   2.674   0.514   6.697
 6720SOL     OW21058   1.446   6.878   3.917
 6720SOL    HW121059   1.546   6.875   3.907
 6720SOL    HW221060   1.415   6.792   3.955
 6721SOL     OW21061   6.743   0.455   6.831
 6721SOL    HW121062   6.827   0.488   6.787
 6721SOL    HW221063   6.665   0.475   6.773
 6722SOL     OW21064   6.793   2.837   1.690
 6722SOL    HW121065   6.712   2.781   1.675
 6722SOL    HW221066   6.845   2.844   1.604
 6723SOL     OW21067   2.627   5.950   3.181
 6723SOL    HW121068   2.616   5.978   3.085
 6723SOL    HW221069   2.552   5.987   3.235
 6724SOL     OW21070   1.639   3.389   5.765
 6724SOL    HW121071   1.540   3.400   5.753
 6724SOL    HW221072   1.660   3.376   5.862
 6725SOL     OW21073   0.473   3.471   1.095
 6725SOL    HW121074   0.535   3.547   1.082
 6725SOL    HW221075   0.525   3.385   1.098
 6726SOL     OW21076   0.610   2.122   5.210
 6726SOL    HW121077   0.533   2.078   5.258
 6726SOL    HW221078   0.633   2.208   5.257
 6727SOL     OW21079   6.902   4.376   5.317
 6727SOL    HW121080   6.903   4.386   5.218
 6727SOL    HW221081   6.832   4.309   5.344
 6728SOL     OW21082   3.642   1.828   3.115
 6728SOL    HW121083   3.676   1.890   3.186
 6728SOL    HW221084   3.559   1.784   3.147
 6729SOL     OW21085   6.666   0.965   2.839
 6729SOL    HW121086   6.648   0.878   2.794
 6729SOL    HW221087   6.668   1.038   2.771
 6730SOL     OW21088   2.714   6.931   0.362
 6730SOL    HW121089   2.746   6.963   0.451
 6730SOL    HW221090   2.630   6.980   0.337
 6731SOL     OW21091   0.648   5.655   1.493
 6731SOL    HW121092   0.679   5.574   1.544
 6731SOL    HW221093   0.706   5.668   1.413
 6732SOL     OW21094   5.465   4.629   5.106
 6732SOL    HW121095   5.458   4.716   5.058
 6732SOL    HW221096   5.495   4.558   5.043
 6733SOL     OW21097   4.311   5.635   0.437
 6733SOL    HW121098   4.286   5.716   0.385
 6733SOL    HW221099   4.408   5.615   0.425
 6734SOL     OW21100   6.172   2.375   4.898
 6734SOL    HW121101   6.207   2.379   4.804
 6734SOL    HW221102   6.243   2.335   4.957
 6735SOL     OW21103   6.824   4.368   4.763
 6735SOL    HW121104   6.755   4.439   4.779
 6735SOL    HW221105   6.814   4.331   4.671
 6736SOL     OW21106   3.238   3.726   6.997
 6736SOL    HW121107   3.251   3.808   6.942
 6736SOL    HW221108   3.191   3.657   6.943
 6737SOL     OW21109   1.944   2.398   0.614
 6737SOL    HW121110   1.854   2.363   0.588
 6737SOL    HW221111   1.945   2.497   0.603
 6738SOL     OW21112   1.794   5.403   2.799
 6738SOL    HW121113   1.771   5.500   2.804
 6738SOL    HW221114   1.709   5.349   2.796
 6739SOL     OW21115   3.469   6.333   5.238
 6739SOL    HW121116   3.468   6.311   5.335
 6739SOL    HW221117   3.456   6.249   5.185
 6740SOL     OW21118   1.819   0.409   4.757
 6740SOL    HW121119   1.756   0.332   4.772
 6740SOL    HW221120   1.786   0.489   4.807
 6741SOL     OW21121   4.556   1.160   5.431
 6741SOL    HW121122   4.639   1.133   5.382
 6741SOL    HW221123   4.579   1.183   5.526
 6742SOL     OW21124   6.678   6.002   2.516
 6742SOL    HW121125   6.644   6.094   2.539
 6742SOL    HW221126   6.601   5.939   2.509
 6743SOL     OW21127   3.658   4.894   0.470
 6743SOL    HW121128   3.696   4.808   0.438
 6743SOL    HW221129   3.692   4.969   0.414
 6744SOL     OW21130   6.107   4.092   6.527
 6744SOL    HW121131   6.039   4.019   6.518
 6744SOL    HW221132   6.199   4.052   6.519
 6745SOL     OW21133   6.954   0.152   2.795
 6745SOL    HW121134   6.941   0.220   2.867
 6745SOL    HW221135   6.865   0.126   2.758
 6746SOL     OW21136   0.980   0.935   3.440
 6746SOL    HW121137   0.915   0.902   3.371
 6746SOL    HW221138   1.069   0.950   3.398
 6747SOL     OW21139   5.685   1.004   4.958
 6747SOL    HW121140   5.647   1.044   5.042
 6747SOL    HW221141   5.635   1.038   4.879
 6748SOL     OW21142   1.934   1.094   4.035
 6748SOL    HW121143   1.998   1.124   3.964
 6748SOL    HW221144   1.981   1.034   4.100
 6749SOL     OW21145   3.078   6.762   0.368
 6749SOL    HW121146   3.011   6.710   0.420
 6749SOL    HW221147   3.128   6.701   0.306
 6750SOL     OW21148   4.057   2.157   5.107
 6750SOL    HW121149   4.014   2.094   5.172
 6750SOL    HW221150   3.986   2.212   5.063
 6751SOL     OW21151   4.137   0.081   3.643
 6751SOL    HW121152   4.167   0.146   3.573
 6751SOL    HW221153   4.189   7.019   3.635
 6752SOL     OW21154   0.456   2.337   2.835
 6752SOL    HW121155   0.417   2.402   2.770
 6752SOL    HW221156   0.389   2.317   2.906
 6753SOL     OW21157   4.170   1.049   6.277
 6753SOL    HW121158   4.153   1.146   6.295
 6753SOL    HW221159   4.252   1.039   6.221
 6754SOL     OW21160   0.401   1.694   0.153
 6754SOL    HW121161   0.308   1.660   0.168
 6754SOL    HW221162   0.466   1.633   0.197
 6755SOL     OW21163   3.485   0.631   3.487
 6755SOL    HW121164   3.519   0.633   3.393
 6755SOL    HW221165   3.535   0.697   3.542
 6756SOL     OW21166   3.908   5.139   5.185
 6756SOL    HW121167   3.812   5.159   5.204
 6756SOL    HW221168   3.938   5.061   5.240
 6757SOL     OW21169   4.197   1.221   2.642
 6757SOL    HW121170   4.220   1.306   2.689
 6757SOL    HW221171   4.167   1.153   2.709
 6758SOL     OW21172   6.439   2.229   1.752
 6758SOL    HW121173   6.362   2.287   1.776
 6758SOL    HW221174   6.517   2.250   1.811
 6759SOL     OW21175   0.750   4.513   4.573
 6759SOL    HW121176   0.713   4.458   4.649
 6759SOL    HW221177   0.849   4.498   4.568
 6760SOL     OW21178   6.235   4.352   3.338
 6760SOL    HW121179   6.222   4.271   3.281
 6760SOL    HW221180   6.153   4.366   3.394
 6761SOL     OW21181   6.349   2.380   6.130
 6761SOL    HW121182   6.358   2.479   6.139
 6761SOL    HW221183   6.351   2.338   6.221
 6762SOL     OW21184   0.444   5.091   3.835
 6762SOL    HW121185   0.476   5.142   3.755
 6762SOL    HW221186   0.413   5.155   3.905
 6763SOL     OW21187   0.408   4.911   2.939
 6763SOL    HW121188   0.447   4.915   3.031
 6763SOL    HW221189   0.357   4.826   2.928
 6764SOL     OW21190   2.445   5.094   6.702
 6764SOL    HW121191   2.514   5.024   6.719
 6764SOL    HW221192   2.489   5.183   6.690
 6765SOL     OW21193   5.178   4.070   3.854
 6765SOL    HW121194   5.088   4.032   3.833
 6765SOL    HW221195   5.169   4.140   3.924
 6766SOL     OW21196   5.219   6.694   6.242
 6766SOL    HW121197   5.171   6.657   6.321
 6766SOL    HW221198   5.227   6.624   6.171
 6767SOL     OW21199   1.219   1.869   0.676
 6767SOL    HW121200   1.177   1.781   0.701
 6767SOL    HW221201   1.164   1.912   0.605
 6768SOL     OW21202   0.949   6.332   3.614
 6768SOL    HW121203   0.976   6.249   3.565
 6768SOL    HW221204   1.007   6.343   3.695
 6769SOL     OW21205   2.496   0.060   5.644
 6769SOL    HW121206   2.579   0.005   5.634
 6769SOL    HW221207   2.484   0.084   5.740
 6770SOL     OW21208   4.591   2.005   3.697
 6770SOL    HW121209   4.550   2.021   3.607
 6770SOL    HW221210   4.691   2.003   3.687
 6771SOL     OW21211   4.366   1.035   2.183
 6771SOL    HW121212   4.466   1.034   2.187
 6771SOL    HW221213   4.330   0.951   2.224
 6772SOL     OW21214   4.683   2.292   2.743
 6772SOL    HW121215   4.588   2.301   2.713
 6772SOL    HW221216   4.686   2.292   2.843
 6773SOL     OW21217   0.387   6.284   2.011
 6773SOL    HW121218   0.301   6.259   1.967
 6773SOL    HW221219   0.450   6.206   2.008
 6774SOL     OW21220   1.927   3.521   4.531
 6774SOL    HW121221   1.830   3.538   4.518
 6774SOL    HW221222   1.967   3.487   4.447
 6775SOL     OW21223   1.139   2.368   3.271
 6775SOL    HW121224   1.122   2.324   3.359
 6775SOL    HW221225   1.071   2.338   3.204
 6776SOL     OW21226   4.212   4.168   0.496
 6776SOL    HW121227   4.312   4.168   0.492
 6776SOL    HW221228   4.175   4.115   0.419
 6777SOL     OW21229   5.012   5.511   0.891
 6777SOL    HW121230   5.103   5.475   0.870
 6777SOL    HW221231   5.022   5.602   0.932
 6778SOL     OW21232   6.417   3.938   1.987
 6778SOL    HW121233   6.386   3.913   1.895
 6778SOL    HW221234   6.496   3.999   1.981
 6779SOL     OW21235   5.780   4.412   6.003
 6779SOL    HW121236   5.688   4.446   5.981
 6779SOL    HW221237   5.839   4.424   5.923
 6780SOL     OW21238   0.683   3.013   2.635
 6780SOL    HW121239   0.605   3.023   2.696
 6780SOL    HW221240   0.656   3.040   2.542
 6781SOL     OW21241   6.826   1.640   4.712
 6781SOL    HW121242   6.755   1.665   4.647
 6781SOL    HW221243   6.896   1.711   4.714
 6782SOL     OW21244   0.774   1.011   3.028
 6782SOL    HW121245   0.677   0.997   3.009
 6782SOL    HW221246   0.829   0.982   2.950
 6783SOL     OW21247   0.821   2.294   6.056
 6783SOL    HW121248   0.919   2.308   6.065
 6783SOL    HW221249   0.791   2.226   6.124
 6784SOL     OW21250   2.746   3.719   0.501
 6784SOL    HW121251   2.723   3.711   0.404
 6784SOL    HW221252   2.836   3.760   0.511
 6785SOL     OW21253   5.452   4.886   4.948
 6785SOL    HW121254   5.391   4.851   4.878
 6785SOL    HW221255   5.402   4.950   5.007
 6786SOL     OW21256   0.775   2.435   0.070
 6786SOL    HW121257   0.733   2.440   0.160
 6786SOL    HW221258   0.846   2.505   0.062
 6787SOL     OW21259   3.177   2.544   0.841
 6787SOL    HW121260   3.119   2.622   0.863
 6787SOL    HW221261   3.120   2.468   0.810
 6788SOL     OW21262   0.762   4.363   2.223
 6788SOL    HW121263   0.857   4.388   2.207
 6788SOL    HW221264   0.748   4.345   2.320
 6789SOL     OW21265   6.968   4.274   4.005
 6789SOL    HW121266   6.885   4.220   3.990
 6789SOL    HW221267   0.022   4.213   4.023
 6790SOL     OW21268   1.171   3.989   6.709
 6790SOL    HW121269   1.215   4.010   6.796
 6790SOL    HW221270   1.140   3.894   6.709
 6791SOL     OW21271   3.950   2.191   2.520
 6791SOL    HW121272   3.855   2.212   2.541
 6791SOL    HW221273   3.956   2.154   2.427
 6792SOL     OW21274   5.252   0.366   5.345
 6792SOL    HW121275   5.179   0.317   5.393
 6792SOL    HW221276   5.254   0.461   5.376
 6793SOL     OW21277   3.115   0.939   6.528
 6793SOL    HW121278   3.171   0.856   6.538
 6793SOL    HW221279   3.021   0.912   6.506
 6794SOL     OW21280   5.451   1.464   5.362
 6794SOL    HW121281   5.417   1.389   5.420
 6794SOL    HW221282   5.541   1.440   5.326
 6795SOL     OW21283   1.154   5.810   0.689
 6795SOL    HW121284   1.154   5.908   0.710
 6795SOL    HW221285   1.212   5.793   0.610
 6796SOL     OW21286   6.422   0.279   2.182
 6796SOL    HW121287   6.513   0.240   2.200
 6796SOL    HW221288   6.357   0.243   2.249
 6797SOL     OW21289   6.789   2.406   1.752
 6797SOL    HW121290   6.778   2.363   1.662
 6797SOL    HW221291   6.850   2.350   1.808
 6798SOL     OW21292   6.752   6.837   1.655
 6798SOL    HW121293   6.711   6.830   1.746
 6798SOL    HW221294   6.688   6.883   1.593
 6799SOL     OW21295   6.232   0.208   2.357
 6799SOL    HW121296   6.252   0.215   2.454
 6799SOL    HW221297   6.175   0.128   2.339
 6800SOL     OW21298   2.488   2.518   2.153
 6800SOL    HW121299   2.551   2.440   2.155
 6800SOL    HW221300   2.448   2.526   2.062
 6801SOL     OW21301   1.197   0.032   3.980
 6801SOL    HW121302   1.216   0.125   4.010
 6801SOL    HW221303   1.283   7.008   3.958
 6802SOL     OW21304   2.994   6.283   1.738
 6802SOL    HW121305   3.093   6.286   1.728
 6802SOL    HW221306   2.964   6.188   1.750
 6803SOL     OW21307   4.211   4.400   6.279
 6803SOL    HW121308   4.292   4.364   6.233
 6803SOL    HW221309   4.198   4.352   6.366
 6804SOL     OW21310   4.284   5.344   2.754
 6804SOL    HW121311   4.328   5.260   2.787
 6804SOL    HW221312   4.201   5.361   2.807
 6805SOL     OW21313   0.519   5.063   6.181
 6805SOL    HW121314   0.506   5.156   6.147
 6805SOL    HW221315   0.431   5.027   6.214
 6806SOL     OW21316   6.877   0.934   3.970
 6806SOL    HW121317   6.829   0.927   3.882
 6806SOL    HW221318   6.913   0.844   3.995
 6807SOL     OW21319   3.819   3.591   2.376
 6807SOL    HW121320   3.756   3.561   2.448
 6807SOL    HW221321   3.788   3.555   2.288
 6808SOL     OW21322   6.975   1.542   5.510
 6808SOL    HW121323   6.910   1.617   5.500
 6808SOL    HW221324   7.005   1.511   5.419
 6809SOL     OW21325   6.448   3.242   1.226
 6809SOL    HW121326   6.490   3.170   1.172
 6809SOL    HW221327   6.383   3.293   1.169
 6810SOL     OW21328   2.763   1.125   2.157
 6810SOL    HW121329   2.862   1.121   2.166
 6810SOL    HW221330   2.724   1.167   2.239
 6811SOL     OW21331   6.538   3.597   2.143
 6811SOL    HW121332   6.604   3.532   2.179
 6811SOL    HW221333   6.572   3.690   2.155
 6812SOL     OW21334   3.819   4.224   5.161
 6812SOL    HW121335   3.763   4.269   5.091
 6812SOL    HW221336   3.833   4.287   5.238
 6813SOL     OW21337   5.988   3.024   2.491
 6813SOL    HW121338   6.026   3.103   2.539
 6813SOL    HW221339   6.045   3.003   2.411
 6814SOL     OW21340   4.479   2.154   6.443
 6814SOL    HW121341   4.510   2.127   6.351
 6814SOL    HW221342   4.552   2.137   6.509
 6815SOL     OW21343   2.509   6.626   6.372
 6815SOL    HW121344   2.468   6.709   6.410
 6815SOL    HW221345   2.589   6.650   6.317
 6816SOL     OW21346   6.873   0.714   5.775
 6816SOL    HW121347   6.842   0.621   5.799
 6816SOL    HW221348   6.819   0.748   5.699
 6817SOL     OW21349   2.272   2.905   3.559
 6817SOL    HW121350   2.216   2.975   3.514
 6817SOL    HW221351   2.289   2.933   3.654
 6818SOL     OW21352   1.964   6.661   0.535
 6818SOL    HW121353   1.956   6.734   0.603
 6818SOL    HW221354   1.881   6.605   0.537
 6819SOL     OW21355   4.286   1.239   3.371
 6819SOL    HW121356   4.309   1.253   3.467
 6819SOL    HW221357   4.206   1.293   3.347
 6820SOL     OW21358   1.591   6.028   1.704
 6820SOL    HW121359   1.603   5.958   1.633
 6820SOL    HW221360   1.643   6.110   1.679
 6821SOL     OW21361   4.285   2.624   5.386
 6821SOL    HW121362   4.252   2.581   5.302
 6821SOL    HW221363   4.207   2.650   5.443
 6822SOL     OW21364   5.826   2.569   5.937
 6822SOL    HW121365   5.762   2.601   5.867
 6822SOL    HW221366   5.796   2.601   6.027
 6823SOL     OW21367   5.970   4.134   6.195
 6823SOL    HW121368   5.953   4.230   6.216
 6823SOL    HW221369   6.067   4.113   6.208
 6824SOL     OW21370   1.097   1.641   0.766
 6824SOL    HW121371   1.176   1.587   0.737
 6824SOL    HW221372   1.015   1.608   0.720
 6825SOL     OW21373   5.912   0.690   0.259
 6825SOL    HW121374   5.971   0.654   0.331
 6825SOL    HW221375   5.832   0.735   0.299
 6826SOL     OW21376   1.849   3.537   3.823
 6826SOL    HW121377   1.913   3.613   3.811
 6826SOL    HW221378   1.897   3.460   3.865
 6827SOL     OW21379   5.682   5.508   6.525
 6827SOL    HW121380   5.764   5.458   6.497
 6827SOL    HW221381   5.603   5.475   6.474
 6828SOL     OW21382   3.792   1.809   2.069
 6828SOL    HW121383   3.729   1.815   2.147
 6828SOL    HW221384   3.742   1.826   1.984
 6829SOL     OW21385   5.454   6.121   5.291
 6829SOL    HW121386   5.508   6.152   5.370
 6829SOL    HW221387   5.376   6.067   5.323
 6830SOL     OW21388   5.309   0.710   3.437
 6830SOL    HW121389   5.275   0.741   3.525
 6830SOL    HW221390   5.386   0.649   3.450
 6831SOL     OW21391   1.878   1.423   5.591
 6831SOL    HW121392   1.876   1.516   5.555
 6831SOL    HW221393   1.953   1.415   5.658
 6832SOL     OW21394   2.730   4.103   0.944
 6832SOL    HW121395   2.692   4.174   0.886
 6832SOL    HW221396   2.771   4.031   0.888
 6833SOL     OW21397   2.358   4.702   6.539
 6833SOL    HW121398   2.270   4.658   6.559
 6833SOL    HW221399   2.342   4.797   6.511
 6834SOL     OW21400   6.271   0.009   0.613
 6834SOL    HW121401   6.341   0.053   0.669
 6834SOL    HW221402   6.302   0.006   0.518
 6835SOL     OW21403   3.507   1.081   4.731
 6835SOL    HW121404   3.581   1.125   4.782
 6835SOL    HW221405   3.531   0.985   4.714
 6836SOL     OW21406   2.760   4.501   6.575
 6836SOL    HW121407   2.781   4.415   6.530
 6836SOL    HW221408   2.844   4.555   6.586
 6837SOL     OW21409   0.591   2.293   3.501
 6837SOL    HW121410   0.676   2.247   3.475
 6837SOL    HW221411   0.599   2.326   3.595
 6838SOL     OW21412   2.927   5.143   6.443
 6838SOL    HW121413   2.912   5.113   6.537
 6838SOL    HW221414   3.020   5.179   6.433
 6839SOL     OW21415   5.379   1.247   4.981
 6839SOL    HW121416   5.287   1.210   4.990
 6839SOL    HW221417   5.432   1.191   4.917
 6840SOL     OW21418   2.991   6.706   5.068
 6840SOL    HW121419   3.021   6.767   5.141
 6840SOL    HW221420   3.040   6.619   5.075
 6841SOL     OW21421   3.868   4.724   0.753
 6841SOL    HW121422   3.783   4.722   0.805
 6841SOL    HW221423   3.931   4.789   0.795
 6842SOL     OW21424   2.594   2.813   0.408
 6842SOL    HW121425   2.522   2.882   0.403
 6842SOL    HW221426   2.553   2.723   0.427
 6843SOL     OW21427   5.510   6.995   1.805
 6843SOL    HW121428   5.596   0.006   1.767
 6843SOL    HW221429   5.488   6.907   1.764
 6844SOL     OW21430   5.828   6.860   3.665
 6844SOL    HW121431   5.728   6.859   3.670
 6844SOL    HW221432   5.865   6.806   3.740
 6845SOL     OW21433   5.592   4.591   2.593
 6845SOL    HW121434   5.589   4.621   2.688
 6845SOL    HW221435   5.516   4.528   2.576
 6846SOL     OW21436   4.009   3.038   1.253
 6846SOL    HW121437   4.103   3.012   1.228
 6846SOL    HW221438   3.975   3.105   1.188
 6847SOL     OW21439   6.708   4.561   2.913
 6847SOL    HW121440   6.765   4.614   2.976
 6847SOL    HW221441   6.611   4.577   2.935
 6848SOL     OW21442   3.179   6.398   3.489
 6848SOL    HW121443   3.097   6.352   3.455
 6848SOL    HW221444   3.162   6.432   3.581
 6849SOL     OW21445   3.543   5.558   4.801
 6849SOL    HW121446   3.489   5.541   4.719
 6849SOL    HW221447   3.504   5.508   4.878
 6850SOL     OW21448   5.615   3.808   2.221
 6850SOL    HW121449   5.638   3.722   2.176
 6850SOL    HW221450   5.542   3.791   2.288
 6851SOL     OW21451   1.447   2.976   3.825
 6851SOL    HW121452   1.377   3.047   3.829
 6851SOL    HW221453   1.417   2.903   3.763
 6852SOL     OW21454   1.822   4.526   0.932
 6852SOL    HW121455   1.879   4.555   0.855
 6852SOL    HW221456   1.755   4.459   0.901
 6853SOL     OW21457   7.012   3.963   0.295
 6853SOL    HW121458   7.001   3.910   0.210
 6853SOL    HW221459   6.932   4.020   0.309
 6854SOL     OW21460   5.891   2.336   6.109
 6854SOL    HW121461   5.979   2.290   6.100
 6854SOL    HW221462   5.889   2.416   6.048
 6855SOL     OW21463   3.211   5.784   3.258
 6855SOL    HW121464   3.189   5.800   3.162
 6855SOL    HW221465   3.175   5.695   3.287
 6856SOL     OW21466   5.194   4.514   5.492
 6856SOL    HW121467   5.153   4.434   5.536
 6856SOL    HW221468   5.225   4.488   5.400
 6857SOL     OW21469   2.830   1.578   6.812
 6857SOL    HW121470   2.730   1.582   6.814
 6857SOL    HW221471   2.866   1.667   6.786
 6858SOL     OW21472   3.573   3.498   4.330
 6858SOL    HW121473   3.577   3.473   4.233
 6858SOL    HW221474   3.626   3.433   4.384
 6859SOL     OW21475   1.268   0.078   1.216
 6859SOL    HW121476   1.212   7.019   1.230
 6859SOL    HW221477   1.212   0.160   1.230
 6860SOL     OW21478   5.821   5.704   1.308
 6860SOL    HW121479   5.791   5.776   1.370
 6860SOL    HW221480   5.844   5.622   1.360
 6861SOL     OW21481   5.659   4.152   0.863
 6861SOL    HW121482   5.595   4.093   0.814
 6861SOL    HW221483   5.717   4.097   0.923
 6862SOL     OW21484   1.791   4.449   4.933
 6862SOL    HW121485   1.782   4.464   4.834
 6862SOL    HW221486   1.884   4.472   4.961
 6863SOL     OW21487   6.175   1.217   5.862
 6863SOL    HW121488   6.237   1.296   5.860
 6863SOL    HW221489   6.227   1.134   5.883
 6864SOL     OW21490   3.414   6.041   4.188
 6864SOL    HW121491   3.374   5.996   4.267
 6864SOL    HW221492   3.380   6.136   4.184
 6865SOL     OW21493   0.323   5.722   3.432
 6865SOL    HW121494   0.285   5.807   3.469
 6865SOL    HW221495   0.270   5.694   3.352
 6866SOL     OW21496   6.881   4.541   2.383
 6866SOL    HW121497   6.916   4.454   2.349
 6866SOL    HW221498   6.918   4.558   2.475
 6867SOL     OW21499   1.661   5.262   1.390
 6867SOL    HW121500   1.594   5.329   1.357
 6867SOL    HW221501   1.640   5.238   1.485
 6868SOL     OW21502   1.147   5.316   6.272
 6868SOL    HW121503   1.143   5.368   6.357
 6868SOL    HW221504   1.154   5.218   6.292
 6869SOL     OW21505   5.432   0.607   4.811
 6869SOL    HW121506   5.427   0.517   4.767
 6869SOL    HW221507   5.509   0.658   4.773
 6870SOL     OW21508   0.056   4.882   2.114
 6870SOL    HW121509   0.102   4.910   2.199
 6870SOL    HW221510   6.984   4.916   2.114
 6871SOL     OW21511   6.103   4.341   2.838
 6871SOL    HW121512   6.031   4.410   2.828
 6871SOL    HW221513   6.060   4.251   2.848
 6872SOL     OW21514   0.829   2.919   1.419
 6872SOL    HW121515   0.774   2.964   1.490
 6872SOL    HW221516   0.892   2.985   1.379
 6873SOL     OW21517   6.543   3.984   5.053
 6873SOL    HW121518   6.626   4.034   5.027
 6873SOL    HW221519   6.529   3.991   5.151
 6874SOL     OW21520   0.981   5.377   2.324
 6874SOL    HW121521   1.009   5.391   2.229
 6874SOL    HW221522   0.883   5.397   2.333
 6875SOL     OW21523   1.472   2.654   3.404
 6875SOL    HW121524   1.441   2.721   3.336
 6875SOL    HW221525   1.393   2.608   3.443
 6876SOL     OW21526   3.956   6.243   4.355
 6876SOL    HW121527   3.935   6.147   4.374
 6876SOL    HW221528   4.023   6.248   4.281
 6877SOL     OW21529   2.738   4.224   0.220
 6877SOL    HW121530   2.644   4.250   0.241
 6877SOL    HW221531   2.775   4.287   0.152
 6878SOL     OW21532   3.050   2.107   5.428
 6878SOL    HW121533   3.139   2.106   5.382
 6878SOL    HW221534   2.991   2.177   5.386
 6879SOL     OW21535   0.943   1.983   0.204
 6879SOL    HW121536   0.949   2.058   0.139
 6879SOL    HW221537   0.927   1.897   0.156
 6880SOL     OW21538   2.074   3.900   5.080
 6880SOL    HW121539   2.158   3.936   5.039
 6880SOL    HW221540   2.086   3.892   5.179
 6881SOL     OW21541   0.879   3.825   2.230
 6881SOL    HW121542   0.847   3.908   2.184
 6881SOL    HW221543   0.978   3.818   2.221
 6882SOL     OW21544   3.737   0.608   6.399
 6882SOL    HW121545   3.658   0.645   6.447
 6882SOL    HW221546   3.706   0.556   6.319
 6883SOL     OW21547   3.944   1.698   0.525
 6883SOL    HW121548   3.875   1.764   0.496
 6883SOL    HW221549   4.031   1.745   0.541
 6884SOL     OW21550   1.618   3.882   4.417
 6884SOL    HW121551   1.678   3.887   4.497
 6884SOL    HW221552   1.535   3.936   4.434
 6885SOL     OW21553   3.817   6.014   4.616
 6885SOL    HW121554   3.812   5.969   4.705
 6885SOL    HW221555   3.769   5.958   4.548
 6886SOL     OW21556   6.731   0.610   4.050
 6886SOL    HW121557   6.803   0.547   4.078
 6886SOL    HW221558   6.685   0.646   4.132
 6887SOL     OW21559   5.100   6.335   5.217
 6887SOL    HW121560   5.135   6.384   5.137
 6887SOL    HW221561   5.175   6.287   5.262
 6888SOL     OW21562   5.371   6.255   6.315
 6888SOL    HW121563   5.401   6.344   6.281
 6888SOL    HW221564   5.438   6.185   6.290
 6889SOL     OW21565   1.767   2.561   5.292
 6889SOL    HW121566   1.856   2.604   5.306
 6889SOL    HW221567   1.766   2.471   5.336
 6890SOL     OW21568   3.517   6.983   1.131
 6890SOL    HW121569   3.593   6.934   1.174
 6890SOL    HW221570   3.454   6.918   1.089
 6891SOL     OW21571   2.066   4.549   4.295
 6891SOL    HW121572   2.145   4.487   4.296
 6891SOL    HW221573   2.032   4.561   4.388
 6892SOL     OW21574   3.352   1.637   3.519
 6892SOL    HW121575   3.293   1.717   3.508
 6892SOL    HW221576   3.436   1.664   3.566
 6893SOL     OW21577   5.222   5.221   6.851
 6893SOL    HW121578   5.304   5.275   6.874
 6893SOL    HW221579   5.174   5.265   6.775
 6894SOL     OW21580   6.305   4.600   0.512
 6894SOL    HW121581   6.279   4.608   0.608
 6894SOL    HW221582   6.227   4.570   0.458
 6895SOL     OW21583   2.751   5.634   6.395
 6895SOL    HW121584   2.779   5.539   6.410
 6895SOL    HW221585   2.779   5.663   6.303
 6896SOL     OW21586   1.295   6.813   3.359
 6896SOL    HW121587   1.310   6.853   3.450
 6896SOL    HW221588   1.322   6.717   3.361
 6897SOL     OW21589   2.832   2.679   0.213
 6897SOL    HW121590   2.892   2.599   0.211
 6897SOL    HW221591   2.860   2.740   0.287
 6898SOL     OW21592   3.990   1.217   2.444
 6898SOL    HW121593   4.048   1.223   2.525
 6898SOL    HW221594   4.032   1.268   2.369
 6899SOL     OW21595   5.226   6.650   1.150
 6899SOL    HW121596   5.182   6.584   1.089
 6899SOL    HW221597   5.166   6.728   1.164
 6900SOL     OW21598   6.557   7.019   5.628
 6900SOL    HW121599   6.559   0.027   5.723
 6900SOL    HW221600   6.636   0.033   5.579
 6901SOL     OW21601   0.622   6.654   6.121
 6901SOL    HW121602   0.649   6.689   6.031
 6901SOL    HW221603   0.610   6.731   6.184
 6902SOL     OW21604   5.478   6.812   0.480
 6902SOL    HW121605   5.563   6.826   0.429
 6902SOL    HW221606   5.490   6.738   0.546
 6903SOL     OW21607   3.829   5.566   4.638
 6903SOL    HW121608   3.771   5.487   4.657
 6903SOL    HW221609   3.893   5.545   4.565
 6904SOL     OW21610   5.922   1.929   4.350
 6904SOL    HW121611   5.965   1.933   4.260
 6904SOL    HW221612   5.953   1.847   4.398
 6905SOL     OW21613   6.499   6.461   6.802
 6905SOL    HW121614   6.560   6.447   6.724
 6905SOL    HW221615   6.534   6.410   6.881
 6906SOL     OW21616   4.585   1.444   3.989
 6906SOL    HW121617   4.597   1.530   3.939
 6906SOL    HW221618   4.669   1.391   3.986
 6907SOL     OW21619   5.031   2.140   1.279
 6907SOL    HW121620   5.062   2.225   1.237
 6907SOL    HW221621   5.103   2.071   1.270
 6908SOL     OW21622   1.059   6.063   6.536
 6908SOL    HW121623   1.032   6.159   6.550
 6908SOL    HW221624   1.158   6.059   6.522
 6909SOL     OW21625   6.341   4.092   1.442
 6909SOL    HW121626   6.272   4.060   1.506
 6909SOL    HW221627   6.319   4.186   1.413
 6910SOL     OW21628   0.438   2.645   3.873
 6910SOL    HW121629   0.469   2.606   3.960
 6910SOL    HW221630   0.338   2.640   3.868
 6911SOL     OW21631   4.598   6.229   3.679
 6911SOL    HW121632   4.526   6.160   3.689
 6911SOL    HW221633   4.649   6.211   3.595
 6912SOL     OW21634   3.478   4.881   0.691
 6912SOL    HW121635   3.549   4.913   0.628
 6912SOL    HW221636   3.405   4.949   0.696
 6913SOL     OW21637   5.204   4.757   5.157
 6913SOL    HW121638   5.135   4.744   5.086
 6913SOL    HW221639   5.238   4.668   5.188
 6914SOL     OW21640   5.321   4.406   6.888
 6914SOL    HW121641   5.393   4.362   6.943
 6914SOL    HW221642   5.306   4.353   6.805
 6915SOL     OW21643   6.156   3.916   1.565
 6915SOL    HW121644   6.093   3.875   1.500
 6915SOL    HW221645   6.110   3.928   1.653
 6916SOL     OW21646   6.180   3.907   6.848
 6916SOL    HW121647   6.230   3.899   6.934
 6916SOL    HW221648   6.138   3.997   6.842
 6917SOL     OW21649   3.178   5.675   1.014
 6917SOL    HW121650   3.105   5.698   0.950
 6917SOL    HW221651   3.180   5.743   1.088
 6918SOL     OW21652   0.231   3.302   4.323
 6918SOL    HW121653   0.220   3.221   4.380
 6918SOL    HW221654   0.144   3.349   4.315
 6919SOL     OW21655   0.209   6.570   2.637
 6919SOL    HW121656   0.222   6.640   2.567
 6919SOL    HW221657   0.150   6.498   2.601
 6920SOL     OW21658   4.738   5.500   5.422
 6920SOL    HW121659   4.742   5.418   5.366
 6920SOL    HW221660   4.676   5.485   5.499
 6921SOL     OW21661   5.397   6.070   2.994
 6921SOL    HW121662   5.387   5.970   2.994
 6921SOL    HW221663   5.454   6.097   2.916
 6922SOL     OW21664   2.118   5.799   6.280
 6922SOL    HW121665   2.183   5.872   6.301
 6922SOL    HW221666   2.028   5.839   6.260
 6923SOL     OW21667   4.936   5.081   3.142
 6923SOL    HW121668   4.958   4.984   3.153
 6923SOL    HW221669   4.854   5.103   3.196
 6924SOL     OW21670   1.601   4.120   6.960
 6924SOL    HW121671   1.699   4.125   6.982
 6924SOL    HW221672   1.548   4.156   0.014
 6925SOL     OW21673   3.858   6.005   4.893
 6925SOL    HW121674   3.916   5.923   4.886
 6925SOL    HW221675   3.861   6.040   4.986
 6926SOL     OW21676   3.057   3.488   2.051
 6926SOL    HW121677   3.116   3.409   2.036
 6926SOL    HW221678   3.004   3.505   1.968
 6927SOL     OW21679   5.430   3.281   6.538
 6927SOL    HW121680   5.424   3.208   6.471
 6927SOL    HW221681   5.381   3.254   6.621
 6928SOL     OW21682   6.003   6.108   0.882
 6928SOL    HW121683   5.997   6.185   0.818
 6928SOL    HW221684   5.947   6.127   0.962
 6929SOL     OW21685   5.281   5.460   0.826
 6929SOL    HW121686   5.347   5.500   0.889
 6929SOL    HW221687   5.271   5.520   0.746
 6930SOL     OW21688   0.241   6.780   2.398
 6930SOL    HW121689   0.244   6.853   2.467
 6930SOL    HW221690   0.314   6.796   2.331
 6931SOL     OW21691   1.894   0.785   2.281
 6931SOL    HW121692   1.903   0.770   2.183
 6931SOL    HW221693   1.939   0.711   2.330
 6932SOL     OW21694   3.567   0.195   0.593
 6932SOL    HW121695   3.630   0.181   0.669
 6932SOL    HW221696   3.549   0.108   0.547
 6933SOL     OW21697   2.995   5.946   5.246
 6933SOL    HW121698   2.958   5.871   5.301
 6933SOL    HW221699   2.924   6.014   5.230
 6934SOL     OW21700   5.137   3.734   6.059
 6934SOL    HW121701   5.041   3.753   6.035
 6934SOL    HW221702   5.144   3.643   6.098
 6935SOL     OW21703   4.387   5.614   3.396
 6935SOL    HW121704   4.452   5.672   3.346
 6935SOL    HW221705   4.435   5.568   3.471
 6936SOL     OW21706   6.519   2.434   3.546
 6936SOL    HW121707   6.536   2.517   3.599
 6936SOL    HW221708   6.452   2.454   3.474
 6937SOL     OW21709   0.060   6.051   0.563
 6937SOL    HW121710   0.125   6.093   0.626
 6937SOL    HW221711   0.101   6.045   0.472
 6938SOL     OW21712   5.281   3.636   5.823
 6938SOL    HW121713   5.283   3.709   5.892
 6938SOL    HW221714   5.220   3.563   5.855
 6939SOL     OW21715   0.533   4.370   2.092
 6939SOL    HW121716   0.526   4.274   2.063
 6939SOL    HW221717   0.625   4.387   2.127
 6940SOL     OW21718   4.856   0.999   0.560
 6940SOL    HW121719   4.776   1.036   0.607
 6940SOL    HW221720   4.837   0.993   0.462
 6941SOL     OW21721   3.092   3.168   2.947
 6941SOL    HW121722   3.138   3.080   2.944
 6941SOL    HW221723   3.058   3.192   2.856
 6942SOL     OW21724   6.211   2.505   1.236
 6942SOL    HW121725   6.144   2.564   1.191
 6942SOL    HW221726   6.167   2.456   1.311
 6943SOL     OW21727   4.789   6.129   6.880
 6943SOL    HW121728   4.836   6.156   6.795
 6943SOL    HW221729   4.775   6.210   6.937
 6944SOL     OW21730   1.232   3.386   6.404
 6944SOL    HW121731   1.251   3.307   6.345
 6944SOL    HW221732   1.215   3.466   6.347
 6945SOL     OW21733   6.540   3.035   6.433
 6945SOL    HW121734   6.531   3.122   6.482
 6945SOL    HW221735   6.637   3.019   6.413
 6946SOL     OW21736   6.335   6.253   1.367
 6946SOL    HW121737   6.289   6.167   1.390
 6946SOL    HW221738   6.345   6.260   1.268
 6947SOL     OW21739   3.571   6.310   5.550
 6947SOL    HW121740   3.531   6.382   5.606
 6947SOL    HW221741   3.590   6.230   5.607
 6948SOL     OW21742   6.546   0.232   6.716
 6948SOL    HW121743   6.572   0.315   6.667
 6948SOL    HW221744   6.457   0.245   6.759
 6949SOL     OW21745   5.337   6.851   3.459
 6949SOL    HW121746   5.273   6.784   3.422
 6949SOL    HW221747   5.323   6.939   3.414
 6950SOL     OW21748   2.539   0.503   3.857
 6950SOL    HW121749   2.483   0.582   3.884
 6950SOL    HW221750   2.560   0.510   3.760
 6951SOL     OW21751   6.811   6.255   5.863
 6951SOL    HW121752   6.733   6.263   5.926
 6951SOL    HW221753   6.805   6.327   5.794
 6952SOL     OW21754   0.178   5.598   3.880
 6952SOL    HW121755   0.240   5.559   3.812
 6952SOL    HW221756   0.232   5.639   3.954
 6953SOL     OW21757   4.972   6.968   0.043
 6953SOL    HW121758   5.018   6.987   0.130
 6953SOL    HW221759   4.917   0.025   0.017
 6954SOL     OW21760   0.209   3.482   3.643
 6954SOL    HW121761   0.213   3.475   3.743
 6954SOL    HW221762   0.261   3.562   3.613
 6955SOL     OW21763   6.360   0.860   1.850
 6955SOL    HW121764   6.427   0.914   1.901
 6955SOL    HW221765   6.399   0.833   1.762
 6956SOL     OW21766   4.836   6.763   3.595
 6956SOL    HW121767   4.855   6.755   3.692
 6956SOL    HW221768   4.742   6.796   3.582
 6957SOL     OW21769   5.986   5.474   0.656
 6957SOL    HW121770   6.048   5.503   0.729
 6957SOL    HW221771   6.017   5.386   0.619
 6958SOL     OW21772   3.149   4.151   5.056
 6958SOL    HW121773   3.214   4.130   5.128
 6958SOL    HW221774   3.129   4.249   5.057
 6959SOL     OW21775   1.878   1.806   4.533
 6959SOL    HW121776   1.961   1.813   4.477
 6959SOL    HW221777   1.798   1.804   4.474
 6960SOL     OW21778   1.681   5.692   1.470
 6960SOL    HW121779   1.778   5.691   1.491
 6960SOL    HW221780   1.654   5.606   1.428
 6961SOL     OW21781   6.104   2.073   4.553
 6961SOL    HW121782   6.011   2.095   4.521
 6961SOL    HW221783   6.162   2.053   4.475
 6962SOL     OW21784   5.555   6.255   2.120
 6962SOL    HW121785   5.542   6.345   2.078
 6962SOL    HW221786   5.474   6.199   2.105
 6963SOL     OW21787   6.047   5.860   1.406
 6963SOL    HW121788   6.000   5.782   1.364
 6963SOL    HW221789   5.989   5.941   1.400
 6964SOL     OW21790   3.360   6.628   5.011
 6964SOL    HW121791   3.382   6.724   5.026
 6964SOL    HW221792   3.442   6.572   5.024
 6965SOL     OW21793   0.388   3.149   0.681
 6965SOL    HW121794   0.306   3.206   0.687
 6965SOL    HW221795   0.434   3.166   0.593
 6966SOL     OW21796   6.900   2.305   3.463
 6966SOL    HW121797   6.893   2.250   3.379
 6966SOL    HW221798   6.879   2.400   3.443
 6967SOL     OW21799   1.364   0.045   5.487
 6967SOL    HW121800   1.281   0.047   5.541
 6967SOL    HW221801   1.392   6.973   5.472
 6968SOL     OW21802   4.485   6.862   2.679
 6968SOL    HW121803   4.406   6.844   2.619
 6968SOL    HW221804   4.563   6.808   2.647
 6969SOL     OW21805   2.547   2.309   1.143
 6969SOL    HW121806   2.567   2.255   1.061
 6969SOL    HW221807   2.478   2.379   1.120
 6970SOL     OW21808   3.029   4.070   6.072
 6970SOL    HW121809   3.127   4.085   6.083
 6970SOL    HW221810   2.979   4.119   6.143
 6971SOL     OW21811   6.302   4.453   1.602
 6971SOL    HW121812   6.401   4.464   1.598
 6971SOL    HW221813   6.271   4.466   1.696
 6972SOL     OW21814   5.768   4.839   3.071
 6972SOL    HW121815   5.740   4.935   3.070
 6972SOL    HW221816   5.691   4.782   3.046
 6973SOL     OW21817   0.210   3.201   5.167
 6973SOL    HW121818   0.279   3.273   5.157
 6973SOL    HW221819   0.227   3.150   5.251
 6974SOL     OW21820   3.055   3.056   2.682
 6974SOL    HW121821   2.967   3.008   2.676
 6974SOL    HW221822   3.112   3.030   2.604
 6975SOL     OW21823   1.938   5.703   6.000
 6975SOL    HW121824   1.903   5.769   6.067
 6975SOL    HW221825   2.018   5.656   6.039
 6976SOL     OW21826   4.735   6.144   4.880
 6976SOL    HW121827   4.782   6.199   4.949
 6976SOL    HW221828   4.716   6.200   4.799
 6977SOL     OW21829   4.388   2.468   1.741
 6977SOL    HW121830   4.449   2.464   1.662
 6977SOL    HW221831   4.440   2.451   1.825
 6978SOL     OW21832   4.045   1.856   2.534
 6978SOL    HW121833   3.949   1.880   2.544
 6978SOL    HW221834   4.054   1.758   2.515
 6979SOL     OW21835   1.515   4.625   1.279
 6979SOL    HW121836   1.560   4.544   1.316
 6979SOL    HW221837   1.573   4.668   1.210
 6980SOL     OW21838   1.262   1.333   3.930
 6980SOL    HW121839   1.354   1.367   3.950
 6980SOL    HW221840   1.246   1.337   3.831
 6981SOL     OW21841   3.925   2.789   5.849
 6981SOL    HW121842   3.948   2.736   5.767
 6981SOL    HW221843   3.836   2.760   5.883
 6982SOL     OW21844   1.440   0.405   4.915
 6982SOL    HW121845   1.438   0.468   4.837
 6982SOL    HW221846   1.391   0.321   4.892
 6983SOL     OW21847   4.306   2.186   3.716
 6983SOL    HW121848   4.289   2.284   3.707
 6983SOL    HW221849   4.387   2.171   3.774
 6984SOL     OW21850   2.739   1.604   4.092
 6984SOL    HW121851   2.744   1.513   4.051
 6984SOL    HW221852   2.736   1.674   4.020
 6985SOL     OW21853   4.314   5.182   1.242
 6985SOL    HW121854   4.289   5.172   1.146
 6985SOL    HW221855   4.285   5.271   1.275
 6986SOL     OW21856   2.110   6.759   6.269
 6986SOL    HW121857   2.113   6.859   6.276
 6986SOL    HW221858   2.015   6.728   6.279
 6987SOL     OW21859   0.169   1.374   6.003
 6987SOL    HW121860   0.154   1.284   5.961
 6987SOL    HW221861   0.267   1.393   6.005
 6988SOL     OW21862   0.104   0.512   5.857
 6988SOL    HW121863   0.143   0.525   5.948
 6988SOL    HW221864   0.005   0.526   5.861
 6989SOL     OW21865   0.289   4.141   3.225
 6989SOL    HW121866   0.298   4.109   3.131
 6989SOL    HW221867   0.192   4.145   3.249
 6990SOL     OW21868   4.814   2.686   1.163
 6990SOL    HW121869   4.714   2.696   1.168
 6990SOL    HW221870   4.852   2.690   1.255
 6991SOL     OW21871   3.691   4.943   4.061
 6991SOL    HW121872   3.618   4.883   4.094
 6991SOL    HW221873   3.675   4.964   3.964
 6992SOL     OW21874   4.978   5.987   5.678
 6992SOL    HW121875   5.068   6.014   5.712
 6992SOL    HW221876   4.941   5.915   5.736
 6993SOL     OW21877   6.446   0.497   3.380
 6993SOL    HW121878   6.506   0.538   3.311
 6993SOL    HW221879   6.414   0.568   3.443
 6994SOL     OW21880   0.289   1.714   4.483
 6994SOL    HW121881   0.201   1.718   4.436
 6994SOL    HW221882   0.355   1.665   4.425
 6995SOL     OW21883   6.645   4.499   6.133
 6995SOL    HW121884   6.614   4.578   6.079
 6995SOL    HW221885   6.706   4.530   6.205
 6996SOL     OW21886   1.894   0.554   6.548
 6996SOL    HW121887   1.962   0.502   6.496
 6996SOL    HW221888   1.803   0.522   6.526
 6997SOL     OW21889   6.088   6.007   5.477
 6997SOL    HW121890   6.086   5.926   5.535
 6997SOL    HW221891   6.148   5.990   5.398
 6998SOL     OW21892   1.819   1.626   1.429
 6998SOL    HW121893   1.751   1.559   1.400
 6998SOL    HW221894   1.773   1.708   1.463
 6999SOL     OW21895   2.463   3.275   5.868
 6999SOL    HW121896   2.381   3.224   5.896
 6999SOL    HW221897   2.459   3.367   5.907
 7000SOL     OW21898   6.288   6.306   1.624
 7000SOL    HW121899   6.330   6.393   1.652
 7000SOL    HW221900   6.302   6.293   1.525
 7001SOL     OW21901   2.267   2.884   5.426
 7001SOL    HW121902   2.240   2.834   5.344
 7001SOL    HW221903   2.295   2.977   5.400
 7002SOL     OW21904   2.074   5.355   3.486
 7002SOL    HW121905   2.114   5.440   3.519
 7002SOL    HW221906   2.068   5.289   3.561
 7003SOL     OW21907   3.854   5.624   0.151
 7003SOL    HW121908   3.893   5.588   0.067
 7003SOL    HW221909   3.772   5.573   0.176
 7004SOL     OW21910   1.192   4.538   2.551
 7004SOL    HW121911   1.222   4.533   2.456
 7004SOL    HW221912   1.155   4.449   2.578
 7005SOL     OW21913   1.364   0.079   0.241
 7005SOL    HW121914   1.297   0.039   0.179
 7005SOL    HW221915   1.379   0.175   0.217
 7006SOL     OW21916   4.617   4.762   3.871
 7006SOL    HW121917   4.716   4.771   3.882
 7006SOL    HW221918   4.571   4.834   3.924
 7007SOL     OW21919   4.585   0.334   3.786
 7007SOL    HW121920   4.604   0.425   3.822
 7007SOL    HW221921   4.612   0.265   3.853
 7008SOL     OW21922   1.174   4.447   4.708
 7008SOL    HW121923   1.258   4.401   4.738
 7008SOL    HW221924   1.107   4.444   4.782
 7009SOL     OW21925   6.116   6.121   2.081
 7009SOL    HW121926   6.036   6.153   2.031
 7009SOL    HW221927   6.187   6.092   2.017
 7010SOL     OW21928   5.206   4.780   4.756
 7010SOL    HW121929   5.252   4.692   4.742
 7010SOL    HW221930   5.139   4.772   4.829
 7011SOL     OW21931   4.205   6.854   6.490
 7011SOL    HW121932   4.193   6.948   6.521
 7011SOL    HW221933   4.297   6.844   6.451
 7012SOL     OW21934   2.123   1.850   1.724
 7012SOL    HW121935   2.087   1.759   1.745
 7012SOL    HW221936   2.192   1.843   1.652
 7013SOL     OW21937   0.956   0.322   0.973
 7013SOL    HW121938   1.006   0.282   0.895
 7013SOL    HW221939   0.858   0.318   0.954
 7014SOL     OW21940   3.787   3.252   1.143
 7014SOL    HW121941   3.706   3.306   1.166
 7014SOL    HW221942   3.868   3.310   1.151
 7015SOL     OW21943   5.946   4.211   1.933
 7015SOL    HW121944   5.879   4.220   2.007
 7015SOL    HW221945   6.033   4.179   1.971
 7016SOL     OW21946   3.652   4.891   1.434
 7016SOL    HW121947   3.723   4.949   1.395
 7016SOL    HW221948   3.692   4.833   1.505
 7017SOL     OW21949   3.174   5.837   2.982
 7017SOL    HW121950   3.173   5.797   2.890
 7017SOL    HW221951   3.105   5.909   2.988
 7018SOL     OW21952   5.945   4.119   3.994
 7018SOL    HW121953   5.872   4.064   3.954
 7018SOL    HW221954   6.012   4.059   4.038
 7019SOL     OW21955   2.731   4.382   6.871
 7019SOL    HW121956   2.793   4.336   6.808
 7019SOL    HW221957   2.640   4.388   6.830
 7020SOL     OW21958   6.274   6.604   6.749
 7020SOL    HW121959   6.296   6.620   6.652
 7020SOL    HW221960   6.351   6.558   6.793
 7021SOL     OW21961   1.679   1.489   6.006
 7021SOL    HW121962   1.603   1.460   5.948
 7021SOL    HW221963   1.707   1.414   6.066
 7022SOL     OW21964   4.495   6.326   0.172
 7022SOL    HW121965   4.404   6.299   0.138
 7022SOL    HW221966   4.517   6.418   0.139
 7023SOL     OW21967   0.232   1.486   3.774
 7023SOL    HW121968   0.150   1.504   3.827
 7023SOL    HW221969   0.210   1.484   3.676
 7024SOL     OW21970   2.246   3.972   5.385
 7024SOL    HW121971   2.318   3.993   5.319
 7024SOL    HW221972   2.199   3.888   5.358
 7025SOL     OW21973   2.446   1.016   6.711
 7025SOL    HW121974   2.450   0.918   6.732
 7025SOL    HW221975   2.372   1.033   6.646
 7026SOL     OW21976   3.492   2.428   1.644
 7026SOL    HW121977   3.571   2.447   1.701
 7026SOL    HW221978   3.417   2.394   1.700
 7027SOL     OW21979   2.583   5.058   4.411
 7027SOL    HW121980   2.527   5.069   4.329
 7027SOL    HW221981   2.655   5.127   4.412
 7028SOL     OW21982   4.098   1.025   4.069
 7028SOL    HW121983   4.013   1.062   4.031
 7028SOL    HW221984   4.084   1.000   4.165
 7029SOL     OW21985   5.306   4.536   5.743
 7029SOL    HW121986   5.388   4.589   5.763
 7029SOL    HW221987   5.269   4.562   5.654
 7030SOL     OW21988   1.211   1.247   5.614
 7030SOL    HW121989   1.126   1.279   5.655
 7030SOL    HW221990   1.244   1.167   5.663
 7031SOL     OW21991   2.699   6.136   4.989
 7031SOL    HW121992   2.691   6.081   5.071
 7031SOL    HW221993   2.718   6.231   5.014
 7032SOL     OW21994   3.312   0.715   2.777
 7032SOL    HW121995   3.239   0.648   2.764
 7032SOL    HW221996   3.382   0.702   2.707
 7033SOL     OW21997   1.607   2.406   3.327
 7033SOL    HW121998   1.678   2.373   3.391
 7033SOL    HW221999   1.562   2.485   3.367
 7034SOL     OW22000   5.759   0.555   2.892
 7034SOL    HW122001   5.821   0.627   2.861
 7034SOL    HW222002   5.787   0.467   2.852
 7035SOL     OW22003   1.973   6.804   1.662
 7035SOL    HW122004   2.047   6.759   1.612
 7035SOL    HW222005   1.947   6.749   1.741
 7036SOL     OW22006   0.393   0.775   2.540
 7036SOL    HW122007   0.406   0.790   2.638
 7036SOL    HW222008   0.454   0.837   2.489
 7037SOL     OW22009   2.175   0.967   6.284
 7037SOL    HW122010   2.164   0.931   6.376
 7037SOL    HW222011   2.092   1.016   6.257
 7038SOL     OW22012   1.858   3.395   5.169
 7038SOL    HW122013   1.834   3.322   5.105
 7038SOL    HW222014   1.919   3.460   5.124
 7039SOL     OW22015   2.683   4.532   1.503
 7039SOL    HW122016   2.770   4.520   1.455
 7039SOL    HW222017   2.679   4.624   1.542
 7040SOL     OW22018   6.122   1.957   4.774
 7040SOL    HW122019   6.221   1.956   4.790
 7040SOL    HW222020   6.103   1.991   4.682
 7041SOL     OW22021   0.098   1.659   1.984
 7041SOL    HW122022   0.136   1.751   1.981
 7041SOL    HW222023   0.140   1.608   2.059
 7042SOL     OW22024   5.229   4.805   5.545
 7042SOL    HW122025   5.300   4.865   5.507
 7042SOL    HW222026   5.241   4.713   5.507
 7043SOL     OW22027   2.163   3.646   2.668
 7043SOL    HW122028   2.168   3.633   2.569
 7043SOL    HW222029   2.183   3.741   2.690
 7044SOL     OW22030   4.549   4.493   3.348
 7044SOL    HW122031   4.594   4.567   3.299
 7044SOL    HW222032   4.578   4.405   3.310
 7045SOL     OW22033   5.343   5.158   3.385
 7045SOL    HW122034   5.317   5.227   3.317
 7045SOL    HW222035   5.377   5.203   3.467
 7046SOL     OW22036   3.085   1.705   2.924
 7046SOL    HW122037   3.017   1.747   2.863
 7046SOL    HW222038   3.037   1.656   2.997
 7047SOL     OW22039   0.227   2.433   2.190
 7047SOL    HW122040   0.193   2.467   2.277
 7047SOL    HW222041   0.251   2.337   2.198
 7048SOL     OW22042   5.825   6.172   2.521
 7048SOL    HW122043   5.878   6.257   2.513
 7048SOL    HW222044   5.848   6.127   2.608
 7049SOL     OW22045   3.487   1.475   1.251
 7049SOL    HW122046   3.428   1.412   1.200
 7049SOL    HW222047   3.434   1.555   1.279
 7050SOL     OW22048   3.983   4.033   1.806
 7050SOL    HW122049   4.031   4.003   1.889
 7050SOL    HW222050   3.884   4.025   1.821
 7051SOL     OW22051   0.018   0.183   2.091
 7051SOL    HW122052   0.077   0.194   2.170
 7051SOL    HW222053   0.059   0.228   2.012
 7052SOL     OW22054   5.492   2.468   3.811
 7052SOL    HW122055   5.424   2.516   3.756
 7052SOL    HW222056   5.584   2.490   3.779
 7053SOL     OW22057   0.585   3.404   5.138
 7053SOL    HW122058   0.677   3.442   5.143
 7053SOL    HW222059   0.541   3.410   5.228
 7054SOL     OW22060   0.700   6.903   0.381
 7054SOL    HW122061   0.669   6.886   0.474
 7054SOL    HW222062   0.695   6.818   0.328
 7055SOL     OW22063   3.123   6.809   5.302
 7055SOL    HW122064   3.077   6.741   5.360
 7055SOL    HW222065   3.144   6.890   5.356
 7056SOL     OW22066   6.868   5.575   2.050
 7056SOL    HW122067   6.936   5.580   1.977
 7056SOL    HW222068   6.785   5.531   2.016
 7057SOL     OW22069   1.059   5.584   4.125
 7057SOL    HW122070   0.963   5.563   4.140
 7057SOL    HW222071   1.116   5.518   4.175
 7058SOL     OW22072   6.066   5.207   6.186
 7058SOL    HW122073   6.103   5.259   6.263
 7058SOL    HW222074   6.061   5.265   6.105
 7059SOL     OW22075   0.009   0.745   4.193
 7059SOL    HW122076   0.068   0.700   4.127
 7059SOL    HW222077   0.063   0.808   4.249
 7060SOL     OW22078   4.179   0.384   2.069
 7060SOL    HW122079   4.256   0.365   2.008
 7060SOL    HW222080   4.195   0.341   2.158
 7061SOL     OW22081   1.042   3.141   4.060
 7061SOL    HW122082   1.069   3.062   4.115
 7061SOL    HW222083   1.064   3.124   3.964
 7062SOL     OW22084   4.466   1.309   5.026
 7062SOL    HW122085   4.485   1.367   4.947
 7062SOL    HW222086   4.370   1.282   5.026
 7063SOL     OW22087   1.173   0.212   2.005
 7063SOL    HW122088   1.223   0.191   1.921
 7063SOL    HW222089   1.076   0.191   1.993
 7064SOL     OW22090   3.797   2.104   1.554
 7064SOL    HW122091   3.813   2.105   1.456
 7064SOL    HW222092   3.841   2.184   1.596
 7065SOL     OW22093   3.774   3.887   6.097
 7065SOL    HW122094   3.731   3.798   6.106
 7065SOL    HW222095   3.767   3.918   6.002
 7066SOL     OW22096   4.550   0.610   0.354
 7066SOL    HW122097   4.541   0.591   0.256
 7066SOL    HW222098   4.636   0.572   0.387
 7067SOL     OW22099   2.300   2.098   4.969
 7067SOL    HW122100   2.396   2.099   4.996
 7067SOL    HW222101   2.257   2.013   5.000
 7068SOL     OW22102   0.237   4.136   4.001
 7068SOL    HW122103   0.232   4.044   3.962
 7068SOL    HW222104   0.333   4.161   4.014
 7069SOL     OW22105   5.704   1.244   4.719
 7069SOL    HW122106   5.695   1.343   4.704
 7069SOL    HW222107   5.613   1.202   4.716
 7070SOL     OW22108   6.821   6.128   4.914
 7070SOL    HW122109   6.728   6.143   4.882
 7070SOL    HW222110   6.860   6.214   4.948
 7071SOL     OW22111   2.402   5.881   6.609
 7071SOL    HW122112   2.499   5.879   6.633
 7071SOL    HW222113   2.347   5.877   6.693
 7072SOL     OW22114   1.455   6.057   6.936
 7072SOL    HW122115   1.370   6.054   6.989
 7072SOL    HW222116   1.467   6.149   6.898
 7073SOL     OW22117   4.806   0.159   4.716
 7073SOL    HW122118   4.738   0.099   4.757
 7073SOL    HW222119   4.762   0.220   4.651
 7074SOL     OW22120   4.796   2.612   2.580
 7074SOL    HW122121   4.770   2.526   2.623
 7074SOL    HW222122   4.768   2.611   2.484
 7075SOL     OW22123   1.252   4.534   5.038
 7075SOL    HW122124   1.263   4.437   5.017
 7075SOL    HW222125   1.155   4.558   5.031
 7076SOL     OW22126   5.831   1.873   6.525
 7076SOL    HW122127   5.925   1.859   6.557
 7076SOL    HW222128   5.830   1.942   6.453
 7077SOL     OW22129   2.659   4.591   4.105
 7077SOL    HW122130   2.628   4.614   4.013
 7077SOL    HW222131   2.725   4.517   4.101
 7078SOL     OW22132   0.142   6.725   1.650
 7078SOL    HW122133   0.242   6.735   1.653
 7078SOL    HW222134   0.102   6.803   1.602
 7079SOL     OW22135   6.820   6.200   4.157
 7079SOL    HW122136   6.784   6.258   4.085
 7079SOL    HW222137   6.902   6.153   4.123
 7080SOL     OW22138   2.873   1.629   4.884
 7080SOL    HW122139   2.784   1.671   4.865
 7080SOL    HW222140   2.897   1.567   4.810
 7081SOL     OW22141   3.267   6.757   6.428
 7081SOL    HW122142   3.278   6.824   6.356
 7081SOL    HW222143   3.302   6.794   6.514
 7082SOL     OW22144   6.546   3.968   6.796
 7082SOL    HW122145   6.503   4.039   6.741
 7082SOL    HW222146   6.556   3.885   6.741
 7083SOL     OW22147   2.836   0.404   0.487
 7083SOL    HW122148   2.903   0.468   0.449
 7083SOL    HW222149   2.854   0.392   0.584
 7084SOL     OW22150   0.276   6.300   5.881
 7084SOL    HW122151   0.255   6.266   5.973
 7084SOL    HW222152   0.193   6.294   5.824
 7085SOL     OW22153   0.938   1.591   2.141
 7085SOL    HW122154   0.899   1.555   2.056
 7085SOL    HW222155   0.992   1.673   2.121
 7086SOL     OW22156   5.324   0.670   5.368
 7086SOL    HW122157   5.368   0.637   5.284
 7086SOL    HW222158   5.393   0.687   5.438
 7087SOL     OW22159   6.134   3.151   4.285
 7087SOL    HW122160   6.188   3.173   4.366
 7087SOL    HW222161   6.037   3.162   4.307
 7088SOL     OW22162   6.000   2.589   3.707
 7088SOL    HW122163   6.048   2.509   3.743
 7088SOL    HW222164   6.009   2.591   3.608
 7089SOL     OW22165   3.010   2.068   4.635
 7089SOL    HW122166   2.912   2.085   4.630
 7089SOL    HW222167   3.029   2.003   4.709
 7090SOL     OW22168   2.195   0.393   6.745
 7090SOL    HW122169   2.221   0.296   6.743
 7090SOL    HW222170   2.227   0.437   6.661
 7091SOL     OW22171   0.681   1.614   6.723
 7091SOL    HW122172   0.665   1.589   6.628
 7091SOL    HW222173   0.656   1.537   6.782
 7092SOL     OW22174   4.262   3.023   5.733
 7092SOL    HW122175   4.198   3.053   5.803
 7092SOL    HW222176   4.256   3.083   5.653
 7093SOL     OW22177   2.969   3.824   3.140
 7093SOL    HW122178   2.939   3.911   3.180
 7093SOL    HW222179   3.013   3.841   3.052
 7094SOL     OW22180   0.011   6.310   6.037
 7094SOL    HW122181   0.031   6.407   6.030
 7094SOL    HW222182   6.954   6.287   5.980
 7095SOL     OW22183   3.839   4.215   5.955
 7095SOL    HW122184   3.865   4.279   5.883
 7095SOL    HW222185   3.808   4.129   5.915
 7096SOL     OW22186   6.442   0.370   3.868
 7096SOL    HW122187   6.351   0.391   3.902
 7096SOL    HW222188   6.485   0.454   3.834
 7097SOL     OW22189   6.001   2.190   1.610
 7097SOL    HW122190   6.021   2.264   1.546
 7097SOL    HW222191   6.060   2.112   1.590
 7098SOL     OW22192   1.489   6.375   5.128
 7098SOL    HW122193   1.456   6.376   5.033
 7098SOL    HW222194   1.437   6.308   5.181
 7099SOL     OW22195   3.481   1.135   5.320
 7099SOL    HW122196   3.397   1.183   5.345
 7099SOL    HW222197   3.458   1.052   5.268
 7100SOL     OW22198   5.296   3.094   1.118
 7100SOL    HW122199   5.306   3.057   1.026
 7100SOL    HW222200   5.212   3.060   1.159
 7101SOL     OW22201   1.983   0.716   4.761
 7101SOL    HW122202   2.059   0.780   4.763
 7101SOL    HW222203   1.985   0.664   4.675
 7102SOL     OW22204   5.361   6.612   0.671
 7102SOL    HW122205   5.277   6.600   0.723
 7102SOL    HW222206   5.385   6.526   0.626
 7103SOL     OW22207   4.792   4.528   1.550
 7103SOL    HW122208   4.759   4.434   1.541
 7103SOL    HW222209   4.844   4.538   1.635
 7104SOL     OW22210   0.159   2.872   4.124
 7104SOL    HW122211   0.122   2.843   4.212
 7104SOL    HW222212   0.251   2.909   4.136
 7105SOL     OW22213   2.798   2.995   5.700
 7105SOL    HW122214   2.779   3.086   5.663
 7105SOL    HW222215   2.881   2.959   5.657
 7106SOL     OW22216   3.916   3.391   3.016
 7106SOL    HW122217   3.932   3.456   2.942
 7106SOL    HW222218   3.930   3.298   2.981
 7107SOL     OW22219   4.363   1.215   0.465
 7107SOL    HW122220   4.264   1.223   0.452
 7107SOL    HW222221   4.381   1.154   0.542
 7108SOL     OW22222   4.273   5.753   2.787
 7108SOL    HW122223   4.271   5.730   2.885
 7108SOL    HW222224   4.208   5.827   2.769
 7109SOL     OW22225   3.082   0.501   6.039
 7109SOL    HW122226   2.988   0.478   6.013
 7109SOL    HW222227   3.142   0.489   5.960
 7110SOL     OW22228   2.898   5.737   4.371
 7110SOL    HW122229   2.955   5.734   4.453
 7110SOL    HW222230   2.943   5.793   4.301
 7111SOL     OW22231   1.208   2.619   4.818
 7111SOL    HW122232   1.119   2.615   4.772
 7111SOL    HW222233   1.200   2.669   4.904
 7112SOL     OW22234   1.933   4.894   4.749
 7112SOL    HW122235   2.003   4.892   4.678
 7112SOL    HW222236   1.853   4.942   4.715
 7113SOL     OW22237   4.064   3.671   4.674
 7113SOL    HW122238   4.125   3.739   4.714
 7113SOL    HW222239   4.073   3.585   4.724
 7114SOL     OW22240   4.430   6.411   1.508
 7114SOL    HW122241   4.498   6.475   1.546
 7114SOL    HW222242   4.354   6.402   1.573
 7115SOL     OW22243   5.237   3.264   1.447
 7115SOL    HW122244   5.235   3.358   1.480
 7115SOL    HW222245   5.152   3.243   1.399
 7116SOL     OW22246   6.144   4.057   3.476
 7116SOL    HW122247   6.213   4.087   3.542
 7116SOL    HW222248   6.078   4.131   3.461
 7117SOL     OW22249   0.597   6.222   5.062
 7117SOL    HW122250   0.662   6.152   5.033
 7117SOL    HW222251   0.626   6.260   5.150
 7118SOL     OW22252   2.898   4.433   0.870
 7118SOL    HW122253   2.938   4.347   0.901
 7118SOL    HW222254   2.876   4.426   0.772
 7119SOL     OW22255   4.869   2.256   3.508
 7119SOL    HW122256   4.816   2.317   3.567
 7119SOL    HW222257   4.942   2.308   3.462
 7120SOL     OW22258   3.763   1.472   2.485
 7120SOL    HW122259   3.795   1.431   2.400
 7120SOL    HW222260   3.688   1.535   2.466
 7121SOL     OW22261   1.000   0.125   3.335
 7121SOL    HW122262   1.066   0.086   3.271
 7121SOL    HW222263   0.939   0.053   3.369
 7122SOL     OW22264   0.795   0.312   5.561
 7122SOL    HW122265   0.887   0.347   5.547
 7122SOL    HW222266   0.746   0.310   5.474
 7123SOL     OW22267   1.757   4.043   3.497
 7123SOL    HW122268   1.845   3.997   3.484
 7123SOL    HW222269   1.735   4.097   3.416
 7124SOL     OW22270   6.967   2.161   1.245
 7124SOL    HW122271   6.870   2.185   1.240
 7124SOL    HW222272   6.979   2.066   1.215
 7125SOL     OW22273   0.204   6.703   1.159
 7125SOL    HW122274   0.213   6.641   1.082
 7125SOL    HW222275   0.235   6.794   1.133
 7126SOL     OW22276   3.543   5.149   0.210
 7126SOL    HW122277   3.449   5.122   0.191
 7126SOL    HW222278   3.560   5.143   0.309
 7127SOL     OW22279   1.338   5.056   5.664
 7127SOL    HW122280   1.405   5.130   5.673
 7127SOL    HW222281   1.246   5.092   5.681
 7128SOL     OW22282   2.735   5.014   0.288
 7128SOL    HW122283   2.670   5.028   0.212
 7128SOL    HW222284   2.684   5.004   0.373
 7129SOL     OW22285   2.335   1.910   6.888
 7129SOL    HW122286   2.365   1.815   6.878
 7129SOL    HW222287   2.401   1.970   6.844
 7130SOL     OW22288   4.273   6.243   5.019
 7130SOL    HW122289   4.244   6.276   4.929
 7130SOL    HW222290   4.352   6.182   5.008
 7131SOL     OW22291   2.752   0.333   0.928
 7131SOL    HW122292   2.709   0.246   0.903
 7131SOL    HW222293   2.761   0.338   1.028
 7132SOL     OW22294   3.913   4.270   6.988
 7132SOL    HW122295   3.897   4.362   7.022
 7132SOL    HW222296   3.990   4.229   0.013
 7133SOL     OW22297   4.887   5.799   6.193
 7133SOL    HW122298   4.946   5.775   6.271
 7133SOL    HW222299   4.891   5.726   6.125
 7134SOL     OW22300   5.052   6.963   1.988
 7134SOL    HW122301   5.149   6.974   1.964
 7134SOL    HW222302   4.999   0.014   1.945
 7135SOL     OW22303   1.505   3.139   3.208
 7135SOL    HW122304   1.514   3.225   3.159
 7135SOL    HW222305   1.408   3.120   3.224
 7136SOL     OW22306   2.488   3.024   1.322
 7136SOL    HW122307   2.503   2.954   1.252
 7136SOL    HW222308   2.571   3.033   1.377
 7137SOL     OW22309   4.174   0.106   6.522
 7137SOL    HW122310   4.150   0.155   6.438
 7137SOL    HW222311   4.133   0.152   6.600
 7138SOL     OW22312   2.161   2.599   0.386
 7138SOL    HW122313   2.102   2.580   0.465
 7138SOL    HW222314   2.193   2.693   0.391
 7139SOL     OW22315   5.835   4.183   1.554
 7139SOL    HW122316   5.822   4.237   1.637
 7139SOL    HW222317   5.848   4.087   1.578
 7140SOL     OW22318   6.159   4.167   3.145
 7140SOL    HW122319   6.194   4.082   3.107
 7140SOL    HW222320   6.060   4.173   3.127
 7141SOL     OW22321   3.806   5.544   1.060
 7141SOL    HW122322   3.874   5.582   0.997
 7141SOL    HW222323   3.795   5.605   1.139
 7142SOL     OW22324   4.116   0.442   3.233
 7142SOL    HW122325   4.148   0.537   3.223
 7142SOL    HW222326   4.077   0.411   3.146
 7143SOL     OW22327   1.082   2.466   5.945
 7143SOL    HW122328   1.174   2.490   5.916
 7143SOL    HW222329   1.038   2.410   5.876
 7144SOL     OW22330   1.986   2.536   1.986
 7144SOL    HW122331   2.061   2.602   1.991
 7144SOL    HW222332   1.899   2.584   1.998
 7145SOL     OW22333   4.531   0.225   0.268
 7145SOL    HW122334   4.525   0.324   0.254
 7145SOL    HW222335   4.620   0.203   0.308
 7146SOL     OW22336   2.052   0.138   0.790
 7146SOL    HW122337   2.011   0.227   0.812
 7146SOL    HW222338   2.012   0.069   0.850
 7147SOL     OW22339   6.893   7.001   3.166
 7147SOL    HW122340   6.953   6.989   3.086
 7147SOL    HW222341   6.799   7.012   3.135
 7148SOL     OW22342   0.401   5.983   0.966
 7148SOL    HW122343   0.463   5.986   1.044
 7148SOL    HW222344   0.320   6.039   0.986
 7149SOL     OW22345   6.284   6.133   3.365
 7149SOL    HW122346   6.262   6.227   3.391
 7149SOL    HW222347   6.254   6.070   3.438
 7150SOL     OW22348   3.163   2.452   1.708
 7150SOL    HW122349   3.087   2.466   1.770
 7150SOL    HW222350   3.223   2.380   1.743
 7151SOL     OW22351   2.667   5.879   0.657
 7151SOL    HW122352   2.584   5.875   0.714
 7151SOL    HW222353   2.743   5.914   0.712
 7152SOL     OW22354   0.672   0.656   5.246
 7152SOL    HW122355   0.728   0.699   5.317
 7152SOL    HW222356   0.648   0.724   5.177
 7153SOL     OW22357   3.671   5.563   1.552
 7153SOL    HW122358   3.723   5.495   1.604
 7153SOL    HW222359   3.596   5.598   1.608
 7154SOL     OW22360   4.427   0.332   3.464
 7154SOL    HW122361   4.511   0.279   3.469
 7154SOL    HW222362   4.418   0.389   3.546
 7155SOL     OW22363   1.850   3.745   1.124
 7155SOL    HW122364   1.793   3.786   1.195
 7155SOL    HW222365   1.882   3.655   1.156
 7156SOL     OW22366   6.972   3.312   3.771
 7156SOL    HW122367   0.024   3.297   3.704
 7156SOL    HW222368   6.995   3.391   3.827
 7157SOL     OW22369   0.354   3.727   1.775
 7157SOL    HW122370   0.444   3.763   1.753
 7157SOL    HW222371   0.297   3.726   1.692
 7158SOL     OW22372   1.653   0.120   3.983
 7158SOL    HW122373   1.561   0.134   3.946
 7158SOL    HW222374   1.663   0.025   4.013
 7159SOL     OW22375   0.433   5.120   2.503
 7159SOL    HW122376   0.455   5.028   2.470
 7159SOL    HW222377   0.410   5.116   2.600
 7160SOL     OW22378   5.462   0.430   2.540
 7160SOL    HW122379   5.383   0.434   2.600
 7160SOL    HW222380   5.537   0.482   2.580
 7161SOL     OW22381   3.326   4.163   4.318
 7161SOL    HW122382   3.271   4.123   4.392
 7161SOL    HW222383   3.347   4.258   4.340
 7162SOL     OW22384   0.881   5.236   6.216
 7162SOL    HW122385   0.960   5.289   6.244
 7162SOL    HW222386   0.826   5.213   6.296
 7163SOL     OW22387   2.869   6.969   2.521
 7163SOL    HW122388   2.927   0.026   2.538
 7163SOL    HW222389   2.891   6.896   2.586
 7164SOL     OW22390   2.039   0.547   3.905
 7164SOL    HW122391   2.002   0.613   3.970
 7164SOL    HW222392   2.122   0.505   3.943
 7165SOL     OW22393   6.690   1.129   2.572
 7165SOL    HW122394   6.605   1.115   2.522
 7165SOL    HW222395   6.729   1.218   2.547
 7166SOL     OW22396   5.879   2.162   0.947
 7166SOL    HW122397   5.781   2.168   0.967
 7166SOL    HW222398   5.895   2.183   0.850
 7167SOL     OW22399   5.451   3.349   4.050
 7167SOL    HW122400   5.520   3.416   4.074
 7167SOL    HW222401   5.489   3.257   4.060
 7168SOL     OW22402   1.282   2.972   2.680
 7168SOL    HW122403   1.249   2.891   2.728
 7168SOL    HW222404   1.205   3.021   2.640
 7169SOL     OW22405   0.559   2.659   4.963
 7169SOL    HW122406   0.464   2.664   4.933
 7169SOL    HW222407   0.579   2.567   4.996
 7170SOL     OW22408   4.611   0.153   4.051
 7170SOL    HW122409   4.621   0.216   4.129
 7170SOL    HW222410   4.689   0.091   4.049
 7171SOL     OW22411   6.015   3.838   0.455
 7171SOL    HW122412   6.046   3.774   0.384
 7171SOL    HW222413   5.915   3.845   0.453
 7172SOL     OW22414   1.189   6.860   4.778
 7172SOL    HW122415   1.282   6.848   4.743
 7172SOL    HW222416   1.165   6.958   4.776
 7173SOL     OW22417   6.640   4.299   6.340
 7173SOL    HW122418   6.570   4.361   6.375
 7173SOL    HW222419   6.649   4.312   6.241
 7174SOL     OW22420   1.395   4.415   0.213
 7174SOL    HW122421   1.405   4.385   0.307
 7174SOL    HW222422   1.369   4.511   0.211
 7175SOL     OW22423   5.606   2.640   6.673
 7175SOL    HW122424   5.663   2.569   6.632
 7175SOL    HW222425   5.537   2.669   6.607
 7176SOL     OW22426   6.906   0.203   3.351
 7176SOL    HW122427   6.915   0.116   3.302
 7176SOL    HW222428   6.917   0.279   3.287
 7177SOL     OW22429   1.709   5.011   4.668
 7177SOL    HW122430   1.626   4.957   4.652
 7177SOL    HW222431   1.686   5.092   4.722
 7178SOL     OW22432   1.642   1.896   6.000
 7178SOL    HW122433   1.549   1.920   5.971
 7178SOL    HW222434   1.683   1.836   5.931
 7179SOL     OW22435   2.033   3.853   4.705
 7179SOL    HW122436   2.080   3.767   4.684
 7179SOL    HW222437   2.101   3.926   4.715
 7180SOL     OW22438   2.362   5.179   0.674
 7180SOL    HW122439   2.321   5.238   0.604
 7180SOL    HW222440   2.431   5.120   0.632
 7181SOL     OW22441   1.985   6.524   0.139
 7181SOL    HW122442   2.010   6.621   0.148
 7181SOL    HW222443   1.891   6.510   0.170
 7182SOL     OW22444   0.457   2.392   4.645
 7182SOL    HW122445   0.555   2.410   4.632
 7182SOL    HW222446   0.440   2.368   4.741
 7183SOL     OW22447   2.277   5.952   0.053
 7183SOL    HW122448   2.341   5.929   0.126
 7183SOL    HW222449   2.303   5.906   6.991
 7184SOL     OW22450   7.013   0.822   3.545
 7184SOL    HW122451   7.013   0.874   3.631
 7184SOL    HW222452   6.932   0.847   3.492
 7185SOL     OW22453   5.662   0.187   4.953
 7185SOL    HW122454   5.754   0.194   4.993
 7185SOL    HW222455   5.623   0.278   4.942
 7186SOL     OW22456   6.647   1.942   0.518
 7186SOL    HW122457   6.702   2.022   0.541
 7186SOL    HW222458   6.704   1.860   0.520
 7187SOL     OW22459   4.224   4.839   6.339
 7187SOL    HW122460   4.251   4.828   6.435
 7187SOL    HW222461   4.189   4.752   6.304
 7188SOL     OW22462   6.154   0.938   0.360
 7188SOL    HW122463   6.147   0.908   0.265
 7188SOL    HW222464   6.245   0.974   0.377
 7189SOL     OW22465   0.129   1.149   5.797
 7189SOL    HW122466   0.066   1.084   5.840
 7189SOL    HW222467   0.104   1.161   5.701
 7190SOL     OW22468   0.412   3.305   2.376
 7190SOL    HW122469   0.336   3.330   2.316
 7190SOL    HW222470   0.428   3.379   2.442
 7191SOL     OW22471   0.753   4.368   2.806
 7191SOL    HW122472   0.662   4.327   2.812
 7191SOL    HW222473   0.822   4.297   2.812
 7192SOL     OW22474   3.022   4.432   5.781
 7192SOL    HW122475   2.943   4.489   5.758
 7192SOL    HW222476   3.055   4.456   5.872
 7193SOL     OW22477   0.824   2.221   2.284
 7193SOL    HW122478   0.849   2.314   2.310
 7193SOL    HW222479   0.888   2.186   2.216
 7194SOL     OW22480   2.640   2.051   0.123
 7194SOL    HW122481   2.654   2.008   0.212
 7194SOL    HW222482   2.544   2.042   0.097
 7195SOL     OW22483   0.384   3.826   6.681
 7195SOL    HW122484   0.327   3.894   6.636
 7195SOL    HW222485   0.472   3.866   6.705
 7196SOL     OW22486   3.254   4.135   1.178
 7196SOL    HW122487   3.270   4.108   1.273
 7196SOL    HW222488   3.335   4.115   1.123
 7197SOL     OW22489   0.483   2.446   6.190
 7197SOL    HW122490   0.422   2.481   6.118
 7197SOL    HW222491   0.574   2.486   6.180
 7198SOL     OW22492   6.674   0.636   0.705
 7198SOL    HW122493   6.733   0.659   0.628
 7198SOL    HW222494   6.729   0.636   0.789
 7199SOL     OW22495   1.871   0.712   2.014
 7199SOL    HW122496   1.943   0.650   1.982
 7199SOL    HW222497   1.782   0.669   2.003
 7200SOL     OW22498   2.448   2.538   6.821
 7200SOL    HW122499   2.431   2.443   6.848
 7200SOL    HW222500   2.534   2.569   6.864
 7201SOL     OW22501   1.004   5.511   4.913
 7201SOL    HW122502   0.931   5.485   4.976
 7201SOL    HW222503   1.036   5.430   4.864
 7202SOL     OW22504   4.930   0.111   6.677
 7202SOL    HW122505   4.915   0.153   6.587
 7202SOL    HW222506   4.878   0.026   6.683
 7203SOL     OW22507   0.587   1.690   1.045
 7203SOL    HW122508   0.599   1.648   1.135
 7203SOL    HW222509   0.583   1.790   1.055
 7204SOL     OW22510   0.584   6.817   5.426
 7204SOL    HW122511   0.648   6.887   5.394
 7204SOL    HW222512   0.632   6.729   5.432
 7205SOL     OW22513   0.873   5.058   3.873
 7205SOL    HW122514   0.966   5.081   3.904
 7205SOL    HW222515   0.835   4.987   3.933
 7206SOL     OW22516   1.282   0.522   1.854
 7206SOL    HW122517   1.191   0.524   1.813
 7206SOL    HW222518   1.325   0.433   1.838
 7207SOL     OW22519   3.731   0.228   2.741
 7207SOL    HW122520   3.681   0.315   2.737
 7207SOL    HW222521   3.716   0.178   2.656
 7208SOL     OW22522   4.084   7.008   2.928
 7208SOL    HW122523   4.143   0.025   2.857
 7208SOL    HW222524   4.113   0.020   3.017
 7209SOL     OW22525   3.076   3.692   1.570
 7209SOL    HW122526   3.152   3.666   1.511
 7209SOL    HW222527   3.025   3.611   1.598
 7210SOL     OW22528   4.698   1.035   3.992
 7210SOL    HW122529   4.701   1.088   3.908
 7210SOL    HW222530   4.612   1.051   4.040
 7211SOL     OW22531   3.145   6.524   4.269
 7211SOL    HW122532   3.071   6.574   4.314
 7211SOL    HW222533   3.172   6.572   4.186
 7212SOL     OW22534   0.461   5.967   4.721
 7212SOL    HW122535   0.465   5.905   4.799
 7212SOL    HW222536   0.417   6.052   4.748
 7213SOL     OW22537   5.288   6.180   0.258
 7213SOL    HW122538   5.280   6.270   0.214
 7213SOL    HW222539   5.350   6.123   0.204
 7214SOL     OW22540   6.494   5.838   5.783
 7214SOL    HW122541   6.564   5.879   5.725
 7214SOL    HW222542   6.454   5.907   5.843
 7215SOL     OW22543   6.988   4.070   5.099
 7215SOL    HW122544   0.033   3.997   5.099
 7215SOL    HW222545   6.999   4.126   5.181
 7216SOL     OW22546   3.258   6.258   0.056
 7216SOL    HW122547   3.313   6.244   0.138
 7216SOL    HW222548   3.310   6.314   7.013
 7217SOL     OW22549   2.321   4.203   3.190
 7217SOL    HW122550   2.364   4.293   3.179
 7217SOL    HW222551   2.222   4.215   3.199
 7218SOL     OW22552   5.210   2.782   5.348
 7218SOL    HW122553   5.155   2.700   5.336
 7218SOL    HW222554   5.293   2.775   5.291
 7219SOL     OW22555   4.914   0.391   3.619
 7219SOL    HW122556   4.898   0.469   3.679
 7219SOL    HW222557   4.884   0.307   3.665
 7220SOL     OW22558   0.959   5.290   5.246
 7220SOL    HW122559   0.884   5.228   5.220
 7220SOL    HW222560   0.935   5.336   5.331
 7221SOL     OW22561   3.538   6.036   4.847
 7221SOL    HW122562   3.521   6.081   4.759
 7221SOL    HW222563   3.614   5.972   4.838
 7222SOL     OW22564   5.875   0.219   3.297
 7222SOL    HW122565   5.885   0.236   3.395
 7222SOL    HW222566   5.779   0.199   3.277
 7223SOL     OW22567   2.805   1.196   1.405
 7223SOL    HW122568   2.843   1.193   1.498
 7223SOL    HW222569   2.878   1.208   1.339
 7224SOL     OW22570   5.479   1.485   3.560
 7224SOL    HW122571   5.507   1.534   3.477
 7224SOL    HW222572   5.477   1.548   3.637
 7225SOL     OW22573   1.022   5.731   0.226
 7225SOL    HW122574   1.041   5.640   0.263
 7225SOL    HW222575   1.056   5.737   0.133
 7226SOL     OW22576   6.549   1.331   0.974
 7226SOL    HW122577   6.499   1.246   0.993
 7226SOL    HW222578   6.523   1.400   1.041
 7227SOL     OW22579   1.352   1.372   1.134
 7227SOL    HW122580   1.419   1.429   1.086
 7227SOL    HW222581   1.280   1.430   1.173
 7228SOL     OW22582   1.020   1.795   2.818
 7228SOL    HW122583   0.968   1.724   2.865
 7228SOL    HW222584   0.982   1.885   2.841
 7229SOL     OW22585   1.395   5.995   5.579
 7229SOL    HW122586   1.388   5.963   5.674
 7229SOL    HW222587   1.307   6.032   5.550
 7230SOL     OW22588   4.252   5.424   4.484
 7230SOL    HW122589   4.222   5.329   4.498
 7230SOL    HW222590   4.303   5.431   4.399
 7231SOL     OW22591   4.290   0.617   0.003
 7231SOL    HW122592   4.371   0.594   6.972
 7231SOL    HW222593   4.229   0.675   6.970
 7232SOL     OW22594   5.326   5.800   3.041
 7232SOL    HW122595   5.370   5.772   2.956
 7232SOL    HW222596   5.241   5.747   3.054
 7233SOL     OW22597   0.148   1.542   4.124
 7233SOL    HW122598   0.151   1.442   4.127
 7233SOL    HW222599   0.083   1.571   4.053
 7234SOL     OW22600   5.605   3.279   3.481
 7234SOL    HW122601   5.704   3.266   3.483
 7234SOL    HW222602   5.582   3.366   3.524
 7235SOL     OW22603   6.823   4.325   1.881
 7235SOL    HW122604   6.815   4.300   1.785
 7235SOL    HW222605   6.877   4.256   1.929
 7236SOL     OW22606   2.189   2.216   1.354
 7236SOL    HW122607   2.149   2.134   1.314
 7236SOL    HW222608   2.194   2.205   1.454
 7237SOL     OW22609   4.285   0.857   4.516
 7237SOL    HW122610   4.372   0.902   4.496
 7237SOL    HW222611   4.213   0.926   4.523
 7238SOL     OW22612   3.847   1.876   0.919
 7238SOL    HW122613   3.835   1.778   0.902
 7238SOL    HW222614   3.923   1.910   0.864
 7239SOL     OW22615   1.253   2.622   2.638
 7239SOL    HW122616   1.292   2.532   2.656
 7239SOL    HW222617   1.249   2.674   2.723
 7240SOL     OW22618   1.609   5.873   5.963
 7240SOL    HW122619   1.661   5.788   5.966
 7240SOL    HW222620   1.656   5.940   5.906
 7241SOL     OW22621   1.920   0.998   0.198
 7241SOL    HW122622   2.019   1.007   0.209
 7241SOL    HW222623   1.888   0.922   0.256
 7242SOL     OW22624   6.491   5.944   0.624
 7242SOL    HW122625   6.391   5.936   0.633
 7242SOL    HW222626   6.535   5.891   0.696
 7243SOL     OW22627   6.435   4.481   6.374
 7243SOL    HW122628   6.428   4.576   6.344
 7243SOL    HW222629   6.398   4.473   6.467
 7244SOL     OW22630   6.054   1.583   1.895
 7244SOL    HW122631   5.991   1.648   1.852
 7244SOL    HW222632   6.114   1.543   1.826
 7245SOL     OW22633   1.153   1.774   4.478
 7245SOL    HW122634   1.136   1.682   4.511
 7245SOL    HW222635   1.068   1.814   4.445
 7246SOL     OW22636   6.447   0.209   4.587
 7246SOL    HW122637   6.487   0.119   4.600
 7246SOL    HW222638   6.470   0.268   4.664
 7247SOL     OW22639   2.478   6.870   4.196
 7247SOL    HW122640   2.516   6.804   4.261
 7247SOL    HW222641   2.553   6.918   4.149
 7248SOL     OW22642   2.334   1.459   3.496
 7248SOL    HW122643   2.429   1.480   3.516
 7248SOL    HW222644   2.325   1.431   3.400
 7249SOL     OW22645   6.659   4.331   2.476
 7249SOL    HW122646   6.712   4.416   2.471
 7249SOL    HW222647   6.694   4.275   2.551
 7250SOL     OW22648   4.170   0.197   6.130
 7250SOL    HW122649   4.253   0.246   6.102
 7250SOL    HW222650   4.134   0.238   6.214
 7251SOL     OW22651   0.472   6.682   5.645
 7251SOL    HW122652   0.483   6.750   5.572
 7251SOL    HW222653   0.427   6.601   5.609
 7252SOL     OW22654   3.417   3.558   2.791
 7252SOL    HW122655   3.370   3.473   2.765
 7252SOL    HW222656   3.427   3.561   2.890
 7253SOL     OW22657   2.614   6.679   5.942
 7253SOL    HW122658   2.514   6.672   5.946
 7253SOL    HW222659   2.648   6.620   5.869
 7254SOL     OW22660   4.406   5.009   3.681
 7254SOL    HW122661   4.360   5.058   3.755
 7254SOL    HW222662   4.488   5.059   3.652
 7255SOL     OW22663   3.288   3.404   0.744
 7255SOL    HW122664   3.247   3.413   0.835
 7255SOL    HW222665   3.217   3.411   0.674
 7256SOL     OW22666   4.216   4.678   4.257
 7256SOL    HW122667   4.189   4.582   4.263
 7256SOL    HW222668   4.281   4.699   4.330
 7257SOL     OW22669   5.491   2.865   3.928
 7257SOL    HW122670   5.506   2.777   3.972
 7257SOL    HW222671   5.527   2.863   3.835
 7258SOL     OW22672   4.013   1.308   3.476
 7258SOL    HW122673   3.964   1.364   3.410
 7258SOL    HW222674   4.007   1.351   3.566
 7259SOL     OW22675   2.963   3.152   0.990
 7259SOL    HW122676   2.935   3.149   1.086
 7259SOL    HW222677   3.062   3.159   0.985
 7260SOL     OW22678   3.551   1.814   1.906
 7260SOL    HW122679   3.570   1.721   1.938
 7260SOL    HW222680   3.521   1.870   1.982
 7261SOL     OW22681   1.355   2.695   1.646
 7261SOL    HW122682   1.431   2.681   1.710
 7261SOL    HW222683   1.293   2.617   1.651
 7262SOL     OW22684   5.158   1.724   5.742
 7262SOL    HW122685   5.121   1.723   5.649
 7262SOL    HW222686   5.252   1.691   5.740
 7263SOL     OW22687   0.883   6.468   1.132
 7263SOL    HW122688   0.877   6.483   1.033
 7263SOL    HW222689   0.957   6.404   1.151
 7264SOL     OW22690   5.559   1.194   6.206
 7264SOL    HW122691   5.652   1.160   6.197
 7264SOL    HW222692   5.560   1.294   6.207
 7265SOL     OW22693   5.612   5.515   5.845
 7265SOL    HW122694   5.651   5.508   5.936
 7265SOL    HW222695   5.686   5.516   5.777
 7266SOL     OW22696   5.864   0.337   1.389
 7266SOL    HW122697   5.884   0.313   1.294
 7266SOL    HW222698   5.815   0.424   1.392
 7267SOL     OW22699   6.502   6.006   5.412
 7267SOL    HW122700   6.435   5.933   5.399
 7267SOL    HW222701   6.459   6.085   5.455
 7268SOL     OW22702   5.369   4.991   3.181
 7268SOL    HW122703   5.353   5.041   3.266
 7268SOL    HW222704   5.385   5.057   3.107
 7269SOL     OW22705   6.949   6.014   1.053
 7269SOL    HW122706   6.942   5.930   0.999
 7269SOL    HW222707   0.009   6.064   1.027
 7270SOL     OW22708   0.846   3.487   5.104
 7270SOL    HW122709   0.890   3.561   5.154
 7270SOL    HW222710   0.876   3.489   5.008
 7271SOL     OW22711   0.298   6.105   3.686
 7271SOL    HW122712   0.393   6.073   3.686
 7271SOL    HW222713   0.251   6.068   3.606
 7272SOL     OW22714   5.510   5.319   2.113
 7272SOL    HW122715   5.419   5.280   2.099
 7272SOL    HW222716   5.577   5.269   2.058
 7273SOL     OW22717   5.460   4.121   1.508
 7273SOL    HW122718   5.486   4.069   1.590
 7273SOL    HW222719   5.396   4.194   1.534
 7274SOL     OW22720   0.880   5.793   6.933
 7274SOL    HW122721   0.857   5.696   6.925
 7274SOL    HW222722   0.866   5.822   0.006
 7275SOL     OW22723   6.794   0.364   2.919
 7275SOL    HW122724   6.839   0.324   2.999
 7275SOL    HW222725   6.695   0.365   2.934
 7276SOL     OW22726   3.342   1.731   2.777
 7276SOL    HW122727   3.412   1.800   2.793
 7276SOL    HW222728   3.290   1.716   2.860
 7277SOL     OW22729   4.490   1.058   4.175
 7277SOL    HW122730   4.391   1.043   4.172
 7277SOL    HW222731   4.520   1.061   4.271
 7278SOL     OW22732   3.388   2.198   1.489
 7278SOL    HW122733   3.469   2.142   1.473
 7278SOL    HW222734   3.407   2.264   1.562
 7279SOL     OW22735   4.355   3.174   6.645
 7279SOL    HW122736   4.428   3.114   6.611
 7279SOL    HW222737   4.394   3.264   6.668
 7280SOL     OW22738   0.003   1.614   3.891
 7280SOL    HW122739   6.986   1.705   3.879
 7280SOL    HW222740   6.952   1.546   3.892
 7281SOL     OW22741   1.723   0.480   0.255
 7281SOL    HW122742   1.657   0.422   0.301
 7281SOL    HW222743   1.677   0.533   0.184
 7282SOL     OW22744   5.911   6.801   1.709
 7282SOL    HW122745   5.864   6.838   1.629
 7282SOL    HW222746   5.983   6.739   1.679
 7283SOL     OW22747   3.512   0.467   1.768
 7283SOL    HW122748   3.493   0.565   1.773
 7283SOL    HW222749   3.433   0.421   1.728
 7284SOL     OW22750   6.951   2.000   5.342
 7284SOL    HW122751   6.971   1.923   5.282
 7284SOL    HW222752   6.976   2.086   5.297
 7285SOL     OW22753   5.620   3.400   1.858
 7285SOL    HW122754   5.563   3.375   1.780
 7285SOL    HW222755   5.713   3.368   1.844
 7286SOL     OW22756   1.191   0.568   1.023
 7286SOL    HW122757   1.191   0.551   0.925
 7286SOL    HW222758   1.271   0.622   1.048
 7287SOL     OW22759   6.711   2.757   4.955
 7287SOL    HW122760   6.762   2.837   4.922
 7287SOL    HW222761   6.683   2.701   4.877
 7288SOL     OW22762   1.312   1.881   1.360
 7288SOL    HW122763   1.235   1.818   1.350
 7288SOL    HW222764   1.310   1.922   1.451
 7289SOL     OW22765   5.994   1.823   3.421
 7289SOL    HW122766   5.978   1.914   3.383
 7289SOL    HW222767   5.909   1.788   3.460
 7290SOL     OW22768   2.304   1.144   4.847
 7290SOL    HW122769   2.303   1.243   4.864
 7290SOL    HW222770   2.267   1.096   4.926
 7291SOL     OW22771   2.216   0.040   0.563
 7291SOL    HW122772   2.158   0.061   0.642
 7291SOL    HW222773   2.308   0.019   0.595
 7292SOL     OW22774   2.907   0.025   3.063
 7292SOL    HW122775   3.005   0.028   3.082
 7292SOL    HW222776   2.862   0.101   3.111
 7293SOL     OW22777   1.340   1.853   5.858
 7293SOL    HW122778   1.348   1.830   5.762
 7293SOL    HW222779   1.363   1.950   5.871
 7294SOL     OW22780   3.264   4.463   0.957
 7294SOL    HW122781   3.218   4.398   0.896
 7294SOL    HW222782   3.284   4.547   0.907
 7295SOL     OW22783   6.826   4.575   0.761
 7295SOL    HW122784   6.864   4.579   0.669
 7295SOL    HW222785   6.889   4.523   0.820
 7296SOL     OW22786   4.332   5.441   1.758
 7296SOL    HW122787   4.377   5.476   1.676
 7296SOL    HW222788   4.382   5.471   1.839
 7297SOL     OW22789   2.455   6.884   1.257
 7297SOL    HW122790   2.401   6.882   1.342
 7297SOL    HW222791   2.483   6.791   1.233
 7298SOL     OW22792   5.161   4.911   6.372
 7298SOL    HW122793   5.080   4.859   6.349
 7298SOL    HW222794   5.168   4.921   6.472
 7299SOL     OW22795   1.138   2.026   1.114
 7299SOL    HW122796   1.228   2.068   1.111
 7299SOL    HW222797   1.137   1.953   1.182
 7300SOL     OW22798   0.510   6.860   2.297
 7300SOL    HW122799   0.537   6.786   2.359
 7300SOL    HW222800   0.539   6.948   2.334
 7301SOL     OW22801   6.129   2.331   5.481
 7301SOL    HW122802   6.104   2.242   5.443
 7301SOL    HW222803   6.209   2.367   5.433
 7302SOL     OW22804   0.174   2.354   6.242
 7302SOL    HW122805   0.086   2.315   6.269
 7302SOL    HW222806   0.168   2.386   6.147
 7303SOL     OW22807   3.734   1.277   6.311
 7303SOL    HW122808   3.693   1.244   6.397
 7303SOL    HW222809   3.755   1.199   6.253
 7304SOL     OW22810   2.872   5.659   1.495
 7304SOL    HW122811   2.941   5.587   1.504
 7304SOL    HW222812   2.851   5.672   1.398
 7305SOL     OW22813   5.053   2.511   1.474
 7305SOL    HW122814   5.075   2.415   1.494
 7305SOL    HW222815   4.971   2.538   1.525
 7306SOL     OW22816   3.567   1.503   1.689
 7306SOL    HW122817   3.598   1.440   1.618
 7306SOL    HW222818   3.628   1.583   1.690
 7307SOL     OW22819   3.866   6.760   2.450
 7307SOL    HW122820   3.956   6.752   2.493
 7307SOL    HW222821   3.800   6.704   2.500
 7308SOL     OW22822   6.399   1.506   4.506
 7308SOL    HW122823   6.405   1.420   4.456
 7308SOL    HW222824   6.387   1.582   4.441
 7309SOL     OW22825   3.675   6.614   1.327
 7309SOL    HW122826   3.589   6.626   1.376
 7309SOL    HW222827   3.731   6.546   1.375
 7310SOL     OW22828   2.269   3.481   0.555
 7310SOL    HW122829   2.352   3.515   0.599
 7310SOL    HW222830   2.189   3.519   0.600
 7311SOL     OW22831   1.787   0.824   0.393
 7311SOL    HW122832   1.790   0.724   0.397
 7311SOL    HW222833   1.861   0.861   0.449
 7312SOL     OW22834   1.236   2.277   4.884
 7312SOL    HW122835   1.255   2.225   4.802
 7312SOL    HW222836   1.138   2.274   4.904
 7313SOL     OW22837   2.093   1.189   0.399
 7313SOL    HW122838   2.136   1.113   0.352
 7313SOL    HW222839   2.141   1.208   0.485
 7314SOL     OW22840   6.985   4.132   5.868
 7314SOL    HW122841   0.034   4.084   5.918
 7314SOL    HW222842   6.989   4.106   5.771
 7315SOL     OW22843   4.979   6.043   1.810
 7315SOL    HW122844   4.998   6.141   1.808
 7315SOL    HW222845   4.900   6.023   1.752
 7316SOL     OW22846   3.079   2.831   0.055
 7316SOL    HW122847   3.085   2.759   7.008
 7316SOL    HW222848   2.984   2.860   0.065
 7317SOL     OW22849   3.954   1.576   1.732
 7317SOL    HW122850   3.867   1.625   1.724
 7317SOL    HW222851   3.943   1.482   1.700
 7318SOL     OW22852   2.884   0.251   2.239
 7318SOL    HW122853   2.883   0.259   2.140
 7318SOL    HW222854   2.841   0.332   2.280
 7319SOL     OW22855   5.534   2.942   0.170
 7319SOL    HW122856   5.480   2.859   0.178
 7319SOL    HW222857   5.623   2.920   0.129
 7320SOL     OW22858   0.266   3.582   0.917
 7320SOL    HW122859   0.336   3.562   0.985
 7320SOL    HW222860   0.175   3.569   0.957
 7321SOL     OW22861   2.296   6.805   5.712
 7321SOL    HW122862   2.332   6.884   5.761
 7321SOL    HW222863   2.208   6.828   5.670
 7322SOL     OW22864   0.047   2.248   3.174
 7322SOL    HW122865   0.121   2.185   3.199
 7322SOL    HW222866   0.005   2.218   3.089
 7323SOL     OW22867   2.174   2.955   1.400
 7323SOL    HW122868   2.117   3.020   1.451
 7323SOL    HW222869   2.234   2.906   1.464
 7324SOL     OW22870   5.730   4.480   2.004
 7324SOL    HW122871   5.735   4.494   1.906
 7324SOL    HW222872   5.779   4.553   2.051
 7325SOL     OW22873   2.669   0.353   5.413
 7325SOL    HW122874   2.613   0.395   5.483
 7325SOL    HW222875   2.697   0.422   5.346
 7326SOL     OW22876   3.577   6.098   5.723
 7326SOL    HW122877   3.532   6.043   5.652
 7326SOL    HW222878   3.670   6.064   5.737
 7327SOL     OW22879   6.108   3.152   4.875
 7327SOL    HW122880   6.100   3.222   4.804
 7327SOL    HW222881   6.194   3.102   4.864
 7328SOL     OW22882   4.468   6.929   5.433
 7328SOL    HW122883   4.375   6.956   5.407
 7328SOL    HW222884   4.471   6.907   5.530
 7329SOL     OW22885   0.635   3.781   0.546
 7329SOL    HW122886   0.564   3.803   0.479
 7329SOL    HW222887   0.618   3.690   0.584
 7330SOL     OW22888   2.618   3.139   0.575
 7330SOL    HW122889   2.610   3.205   0.649
 7330SOL    HW222890   2.664   3.056   0.609
 7331SOL     OW22891   5.786   6.341   1.556
 7331SOL    HW122892   5.876   6.315   1.592
 7331SOL    HW222893   5.724   6.359   1.633
 7332SOL     OW22894   2.581   4.108   6.402
 7332SOL    HW122895   2.546   4.085   6.493
 7332SOL    HW222896   2.561   4.204   6.381
 7333SOL     OW22897   6.270   3.114   3.200
 7333SOL    HW122898   6.305   3.021   3.213
 7333SOL    HW222899   6.304   3.150   3.113
 7334SOL     OW22900   2.452   6.221   6.308
 7334SOL    HW122901   2.448   6.301   6.368
 7334SOL    HW222902   2.523   6.235   6.239
 7335SOL     OW22903   6.882   2.769   2.897
 7335SOL    HW122904   6.835   2.786   2.984
 7335SOL    HW222905   6.976   2.738   2.916
 7336SOL     OW22906   2.375   6.403   1.903
 7336SOL    HW122907   2.385   6.345   1.822
 7336SOL    HW222908   2.442   6.377   1.972
 7337SOL     OW22909   1.986   3.097   1.578
 7337SOL    HW122910   1.916   3.031   1.606
 7337SOL    HW222911   1.972   3.121   1.482
 7338SOL     OW22912   5.335   1.890   1.848
 7338SOL    HW122913   5.342   1.927   1.941
 7338SOL    HW222914   5.395   1.810   1.840
 7339SOL     OW22915   6.243   0.149   5.334
 7339SOL    HW122916   6.251   0.123   5.431
 7339SOL    HW222917   6.175   0.091   5.290
 7340SOL     OW22918   3.869   1.103   0.036
 7340SOL    HW122919   3.779   1.136   0.009
 7340SOL    HW222920   3.880   1.112   0.135
 7341SOL     OW22921   0.681   4.729   4.780
 7341SOL    HW122922   0.708   4.664   4.708
 7341SOL    HW222923   0.651   4.679   4.861
 7342SOL     OW22924   6.872   6.544   6.943
 7342SOL    HW122925   6.856   6.642   6.954
 7342SOL    HW222926   6.910   6.506   0.005
 7343SOL     OW22927   4.851   4.251   1.291
 7343SOL    HW122928   4.947   4.274   1.277
 7343SOL    HW222929   4.827   4.266   1.387
 7344SOL     OW22930   1.891   0.740   6.199
 7344SOL    HW122931   1.981   0.785   6.202
 7344SOL    HW222932   1.870   0.703   6.289
 7345SOL     OW22933   4.916   6.348   5.445
 7345SOL    HW122934   4.971   6.375   5.523
 7345SOL    HW222935   4.973   6.344   5.363
 7346SOL     OW22936   3.867   4.295   1.286
 7346SOL    HW122937   3.864   4.273   1.188
 7346SOL    HW222938   3.961   4.322   1.311
 7347SOL     OW22939   7.006   3.087   1.142
 7347SOL    HW122940   0.036   3.160   1.098
 7347SOL    HW222941   0.001   3.088   1.240
 7348SOL     OW22942   1.267   3.322   3.370
 7348SOL    HW122943   1.274   3.230   3.407
 7348SOL    HW222944   1.269   3.389   3.445
 7349SOL     OW22945   4.365   2.116   0.891
 7349SOL    HW122946   4.351   2.195   0.831
 7349SOL    HW222947   4.280   2.098   0.941
 7350SOL     OW22948   1.465   3.525   5.051
 7350SOL    HW122949   1.538   3.555   4.990
 7350SOL    HW222950   1.498   3.525   5.146
 7351SOL     OW22951   4.527   6.425   4.986
 7351SOL    HW122952   4.513   6.356   4.914
 7351SOL    HW222953   4.605   6.398   5.043
 7352SOL     OW22954   1.463   2.992   2.922
 7352SOL    HW122955   1.480   3.076   2.974
 7352SOL    HW222956   1.402   3.013   2.845
 7353SOL     OW22957   0.501   6.931   5.958
 7353SOL    HW122958   0.594   6.911   5.927
 7353SOL    HW222959   0.446   6.848   5.955
 7354SOL     OW22960   1.167   1.757   0.125
 7354SOL    HW122961   1.069   1.758   0.105
 7354SOL    HW222962   1.181   1.767   0.224
 7355SOL     OW22963   1.313   1.513   0.605
 7355SOL    HW122964   1.339   1.606   0.576
 7355SOL    HW222965   1.282   1.461   0.525
 7356SOL     OW22966   4.374   3.254   6.197
 7356SOL    HW122967   4.413   3.338   6.160
 7356SOL    HW222968   4.440   3.179   6.186
 7357SOL     OW22969   4.534   0.579   2.057
 7357SOL    HW122970   4.515   0.491   2.014
 7357SOL    HW222971   4.562   0.645   1.987
 7358SOL     OW22972   1.036   2.800   2.381
 7358SOL    HW122973   0.989   2.837   2.301
 7358SOL    HW222974   0.979   2.729   2.422
 7359SOL     OW22975   2.604   2.950   6.790
 7359SOL    HW122976   2.559   2.862   6.807
 7359SOL    HW222977   2.627   2.994   6.877
 7360SOL     OW22978   3.254   3.665   5.941
 7360SOL    HW122979   3.179   3.718   5.980
 7360SOL    HW222980   3.291   3.713   5.861
 7361SOL     OW22981   4.450   0.604   2.316
 7361SOL    HW122982   4.468   0.591   2.218
 7361SOL    HW222983   4.529   0.649   2.359
 7362SOL     OW22984   1.000   5.787   4.829
 7362SOL    HW122985   0.978   5.690   4.840
 7362SOL    HW222986   1.027   5.826   4.917
 7363SOL     OW22987   3.926   1.564   1.259
 7363SOL    HW122988   3.865   1.643   1.256
 7363SOL    HW222989   3.939   1.534   1.353
 7364SOL     OW22990   4.703   0.640   1.312
 7364SOL    HW122991   4.635   0.639   1.385
 7364SOL    HW222992   4.710   0.733   1.275
 7365SOL     OW22993   1.617   6.793   1.558
 7365SOL    HW122994   1.639   6.774   1.654
 7365SOL    HW222995   1.520   6.816   1.549
 7366SOL     OW22996   2.563   5.776   6.970
 7366SOL    HW122997   2.631   5.796   0.019
 7366SOL    HW222998   2.536   5.860   6.925
 7367SOL     OW22999   4.610   3.836   1.433
 7367SOL    HW123000   4.580   3.838   1.528
 7367SOL    HW223001   4.671   3.758   1.419
 7368SOL     OW23002   3.796   2.965   3.615
 7368SOL    HW123003   3.743   2.968   3.699
 7368SOL    HW223004   3.889   2.932   3.635
 7369SOL     OW23005   4.321   2.831   0.317
 7369SOL    HW123006   4.329   2.812   0.415
 7369SOL    HW223007   4.310   2.930   0.303
 7370SOL     OW23008   2.722   0.664   5.013
 7370SOL    HW123009   2.819   0.677   4.991
 7370SOL    HW223010   2.669   0.661   4.928
 7371SOL     OW23011   2.039   5.904   3.718
 7371SOL    HW123012   1.991   5.975   3.769
 7371SOL    HW223013   1.980   5.872   3.643
 7372SOL     OW23014   3.360   1.626   5.647
 7372SOL    HW123015   3.282   1.673   5.687
 7372SOL    HW223016   3.348   1.619   5.548
 7373SOL     OW23017   5.185   1.437   4.653
 7373SOL    HW123018   5.270   1.433   4.706
 7373SOL    HW223019   5.145   1.528   4.662
 7374SOL     OW23020   2.628   1.934   5.998
 7374SOL    HW123021   2.712   1.978   5.968
 7374SOL    HW223022   2.648   1.840   6.025
 7375SOL     OW23023   2.009   2.767   2.776
 7375SOL    HW123024   2.027   2.844   2.836
 7375SOL    HW223025   1.986   2.686   2.830
 7376SOL     OW23026   3.931   1.557   6.982
 7376SOL    HW123027   3.979   1.643   6.968
 7376SOL    HW223028   3.973   1.486   6.926
 7377SOL     OW23029   5.379   5.634   1.021
 7377SOL    HW123030   5.339   5.579   1.094
 7377SOL    HW223031   5.455   5.688   1.057
 7378SOL     OW23032   0.544   1.045   5.358
 7378SOL    HW123033   0.632   1.089   5.341
 7378SOL    HW223034   0.512   1.001   5.274
 7379SOL     OW23035   3.280   2.144   2.437
 7379SOL    HW123036   3.355   2.155   2.372
 7379SOL    HW223037   3.316   2.152   2.530
 7380SOL     OW23038   7.007   3.009   5.471
 7380SOL    HW123039   6.957   3.096   5.474
 7380SOL    HW223040   6.991   2.965   5.383
 7381SOL     OW23041   4.793   3.914   1.751
 7381SOL    HW123042   4.815   3.851   1.826
 7381SOL    HW223043   4.868   3.913   1.684
 7382SOL     OW23044   6.922   5.497   6.503
 7382SOL    HW123045   6.951   5.432   6.433
 7382SOL    HW223046   6.822   5.504   6.501
 7383SOL     OW23047   0.966   6.686   1.303
 7383SOL    HW123048   0.876   6.716   1.272
 7383SOL    HW223049   0.990   6.600   1.257
 7384SOL     OW23050   5.543   0.614   2.751
 7384SOL    HW123051   5.531   0.712   2.766
 7384SOL    HW223052   5.621   0.582   2.804
 7385SOL     OW23053   4.256   5.932   2.167
 7385SOL    HW123054   4.204   6.018   2.165
 7385SOL    HW223055   4.349   5.950   2.200
 7386SOL     OW23056   1.102   2.020   5.500
 7386SOL    HW123057   1.103   2.119   5.504
 7386SOL    HW223058   1.025   1.985   5.554
 7387SOL     OW23059   4.744   6.138   4.066
 7387SOL    HW123060   4.668   6.178   4.118
 7387SOL    HW223061   4.819   6.116   4.129
 7388SOL     OW23062   0.103   4.657   3.125
 7388SOL    HW123063   0.202   4.673   3.131
 7388SOL    HW223064   0.057   4.740   3.096
 7389SOL     OW23065   0.307   3.487   6.261
 7389SOL    HW123066   0.404   3.466   6.246
 7389SOL    HW223067   0.270   3.427   6.331
 7390SOL     OW23068   2.405   1.625   6.916
 7390SOL    HW123069   2.315   1.587   6.896
 7390SOL    HW223070   2.475   1.555   6.897
 7391SOL     OW23071   5.008   4.198   5.207
 7391SOL    HW123072   5.054   4.286   5.215
 7391SOL    HW223073   4.990   4.162   5.299
 7392SOL     OW23074   2.441   6.307   7.000
 7392SOL    HW123075   2.347   6.279   6.980
 7392SOL    HW223076   2.498   6.226   7.014
 7393SOL     OW23077   5.336   4.749   1.442
 7393SOL    HW123078   5.321   4.809   1.520
 7393SOL    HW223079   5.421   4.774   1.395
 7394SOL     OW23080   3.177   2.512   6.037
 7394SOL    HW123081   3.138   2.603   6.028
 7394SOL    HW223082   3.274   2.514   6.014
 7395SOL     OW23083   2.522   1.742   0.111
 7395SOL    HW123084   2.483   1.708   0.026
 7395SOL    HW223085   2.448   1.762   0.176
 7396SOL     OW23086   0.984   6.719   0.369
 7396SOL    HW123087   0.942   6.809   0.365
 7396SOL    HW223088   0.944   6.666   0.443
 7397SOL     OW23089   4.319   5.052   4.750
 7397SOL    HW123090   4.369   5.041   4.836
 7397SOL    HW223091   4.274   4.966   4.726
 7398SOL     OW23092   2.375   5.351   4.666
 7398SOL    HW123093   2.393   5.392   4.756
 7398SOL    HW223094   2.402   5.255   4.667
 7399SOL     OW23095   0.857   2.486   5.551
 7399SOL    HW123096   0.765   2.460   5.522
 7399SOL    HW223097   0.919   2.478   5.473
 7400SOL     OW23098   3.945   3.240   5.908
 7400SOL    HW123099   3.929   3.164   5.845
 7400SOL    HW223100   3.858   3.282   5.932
 7401SOL     OW23101   1.346   0.578   4.739
 7401SOL    HW123102   1.313   0.484   4.744
 7401SOL    HW223103   1.315   0.628   4.820
 7402SOL     OW23104   3.405   5.603   5.995
 7402SOL    HW123105   3.445   5.523   5.951
 7402SOL    HW223106   3.438   5.609   6.090
 7403SOL     OW23107   2.259   4.181   2.644
 7403SOL    HW123108   2.274   4.196   2.742
 7403SOL    HW223109   2.287   4.263   2.593
 7404SOL     OW23110   2.505   5.089   1.166
 7404SOL    HW123111   2.540   5.082   1.259
 7404SOL    HW223112   2.529   5.007   1.115
 7405SOL     OW23113   3.858   5.051   4.232
 7405SOL    HW123114   3.786   5.003   4.182
 7405SOL    HW223115   3.828   5.070   4.325
 7406SOL     OW23116   0.923   3.037   3.387
 7406SOL    HW123117   0.957   3.000   3.473
 7406SOL    HW223118   0.911   3.136   3.395
 7407SOL     OW23119   0.052   6.301   4.797
 7407SOL    HW123120   0.070   6.393   4.762
 7407SOL    HW223121   7.012   6.307   4.875
 7408SOL     OW23122   1.623   3.905   6.498
 7408SOL    HW123123   1.541   3.895   6.441
 7408SOL    HW223124   1.652   3.815   6.530
 7409SOL     OW23125   0.436   1.364   6.222
 7409SOL    HW123126   0.390   1.444   6.183
 7409SOL    HW223127   0.535   1.375   6.214
 7410SOL     OW23128   0.307   5.459   1.083
 7410SOL    HW123129   0.361   5.497   1.008
 7410SOL    HW223130   0.211   5.450   1.054
 7411SOL     OW23131   2.668   7.007   4.045
 7411SOL    HW123132   2.757   0.023   4.070
 7411SOL    HW223133   2.682   6.919   4.001
 7412SOL     OW23134   4.778   0.564   2.210
 7412SOL    HW123135   4.853   0.530   2.152
 7412SOL    HW223136   4.693   0.566   2.157
 7413SOL     OW23137   4.834   5.878   4.833
 7413SOL    HW123138   4.792   5.968   4.840
 7413SOL    HW223139   4.931   5.888   4.810
 7414SOL     OW23140   0.467   0.262   3.558
 7414SOL    HW123141   0.536   0.306   3.500
 7414SOL    HW223142   0.495   0.169   3.578
 7415SOL     OW23143   0.970   3.753   3.833
 7415SOL    HW123144   1.060   3.710   3.837
 7415SOL    HW223145   0.973   3.840   3.883
 7416SOL     OW23146   2.997   1.303   3.751
 7416SOL    HW123147   3.054   1.358   3.689
 7416SOL    HW223148   2.951   1.231   3.698
 7417SOL     OW23149   2.255   0.678   6.597
 7417SOL    HW123150   2.236   0.602   6.536
 7417SOL    HW223151   2.200   0.758   6.570
 7418SOL     OW23152   3.423   5.374   0.965
 7418SOL    HW123153   3.362   5.430   1.022
 7418SOL    HW223154   3.508   5.356   1.014
 7419SOL     OW23155   5.648   2.955   5.090
 7419SOL    HW123156   5.558   3.000   5.083
 7419SOL    HW223157   5.636   2.856   5.084
 7420SOL     OW23158   0.841   6.938   1.902
 7420SOL    HW123159   0.909   6.884   1.852
 7420SOL    HW223160   0.770   6.878   1.938
 7421SOL     OW23161   3.256   3.464   1.023
 7421SOL    HW123162   3.337   3.518   1.046
 7421SOL    HW223163   3.174   3.515   1.048
 7422SOL     OW23164   0.224   2.857   2.636
 7422SOL    HW123165   0.287   2.878   2.711
 7422SOL    HW223166   0.135   2.898   2.655
 7423SOL     OW23167   6.371   4.670   5.367
 7423SOL    HW123168   6.434   4.598   5.337
 7423SOL    HW223169   6.406   4.759   5.336
 7424SOL     OW23170   6.908   0.341   5.050
 7424SOL    HW123171   6.824   0.391   5.071
 7424SOL    HW223172   6.890   0.271   4.982
 7425SOL     OW23173   4.641   5.659   6.089
 7425SOL    HW123174   4.638   5.757   6.068
 7425SOL    HW223175   4.666   5.646   6.185
 7426SOL     OW23176   2.044   1.155   6.075
 7426SOL    HW123177   2.051   1.153   5.975
 7426SOL    HW223178   2.060   1.248   6.108
 7427SOL     OW23179   3.303   6.999   3.838
 7427SOL    HW123180   3.365   7.005   3.759
 7427SOL    HW223181   3.222   6.947   3.812
 7428SOL     OW23182   4.213   1.170   5.858
 7428SOL    HW123183   4.169   1.095   5.908
 7428SOL    HW223184   4.159   1.193   5.777
 7429SOL     OW23185   6.365   6.492   3.247
 7429SOL    HW123186   6.290   6.506   3.182
 7429SOL    HW223187   6.331   6.445   3.328
 7430SOL     OW23188   0.733   3.773   6.796
 7430SOL    HW123189   0.805   3.757   6.730
 7430SOL    HW223190   0.697   3.686   6.829
 7431SOL     OW23191   0.192   3.184   2.781
 7431SOL    HW123192   0.110   3.234   2.754
 7431SOL    HW223193   0.235   3.144   2.701
 7432SOL     OW23194   0.209   0.166   3.023
 7432SOL    HW123195   0.243   0.152   3.116
 7432SOL    HW223196   0.279   0.139   2.957
 7433SOL     OW23197   5.513   4.994   6.772
 7433SOL    HW123198   5.490   4.999   6.869
 7433SOL    HW223199   5.553   4.905   6.752
 7434SOL     OW23200   5.689   0.508   5.611
 7434SOL    HW123201   5.728   0.498   5.702
 7434SOL    HW223202   5.762   0.515   5.544
 7435SOL     OW23203   3.866   6.035   0.386
 7435SOL    HW123204   3.795   6.001   0.325
 7435SOL    HW223205   3.908   5.957   0.434
 7436SOL     OW23206   5.620   3.383   6.774
 7436SOL    HW123207   5.703   3.393   6.829
 7436SOL    HW223208   5.540   3.401   6.832
 7437SOL     OW23209   0.812   5.743   0.478
 7437SOL    HW123210   0.717   5.752   0.451
 7437SOL    HW223211   0.864   5.700   0.405
 7438SOL     OW23212   0.473   5.057   0.174
 7438SOL    HW123213   0.481   5.137   0.233
 7438SOL    HW223214   0.510   5.078   0.083
 7439SOL     OW23215   1.912   5.831   4.761
 7439SOL    HW123216   1.908   5.744   4.713
 7439SOL    HW223217   1.853   5.898   4.715
 7440SOL     OW23218   0.350   3.556   4.725
 7440SOL    HW123219   0.353   3.638   4.667
 7440SOL    HW223220   0.377   3.476   4.671
 7441SOL     OW23221   5.077   5.962   3.993
 7441SOL    HW123222   5.151   5.898   4.011
 7441SOL    HW223223   5.099   6.017   3.913
 7442SOL     OW23224   0.424   0.820   6.222
 7442SOL    HW123225   0.391   0.849   6.132
 7442SOL    HW223226   0.473   0.733   6.213
 7443SOL     OW23227   0.041   0.477   2.423
 7443SOL    HW123228   0.074   0.571   2.420
 7443SOL    HW223229   0.072   0.434   2.508
 7444SOL     OW23230   6.350   3.329   5.154
 7444SOL    HW123231   6.388   3.346   5.245
 7444SOL    HW223232   6.286   3.252   5.158
 7445SOL     OW23233   3.325   1.247   1.216
 7445SOL    HW123234   3.230   1.218   1.226
 7445SOL    HW223235   3.385   1.181   1.262
 7446SOL     OW23236   5.754   4.413   0.813
 7446SOL    HW123237   5.791   4.456   0.895
 7446SOL    HW223238   5.726   4.319   0.834
 7447SOL     OW23239   0.582   3.293   5.438
 7447SOL    HW123240   0.674   3.330   5.451
 7447SOL    HW223241   0.588   3.194   5.424
 7448SOL     OW23242   6.184   6.820   5.775
 7448SOL    HW123243   6.249   6.769   5.832
 7448SOL    HW223244   6.092   6.806   5.809
 7449SOL     OW23245   6.442   3.010   1.909
 7449SOL    HW123246   6.512   2.956   1.957
 7449SOL    HW223247   6.375   2.948   1.868
 7450SOL     OW23248   5.332   2.129   4.800
 7450SOL    HW123249   5.304   2.203   4.739
 7450SOL    HW223250   5.268   2.122   4.876
 7451SOL     OW23251   0.894   6.774   3.630
 7451SOL    HW123252   0.805   6.728   3.636
 7451SOL    HW223253   0.896   6.834   3.550
 7452SOL     OW23254   0.860   6.270   4.693
 7452SOL    HW123255   0.840   6.173   4.707
 7452SOL    HW223256   0.899   6.282   4.602
 7453SOL     OW23257   4.711   6.449   5.214
 7453SOL    HW123258   4.661   6.535   5.220
 7453SOL    HW223259   4.676   6.385   5.283
 7454SOL     OW23260   0.926   2.457   2.327
 7454SOL    HW123261   0.968   2.493   2.410
 7454SOL    HW223262   0.936   2.523   2.253
 7455SOL     OW23263   6.865   1.574   1.993
 7455SOL    HW123264   6.964   1.562   2.006
 7455SOL    HW223265   6.838   1.534   1.905
 7456SOL     OW23266   0.031   1.709   4.351
 7456SOL    HW123267   6.983   1.649   4.391
 7456SOL    HW223268   0.081   1.658   4.281
 7457SOL     OW23269   4.149   0.322   5.620
 7457SOL    HW123270   4.248   0.305   5.629
 7457SOL    HW223271   4.105   0.308   5.709
 7458SOL     OW23272   2.326   6.862   6.097
 7458SOL    HW123273   2.293   6.775   6.134
 7458SOL    HW223274   2.361   6.918   6.172
 7459SOL     OW23275   5.314   0.584   1.732
 7459SOL    HW123276   5.346   0.650   1.800
 7459SOL    HW223277   5.365   0.597   1.647
 7460SOL     OW23278   1.909   5.603   1.116
 7460SOL    HW123279   1.979   5.639   1.054
 7460SOL    HW223280   1.951   5.537   1.178
 7461SOL     OW23281   6.311   1.678   5.873
 7461SOL    HW123282   6.361   1.685   5.959
 7461SOL    HW223283   6.252   1.758   5.861
 7462SOL     OW23284   1.349   4.003   2.721
 7462SOL    HW123285   1.430   3.967   2.767
 7462SOL    HW223286   1.310   4.077   2.776
 7463SOL     OW23287   3.187   5.096   1.074
 7463SOL    HW123288   3.191   5.171   1.140
 7463SOL    HW223289   3.091   5.073   1.056
 7464SOL     OW23290   4.771   0.504   6.710
 7464SOL    HW123291   4.869   0.510   6.693
 7464SOL    HW223292   4.731   0.436   6.649
 7465SOL     OW23293   0.858   5.933   0.164
 7465SOL    HW123294   0.911   6.015   0.184
 7465SOL    HW223295   0.915   5.852   0.182
 7466SOL     OW23296   0.729   0.693   6.099
 7466SOL    HW123297   0.668   0.639   6.158
 7466SOL    HW223298   0.818   0.702   6.144
 7467SOL     OW23299   0.108   2.017   0.617
 7467SOL    HW123300   0.160   2.101   0.634
 7467SOL    HW223301   0.162   1.955   0.560
 7468SOL     OW23302   6.212   2.413   3.754
 7468SOL    HW123303   6.198   2.392   3.657
 7468SOL    HW223304   6.279   2.486   3.763
 7469SOL     OW23305   0.371   0.703   0.935
 7469SOL    HW123306   0.305   0.632   0.959
 7469SOL    HW223307   0.353   0.737   0.843
 7470SOL     OW23308   0.217   3.103   3.794
 7470SOL    HW123309   0.135   3.058   3.758
 7470SOL    HW223310   0.189   3.177   3.856
 7471SOL     OW23311   0.191   6.112   6.121
 7471SOL    HW123312   0.217   6.122   6.217
 7471SOL    HW223313   0.109   6.167   6.103
 7472SOL     OW23314   6.284   0.354   4.160
 7472SOL    HW123315   6.247   0.322   4.247
 7472SOL    HW223316   6.303   0.452   4.166
 7473SOL     OW23317   6.460   4.617   2.988
 7473SOL    HW123318   6.376   4.666   3.007
 7473SOL    HW223319   6.440   4.537   2.931
 7474SOL     OW23320   2.159   1.089   5.293
 7474SOL    HW123321   2.143   0.992   5.274
 7474SOL    HW223322   2.257   1.104   5.304
 7475SOL     OW23323   4.434   1.648   2.530
 7475SOL    HW123324   4.396   1.740   2.518
 7475SOL    HW223325   4.399   1.588   2.458
 7476SOL     OW23326   3.408   5.448   3.299
 7476SOL    HW123327   3.439   5.536   3.263
 7476SOL    HW223328   3.321   5.461   3.347
 7477SOL     OW23329   6.961   1.114   5.156
 7477SOL    HW123330   6.953   1.166   5.070
 7477SOL    HW223331   0.009   1.044   5.145
 7478SOL     OW23332   5.018   5.418   6.274
 7478SOL    HW123333   4.963   5.415   6.190
 7478SOL    HW223334   5.036   5.325   6.306
 7479SOL     OW23335   4.146   2.338   1.785
 7479SOL    HW123336   4.131   2.301   1.877
 7479SOL    HW223337   4.230   2.393   1.784
 7480SOL     OW23338   0.096   4.100   1.692
 7480SOL    HW123339   0.049   4.014   1.671
 7480SOL    HW223340   0.076   4.126   1.786
 7481SOL     OW23341   6.105   4.982   1.260
 7481SOL    HW123342   6.164   4.947   1.188
 7481SOL    HW223343   6.148   4.965   1.349
 7482SOL     OW23344   4.127   2.264   2.964
 7482SOL    HW123345   4.162   2.283   2.873
 7482SOL    HW223346   4.035   2.225   2.957
 7483SOL     OW23347   4.872   3.091   4.641
 7483SOL    HW123348   4.949   3.045   4.596
 7483SOL    HW223349   4.792   3.030   4.641
 7484SOL     OW23350   0.706   0.964   3.929
 7484SOL    HW123351   0.760   0.900   3.874
 7484SOL    HW223352   0.613   0.929   3.940
 7485SOL     OW23353   3.339   0.669   4.806
 7485SOL    HW123354   3.315   0.736   4.736
 7485SOL    HW223355   3.411   0.706   4.864
 7486SOL     OW23356   2.612   0.492   6.128
 7486SOL    HW123357   2.519   0.485   6.092
 7486SOL    HW223358   2.628   0.585   6.162
 7487SOL     OW23359   2.318   6.394   2.638
 7487SOL    HW123360   2.328   6.491   2.660
 7487SOL    HW223361   2.359   6.339   2.711
 7488SOL     OW23362   1.694   6.556   3.910
 7488SOL    HW123363   1.693   6.607   3.825
 7488SOL    HW223364   1.785   6.516   3.924
 7489SOL     OW23365   5.281   2.630   4.745
 7489SOL    HW123366   5.367   2.615   4.698
 7489SOL    HW223367   5.275   2.569   4.825
 7490SOL     OW23368   1.086   0.862   1.993
 7490SOL    HW123369   1.150   0.938   1.979
 7490SOL    HW223370   1.062   0.823   1.904
 7491SOL     OW23371   6.191   2.919   6.079
 7491SOL    HW123372   6.137   2.839   6.052
 7491SOL    HW223373   6.203   2.919   6.178
 7492SOL     OW23374   1.854   0.761   3.442
 7492SOL    HW123375   1.757   0.755   3.418
 7492SOL    HW223376   1.874   0.697   3.516
 7493SOL     OW23377   6.801   3.403   6.974
 7493SOL    HW123378   6.775   3.313   7.008
 7493SOL    HW223379   6.889   3.397   6.927
 7494SOL     OW23380   4.875   1.092   2.644
 7494SOL    HW123381   4.890   1.009   2.590
 7494SOL    HW223382   4.844   1.066   2.735
 7495SOL     OW23383   1.588   1.259   0.198
 7495SOL    HW123384   1.560   1.352   0.224
 7495SOL    HW223385   1.567   1.244   0.102
 7496SOL     OW23386   6.601   3.519   6.442
 7496SOL    HW123387   6.698   3.504   6.461
 7496SOL    HW223388   6.558   3.564   6.520
 7497SOL     OW23389   2.242   4.795   0.712
 7497SOL    HW123390   2.324   4.831   0.756
 7497SOL    HW223391   2.164   4.855   0.732
 7498SOL     OW23392   2.427   1.403   5.499
 7498SOL    HW123393   2.415   1.486   5.445
 7498SOL    HW223394   2.439   1.427   5.595
 7499SOL     OW23395   3.531   1.902   2.869
 7499SOL    HW123396   3.489   1.992   2.877
 7499SOL    HW223397   3.579   1.880   2.954
 7500SOL     OW23398   3.248   5.260   3.580
 7500SOL    HW123399   3.323   5.301   3.633
 7500SOL    HW223400   3.160   5.294   3.614
 7501SOL     OW23401   5.902   4.200   4.463
 7501SOL    HW123402   5.882   4.117   4.514
 7501SOL    HW223403   5.852   4.198   4.376
 7502SOL     OW23404   1.438   6.809   4.452
 7502SOL    HW123405   1.529   6.797   4.414
 7502SOL    HW223406   1.374   6.746   4.407
 7503SOL     OW23407   3.359   1.538   0.967
 7503SOL    HW123408   3.273   1.514   1.013
 7503SOL    HW223409   3.364   1.638   0.957
 7504SOL     OW23410   1.631   0.324   2.746
 7504SOL    HW123411   1.697   0.368   2.807
 7504SOL    HW223412   1.548   0.303   2.797
 7505SOL     OW23413   1.617   1.788   5.519
 7505SOL    HW123414   1.695   1.751   5.569
 7505SOL    HW223415   1.646   1.867   5.466
 7506SOL     OW23416   5.362   0.425   3.042
 7506SOL    HW123417   5.461   0.424   3.023
 7506SOL    HW223418   5.346   0.401   3.138
 7507SOL     OW23419   1.121   0.613   2.354
 7507SOL    HW123420   1.055   0.566   2.296
 7507SOL    HW223421   1.198   0.644   2.298
 7508SOL     OW23422   0.865   6.123   2.003
 7508SOL    HW123423   0.770   6.112   1.972
 7508SOL    HW223424   0.927   6.083   1.936
 7509SOL     OW23425   5.312   4.895   0.387
 7509SOL    HW123426   5.396   4.852   0.354
 7509SOL    HW223427   5.294   4.979   0.335
 7510SOL     OW23428   3.841   4.175   5.598
 7510SOL    HW123429   3.778   4.147   5.525
 7510SOL    HW223430   3.921   4.115   5.597
 7511SOL     OW23431   2.457   0.112   3.643
 7511SOL    HW123432   2.370   0.065   3.634
 7511SOL    HW223433   2.491   0.101   3.737
 7512SOL     OW23434   3.138   6.088   6.699
 7512SOL    HW123435   3.189   6.175   6.698
 7512SOL    HW223436   3.132   6.052   6.606
 7513SOL     OW23437   2.352   0.651   1.547
 7513SOL    HW123438   2.352   0.730   1.608
 7513SOL    HW223439   2.414   0.581   1.582
 7514SOL     OW23440   2.564   5.723   1.243
 7514SOL    HW123441   2.504   5.678   1.177
 7514SOL    HW223442   2.509   5.776   1.307
 7515SOL     OW23443   6.721   4.939   2.561
 7515SOL    HW123444   6.710   4.861   2.623
 7515SOL    HW223445   6.794   4.998   2.594
 7516SOL     OW23446   6.370   6.035   5.904
 7516SOL    HW123447   6.385   6.046   6.002
 7516SOL    HW223448   6.274   6.049   5.883
 7517SOL     OW23449   6.920   3.218   0.610
 7517SOL    HW123450   6.909   3.120   0.627
 7517SOL    HW223451   6.895   3.239   0.516
 7518SOL     OW23452   4.262   5.043   3.236
 7518SOL    HW123453   4.181   5.017   3.184
 7518SOL    HW223454   4.315   4.961   3.258
 7519SOL     OW23455   6.872   6.734   4.012
 7519SOL    HW123456   6.935   6.793   3.963
 7519SOL    HW223457   6.920   6.651   4.041
 7520SOL     OW23458   3.131   0.847   2.419
 7520SOL    HW123459   3.151   0.855   2.321
 7520SOL    HW223460   3.129   0.750   2.444
 7521SOL     OW23461   4.986   4.102   6.059
 7521SOL    HW123462   4.987   4.057   5.970
 7521SOL    HW223463   4.926   4.182   6.055
 7522SOL     OW23464   2.584   0.833   6.375
 7522SOL    HW123465   2.536   0.820   6.462
 7522SOL    HW223466   2.577   0.929   6.347
 7523SOL     OW23467   5.855   0.077   5.974
 7523SOL    HW123468   5.903   0.134   5.908
 7523SOL    HW223469   5.758   0.071   5.949
 7524SOL     OW23470   2.174   2.209   5.689
 7524SOL    HW123471   2.157   2.260   5.773
 7524SOL    HW223472   2.268   2.173   5.689
 7525SOL     OW23473   3.891   0.824   6.209
 7525SOL    HW123474   3.846   0.776   6.285
 7525SOL    HW223475   3.835   0.903   6.183
 7526SOL     OW23476   2.661   3.505   1.554
 7526SOL    HW123477   2.604   3.440   1.605
 7526SOL    HW223478   2.729   3.454   1.500
 7527SOL     OW23479   4.151   5.800   3.357
 7527SOL    HW123480   4.203   5.727   3.402
 7527SOL    HW223481   4.090   5.843   3.423
 7528SOL     OW23482   5.246   1.407   6.698
 7528SOL    HW123483   5.225   1.489   6.752
 7528SOL    HW223484   5.194   1.410   6.613
 7529SOL     OW23485   5.252   0.810   4.372
 7529SOL    HW123486   5.189   0.810   4.294
 7529SOL    HW223487   5.205   0.774   4.453
 7530SOL     OW23488   0.758   3.631   2.821
 7530SOL    HW123489   0.835   3.681   2.862
 7530SOL    HW223490   0.701   3.695   2.769
 7531SOL     OW23491   4.858   2.800   4.256
 7531SOL    HW123492   4.942   2.763   4.216
 7531SOL    HW223493   4.865   2.797   4.355
 7532SOL     OW23494   5.870   5.065   0.431
 7532SOL    HW123495   5.841   5.088   0.338
 7532SOL    HW223496   5.817   4.987   0.464
 7533SOL     OW23497   2.327   1.806   2.613
 7533SOL    HW123498   2.235   1.819   2.577
 7533SOL    HW223499   2.338   1.860   2.696
 7534SOL     OW23500   4.253   6.182   5.438
 7534SOL    HW123501   4.236   6.260   5.378
 7534SOL    HW223502   4.249   6.211   5.533
 7535SOL     OW23503   1.987   6.741   5.225
 7535SOL    HW123504   1.955   6.830   5.259
 7535SOL    HW223505   1.908   6.689   5.191
 7536SOL     OW23506   4.799   4.350   4.507
 7536SOL    HW123507   4.741   4.309   4.578
 7536SOL    HW223508   4.863   4.414   4.549
 7537SOL     OW23509   3.588   5.598   2.437
 7537SOL    HW123510   3.564   5.524   2.500
 7537SOL    HW223511   3.596   5.561   2.344
 7538SOL     OW23512   2.354   2.919   1.633
 7538SOL    HW123513   2.410   2.971   1.569
 7538SOL    HW223514   2.302   2.982   1.691
 7539SOL     OW23515   0.756   3.163   3.790
 7539SOL    HW123516   0.748   3.068   3.820
 7539SOL    HW223517   0.665   3.204   3.782
 7540SOL     OW23518   4.462   0.647   5.101
 7540SOL    HW123519   4.526   0.575   5.126
 7540SOL    HW223520   4.513   0.730   5.078
 7541SOL     OW23521   0.099   4.433   4.672
 7541SOL    HW123522   0.087   4.417   4.770
 7541SOL    HW223523   0.157   4.513   4.659
 7542SOL     OW23524   0.747   5.054   6.752
 7542SOL    HW123525   0.765   5.047   6.653
 7542SOL    HW223526   0.804   5.126   6.790
 7543SOL     OW23527   3.482   1.876   0.112
 7543SOL    HW123528   3.461   1.780   0.132
 7543SOL    HW223529   3.477   1.929   0.196
 7544SOL     OW23530   0.156   2.153   2.742
 7544SOL    HW123531   0.158   2.176   2.645
 7544SOL    HW223532   0.142   2.236   2.795
 7545SOL     OW23533   6.525   5.570   1.146
 7545SOL    HW123534   6.610   5.620   1.130
 7545SOL    HW223535   6.547   5.480   1.183
 7546SOL     OW23536   3.504   1.567   2.034
 7546SOL    HW123537   3.502   1.605   2.126
 7546SOL    HW223538   3.457   1.479   2.033
 7547SOL     OW23539   5.058   0.820   0.605
 7547SOL    HW123540   5.122   0.869   0.545
 7547SOL    HW223541   4.967   0.860   0.595
 7548SOL     OW23542   4.032   1.644   0.206
 7548SOL    HW123543   3.965   1.633   0.279
 7548SOL    HW223544   3.994   1.609   0.120
 7549SOL     OW23545   5.373   2.249   1.149
 7549SOL    HW123546   5.378   2.258   1.249
 7549SOL    HW223547   5.326   2.328   1.110
 7550SOL     OW23548   2.870   5.298   2.333
 7550SOL    HW123549   2.848   5.209   2.292
 7550SOL    HW223550   2.958   5.291   2.381
 7551SOL     OW23551   5.172   4.018   6.614
 7551SOL    HW123552   5.149   4.003   6.518
 7551SOL    HW223553   5.103   3.975   6.672
 7552SOL     OW23554   1.297   5.549   2.853
 7552SOL    HW123555   1.207   5.590   2.870
 7552SOL    HW223556   1.292   5.489   2.774
 7553SOL     OW23557   4.619   6.292   5.442
 7553SOL    HW123558   4.580   6.207   5.476
 7553SOL    HW223559   4.706   6.310   5.489
 7554SOL     OW23560   4.502   1.584   0.589
 7554SOL    HW123561   4.406   1.582   0.561
 7554SOL    HW223562   4.508   1.574   0.688
 7555SOL     OW23563   1.907   4.617   5.789
 7555SOL    HW123564   1.834   4.579   5.845
 7555SOL    HW223565   1.994   4.578   5.817
 7556SOL     OW23566   1.374   2.760   0.363
 7556SOL    HW123567   1.432   2.704   0.304
 7556SOL    HW223568   1.356   2.712   0.448
 7557SOL     OW23569   5.181   1.780   5.990
 7557SOL    HW123570   5.165   1.780   5.892
 7557SOL    HW223571   5.224   1.694   6.017
 7558SOL     OW23572   1.499   2.783   4.371
 7558SOL    HW123573   1.478   2.864   4.316
 7558SOL    HW223574   1.511   2.810   4.466
 7559SOL     OW23575   5.439   4.650   6.722
 7559SOL    HW123576   5.411   4.594   6.799
 7559SOL    HW223577   5.459   4.591   6.643
 7560SOL     OW23578   4.798   6.329   1.146
 7560SOL    HW123579   4.890   6.301   1.170
 7560SOL    HW223580   4.798   6.371   1.055
 7561SOL     OW23581   1.320   3.355   6.917
 7561SOL    HW123582   1.234   3.381   6.961
 7561SOL    HW223583   1.383   3.433   6.916
 7562SOL     OW23584   6.855   6.481   3.746
 7562SOL    HW123585   6.919   6.554   3.723
 7562SOL    HW223586   6.899   6.392   3.732
 7563SOL     OW23587   2.742   0.066   0.823
 7563SOL    HW123588   2.788   0.047   0.737
 7563SOL    HW223589   2.761   7.016   0.889
 7564SOL     OW23590   4.751   0.855   3.280
 7564SOL    HW123591   4.656   0.876   3.258
 7564SOL    HW223592   4.803   0.844   3.195
 7565SOL     OW23593   5.178   2.998   0.802
 7565SOL    HW123594   5.229   2.913   0.790
 7565SOL    HW223595   5.119   2.990   0.882
 7566SOL     OW23596   5.840   4.775   2.756
 7566SOL    HW123597   5.754   4.745   2.796
 7566SOL    HW223598   5.910   4.780   2.828
 7567SOL     OW23599   1.645   2.398   4.905
 7567SOL    HW123600   1.739   2.384   4.874
 7567SOL    HW223601   1.619   2.326   4.969
 7568SOL     OW23602   5.568   6.105   2.456
 7568SOL    HW123603   5.645   6.168   2.463
 7568SOL    HW223604   5.600   6.017   2.420
 7569SOL     OW23605   4.060   6.159   5.984
 7569SOL    HW123606   4.027   6.213   6.062
 7569SOL    HW223607   4.148   6.119   6.006
 7570SOL     OW23608   5.493   3.721   5.330
 7570SOL    HW123609   5.578   3.758   5.367
 7570SOL    HW223610   5.483   3.750   5.235
 7571SOL     OW23611   4.968   5.358   3.369
 7571SOL    HW123612   5.043   5.357   3.304
 7571SOL    HW223613   4.960   5.269   3.413
 7572SOL     OW23614   4.932   1.139   1.852
 7572SOL    HW123615   4.943   1.183   1.940
 7572SOL    HW223616   4.857   1.181   1.802
 7573SOL     OW23617   0.607   0.117   4.923
 7573SOL    HW123618   0.593   0.071   4.836
 7573SOL    HW223619   0.562   0.207   4.921
 7574SOL     OW23620   5.852   0.857   5.456
 7574SOL    HW123621   5.921   0.846   5.527
 7574SOL    HW223622   5.789   0.931   5.481
 7575SOL     OW23623   4.661   0.020   6.445
 7575SOL    HW123624   4.749   0.066   6.433
 7575SOL    HW223625   4.591   0.087   6.466
 7576SOL     OW23626   4.917   4.749   6.326
 7576SOL    HW123627   4.941   4.654   6.341
 7576SOL    HW223628   4.840   4.774   6.385
 7577SOL     OW23629   0.412   6.932   0.169
 7577SOL    HW123630   0.368   6.942   0.080
 7577SOL    HW223631   0.511   6.933   0.158
 7578SOL     OW23632   2.324   5.310   2.149
 7578SOL    HW123633   2.338   5.300   2.247
 7578SOL    HW223634   2.292   5.402   2.128
 7579SOL     OW23635   6.549   1.165   1.404
 7579SOL    HW123636   6.487   1.221   1.349
 7579SOL    HW223637   6.499   1.123   1.479
 7580SOL     OW23638   0.966   3.929   4.063
 7580SOL    HW123639   0.919   3.860   4.118
 7580SOL    HW223640   1.024   3.985   4.122
 7581SOL     OW23641   6.698   0.511   1.185
 7581SOL    HW123642   6.683   0.447   1.261
 7581SOL    HW223643   6.694   0.605   1.219
 7582SOL     OW23644   3.766   1.234   1.874
 7582SOL    HW123645   3.814   1.280   1.800
 7582SOL    HW223646   3.669   1.227   1.852
 7583SOL     OW23647   6.015   3.045   1.379
 7583SOL    HW123648   5.938   3.037   1.315
 7583SOL    HW223649   5.985   3.092   1.462
 7584SOL     OW23650   2.725   6.766   1.673
 7584SOL    HW123651   2.752   6.723   1.759
 7584SOL    HW223652   2.626   6.760   1.662
 7585SOL     OW23653   1.374   2.684   6.888
 7585SOL    HW123654   1.322   2.639   6.960
 7585SOL    HW223655   1.330   2.669   6.800
 7586SOL     OW23656   2.944   1.131   3.557
 7586SOL    HW123657   2.966   1.044   3.602
 7586SOL    HW223658   2.879   1.114   3.483
 7587SOL     OW23659   2.300   1.859   0.303
 7587SOL    HW123660   2.304   1.783   0.368
 7587SOL    HW223661   2.252   1.936   0.345
 7588SOL     OW23662   1.407   2.818   3.156
 7588SOL    HW123663   1.480   2.850   3.096
 7588SOL    HW223664   1.337   2.890   3.166
 7589SOL     OW23665   0.858   6.983   2.294
 7589SOL    HW123666   0.888   0.013   2.214
 7589SOL    HW223667   0.778   0.006   2.335
 7590SOL     OW23668   4.526   2.033   6.175
 7590SOL    HW123669   4.503   2.117   6.125
 7590SOL    HW223670   4.446   1.975   6.182
 7591SOL     OW23671   0.308   3.433   0.360
 7591SOL    HW123672   0.324   3.474   0.449
 7591SOL    HW223673   0.210   3.431   0.340
 7592SOL     OW23674   6.707   4.915   5.279
 7592SOL    HW123675   6.679   4.913   5.184
 7592SOL    HW223676   6.712   4.822   5.315
 7593SOL     OW23677   5.661   3.247   1.134
 7593SOL    HW123678   5.568   3.280   1.152
 7593SOL    HW223679   5.721   3.324   1.112
 7594SOL     OW23680   0.969   4.997   2.500
 7594SOL    HW123681   0.996   5.087   2.534
 7594SOL    HW223682   1.013   4.926   2.555
 7595SOL     OW23683   6.972   2.669   5.797
 7595SOL    HW123684   6.904   2.596   5.788
 7595SOL    HW223685   6.925   2.757   5.804
 7596SOL     OW23686   4.490   5.667   4.076
 7596SOL    HW123687   4.484   5.655   3.977
 7596SOL    HW223688   4.496   5.765   4.097
 7597SOL     OW23689   3.472   6.421   2.790
 7597SOL    HW123690   3.515   6.505   2.825
 7597SOL    HW223691   3.480   6.349   2.859
 7598SOL     OW23692   6.659   1.512   3.047
 7598SOL    HW123693   6.645   1.536   2.951
 7598SOL    HW223694   6.586   1.552   3.102
 7599SOL     OW23695   5.105   2.289   2.539
 7599SOL    HW123696   5.007   2.283   2.556
 7599SOL    HW223697   5.135   2.211   2.485
 7600SOL     OW23698   2.102   1.841   2.483
 7600SOL    HW123699   2.008   1.811   2.497
 7600SOL    HW223700   2.105   1.904   2.406
 7601SOL     OW23701   1.573   5.243   2.675
 7601SOL    HW123702   1.493   5.301   2.662
 7601SOL    HW223703   1.559   5.156   2.626
 7602SOL     OW23704   1.649   4.121   5.734
 7602SOL    HW123705   1.552   4.137   5.753
 7602SOL    HW223706   1.660   4.090   5.640
 7603SOL     OW23707   1.339   5.865   5.821
 7603SOL    HW123708   1.316   5.775   5.785
 7603SOL    HW223709   1.420   5.859   5.878
 7604SOL     OW23710   1.758   4.262   4.441
 7604SOL    HW123711   1.783   4.339   4.382
 7604SOL    HW223712   1.804   4.179   4.410
 7605SOL     OW23713   0.352   6.989   1.093
 7605SOL    HW123714   0.413   0.016   1.155
 7605SOL    HW223715   0.257   7.011   1.115
 7606SOL     OW23716   5.662   3.755   5.091
 7606SOL    HW123717   5.650   3.837   5.148
 7606SOL    HW223718   5.737   3.771   5.026
 7607SOL     OW23719   3.710   4.662   6.605
 7607SOL    HW123720   3.671   4.728   6.540
 7607SOL    HW223721   3.695   4.569   6.571
 7608SOL     OW23722   4.142   3.484   2.848
 7608SOL    HW123723   4.220   3.439   2.891
 7608SOL    HW223724   4.150   3.476   2.748
 7609SOL     OW23725   1.130   3.627   4.091
 7609SOL    HW123726   1.133   3.698   4.160
 7609SOL    HW223727   1.062   3.558   4.117
 7610SOL     OW23728   4.439   5.597   6.425
 7610SOL    HW123729   4.456   5.582   6.523
 7610SOL    HW223730   4.525   5.623   6.380
 7611SOL     OW23731   6.565   2.483   1.370
 7611SOL    HW123732   6.519   2.557   1.321
 7611SOL    HW223733   6.662   2.506   1.381
 7612SOL     OW23734   4.707   2.840   3.756
 7612SOL    HW123735   4.780   2.801   3.700
 7612SOL    HW223736   4.740   2.925   3.798
 7613SOL     OW23737   6.606   3.459   1.340
 7613SOL    HW123738   6.527   3.403   1.313
 7613SOL    HW223739   6.588   3.555   1.319
 7614SOL     OW23740   5.008   2.959   1.087
 7614SOL    HW123741   4.991   2.871   1.041
 7614SOL    HW223742   5.009   2.945   1.186
 7615SOL     OW23743   3.778   5.174   6.861
 7615SOL    HW123744   3.858   5.222   6.826
 7615SOL    HW223745   3.714   5.240   6.900
 7616SOL     OW23746   6.049   5.638   4.399
 7616SOL    HW123747   6.146   5.632   4.423
 7616SOL    HW223748   5.994   5.621   4.480
 7617SOL     OW23749   4.087   5.065   2.712
 7617SOL    HW123750   4.035   5.072   2.797
 7617SOL    HW223751   4.185   5.059   2.733
 7618SOL     OW23752   0.390   1.258   5.797
 7618SOL    HW123753   0.307   1.204   5.787
 7618SOL    HW223754   0.456   1.208   5.853
 7619SOL     OW23755   5.961   2.815   5.185
 7619SOL    HW123756   5.968   2.800   5.086
 7619SOL    HW223757   5.934   2.910   5.202
 7620SOL     OW23758   3.816   5.828   0.755
 7620SOL    HW123759   3.881   5.773   0.808
 7620SOL    HW223760   3.846   5.831   0.659
 7621SOL     OW23761   0.002   1.576   0.945
 7621SOL    HW123762   7.007   1.639   0.870
 7621SOL    HW223763   6.940   1.525   0.965
 7622SOL     OW23764   4.248   6.161   1.202
 7622SOL    HW123765   4.228   6.110   1.286
 7622SOL    HW223766   4.333   6.212   1.214
 7623SOL     OW23767   4.559   4.982   6.827
 7623SOL    HW123768   4.474   4.950   6.870
 7623SOL    HW223769   4.619   4.904   6.810
 7624SOL     OW23770   6.636   3.591   5.263
 7624SOL    HW123771   6.661   3.635   5.349
 7624SOL    HW223772   6.574   3.651   5.212
 7625SOL     OW23773   4.836   0.540   1.604
 7625SOL    HW123774   4.754   0.588   1.575
 7625SOL    HW223775   4.916   0.599   1.590
 7626SOL     OW23776   5.814   6.763   4.591
 7626SOL    HW123777   5.849   6.850   4.626
 7626SOL    HW223778   5.715   6.771   4.578
 7627SOL     OW23779   4.887   2.936   0.138
 7627SOL    HW123780   4.909   3.025   0.098
 7627SOL    HW223781   4.800   2.942   0.186
 7628SOL     OW23782   3.574   1.753   2.224
 7628SOL    HW123783   3.510   1.826   2.200
 7628SOL    HW223784   3.554   1.720   2.316
 7629SOL     OW23785   0.218   5.985   3.126
 7629SOL    HW123786   0.173   6.070   3.100
 7629SOL    HW223787   0.275   6.000   3.207
 7630SOL     OW23788   6.848   6.642   1.036
 7630SOL    HW123789   6.787   6.667   1.111
 7630SOL    HW223790   6.897   6.558   1.060
 7631SOL     OW23791   1.173   1.585   6.427
 7631SOL    HW123792   1.157   1.669   6.376
 7631SOL    HW223793   1.210   1.515   6.366
 7632SOL     OW23794   3.326   2.726   1.646
 7632SOL    HW123795   3.269   2.763   1.720
 7632SOL    HW223796   3.326   2.627   1.650
 7633SOL     OW23797   5.307   0.434   1.300
 7633SOL    HW123798   5.213   0.446   1.332
 7633SOL    HW223799   5.309   0.371   1.222
 7634SOL     OW23800   1.290   2.270   2.112
 7634SOL    HW123801   1.271   2.368   2.115
 7634SOL    HW223802   1.336   2.243   2.196
 7635SOL     OW23803   3.835   5.010   4.937
 7635SOL    HW123804   3.841   5.034   5.034
 7635SOL    HW223805   3.739   5.014   4.908
 7636SOL     OW23806   1.552   2.671   4.005
 7636SOL    HW123807   1.631   2.694   4.062
 7636SOL    HW223808   1.496   2.603   4.052
 7637SOL     OW23809   2.107   5.244   2.474
 7637SOL    HW123810   2.170   5.250   2.551
 7637SOL    HW223811   2.023   5.293   2.496
 7638SOL     OW23812   2.909   6.249   0.958
 7638SOL    HW123813   2.933   6.155   0.933
 7638SOL    HW223814   2.972   6.282   1.029
 7639SOL     OW23815   1.215   2.318   0.847
 7639SOL    HW123816   1.238   2.221   0.854
 7639SOL    HW223817   1.148   2.331   0.774
 7640SOL     OW23818   3.207   1.372   5.704
 7640SOL    HW123819   3.265   1.453   5.702
 7640SOL    HW223820   3.218   1.324   5.791
 7641SOL     OW23821   1.025   4.178   2.338
 7641SOL    HW123822   1.048   4.268   2.300
 7641SOL    HW223823   0.982   4.122   2.268
 7642SOL     OW23824   3.336   0.919   2.974
 7642SOL    HW123825   3.268   0.991   2.973
 7642SOL    HW223826   3.311   0.848   2.909
 7643SOL     OW23827   5.116   2.731   4.197
 7643SOL    HW123828   5.110   2.702   4.102
 7643SOL    HW223829   5.114   2.831   4.201
 7644SOL     OW23830   5.848   2.060   2.823
 7644SOL    HW123831   5.801   2.139   2.784
 7644SOL    HW223832   5.789   2.016   2.891
 7645SOL     OW23833   4.213   3.643   5.476
 7645SOL    HW123834   4.241   3.714   5.411
 7645SOL    HW223835   4.272   3.647   5.557
 7646SOL     OW23836   0.982   3.495   3.083
 7646SOL    HW123837   0.921   3.508   3.162
 7646SOL    HW223838   1.042   3.575   3.074
 7647SOL     OW23839   6.623   3.303   3.085
 7647SOL    HW123840   6.616   3.390   3.134
 7647SOL    HW223841   6.709   3.300   3.034
 7648SOL     OW23842   2.727   1.608   2.617
 7648SOL    HW123843   2.799   1.608   2.548
 7648SOL    HW223844   2.643   1.572   2.576
 7649SOL     OW23845   1.328   0.989   2.539
 7649SOL    HW123846   1.328   1.087   2.562
 7649SOL    HW223847   1.408   0.945   2.579
 7650SOL     OW23848   4.469   1.980   0.673
 7650SOL    HW123849   4.504   1.886   0.675
 7650SOL    HW223850   4.446   2.009   0.766
 7651SOL     OW23851   2.050   0.668   3.645
 7651SOL    HW123852   2.133   0.622   3.612
 7651SOL    HW223853   2.040   0.652   3.743
 7652SOL     OW23854   5.939   3.936   5.457
 7652SOL    HW123855   5.896   3.846   5.469
 7652SOL    HW223856   5.958   3.951   5.360
 7653SOL     OW23857   1.085   1.885   6.713
 7653SOL    HW123858   1.145   1.907   6.791
 7653SOL    HW223859   0.996   1.855   6.747
 7654SOL     OW23860   4.684   2.701   4.004
 7654SOL    HW123861   4.734   2.752   4.074
 7654SOL    HW223862   4.681   2.755   3.920
 7655SOL     OW23863   4.546   0.082   3.012
 7655SOL    HW123864   4.472   0.016   3.002
 7655SOL    HW223865   4.604   0.080   2.930
 7656SOL     OW23866   2.923   3.764   5.764
 7656SOL    HW123867   2.968   3.830   5.704
 7656SOL    HW223868   2.913   3.677   5.716
 7657SOL     OW23869   1.275   2.810   3.985
 7657SOL    HW123870   1.354   2.861   3.951
 7657SOL    HW223871   1.301   2.714   3.996
 7658SOL     OW23872   4.149   6.966   6.059
 7658SOL    HW123873   4.116   6.899   6.125
 7658SOL    HW223874   4.134   0.036   6.096
 7659SOL     OW23875   6.402   5.528   6.366
 7659SOL    HW123876   6.453   5.614   6.368
 7659SOL    HW223877   6.309   5.544   6.398
 7660SOL     OW23878   0.560   6.137   4.460
 7660SOL    HW123879   0.507   6.221   4.444
 7660SOL    HW223880   0.556   6.114   4.557
 7661SOL     OW23881   6.029   2.727   4.948
 7661SOL    HW123882   5.979   2.746   4.864
 7661SOL    HW223883   6.126   2.747   4.934
 7662SOL     OW23884   1.306   3.052   3.477
 7662SOL    HW123885   1.379   3.112   3.509
 7662SOL    HW223886   1.301   2.971   3.535
 7663SOL     OW23887   0.507   5.459   5.318
 7663SOL    HW123888   0.488   5.468   5.416
 7663SOL    HW223889   0.425   5.484   5.266
 7664SOL     OW23890   3.708   6.904   1.448
 7664SOL    HW123891   3.717   6.805   1.437
 7664SOL    HW223892   3.664   6.925   1.535
 7665SOL     OW23893   6.138   6.951   4.934
 7665SOL    HW123894   6.198   6.872   4.924
 7665SOL    HW223895   6.173   0.004   4.878
 7666SOL     OW23896   0.612   5.602   1.905
 7666SOL    HW123897   0.557   5.523   1.878
 7666SOL    HW223898   0.646   5.649   1.823
 7667SOL     OW23899   4.795   6.536   2.313
 7667SOL    HW123900   4.830   6.537   2.407
 7667SOL    HW223901   4.799   6.628   2.275
 7668SOL     OW23902   3.446   4.677   0.191
 7668SOL    HW123903   3.373   4.722   0.243
 7668SOL    HW223904   3.525   4.662   0.250
 7669SOL     OW23905   4.654   2.009   5.078
 7669SOL    HW123906   4.703   1.972   5.157
 7669SOL    HW223907   4.715   2.009   4.999
 7670SOL     OW23908   0.651   5.160   6.421
 7670SOL    HW123909   0.703   5.088   6.468
 7670SOL    HW223910   0.596   5.119   6.349
 7671SOL     OW23911   4.490   1.169   2.877
 7671SOL    HW123912   4.495   1.255   2.929
 7671SOL    HW223913   4.523   1.184   2.784
 7672SOL     OW23914   0.373   6.674   2.822
 7672SOL    HW123915   0.388   6.772   2.816
 7672SOL    HW223916   0.301   6.646   2.758
 7673SOL     OW23917   1.391   6.129   0.300
 7673SOL    HW123918   1.476   6.076   0.312
 7673SOL    HW223919   1.313   6.070   0.317
 7674SOL     OW23920   5.313   1.155   2.860
 7674SOL    HW123921   5.395   1.212   2.857
 7674SOL    HW223922   5.234   1.209   2.828
 7675SOL     OW23923   6.499   6.791   2.678
 7675SOL    HW123924   6.549   6.751   2.601
 7675SOL    HW223925   6.494   6.725   2.752
 7676SOL     OW23926   2.252   2.097   0.695
 7676SOL    HW123927   2.217   2.043   0.619
 7676SOL    HW223928   2.197   2.079   0.777
 7677SOL     OW23929   0.301   4.810   1.469
 7677SOL    HW123930   0.367   4.783   1.399
 7677SOL    HW223931   0.345   4.809   1.559
 7678SOL     OW23932   2.006   2.981   4.734
 7678SOL    HW123933   2.033   3.067   4.690
 7678SOL    HW223934   1.985   2.998   4.830
 7679SOL     OW23935   2.955   5.390   6.183
 7679SOL    HW123936   2.897   5.353   6.110
 7679SOL    HW223937   3.010   5.465   6.146
 7680SOL     OW23938   1.522   0.896   0.492
 7680SOL    HW123939   1.547   0.952   0.571
 7680SOL    HW223940   1.604   0.879   0.437
 7681SOL     OW23941   2.410   0.554   0.554
 7681SOL    HW123942   2.485   0.591   0.608
 7681SOL    HW223943   2.327   0.550   0.610
 7682SOL     OW23944   3.416   0.200   2.425
 7682SOL    HW123945   3.505   0.194   2.381
 7682SOL    HW223946   3.399   0.295   2.453
 7683SOL     OW23947   4.960   1.421   4.242
 7683SOL    HW123948   4.968   1.517   4.218
 7683SOL    HW223949   4.865   1.392   4.235
 7684SOL     OW23950   3.460   1.972   1.207
 7684SOL    HW123951   3.526   2.014   1.145
 7684SOL    HW223952   3.377   2.027   1.211
 7685SOL     OW23953   2.871   2.060   5.923
 7685SOL    HW123954   2.909   1.999   5.853
 7685SOL    HW223955   2.943   2.086   5.987
 7686SOL     OW23956   6.779   6.442   2.718
 7686SOL    HW123957   6.787   6.347   2.751
 7686SOL    HW223958   6.828   6.451   2.631
 7687SOL     OW23959   5.613   5.503   3.865
 7687SOL    HW123960   5.577   5.561   3.792
 7687SOL    HW223961   5.702   5.467   3.839
 7688SOL     OW23962   0.747   5.827   6.003
 7688SOL    HW123963   0.754   5.743   5.950
 7688SOL    HW223964   0.650   5.851   6.016
 7689SOL     OW23965   6.036   6.352   2.589
 7689SOL    HW123966   6.115   6.291   2.585
 7689SOL    HW223967   6.013   6.372   2.684
 7690SOL     OW23968   5.529   5.128   0.365
 7690SOL    HW123969   5.597   5.188   0.324
 7690SOL    HW223970   5.446   5.128   0.309
 7691SOL     OW23971   5.259   4.003   4.165
 7691SOL    HW123972   5.328   4.009   4.237
 7691SOL    HW223973   5.218   3.911   4.165
 7692SOL     OW23974   0.566   6.086   1.946
 7692SOL    HW123975   0.518   6.103   1.859
 7692SOL    HW223976   0.552   5.991   1.974
 7693SOL     OW23977   3.846   6.662   1.089
 7693SOL    HW123978   3.808   6.616   1.169
 7693SOL    HW223979   3.871   6.756   1.113
 7694SOL     OW23980   6.703   4.657   4.687
 7694SOL    HW123981   6.763   4.665   4.607
 7694SOL    HW223982   6.610   4.681   4.660
 7695SOL     OW23983   4.834   0.938   1.228
 7695SOL    HW123984   4.923   0.951   1.185
 7695SOL    HW223985   4.828   0.996   1.310
 7696SOL     OW23986   0.040   0.285   5.268
 7696SOL    HW123987   0.128   0.314   5.232
 7696SOL    HW223988   6.993   0.290   5.196
 7697SOL     OW23989   2.508   6.814   2.338
 7697SOL    HW123990   2.524   6.729   2.387
 7697SOL    HW223991   2.538   6.804   2.243
 7698SOL     OW23992   6.099   1.181   4.002
 7698SOL    HW123993   6.176   1.238   3.973
 7698SOL    HW223994   6.031   1.238   4.049
 7699SOL     OW23995   3.459   5.814   6.324
 7699SOL    HW123996   3.542   5.858   6.291
 7699SOL    HW223997   3.471   5.715   6.320
 7700SOL     OW23998   4.644   5.880   3.787
 7700SOL    HW123999   4.678   5.828   3.865
 7700SOL    HW224000   4.706   5.956   3.768
 7701SOL     OW24001   6.867   2.049   6.912
 7701SOL    HW124002   6.794   2.101   6.868
 7701SOL    HW224003   6.843   2.031   7.007
 7702SOL     OW24004   3.393   6.954   5.323
 7702SOL    HW124005   3.320   6.908   5.274
 7702SOL    HW224006   3.471   6.891   5.334
 7703SOL     OW24007   6.832   6.707   6.541
 7703SOL    HW124008   6.739   6.708   6.578
 7703SOL    HW224009   6.889   6.645   6.597
 7704SOL     OW24010   5.672   5.673   4.690
 7704SOL    HW124011   5.674   5.738   4.614
 7704SOL    HW224012   5.745   5.606   4.679
 7705SOL     OW24013   3.523   5.527   6.689
 7705SOL    HW124014   3.452   5.597   6.674
 7705SOL    HW224015   3.500   5.474   6.771
 7706SOL     OW24016   4.611   3.099   5.290
 7706SOL    HW124017   4.511   3.095   5.299
 7706SOL    HW224018   4.651   3.016   5.330
 7707SOL     OW24019   6.488   5.474   5.297
 7707SOL    HW124020   6.427   5.459   5.376
 7707SOL    HW224021   6.551   5.548   5.318
 7708SOL     OW24022   0.372   6.691   5.929
 7708SOL    HW124023   0.433   6.711   5.852
 7708SOL    HW224024   0.411   6.617   5.984
 7709SOL     OW24025   6.239   4.653   1.952
 7709SOL    HW124026   6.332   4.621   1.939
 7709SOL    HW224027   6.226   4.681   2.047
 7710SOL     OW24028   2.890   1.567   0.344
 7710SOL    HW124029   2.960   1.632   0.374
 7710SOL    HW224030   2.878   1.495   0.413
 7711SOL     OW24031   5.962   6.856   5.912
 7711SOL    HW124032   5.925   6.947   5.932
 7711SOL    HW224033   5.888   6.790   5.906
 7712SOL     OW24034   6.141   5.132   2.122
 7712SOL    HW124035   6.071   5.204   2.123
 7712SOL    HW224036   6.222   5.165   2.170
 7713SOL     OW24037   1.679   4.212   1.103
 7713SOL    HW124038   1.633   4.147   1.164
 7713SOL    HW224039   1.778   4.208   1.118
 7714SOL     OW24040   6.461   3.869   5.476
 7714SOL    HW124041   6.426   3.781   5.446
 7714SOL    HW224042   6.511   3.859   5.562
 7715SOL     OW24043   3.446   1.730   0.480
 7715SOL    HW124044   3.445   1.651   0.418
 7715SOL    HW224045   3.490   1.704   0.566
 7716SOL     OW24046   6.471   4.023   2.850
 7716SOL    HW124047   6.465   4.098   2.784
 7716SOL    HW224048   6.565   3.990   2.854
 7717SOL     OW24049   1.783   0.990   5.345
 7717SOL    HW124050   1.704   1.038   5.306
 7717SOL    HW224051   1.851   1.058   5.376
 7718SOL     OW24052   0.965   3.310   3.706
 7718SOL    HW124053   0.896   3.282   3.773
 7718SOL    HW224054   0.996   3.230   3.655
 7719SOL     OW24055   6.549   4.549   5.209
 7719SOL    HW124056   6.559   4.609   5.129
 7719SOL    HW224057   6.633   4.552   5.263
 7720SOL     OW24058   0.074   1.587   0.539
 7720SOL    HW124059   0.051   1.536   0.456
 7720SOL    HW224060   0.136   1.533   0.595
 7721SOL     OW24061   0.425   5.331   2.791
 7721SOL    HW124062   0.364   5.253   2.780
 7721SOL    HW224063   0.450   5.342   2.887
 7722SOL     OW24064   1.053   4.566   3.808
 7722SOL    HW124065   1.104   4.488   3.843
 7722SOL    HW224066   0.971   4.581   3.864
 7723SOL     OW24067   4.631   3.353   6.480
 7723SOL    HW124068   4.665   3.445   6.500
 7723SOL    HW224069   4.605   3.308   6.565
 7724SOL     OW24070   3.061   3.912   1.219
 7724SOL    HW124071   3.126   3.988   1.216
 7724SOL    HW224072   3.104   3.830   1.182
 7725SOL     OW24073   6.628   0.713   2.730
 7725SOL    HW124074   6.578   0.692   2.645
 7725SOL    HW224075   6.712   0.659   2.732
 7726SOL     OW24076   1.605   5.706   5.115
 7726SOL    HW124077   1.675   5.727   5.184
 7726SOL    HW224078   1.534   5.776   5.118
 7727SOL     OW24079   0.498   1.077   3.074
 7727SOL    HW124080   0.425   1.120   3.023
 7727SOL    HW224081   0.469   1.062   3.169
 7728SOL     OW24082   1.006   4.489   4.239
 7728SOL    HW124083   1.065   4.564   4.211
 7728SOL    HW224084   0.983   4.499   4.336
 7729SOL     OW24085   5.663   2.718   0.619
 7729SOL    HW124086   5.639   2.630   0.579
 7729SOL    HW224087   5.655   2.790   0.550
 7730SOL     OW24088   5.708   6.035   0.265
 7730SOL    HW124089   5.731   6.079   0.178
 7730SOL    HW224090   5.787   5.984   0.298
 7731SOL     OW24091   6.567   1.288   0.699
 7731SOL    HW124092   6.565   1.189   0.691
 7731SOL    HW224093   6.545   1.314   0.793
 7732SOL     OW24094   4.834   6.394   0.875
 7732SOL    HW124095   4.827   6.472   0.813
 7732SOL    HW224096   4.817   6.309   0.825
 7733SOL     OW24097   5.008   6.432   2.922
 7733SOL    HW124098   5.052   6.387   2.999
 7733SOL    HW224099   4.919   6.467   2.950
 7734SOL     OW24100   1.975   4.667   2.865
 7734SOL    HW124101   1.957   4.765   2.880
 7734SOL    HW224102   1.893   4.623   2.828
 7735SOL     OW24103   4.730   6.580   6.929
 7735SOL    HW124104   4.748   6.679   6.932
 7735SOL    HW224105   4.635   6.564   6.904
 7736SOL     OW24106   3.540   3.545   6.571
 7736SOL    HW124107   3.526   3.644   6.571
 7736SOL    HW224108   3.452   3.499   6.586
 7737SOL     OW24109   3.130   6.939   2.713
 7737SOL    HW124110   3.143   6.847   2.751
 7737SOL    HW224111   3.219   6.979   2.692
 7738SOL     OW24112   3.285   5.630   6.645
 7738SOL    HW124113   3.227   5.700   6.687
 7738SOL    HW224114   3.228   5.563   6.597
 7739SOL     OW24115   0.463   2.600   1.287
 7739SOL    HW124116   0.436   2.667   1.217
 7739SOL    HW224117   0.391   2.532   1.298
 7740SOL     OW24118   2.128   1.483   2.783
 7740SOL    HW124119   2.063   1.448   2.717
 7740SOL    HW224120   2.081   1.502   2.869
 7741SOL     OW24121   0.829   5.081   5.833
 7741SOL    HW124122   0.803   5.010   5.767
 7741SOL    HW224123   0.835   5.040   5.924
 7742SOL     OW24124   4.098   2.103   3.381
 7742SOL    HW124125   4.016   2.136   3.427
 7742SOL    HW224126   4.148   2.181   3.342
 7743SOL     OW24127   6.013   1.163   6.441
 7743SOL    HW124128   5.914   1.173   6.432
 7743SOL    HW224129   6.056   1.176   6.352
 7744SOL     OW24130   0.870   6.726   3.923
 7744SOL    HW124131   0.844   6.784   4.000
 7744SOL    HW224132   0.883   6.783   3.842
 7745SOL     OW24133   3.603   1.292   6.868
 7745SOL    HW124134   3.508   1.261   6.870
 7745SOL    HW224135   3.609   1.384   6.907
 7746SOL     OW24136   1.564   0.306   0.380
 7746SOL    HW124137   1.506   0.272   0.454
 7746SOL    HW224138   1.634   0.238   0.358
 7747SOL     OW24139   5.265   6.008   1.521
 7747SOL    HW124140   5.272   6.046   1.613
 7747SOL    HW224141   5.175   5.966   1.509
 7748SOL     OW24142   3.118   4.021   4.801
 7748SOL    HW124143   3.128   4.067   4.889
 7748SOL    HW224144   3.037   3.963   4.803
 7749SOL     OW24145   2.649   3.230   6.228
 7749SOL    HW124146   2.614   3.142   6.198
 7749SOL    HW224147   2.720   3.216   6.297
 7750SOL     OW24148   0.128   5.990   1.342
 7750SOL    HW124149   0.113   5.968   1.246
 7750SOL    HW224150   0.223   5.970   1.366
 7751SOL     OW24151   1.763   2.720   2.013
 7751SOL    HW124152   1.814   2.806   2.018
 7751SOL    HW224153   1.718   2.702   2.100
 7752SOL     OW24154   5.322   6.741   5.748
 7752SOL    HW124155   5.239   6.730   5.694
 7752SOL    HW224156   5.324   6.670   5.819
 7753SOL     OW24157   2.597   0.731   3.684
 7753SOL    HW124158   2.672   0.755   3.747
 7753SOL    HW224159   2.635   0.695   3.599
 7754SOL     OW24160   3.202   6.785   2.356
 7754SOL    HW124161   3.127   6.783   2.422
 7754SOL    HW224162   3.211   6.877   2.318
 7755SOL     OW24163   2.075   2.162   5.324
 7755SOL    HW124164   2.041   2.071   5.349
 7755SOL    HW224165   2.081   2.169   5.225
 7756SOL     OW24166   2.783   6.448   2.839
 7756SOL    HW124167   2.773   6.513   2.765
 7756SOL    HW224168   2.837   6.489   2.913
 7757SOL     OW24169   5.778   5.038   0.173
 7757SOL    HW124170   5.693   4.995   0.143
 7757SOL    HW224171   5.855   4.979   0.152
 7758SOL     OW24172   2.094   0.687   5.481
 7758SOL    HW124173   2.084   0.597   5.524
 7758SOL    HW224174   2.038   0.754   5.531
 7759SOL     OW24175   1.716   2.177   5.709
 7759SOL    HW124176   1.790   2.231   5.669
 7759SOL    HW224177   1.741   2.150   5.802
 7760SOL     OW24178   6.055   3.113   2.824
 7760SOL    HW124179   6.122   3.163   2.768
 7760SOL    HW224180   6.037   3.024   2.782
 7761SOL     OW24181   0.436   0.344   4.482
 7761SOL    HW124182   0.501   0.344   4.406
 7761SOL    HW224183   0.349   0.380   4.451
 7762SOL     OW24184   2.846   0.170   4.151
 7762SOL    HW124185   2.839   0.149   4.249
 7762SOL    HW224186   2.939   0.152   4.120
 7763SOL     OW24187   2.188   0.452   6.458
 7763SOL    HW124188   2.247   0.443   6.378
 7763SOL    HW224189   2.118   0.380   6.456
 7764SOL     OW24190   3.319   3.173   4.264
 7764SOL    HW124191   3.303   3.253   4.206
 7764SOL    HW224192   3.278   3.188   4.354
 7765SOL     OW24193   6.147   4.384   4.901
 7765SOL    HW124194   6.246   4.385   4.916
 7765SOL    HW224195   6.128   4.413   4.807
 7766SOL     OW24196   6.984   3.869   0.024
 7766SOL    HW124197   7.014   3.791   6.991
 7766SOL    HW224198   6.993   3.953   6.993
 7767SOL     OW24199   5.188   6.373   2.506
 7767SOL    HW124200   5.255   6.445   2.487
 7767SOL    HW224201   5.187   6.355   2.605
 7768SOL     OW24202   4.232   4.819   2.582
 7768SOL    HW124203   4.194   4.890   2.641
 7768SOL    HW224204   4.167   4.799   2.508
 7769SOL     OW24205   3.980   1.658   3.447
 7769SOL    HW124206   3.881   1.673   3.445
 7769SOL    HW224207   3.999   1.569   3.489
 7770SOL     OW24208   1.522   4.017   4.009
 7770SOL    HW124209   1.585   4.049   4.080
 7770SOL    HW224210   1.457   4.089   3.987
 7771SOL     OW24211   3.669   1.929   5.286
 7771SOL    HW124212   3.647   1.952   5.381
 7771SOL    HW224213   3.754   1.876   5.283
 7772SOL     OW24214   4.365   0.283   2.944
 7772SOL    HW124215   4.405   0.362   2.991
 7772SOL    HW224216   4.425   0.204   2.956
 7773SOL     OW24217   2.589   5.724   5.232
 7773SOL    HW124218   2.659   5.719   5.304
 7773SOL    HW224219   2.526   5.799   5.252
 7774SOL     OW24220   5.214   2.158   4.395
 7774SOL    HW124221   5.288   2.146   4.328
 7774SOL    HW224222   5.244   2.224   4.465
 7775SOL     OW24223   4.276   5.919   1.080
 7775SOL    HW124224   4.335   5.919   1.000
 7775SOL    HW224225   4.248   6.013   1.101
 7776SOL     OW24226   0.311   5.598   6.202
 7776SOL    HW124227   0.272   5.555   6.284
 7776SOL    HW224228   0.247   5.665   6.166
 7777SOL     OW24229   5.684   6.214   4.046
 7777SOL    HW124230   5.663   6.201   3.949
 7777SOL    HW224231   5.618   6.276   4.087
 7778SOL     OW24232   5.517   4.703   0.359
 7778SOL    HW124233   5.498   4.618   0.406
 7778SOL    HW224234   5.583   4.687   0.286
 7779SOL     OW24235   2.754   1.934   1.439
 7779SOL    HW124236   2.765   1.929   1.340
 7779SOL    HW224237   2.812   2.007   1.475
 7780SOL     OW24238   1.002   5.019   5.459
 7780SOL    HW124239   0.968   5.052   5.371
 7780SOL    HW224240   1.050   5.093   5.506
 7781SOL     OW24241   2.726   4.739   1.264
 7781SOL    HW124242   2.757   4.656   1.217
 7781SOL    HW224243   2.801   4.805   1.267
 7782SOL     OW24244   5.042   4.947   4.377
 7782SOL    HW124245   5.063   5.022   4.440
 7782SOL    HW224246   5.125   4.892   4.362
 7783SOL     OW24247   0.971   6.290   5.119
 7783SOL    HW124248   0.974   6.356   5.044
 7783SOL    HW224249   0.880   6.289   5.159
 7784SOL     OW24250   3.690   2.854   2.088
 7784SOL    HW124251   3.722   2.762   2.065
 7784SOL    HW224252   3.744   2.890   2.164
 7785SOL     OW24253   1.719   6.411   4.572
 7785SOL    HW124254   1.645   6.365   4.523
 7785SOL    HW224255   1.727   6.372   4.664
 7786SOL     OW24256   3.647   6.608   0.859
 7786SOL    HW124257   3.610   6.548   0.930
 7786SOL    HW224258   3.713   6.670   0.900
 7787SOL     OW24259   1.817   2.866   6.441
 7787SOL    HW124260   1.873   2.833   6.518
 7787SOL    HW224261   1.725   2.887   6.474
 7788SOL     OW24262   2.112   5.034   1.235
 7788SOL    HW124263   2.107   5.088   1.320
 7788SOL    HW224264   2.150   4.944   1.255
 7789SOL     OW24265   2.422   0.025   6.266
 7789SOL    HW124266   2.496   0.089   6.245
 7789SOL    HW224267   2.343   0.075   6.302
 7790SOL     OW24268   5.236   5.448   2.965
 7790SOL    HW124269   5.211   5.409   2.877
 7790SOL    HW224270   5.332   5.478   2.962
 7791SOL     OW24271   2.570   5.555   2.683
 7791SOL    HW124272   2.603   5.650   2.690
 7791SOL    HW224273   2.646   5.496   2.655
 7792SOL     OW24274   2.032   5.710   4.505
 7792SOL    HW124275   2.114   5.656   4.524
 7792SOL    HW224276   1.982   5.667   4.430
 7793SOL     OW24277   4.342   1.268   0.870
 7793SOL    HW124278   4.365   1.210   0.948
 7793SOL    HW224279   4.330   1.362   0.900
 7794SOL     OW24280   6.216   4.063   2.618
 7794SOL    HW124281   6.186   4.032   2.528
 7794SOL    HW224282   6.137   4.066   2.680
 7795SOL     OW24283   1.852   4.059   5.060
 7795SOL    HW124284   1.935   4.002   5.064
 7795SOL    HW224285   1.817   4.071   5.153
 7796SOL     OW24286   3.490   3.175   4.572
 7796SOL    HW124287   3.513   3.240   4.644
 7796SOL    HW224288   3.458   3.089   4.613
 7797SOL     OW24289   1.497   6.837   1.810
 7797SOL    HW124290   1.488   6.864   1.906
 7797SOL    HW224291   1.479   6.739   1.800
 7798SOL     OW24292   1.264   3.554   3.819
 7798SOL    HW124293   1.232   3.555   3.914
 7798SOL    HW224294   1.364   3.557   3.818
 7799SOL     OW24295   1.909   5.872   3.005
 7799SOL    HW124296   1.930   5.875   2.907
 7799SOL    HW224297   1.874   5.781   3.028
 7800SOL     OW24298   1.140   5.803   2.560
 7800SOL    HW124299   1.107   5.800   2.654
 7800SOL    HW224300   1.064   5.786   2.498
 7801SOL     OW24301   1.983   1.711   1.160
 7801SOL    HW124302   1.993   1.805   1.127
 7801SOL    HW224303   1.937   1.712   1.249
 7802SOL     OW24304   5.723   2.735   1.324
 7802SOL    HW124305   5.653   2.679   1.281
 7802SOL    HW224306   5.785   2.677   1.377
 7803SOL     OW24307   4.151   2.372   5.846
 7803SOL    HW124308   4.175   2.285   5.889
 7803SOL    HW224309   4.095   2.426   5.908
 7804SOL     OW24310   4.444   2.284   5.348
 7804SOL    HW124311   4.447   2.315   5.443
 7804SOL    HW224312   4.537   2.270   5.314
 7805SOL     OW24313   5.126   3.026   1.572
 7805SOL    HW124314   5.172   2.951   1.619
 7805SOL    HW224315   5.182   3.108   1.577
 7806SOL     OW24316   6.342   2.133   6.606
 7806SOL    HW124317   6.416   2.068   6.622
 7806SOL    HW224318   6.314   2.173   6.693
 7807SOL     OW24319   1.435   4.622   6.178
 7807SOL    HW124320   1.454   4.673   6.094
 7807SOL    HW224321   1.394   4.534   6.156
 7808SOL     OW24322   6.280   3.292   4.512
 7808SOL    HW124323   6.221   3.342   4.575
 7808SOL    HW224324   6.319   3.213   4.558
 7809SOL     OW24325   4.220   5.151   4.524
 7809SOL    HW124326   4.276   5.128   4.604
 7809SOL    HW224327   4.187   5.067   4.481
 7810SOL     OW24328   3.523   0.119   4.720
 7810SOL    HW124329   3.585   0.165   4.656
 7810SOL    HW224330   3.532   0.020   4.710
 7811SOL     OW24331   1.201   5.425   2.065
 7811SOL    HW124332   1.105   5.448   2.055
 7811SOL    HW224333   1.215   5.328   2.041
 7812SOL     OW24334   0.105   2.079   4.358
 7812SOL    HW124335   0.187   2.122   4.319
 7812SOL    HW224336   0.126   2.043   4.449
 7813SOL     OW24337   4.015   1.964   0.213
 7813SOL    HW124338   3.969   1.927   0.294
 7813SOL    HW224339   4.113   1.965   0.229
 7814SOL     OW24340   0.116   3.160   3.055
 7814SOL    HW124341   0.155   3.155   2.963
 7814SOL    HW224342   0.153   3.086   3.111
 7815SOL     OW24343   6.117   1.695   4.437
 7815SOL    HW124344   6.060   1.719   4.515
 7815SOL    HW224345   6.081   1.613   4.393
 7816SOL     OW24346   1.569   2.289   6.522
 7816SOL    HW124347   1.588   2.365   6.583
 7816SOL    HW224348   1.484   2.245   6.549
 7817SOL     OW24349   4.905   3.869   4.142
 7817SOL    HW124350   4.868   3.886   4.234
 7817SOL    HW224351   5.002   3.845   4.149
 7818SOL     OW24352   5.135   0.239   2.361
 7818SOL    HW124353   5.229   0.212   2.339
 7818SOL    HW224354   5.116   0.219   2.457
 7819SOL     OW24355   6.767   4.094   3.997
 7819SOL    HW124356   6.679   4.119   4.038
 7819SOL    HW224357   6.812   4.026   4.056
 7820SOL     OW24358   1.782   1.388   5.292
 7820SOL    HW124359   1.811   1.317   5.355
 7820SOL    HW224360   1.693   1.423   5.319
 7821SOL     OW24361   5.615   5.552   6.839
 7821SOL    HW124362   5.650   5.625   6.898
 7821SOL    HW224363   5.641   5.571   6.744
 7822SOL     OW24364   0.773   1.294   0.538
 7822SOL    HW124365   0.752   1.210   0.588
 7822SOL    HW224366   0.810   1.271   0.448
 7823SOL     OW24367   2.920   3.647   6.221
 7823SOL    HW124368   2.821   3.655   6.229
 7823SOL    HW224369   2.954   3.713   6.154
 7824SOL     OW24370   5.383   1.400   3.904
 7824SOL    HW124371   5.354   1.370   3.995
 7824SOL    HW224372   5.482   1.394   3.896
 7825SOL     OW24373   0.900   3.377   1.089
 7825SOL    HW124374   0.962   3.409   1.018
 7825SOL    HW224375   0.953   3.346   1.168
 7826SOL     OW24376   6.024   1.619   7.004
 7826SOL    HW124377   6.054   1.710   6.974
 7826SOL    HW224378   5.927   1.623   0.005
 7827SOL     OW24379   3.255   4.971   1.475
 7827SOL    HW124380   3.299   5.040   1.418
 7827SOL    HW224381   3.325   4.917   1.522
 7828SOL     OW24382   0.577   5.136   6.949
 7828SOL    HW124383   0.653   5.178   7.000
 7828SOL    HW224384   0.614   5.083   6.873
 7829SOL     OW24385   1.965   2.825   6.705
 7829SOL    HW124386   2.061   2.839   6.680
 7829SOL    HW224387   1.927   2.909   6.742
 7830SOL     OW24388   4.079   3.785   5.767
 7830SOL    HW124389   4.008   3.715   5.756
 7830SOL    HW224390   4.096   3.799   5.864
 7831SOL     OW24391   1.468   5.315   1.058
 7831SOL    HW124392   1.451   5.363   1.144
 7831SOL    HW224393   1.409   5.234   1.053
 7832SOL     OW24394   3.895   1.341   4.230
 7832SOL    HW124395   3.876   1.282   4.152
 7832SOL    HW224396   3.960   1.413   4.203
 7833SOL     OW24397   0.370   1.668   6.926
 7833SOL    HW124398   0.467   1.672   6.902
 7833SOL    HW224399   0.361   1.643   0.000
 7834SOL     OW24400   0.041   0.541   3.641
 7834SOL    HW124401   0.018   0.637   3.629
 7834SOL    HW224402   6.994   0.496   3.697
 7835SOL     OW24403   2.391   1.952   5.256
 7835SOL    HW124404   2.365   2.042   5.290
 7835SOL    HW224405   2.487   1.953   5.228
 7836SOL     OW24406   3.105   2.546   5.527
 7836SOL    HW124407   3.142   2.629   5.568
 7836SOL    HW224408   3.164   2.518   5.451
 7837SOL     OW24409   6.761   5.703   1.076
 7837SOL    HW124410   6.809   5.739   0.996
 7837SOL    HW224411   6.825   5.652   1.133
 7838SOL     OW24412   4.520   6.310   0.475
 7838SOL    HW124413   4.492   6.331   0.382
 7838SOL    HW224414   4.490   6.383   0.536
 7839SOL     OW24415   6.226   4.145   5.178
 7839SOL    HW124416   6.128   4.127   5.184
 7839SOL    HW224417   6.243   4.215   5.109
 7840SOL     OW24418   5.258   3.310   4.577
 7840SOL    HW124419   5.210   3.271   4.498
 7840SOL    HW224420   5.293   3.236   4.635
 7841SOL     OW24421   4.801   1.638   6.671
 7841SOL    HW124422   4.708   1.659   6.701
 7841SOL    HW224423   4.830   1.551   6.710
 7842SOL     OW24424   1.661   1.940   2.887
 7842SOL    HW124425   1.714   1.916   2.806
 7842SOL    HW224426   1.696   2.025   2.927
 7843SOL     OW24427   5.406   4.533   2.138
 7843SOL    HW124428   5.505   4.539   2.135
 7843SOL    HW224429   5.369   4.525   2.046
 7844SOL     OW24430   4.199   6.816   3.286
 7844SOL    HW124431   4.180   6.908   3.252
 7844SOL    HW224432   4.112   6.770   3.305
 7845SOL     OW24433   5.720   1.667   4.014
 7845SOL    HW124434   5.814   1.647   4.043
 7845SOL    HW224435   5.656   1.629   4.081
 7846SOL     OW24436   0.887   1.132   2.493
 7846SOL    HW124437   0.919   1.117   2.400
 7846SOL    HW224438   0.958   1.180   2.546
 7847SOL     OW24439   6.978   1.767   2.495
 7847SOL    HW124440   6.975   1.866   2.482
 7847SOL    HW224441   6.902   1.739   2.553
 7848SOL     OW24442   2.578   2.643   0.766
 7848SOL    HW124443   2.639   2.565   0.779
 7848SOL    HW224444   2.483   2.611   0.765
 7849SOL     OW24445   5.199   3.768   2.882
 7849SOL    HW124446   5.269   3.698   2.895
 7849SOL    HW224447   5.158   3.757   2.791
 7850SOL     OW24448   0.889   1.941   4.427
 7850SOL    HW124449   0.921   2.017   4.370
 7850SOL    HW224450   0.826   1.884   4.374
 7851SOL     OW24451   6.119   0.971   1.755
 7851SOL    HW124452   6.048   0.901   1.746
 7851SOL    HW224453   6.209   0.927   1.764
 7852SOL     OW24454   2.639   0.805   5.859
 7852SOL    HW124455   2.554   0.796   5.807
 7852SOL    HW224456   2.618   0.803   5.957
 7853SOL     OW24457   4.549   1.735   1.866
 7853SOL    HW124458   4.644   1.717   1.842
 7853SOL    HW224459   4.541   1.826   1.907
 7854SOL     OW24460   3.048   3.334   0.616
 7854SOL    HW124461   3.033   3.392   0.536
 7854SOL    HW224462   3.078   3.244   0.586
 7855SOL     OW24463   3.382   5.400   5.218
 7855SOL    HW124464   3.349   5.494   5.216
 7855SOL    HW224465   3.444   5.389   5.296
 7856SOL     OW24466   5.803   4.644   5.147
 7856SOL    HW124467   5.816   4.634   5.246
 7856SOL    HW224468   5.710   4.677   5.130
 7857SOL     OW24469   5.898   3.019   5.666
 7857SOL    HW124470   5.978   3.024   5.725
 7857SOL    HW224471   5.906   2.941   5.605
 7858SOL     OW24472   5.438   4.746   3.307
 7858SOL    HW124473   5.434   4.663   3.251
 7858SOL    HW224474   5.420   4.826   3.250
 7859SOL     OW24475   5.587   2.994   6.592
 7859SOL    HW124476   5.548   2.931   6.525
 7859SOL    HW224477   5.571   2.959   6.684
 7860SOL     OW24478   4.434   0.541   3.027
 7860SOL    HW124479   4.390   0.629   3.009
 7860SOL    HW224480   4.469   0.540   3.121
 7861SOL     OW24481   3.937   5.073   1.866
 7861SOL    HW124482   3.950   5.171   1.880
 7861SOL    HW224483   3.845   5.057   1.830
 7862SOL     OW24484   3.054   4.353   1.699
 7862SOL    HW124485   3.080   4.271   1.748
 7862SOL    HW224486   3.017   4.420   1.763
 7863SOL     OW24487   0.018   5.760   3.723
 7863SOL    HW124488   6.950   5.733   3.754
 7863SOL    HW224489   0.087   5.698   3.761
 7864SOL     OW24490   0.459   6.036   5.280
 7864SOL    HW124491   0.499   6.115   5.234
 7864SOL    HW224492   0.477   5.953   5.227
 7865SOL     OW24493   5.764   0.210   4.250
 7865SOL    HW124494   5.850   0.196   4.201
 7865SOL    HW224495   5.739   0.307   4.247
 7866SOL     OW24496   2.352   2.170   6.687
 7866SOL    HW124497   2.405   2.187   6.604
 7866SOL    HW224498   2.264   2.218   6.682
 7867SOL     OW24499   5.169   6.923   2.581
 7867SOL    HW124500   5.125   6.876   2.505
 7867SOL    HW224501   5.215   6.855   2.639
 7868SOL     OW24502   6.016   0.059   2.263
 7868SOL    HW124503   5.981   0.134   2.207
 7868SOL    HW224504   5.946   7.009   2.270
 7869SOL     OW24505   5.466   3.741   0.007
 7869SOL    HW124506   5.558   3.702   0.014
 7869SOL    HW224507   5.466   3.833   0.046
 7870SOL     OW24508   4.289   5.484   4.222
 7870SOL    HW124509   4.250   5.424   4.152
 7870SOL    HW224510   4.320   5.569   4.178
 7871SOL     OW24511   5.281   3.507   2.659
 7871SOL    HW124512   5.217   3.581   2.639
 7871SOL    HW224513   5.326   3.526   2.747
 7872SOL     OW24514   2.244   4.266   2.891
 7872SOL    HW124515   2.310   4.243   2.962
 7872SOL    HW224516   2.225   4.365   2.894
 7873SOL     OW24517   5.940   0.822   5.944
 7873SOL    HW124518   5.866   0.772   5.988
 7873SOL    HW224519   6.020   0.824   6.004
 7874SOL     OW24520   4.973   1.601   0.511
 7874SOL    HW124521   4.907   1.531   0.482
 7874SOL    HW224522   5.053   1.556   0.550
 7875SOL     OW24523   5.203   2.058   6.405
 7875SOL    HW124524   5.138   2.042   6.479
 7875SOL    HW224525   5.165   2.025   6.319
 7876SOL     OW24526   0.414   6.616   5.240
 7876SOL    HW124527   0.514   6.611   5.242
 7876SOL    HW224528   0.385   6.704   5.201
 7877SOL     OW24529   0.409   2.756   2.827
 7877SOL    HW124530   0.500   2.790   2.849
 7877SOL    HW224531   0.414   2.687   2.755
 7878SOL     OW24532   5.457   4.942   4.063
 7878SOL    HW124533   5.382   4.937   3.997
 7878SOL    HW224534   5.423   4.983   4.148
 7879SOL     OW24535   4.540   5.458   3.582
 7879SOL    HW124536   4.636   5.481   3.597
 7879SOL    HW224537   4.529   5.359   3.585
 7880SOL     OW24538   2.105   5.165   1.932
 7880SOL    HW124539   2.171   5.232   1.966
 7880SOL    HW224540   2.152   5.098   1.874
 7881SOL     OW24541   5.654   3.970   5.246
 7881SOL    HW124542   5.612   4.058   5.226
 7881SOL    HW224543   5.740   3.984   5.295
 7882SOL     OW24544   0.907   3.410   2.831
 7882SOL    HW124545   0.908   3.421   2.930
 7882SOL    HW224546   0.880   3.497   2.788
 7883SOL     OW24547   1.697   0.243   0.755
 7883SOL    HW124548   1.664   0.182   0.684
 7883SOL    HW224549   1.666   0.210   0.844
 7884SOL     OW24550   1.923   4.129   3.955
 7884SOL    HW124551   2.008   4.164   3.994
 7884SOL    HW224552   1.898   4.044   4.001
 7885SOL     OW24553   6.295   5.969   1.369
 7885SOL    HW124554   6.347   5.901   1.421
 7885SOL    HW224555   6.197   5.950   1.380
 7886SOL     OW24556   3.968   5.529   0.594
 7886SOL    HW124557   3.968   5.461   0.667
 7886SOL    HW224558   3.894   5.510   0.530
 7887SOL     OW24559   3.310   2.455   5.373
 7887SOL    HW124560   3.259   2.420   5.294
 7887SOL    HW224561   3.383   2.515   5.340
 7888SOL     OW24562   6.622   6.841   5.020
 7888SOL    HW124563   6.526   6.868   5.026
 7888SOL    HW224564   6.629   6.754   4.972
 7889SOL     OW24565   1.137   4.944   6.880
 7889SOL    HW124566   1.071   4.892   6.933
 7889SOL    HW224567   1.224   4.894   6.877
 7890SOL     OW24568   0.355   2.860   3.332
 7890SOL    HW124569   0.320   2.915   3.408
 7890SOL    HW224570   0.279   2.837   3.271
 7891SOL     OW24571   2.027   4.313   4.625
 7891SOL    HW124572   2.008   4.305   4.722
 7891SOL    HW224573   1.991   4.232   4.577
 7892SOL     OW24574   1.833   2.090   4.314
 7892SOL    HW124575   1.749   2.057   4.359
 7892SOL    HW224576   1.844   2.044   4.226
 7893SOL     OW24577   6.487   6.599   1.645
 7893SOL    HW124578   6.520   6.505   1.651
 7893SOL    HW224579   6.563   6.662   1.660
 7894SOL     OW24580   3.440   0.409   0.984
 7894SOL    HW124581   3.426   0.342   1.057
 7894SOL    HW224582   3.537   0.416   0.964
 7895SOL     OW24583   5.149   0.738   4.868
 7895SOL    HW124584   5.164   0.648   4.910
 7895SOL    HW224585   5.233   0.792   4.875
 7896SOL     OW24586   4.044   3.094   0.781
 7896SOL    HW124587   3.977   3.128   0.848
 7896SOL    HW224588   4.046   2.994   0.783
 7897SOL     OW24589   3.264   2.757   1.142
 7897SOL    HW124590   3.348   2.779   1.192
 7897SOL    HW224591   3.245   2.828   1.075
 7898SOL     OW24592   3.446   0.505   3.727
 7898SOL    HW124593   3.447   0.538   3.632
 7898SOL    HW224594   3.540   0.485   3.756
 7899SOL     OW24595   6.327   0.430   1.171
 7899SOL    HW124596   6.275   0.507   1.208
 7899SOL    HW224597   6.377   0.460   1.090
 7900SOL     OW24598   1.502   5.192   2.067
 7900SOL    HW124599   1.478   5.124   2.137
 7900SOL    HW224600   1.570   5.255   2.105
 7901SOL     OW24601   4.138   1.336   6.312
 7901SOL    HW124602   4.194   1.411   6.345
 7901SOL    HW224603   4.071   1.371   6.245
 7902SOL     OW24604   6.334   6.851   1.685
 7902SOL    HW124605   6.239   6.843   1.654
 7902SOL    HW224606   6.379   6.761   1.678
 7903SOL     OW24607   4.200   1.543   3.127
 7903SOL    HW124608   4.151   1.599   3.194
 7903SOL    HW224609   4.141   1.469   3.095
 7904SOL     OW24610   5.465   6.451   2.621
 7904SOL    HW124611   5.491   6.454   2.524
 7904SOL    HW224612   5.547   6.452   2.678
 7905SOL     OW24613   5.699   2.078   0.531
 7905SOL    HW124614   5.686   2.139   0.453
 7905SOL    HW224615   5.715   1.985   0.498
 7906SOL     OW24616   0.814   5.214   0.063
 7906SOL    HW124617   0.798   5.183   0.157
 7906SOL    HW224618   0.893   5.165   0.025
 7907SOL     OW24619   5.555   2.253   3.306
 7907SOL    HW124620   5.481   2.191   3.279
 7907SOL    HW224621   5.553   2.267   3.405
 7908SOL     OW24622   1.586   0.977   5.766
 7908SOL    HW124623   1.560   0.917   5.843
 7908SOL    HW224624   1.679   1.010   5.780
 7909SOL     OW24625   4.698   4.205   4.308
 7909SOL    HW124626   4.640   4.139   4.355
 7909SOL    HW224627   4.749   4.259   4.375
 7910SOL     OW24628   2.660   3.384   6.782
 7910SOL    HW124629   2.638   3.464   6.836
 7910SOL    HW224630   2.701   3.314   6.841
 7911SOL     OW24631   0.947   4.138   0.182
 7911SOL    HW124632   1.007   4.142   0.103
 7911SOL    HW224633   1.000   4.111   0.263
 7912SOL     OW24634   6.063   4.889   0.517
 7912SOL    HW124635   5.988   4.954   0.510
 7912SOL    HW224636   6.124   4.900   0.438
 7913SOL     OW24637   1.311   4.225   1.948
 7913SOL    HW124638   1.308   4.241   1.850
 7913SOL    HW224639   1.402   4.244   1.983
 7914SOL     OW24640   0.578   4.774   0.201
 7914SOL    HW124641   0.538   4.865   0.211
 7914SOL    HW224642   0.670   4.773   0.241
 7915SOL     OW24643   4.850   2.465   1.838
 7915SOL    HW124644   4.780   2.515   1.889
 7915SOL    HW224645   4.847   2.491   1.742
 7916SOL     OW24646   0.252   5.864   5.411
 7916SOL    HW124647   0.170   5.916   5.388
 7916SOL    HW224648   0.331   5.906   5.368
 7917SOL     OW24649   3.093   2.896   5.201
 7917SOL    HW124650   3.030   2.888   5.278
 7917SOL    HW224651   3.187   2.899   5.234
 7918SOL     OW24652   0.694   0.599   4.800
 7918SOL    HW124653   0.602   0.637   4.813
 7918SOL    HW224654   0.687   0.511   4.752
 7919SOL     OW24655   1.335   4.497   3.446
 7919SOL    HW124656   1.319   4.441   3.364
 7919SOL    HW224657   1.249   4.538   3.476
 7920SOL     OW24658   0.321   0.263   0.440
 7920SOL    HW124659   0.328   0.308   0.529
 7920SOL    HW224660   0.230   0.278   0.402
 7921SOL     OW24661   5.163   6.245   2.086
 7921SOL    HW124662   5.163   6.322   2.023
 7921SOL    HW224663   5.126   6.273   2.174
 7922SOL     OW24664   6.893   6.373   1.088
 7922SOL    HW124665   6.876   6.324   1.174
 7922SOL    HW224666   6.981   6.344   1.051
 7923SOL     OW24667   4.049   0.558   6.762
 7923SOL    HW124668   4.088   0.620   6.831
 7923SOL    HW224669   4.013   0.611   6.686
 7924SOL     OW24670   5.395   0.068   2.634
 7924SOL    HW124671   5.333   7.018   2.604
 7924SOL    HW224672   5.402   0.138   2.563
 7925SOL     OW24673   0.957   0.657   6.756
 7925SOL    HW124674   1.041   0.638   6.807
 7925SOL    HW224675   0.911   0.736   6.795
 7926SOL     OW24676   4.803   1.477   5.651
 7926SOL    HW124677   4.827   1.532   5.731
 7926SOL    HW224678   4.717   1.428   5.669
 7927SOL     OW24679   4.383   6.001   3.409
 7927SOL    HW124680   4.468   5.992   3.357
 7927SOL    HW224681   4.306   5.971   3.353
 7928SOL     OW24682   1.557   1.780   4.783
 7928SOL    HW124683   1.524   1.720   4.710
 7928SOL    HW224684   1.484   1.844   4.809
 7929SOL     OW24685   4.712   4.339   5.556
 7929SOL    HW124686   4.786   4.406   5.559
 7929SOL    HW224687   4.702   4.296   5.646
 7930SOL     OW24688   4.196   5.644   4.636
 7930SOL    HW124689   4.262   5.651   4.711
 7930SOL    HW224690   4.201   5.552   4.596
 7931SOL     OW24691   3.400   2.695   0.360
 7931SOL    HW124692   3.454   2.762   0.309
 7931SOL    HW224693   3.308   2.689   0.319
 7932SOL     OW24694   1.488   6.583   6.863
 7932SOL    HW124695   1.527   6.590   6.771
 7932SOL    HW224696   1.561   6.574   6.930
 7933SOL     OW24697   0.154   6.302   6.734
 7933SOL    HW124698   0.212   6.351   6.669
 7933SOL    HW224699   0.195   6.213   6.754
 7934SOL     OW24700   1.685   4.998   6.561
 7934SOL    HW124701   1.672   4.975   6.464
 7934SOL    HW224702   1.740   4.927   6.605
 7935SOL     OW24703   5.949   6.579   1.382
 7935SOL    HW124704   5.869   6.639   1.383
 7935SOL    HW224705   5.992   6.579   1.472
 7936SOL     OW24706   3.857   5.689   2.083
 7936SOL    HW124707   3.776   5.632   2.097
 7936SOL    HW224708   3.870   5.704   1.985
 7937SOL     OW24709   6.539   6.047   3.647
 7937SOL    HW124710   6.489   6.102   3.714
 7937SOL    HW224711   6.629   6.023   3.683
 7938SOL     OW24712   6.665   5.967   4.099
 7938SOL    HW124713   6.720   6.047   4.125
 7938SOL    HW224714   6.569   5.984   4.122
 7939SOL     OW24715   1.362   2.548   4.360
 7939SOL    HW124716   1.424   2.626   4.364
 7939SOL    HW224717   1.275   2.573   4.404
 7940SOL     OW24718   1.679   3.762   1.627
 7940SOL    HW124719   1.656   3.694   1.697
 7940SOL    HW224720   1.757   3.817   1.658
 7941SOL     OW24721   6.359   0.217   1.378
 7941SOL    HW124722   6.434   0.207   1.443
 7941SOL    HW224723   6.386   0.280   1.305
 7942SOL     OW24724   6.925   5.102   2.648
 7942SOL    HW124725   6.988   5.121   2.573
 7942SOL    HW224726   6.896   5.187   2.691
 7943SOL     OW24727   6.863   3.441   6.443
 7943SOL    HW124728   6.924   3.487   6.507
 7943SOL    HW224729   6.838   3.351   6.478
 7944SOL     OW24730   0.854   2.276   1.002
 7944SOL    HW124731   0.774   2.267   0.942
 7944SOL    HW224732   0.914   2.197   0.990
 7945SOL     OW24733   6.286   5.168   1.495
 7945SOL    HW124734   6.292   5.244   1.561
 7945SOL    HW224735   6.232   5.094   1.535
 7946SOL     OW24736   3.743   0.240   6.095
 7946SOL    HW124737   3.788   0.229   6.184
 7946SOL    HW224738   3.688   0.324   6.097
 7947SOL     OW24739   3.829   2.039   6.279
 7947SOL    HW124740   3.744   2.012   6.325
 7947SOL    HW224741   3.879   2.102   6.338
 7948SOL     OW24742   1.394   6.708   1.249
 7948SOL    HW124743   1.358   6.617   1.232
 7948SOL    HW224744   1.473   6.725   1.190
 7949SOL     OW24745   4.686   4.413   5.091
 7949SOL    HW124746   4.668   4.409   4.993
 7949SOL    HW224747   4.698   4.320   5.126
 7950SOL     OW24748   4.975   5.067   3.481
 7950SOL    HW124749   5.063   5.026   3.502
 7950SOL    HW224750   4.902   5.003   3.507
 7951SOL     OW24751   2.127   4.360   2.009
 7951SOL    HW124752   2.041   4.309   2.003
 7951SOL    HW224753   2.142   4.410   1.923
 7952SOL     OW24754   6.692   3.591   6.776
 7952SOL    HW124755   6.727   3.520   6.836
 7952SOL    HW224756   6.594   3.576   6.760
 7953SOL     OW24757   3.166   2.151   3.481
 7953SOL    HW124758   3.216   2.196   3.555
 7953SOL    HW224759   3.185   2.053   3.483
 7954SOL     OW24760   3.459   4.385   6.181
 7954SOL    HW124761   3.550   4.346   6.195
 7954SOL    HW224762   3.457   4.433   6.093
 7955SOL     OW24763   2.105   0.901   6.558
 7955SOL    HW124764   2.021   0.848   6.543
 7955SOL    HW224765   2.086   0.976   6.620
 7956SOL     OW24766   4.278   6.849   2.505
 7956SOL    HW124767   4.259   6.830   2.409
 7956SOL    HW224768   4.201   6.819   2.561
 7957SOL     OW24769   1.038   0.703   1.193
 7957SOL    HW124770   1.078   0.633   1.134
 7957SOL    HW224771   1.101   0.726   1.267
 7958SOL     OW24772   4.029   4.936   5.339
 7958SOL    HW124773   4.097   4.982   5.397
 7958SOL    HW224774   3.945   4.921   5.391
 7959SOL     OW24775   4.620   5.924   0.486
 7959SOL    HW124776   4.621   6.011   0.437
 7959SOL    HW224777   4.606   5.849   0.421
 7960SOL     OW24778   2.371   1.978   6.049
 7960SOL    HW124779   2.466   1.958   6.023
 7960SOL    HW224780   2.326   1.893   6.078
 7961SOL     OW24781   6.700   0.851   0.945
 7961SOL    HW124782   6.602   0.830   0.945
 7961SOL    HW224783   6.719   0.924   1.012
 7962SOL     OW24784   1.346   0.736   6.201
 7962SOL    HW124785   1.402   0.741   6.284
 7962SOL    HW224786   1.392   0.785   6.127
 7963SOL     OW24787   6.522   6.584   4.070
 7963SOL    HW124788   6.560   6.657   4.127
 7963SOL    HW224789   6.535   6.607   3.973
 7964SOL     OW24790   6.835   4.398   2.714
 7964SOL    HW124791   6.844   4.298   2.716
 7964SOL    HW224792   6.769   4.426   2.784
 7965SOL     OW24793   4.452   2.840   5.715
 7965SOL    HW124794   4.437   2.764   5.779
 7965SOL    HW224795   4.370   2.897   5.711
 7966SOL     OW24796   2.126   3.375   5.780
 7966SOL    HW124797   2.210   3.415   5.743
 7966SOL    HW224798   2.096   3.301   5.720
 7967SOL     OW24799   3.447   6.748   2.518
 7967SOL    HW124800   3.526   6.780   2.467
 7967SOL    HW224801   3.363   6.776   2.471
 7968SOL     OW24802   1.560   2.672   3.732
 7968SOL    HW124803   1.660   2.682   3.726
 7968SOL    HW224804   1.534   2.662   3.828
 7969SOL     OW24805   4.112   6.152   0.316
 7969SOL    HW124806   4.029   6.098   0.304
 7969SOL    HW224807   4.165   6.116   0.393
 7970SOL     OW24808   6.793   2.864   2.499
 7970SOL    HW124809   6.704   2.908   2.512
 7970SOL    HW224810   6.796   2.818   2.411
 7971SOL     OW24811   2.911   1.953   0.499
 7971SOL    HW124812   2.838   1.910   0.447
 7971SOL    HW224813   2.873   2.026   0.556
 7972SOL     OW24814   2.237   3.170   6.905
 7972SOL    HW124815   2.266   3.090   6.852
 7972SOL    HW224816   2.257   3.253   6.853
 7973SOL     OW24817   4.425   4.685   4.427
 7973SOL    HW124818   4.518   4.649   4.417
 7973SOL    HW224819   4.402   4.692   4.524
 7974SOL     OW24820   6.146   0.407   5.657
 7974SOL    HW124821   6.223   0.352   5.689
 7974SOL    HW224822   6.158   0.501   5.688
 7975SOL     OW24823   6.431   1.356   2.135
 7975SOL    HW124824   6.470   1.447   2.124
 7975SOL    HW224825   6.331   1.361   2.134
 7976SOL     OW24826   0.425   0.326   6.190
 7976SOL    HW124827   0.411   0.256   6.260
 7976SOL    HW224828   0.480   0.289   6.116
 7977SOL     OW24829   4.845   6.064   2.656
 7977SOL    HW124830   4.758   6.015   2.646
 7977SOL    HW224831   4.904   6.043   2.578
 7978SOL     OW24832   5.352   3.757   6.748
 7978SOL    HW124833   5.391   3.765   6.839
 7978SOL    HW224834   5.257   3.726   6.755
 7979SOL     OW24835   4.164   6.357   5.248
 7979SOL    HW124836   4.072   6.389   5.228
 7979SOL    HW224837   4.192   6.290   5.179
 7980SOL     OW24838   3.366   5.500   0.102
 7980SOL    HW124839   3.368   5.444   0.185
 7980SOL    HW224840   3.286   5.474   0.047
 7981SOL     OW24841   0.344   5.131   1.496
 7981SOL    HW124842   0.444   5.130   1.502
 7981SOL    HW224843   0.314   5.066   1.426
 7982SOL     OW24844   1.693   1.310   6.709
 7982SOL    HW124845   1.676   1.403   6.742
 7982SOL    HW224846   1.637   1.293   6.628
 7983SOL     OW24847   5.769   2.113   1.802
 7983SOL    HW124848   5.852   2.149   1.760
 7983SOL    HW224849   5.789   2.027   1.849
 7984SOL     OW24850   1.074   1.286   0.864
 7984SOL    HW124851   1.028   1.246   0.943
 7984SOL    HW224852   1.014   1.355   0.822
 7985SOL     OW24853   3.093   1.081   4.618
 7985SOL    HW124854   3.071   1.134   4.700
 7985SOL    HW224855   3.163   1.014   4.639
 7986SOL     OW24856   3.332   1.043   6.152
 7986SOL    HW124857   3.238   1.010   6.160
 7986SOL    HW224858   3.384   1.018   6.234
 7987SOL     OW24859   1.654   2.756   6.835
 7987SOL    HW124860   1.573   2.710   6.870
 7987SOL    HW224861   1.725   2.689   6.814
 7988SOL     OW24862   0.390   2.040   3.742
 7988SOL    HW124863   0.413   2.002   3.653
 7988SOL    HW224864   0.468   2.029   3.804
 7989SOL     OW24865   2.841   2.643   6.712
 7989SOL    HW124866   2.936   2.667   6.733
 7989SOL    HW224867   2.785   2.657   6.793
 7990SOL     OW24868   0.459   4.087   4.748
 7990SOL    HW124869   0.438   4.105   4.844
 7990SOL    HW224870   0.490   3.992   4.737
 7991SOL     OW24871   5.545   6.753   3.633
 7991SOL    HW124872   5.500   6.666   3.654
 7991SOL    HW224873   5.495   6.799   3.559
 7992SOL     OW24874   1.113   0.139   0.839
 7992SOL    HW124875   1.117   0.045   0.806
 7992SOL    HW224876   1.205   0.179   0.840
 7993SOL     OW24877   0.862   0.089   0.602
 7993SOL    HW124878   0.943   0.060   0.652
 7993SOL    HW224879   0.787   0.024   0.619
 7994SOL     OW24880   4.198   0.227   3.395
 7994SOL    HW124881   4.165   0.300   3.335
 7994SOL    HW224882   4.288   0.252   3.430
 7995SOL     OW24883   5.215   6.043   3.749
 7995SOL    HW124884   5.301   6.073   3.790
 7995SOL    HW224885   5.207   6.080   3.657
 7996SOL     OW24886   2.781   6.605   5.190
 7996SOL    HW124887   2.852   6.652   5.138
 7996SOL    HW224888   2.722   6.672   5.235
 7997SOL     OW24889   0.150   1.634   1.196
 7997SOL    HW124890   0.122   1.627   1.100
 7997SOL    HW224891   0.090   1.577   1.252
 7998SOL     OW24892   3.105   0.122   0.508
 7998SOL    HW124893   3.158   0.068   0.443
 7998SOL    HW224894   3.161   0.198   0.541
 7999SOL     OW24895   0.921   0.411   5.864
 7999SOL    HW124896   0.966   0.472   5.930
 7999SOL    HW224897   0.877   0.466   5.793
 8000SOL     OW24898   4.731   0.106   6.970
 8000SOL    HW124899   4.741   0.204   6.986
 8000SOL    HW224900   4.649   0.073   7.018
 8001SOL     OW24901   4.258   6.570   1.310
 8001SOL    HW124902   4.300   6.480   1.297
 8001SOL    HW224903   4.162   6.558   1.337
 8002SOL     OW24904   1.477   1.424   5.848
 8002SOL    HW124905   1.535   1.365   5.792
 8002SOL    HW224906   1.421   1.482   5.788
 8003SOL     OW24907   3.477   5.351   2.244
 8003SOL    HW124908   3.390   5.323   2.203
 8003SOL    HW224909   3.477   5.329   2.341
 8004SOL     OW24910   1.805   3.159   2.772
 8004SOL    HW124911   1.779   3.063   2.760
 8004SOL    HW224912   1.808   3.204   2.682
 8005SOL     OW24913   2.854   0.885   1.679
 8005SOL    HW124914   2.934   0.880   1.618
 8005SOL    HW224915   2.776   0.920   1.628
 8006SOL     OW24916   2.417   6.453   5.909
 8006SOL    HW124917   2.382   6.448   6.002
 8006SOL    HW224918   2.357   6.511   5.854
 8007SOL     OW24919   6.422   0.728   4.262
 8007SOL    HW124920   6.468   0.682   4.338
 8007SOL    HW224921   6.385   0.815   4.293
 8008SOL     OW24922   4.113   5.276   6.237
 8008SOL    HW124923   4.072   5.189   6.263
 8008SOL    HW224924   4.051   5.326   6.177
 8009SOL     OW24925   5.979   1.020   2.361
 8009SOL    HW124926   5.921   1.031   2.441
 8009SOL    HW224927   6.047   1.094   2.359
 8010SOL     OW24928   1.353   1.735   5.575
 8010SOL    HW124929   1.433   1.731   5.516
 8010SOL    HW224930   1.270   1.732   5.518
 8011SOL     OW24931   2.784   2.438   0.846
 8011SOL    HW124932   2.798   2.431   0.945
 8011SOL    HW224933   2.849   2.379   0.799
 8012SOL     OW24934   1.673   3.800   0.944
 8012SOL    HW124935   1.745   3.783   1.011
 8012SOL    HW224936   1.628   3.887   0.965
 8013SOL     OW24937   1.333   5.559   3.213
 8013SOL    HW124938   1.359   5.535   3.306
 8013SOL    HW224939   1.411   5.597   3.164
 8014SOL     OW24940   0.938   6.001   5.667
 8014SOL    HW124941   0.946   5.903   5.651
 8014SOL    HW224942   0.948   6.020   5.765
 8015SOL     OW24943   3.226   0.706   5.980
 8015SOL    HW124944   3.188   0.797   5.967
 8015SOL    HW224945   3.152   0.641   5.998
 8016SOL     OW24946   4.696   0.551   5.617
 8016SOL    HW124947   4.743   0.484   5.559
 8016SOL    HW224948   4.598   0.537   5.610
 8017SOL     OW24949   5.877   0.489   0.603
 8017SOL    HW124950   5.903   0.393   0.602
 8017SOL    HW224951   5.960   0.546   0.603
 8018SOL     OW24952   3.568   1.936   6.332
 8018SOL    HW124953   3.521   2.024   6.325
 8018SOL    HW224954   3.501   1.862   6.326
 8019SOL     OW24955   2.280   4.556   0.197
 8019SOL    HW124956   2.193   4.587   0.236
 8019SOL    HW224957   2.329   4.635   0.160
 8020SOL     OW24958   5.746   0.837   1.119
 8020SOL    HW124959   5.754   0.853   1.218
 8020SOL    HW224960   5.658   0.794   1.099
 8021SOL     OW24961   1.365   2.683   1.371
 8021SOL    HW124962   1.404   2.757   1.316
 8021SOL    HW224963   1.365   2.710   1.468
 8022SOL     OW24964   5.432   6.893   3.163
 8022SOL    HW124965   5.336   6.873   3.185
 8022SOL    HW224966   5.436   6.943   3.076
 8023SOL     OW24967   5.726   5.144   2.202
 8023SOL    HW124968   5.632   5.177   2.204
 8023SOL    HW224969   5.728   5.049   2.170
 8024SOL     OW24970   1.562   4.692   6.417
 8024SOL    HW124971   1.657   4.680   6.447
 8024SOL    HW224972   1.547   4.639   6.334
 8025SOL     OW24973   1.861   6.261   6.745
 8025SOL    HW124974   1.850   6.356   6.774
 8025SOL    HW224975   1.940   6.221   6.790
 8026SOL     OW24976   0.296   4.309   7.007
 8026SOL    HW124977   0.351   4.376   0.034
 8026SOL    HW224978   0.285   4.339   6.912
 8027SOL     OW24979   4.872   0.857   4.646
 8027SOL    HW124980   4.782   0.881   4.684
 8027SOL    HW224981   4.895   0.922   4.574
 8028SOL     OW24982   4.042   5.656   5.698
 8028SOL    HW124983   3.999   5.660   5.788
 8028SOL    HW224984   4.075   5.563   5.681
 8029SOL     OW24985   4.720   3.157   0.900
 8029SOL    HW124986   4.632   3.200   0.919
 8029SOL    HW224987   4.710   3.057   0.901
 8030SOL     OW24988   4.288   4.682   0.697
 8030SOL    HW124989   4.255   4.638   0.781
 8030SOL    HW224990   4.243   4.642   0.618
 8031SOL     OW24991   6.368   6.377   2.379
 8031SOL    HW124992   6.463   6.392   2.349
 8031SOL    HW224993   6.332   6.294   2.338
 8032SOL     OW24994   6.266   4.340   1.375
 8032SOL    HW124995   6.167   4.334   1.369
 8032SOL    HW224996   6.292   4.394   1.455
 8033SOL     OW24997   4.922   1.577   5.876
 8033SOL    HW124998   5.020   1.588   5.859
 8033SOL    HW224999   4.909   1.506   5.946
 8034SOL     OW25000   4.898   0.169   4.233
 8034SOL    HW125001   4.943   0.164   4.322
 8034SOL    HW225002   4.955   0.220   4.169
 8035SOL     OW25003   4.906   1.801   4.429
 8035SOL    HW125004   4.823   1.784   4.483
 8035SOL    HW225005   4.912   1.898   4.407
 8036SOL     OW25006   6.827   3.708   3.628
 8036SOL    HW125007   6.739   3.735   3.589
 8036SOL    HW225008   6.854   3.774   3.698
 8037SOL     OW25009   1.662   2.912   0.485
 8037SOL    HW125010   1.562   2.924   0.489
 8037SOL    HW225011   1.683   2.828   0.436
 8038SOL     OW25012   4.380   0.095   2.484
 8038SOL    HW125013   4.444   0.117   2.411
 8038SOL    HW225014   4.350   0.000   2.476
 8039SOL     OW25015   0.907   1.720   4.736
 8039SOL    HW125016   0.962   1.666   4.672
 8039SOL    HW225017   0.821   1.746   4.692
 8040SOL     OW25018   1.592   5.206   6.733
 8040SOL    HW125019   1.605   5.110   6.706
 8040SOL    HW225020   1.633   5.266   6.664
 8041SOL     OW25021   2.535   1.449   2.508
 8041SOL    HW125022   2.465   1.471   2.440
 8041SOL    HW225023   2.491   1.428   2.595
 8042SOL     OW25024   3.138   2.980   4.009
 8042SOL    HW125025   3.186   2.985   3.921
 8042SOL    HW225026   3.094   3.067   4.028
 8043SOL     OW25027   3.460   6.369   1.494
 8043SOL    HW125028   3.361   6.364   1.481
 8043SOL    HW225029   3.480   6.420   1.577
 8044SOL     OW25030   4.088   2.003   1.395
 8044SOL    HW125031   4.147   2.072   1.352
 8044SOL    HW225032   3.994   2.016   1.363
 8045SOL     OW25033   5.484   2.483   3.170
 8045SOL    HW125034   5.523   2.472   3.079
 8045SOL    HW225035   5.530   2.422   3.234
 8046SOL     OW25036   0.633   4.975   1.386
 8046SOL    HW125037   0.698   4.938   1.452
 8046SOL    HW225038   0.628   5.074   1.396
 8047SOL     OW25039   4.245   5.870   4.493
 8047SOL    HW125040   4.210   5.958   4.523
 8047SOL    HW225041   4.216   5.799   4.557
 8048SOL     OW25042   5.276   1.521   6.001
 8048SOL    HW125043   5.373   1.537   5.984
 8048SOL    HW225044   5.244   1.443   5.947
 8049SOL     OW25045   0.774   0.262   0.421
 8049SOL    HW125046   0.829   0.345   0.414
 8049SOL    HW225047   0.799   0.213   0.504
 8050SOL     OW25048   1.480   3.615   3.543
 8050SOL    HW125049   1.555   3.588   3.483
 8050SOL    HW225050   1.500   3.588   3.637
 8051SOL     OW25051   4.677   5.754   3.506
 8051SOL    HW125052   4.661   5.801   3.593
 8051SOL    HW225053   4.711   5.662   3.523
 8052SOL     OW25054   4.027   1.176   1.201
 8052SOL    HW125055   4.015   1.270   1.168
 8052SOL    HW225056   3.955   1.118   1.162
 8053SOL     OW25057   2.944   3.790   4.119
 8053SOL    HW125058   2.850   3.819   4.103
 8053SOL    HW225059   3.004   3.830   4.050
 8054SOL     OW25060   5.729   6.061   4.305
 8054SOL    HW125061   5.748   6.116   4.224
 8054SOL    HW225062   5.797   5.988   4.313
 8055SOL     OW25063   0.306   0.328   5.227
 8055SOL    HW125064   0.305   0.232   5.256
 8055SOL    HW225065   0.386   0.374   5.266
 8056SOL     OW25066   2.569   1.138   3.568
 8056SOL    HW125067   2.558   1.083   3.484
 8056SOL    HW225068   2.665   1.160   3.581
 8057SOL     OW25069   2.990   2.158   2.843
 8057SOL    HW125070   2.891   2.146   2.853
 8057SOL    HW225071   3.010   2.187   2.749
 8058SOL     OW25072   3.631   0.113   2.985
 8058SOL    HW125073   3.689   0.037   3.014
 8058SOL    HW225074   3.678   0.168   2.916
 8059SOL     OW25075   3.203   1.756   5.169
 8059SOL    HW125076   3.288   1.809   5.161
 8059SOL    HW225077   3.212   1.671   5.118
 8060SOL     OW25078   6.267   2.029   5.193
 8060SOL    HW125079   6.214   2.037   5.278
 8060SOL    HW225080   6.235   1.951   5.140
 8061SOL     OW25081   0.231   0.801   3.087
 8061SOL    HW125082   0.179   0.882   3.113
 8061SOL    HW225083   0.281   0.767   3.167
 8062SOL     OW25084   3.933   5.042   3.918
 8062SOL    HW125085   3.890   5.008   4.001
 8062SOL    HW225086   3.960   5.137   3.930
 8063SOL     OW25087   1.663   2.190   1.810
 8063SOL    HW125088   1.734   2.240   1.761
 8063SOL    HW225089   1.677   2.092   1.798
 8064SOL     OW25090   6.835   3.304   1.799
 8064SOL    HW125091   6.927   3.318   1.762
 8064SOL    HW225092   6.805   3.388   1.845
 8065SOL     OW25093   2.680   5.211   3.896
 8065SOL    HW125094   2.649   5.199   3.802
 8065SOL    HW225095   2.634   5.290   3.937
 8066SOL     OW25096   0.741   1.666   5.261
 8066SOL    HW125097   0.794   1.691   5.181
 8066SOL    HW225098   0.721   1.568   5.259
 8067SOL     OW25099   4.753   2.809   2.126
 8067SOL    HW125100   4.757   2.882   2.058
 8067SOL    HW225101   4.798   2.840   2.211
 8068SOL     OW25102   0.221   3.669   1.522
 8068SOL    HW125103   0.188   3.749   1.472
 8068SOL    HW225104   0.266   3.607   1.457
 8069SOL     OW25105   3.054   6.259   1.411
 8069SOL    HW125106   3.046   6.160   1.405
 8069SOL    HW225107   2.965   6.299   1.431
 8070SOL     OW25108   4.435   3.631   0.310
 8070SOL    HW125109   4.506   3.633   0.239
 8070SOL    HW225110   4.478   3.625   0.400
 8071SOL     OW25111   3.301   6.252   4.773
 8071SOL    HW125112   3.227   6.316   4.760
 8071SOL    HW225113   3.387   6.302   4.789
 8072SOL     OW25114   4.071   1.978   0.768
 8072SOL    HW125115   4.070   2.057   0.829
 8072SOL    HW225116   4.050   2.008   0.675
 8073SOL     OW25117   3.194   5.305   4.857
 8073SOL    HW125118   3.289   5.318   4.885
 8073SOL    HW225119   3.152   5.393   4.836
 8074SOL     OW25120   3.323   2.744   0.702
 8074SOL    HW125121   3.365   2.828   0.737
 8074SOL    HW225122   3.257   2.710   0.769
 8075SOL     OW25123   6.905   0.333   0.779
 8075SOL    HW125124   6.811   0.342   0.745
 8075SOL    HW225125   6.949   0.253   0.738
 8076SOL     OW25126   6.352   1.426   5.392
 8076SOL    HW125127   6.354   1.522   5.418
 8076SOL    HW225128   6.276   1.410   5.329
 8077SOL     OW25129   3.035   6.520   2.729
 8077SOL    HW125130   3.045   6.425   2.700
 8077SOL    HW225131   3.126   6.559   2.748
 8078SOL     OW25132   0.214   1.822   0.418
 8078SOL    HW125133   0.114   1.819   0.415
 8078SOL    HW225134   0.250   1.729   0.428
 8079SOL     OW25135   5.227   2.205   3.793
 8079SOL    HW125136   5.290   2.142   3.839
 8079SOL    HW225137   5.200   2.277   3.858
 8080SOL     OW25138   1.342   2.461   1.161
 8080SOL    HW125139   1.252   2.501   1.143
 8080SOL    HW225140   1.406   2.533   1.189
 8081SOL     OW25141   6.108   6.062   5.847
 8081SOL    HW125142   6.076   6.105   5.762
 8081SOL    HW225143   6.068   5.970   5.854
 8082SOL     OW25144   4.638   0.081   2.749
 8082SOL    HW125145   4.578   0.003   2.734
 8082SOL    HW225146   4.710   0.081   2.680
 8083SOL     OW25147   4.891   2.831   3.293
 8083SOL    HW125148   4.891   2.913   3.235
 8083SOL    HW225149   4.962   2.768   3.263
 8084SOL     OW25150   3.745   6.775   0.108
 8084SOL    HW125151   3.782   6.867   0.115
 8084SOL    HW225152   3.691   6.754   0.190
 8085SOL     OW25153   7.015   6.350   2.089
 8085SOL    HW125154   6.927   6.344   2.135
 8085SOL    HW225155   0.055   6.281   2.128
 8086SOL     OW25156   5.840   0.296   2.788
 8086SOL    HW125157   5.893   0.215   2.814
 8086SOL    HW225158   5.862   0.322   2.694
 8087SOL     OW25159   2.769   1.016   0.071
 8087SOL    HW125160   2.778   0.960   7.011
 8087SOL    HW225161   2.735   0.959   0.147
 8088SOL     OW25162   5.796   2.205   1.355
 8088SOL    HW125163   5.733   2.269   1.399
 8088SOL    HW225164   5.858   2.166   1.424
 8089SOL     OW25165   5.615   2.462   0.510
 8089SOL    HW125166   5.577   2.393   0.571
 8089SOL    HW225167   5.715   2.458   0.512
 8090SOL     OW25168   4.521   2.037   0.306
 8090SOL    HW125169   4.481   1.959   0.258
 8090SOL    HW225170   4.540   2.110   0.240
 8091SOL     OW25171   2.134   3.529   5.081
 8091SOL    HW125172   2.083   3.504   4.999
 8091SOL    HW225173   2.228   3.496   5.074
 8092SOL     OW25174   5.202   1.864   4.819
 8092SOL    HW125175   5.292   1.838   4.852
 8092SOL    HW225176   5.148   1.901   4.894
 8093SOL     OW25177   3.984   5.472   2.460
 8093SOL    HW125178   4.068   5.506   2.502
 8093SOL    HW225179   3.985   5.491   2.362
 8094SOL     OW25180   1.070   3.530   4.550
 8094SOL    HW125181   1.000   3.596   4.523
 8094SOL    HW225182   1.160   3.568   4.533
 8095SOL     OW25183   0.388   4.306   4.588
 8095SOL    HW125184   0.368   4.396   4.627
 8095SOL    HW225185   0.415   4.243   4.661
 8096SOL     OW25186   2.156   6.599   3.322
 8096SOL    HW125187   2.216   6.626   3.397
 8096SOL    HW225188   2.176   6.654   3.241
 8097SOL     OW25189   3.931   0.353   4.357
 8097SOL    HW125190   3.920   0.306   4.445
 8097SOL    HW225191   3.971   0.290   4.291
 8098SOL     OW25192   1.631   0.070   3.095
 8098SOL    HW125193   1.593   7.015   3.146
 8098SOL    HW225194   1.665   0.138   3.159
 8099SOL     OW25195   3.848   6.841   4.557
 8099SOL    HW125196   3.840   6.821   4.655
 8099SOL    HW225197   3.758   6.837   4.515
 8100SOL     OW25198   6.068   1.062   0.817
 8100SOL    HW125199   6.081   1.106   0.728
 8100SOL    HW225200   5.991   0.999   0.812
 8101SOL     OW25201   1.998   6.259   2.232
 8101SOL    HW125202   2.065   6.260   2.305
 8101SOL    HW225203   2.032   6.312   2.154
 8102SOL     OW25204   0.781   4.340   3.885
 8102SOL    HW125205   0.706   4.313   3.946
 8102SOL    HW225206   0.816   4.429   3.915
 8103SOL     OW25207   3.096   0.074   1.051
 8103SOL    HW125208   3.001   0.103   1.039
 8103SOL    HW225209   3.142   0.073   0.962
 8104SOL     OW25210   3.752   0.782   5.973
 8104SOL    HW125211   3.814   0.788   6.052
 8104SOL    HW225212   3.711   0.872   5.957
 8105SOL     OW25213   0.948   2.915   3.112
 8105SOL    HW125214   0.903   2.960   3.188
 8105SOL    HW225215   0.925   2.962   3.026
 8106SOL     OW25216   2.392   6.234   2.863
 8106SOL    HW125217   2.353   6.231   2.955
 8106SOL    HW225218   2.356   6.159   2.808
 8107SOL     OW25219   0.453   5.006   4.470
 8107SOL    HW125220   0.467   4.913   4.435
 8107SOL    HW225221   0.428   5.001   4.567
 8108SOL     OW25222   6.178   2.717   5.656
 8108SOL    HW125223   6.257   2.667   5.620
 8108SOL    HW225224   6.198   2.815   5.655
 8109SOL     OW25225   0.874   3.870   4.896
 8109SOL    HW125226   0.806   3.839   4.830
 8109SOL    HW225227   0.943   3.799   4.909
 8110SOL     OW25228   3.097   6.320   1.151
 8110SOL    HW125229   3.150   6.404   1.138
 8110SOL    HW225230   3.099   6.294   1.247
 8111SOL     OW25231   5.130   0.725   4.609
 8111SOL    HW125232   5.159   0.722   4.704
 8111SOL    HW225233   5.055   0.791   4.599
 8112SOL     OW25234   1.824   2.375   4.322
 8112SOL    HW125235   1.847   2.282   4.352
 8112SOL    HW225236   1.886   2.402   4.249
 8113SOL     OW25237   2.588   3.325   0.774
 8113SOL    HW125238   2.611   3.415   0.738
 8113SOL    HW225239   2.568   3.331   0.871
 8114SOL     OW25240   1.540   3.853   2.878
 8114SOL    HW125241   1.569   3.791   2.806
 8114SOL    HW225242   1.544   3.805   2.966
 8115SOL     OW25243   3.742   0.464   0.235
 8115SOL    HW125244   3.794   0.460   0.150
 8115SOL    HW225245   3.644   0.469   0.215
 8116SOL     OW25246   4.838   5.289   5.893
 8116SOL    HW125247   4.884   5.213   5.940
 8116SOL    HW225248   4.879   5.301   5.802
 8117SOL     OW25249   1.543   0.565   3.478
 8117SOL    HW125250   1.634   0.554   3.437
 8117SOL    HW225251   1.481   0.607   3.411
 8118SOL     OW25252   5.635   4.378   5.368
 8118SOL    HW125253   5.553   4.325   5.346
 8118SOL    HW225254   5.669   4.422   5.284
 8119SOL     OW25255   5.343   5.364   6.043
 8119SOL    HW125256   5.395   5.394   5.963
 8119SOL    HW225257   5.307   5.273   6.026
 8120SOL     OW25258   2.923   5.118   0.784
 8120SOL    HW125259   2.933   5.094   0.881
 8120SOL    HW225260   2.853   5.189   0.775
 8121SOL     OW25261   0.430   4.876   1.698
 8121SOL    HW125262   0.503   4.899   1.762
 8121SOL    HW225263   0.380   4.959   1.673
 8122SOL     OW25264   1.112   5.070   2.918
 8122SOL    HW125265   1.133   5.087   3.014
 8122SOL    HW225266   1.022   5.107   2.896
 8123SOL     OW25267   6.489   0.725   6.382
 8123SOL    HW125268   6.545   0.656   6.336
 8123SOL    HW225269   6.544   0.806   6.401
 8124SOL     OW25270   5.825   6.853   1.436
 8124SOL    HW125271   5.728   6.841   1.415
 8124SOL    HW225272   5.863   6.928   1.381
 8125SOL     OW25273   1.081   1.446   3.486
 8125SOL    HW125274   1.118   1.527   3.440
 8125SOL    HW225275   1.030   1.391   3.419
 8126SOL     OW25276   4.956   4.740   2.616
 8126SOL    HW125277   5.011   4.822   2.633
 8126SOL    HW225278   4.998   4.686   2.543
 8127SOL     OW25279   2.708   5.099   6.268
 8127SOL    HW125280   2.680   5.013   6.312
 8127SOL    HW225281   2.790   5.134   6.313
 8128SOL     OW25282   2.627   1.306   1.956
 8128SOL    HW125283   2.647   1.237   1.887
 8128SOL    HW225284   2.675   1.284   2.041
 8129SOL     OW25285   4.495   1.007   6.570
 8129SOL    HW125286   4.470   0.991   6.474
 8129SOL    HW225287   4.590   0.980   6.585
 8130SOL     OW25288   6.842   3.207   6.585
 8130SOL    HW125289   6.800   3.164   6.665
 8130SOL    HW225290   6.939   3.183   6.582
 8131SOL     OW25291   3.149   1.738   0.768
 8131SOL    HW125292   3.167   1.807   0.838
 8131SOL    HW225293   3.102   1.781   0.691
 8132SOL     OW25294   6.057   0.074   6.149
 8132SOL    HW125295   5.983   0.080   6.082
 8132SOL    HW225296   6.086   7.001   6.157
 8133SOL     OW25297   3.017   4.935   1.764
 8133SOL    HW125298   3.018   4.871   1.686
 8133SOL    HW225299   2.987   4.886   1.846
 8134SOL     OW25300   6.826   2.782   5.577
 8134SOL    HW125301   6.881   2.828   5.508
 8134SOL    HW225302   6.871   2.697   5.604
 8135SOL     OW25303   2.973   6.005   1.843
 8135SOL    HW125304   2.925   5.919   1.860
 8135SOL    HW225305   3.028   6.029   1.922
 8136SOL     OW25306   4.464   5.502   2.900
 8136SOL    HW125307   4.404   5.447   2.842
 8136SOL    HW225308   4.470   5.595   2.863
 8137SOL     OW25309   3.427   1.590   5.391
 8137SOL    HW125310   3.445   1.647   5.311
 8137SOL    HW225311   3.413   1.495   5.361
 8138SOL     OW25312   5.969   1.329   6.879
 8138SOL    HW125313   5.926   1.250   6.923
 8138SOL    HW225314   6.005   1.391   6.949
 8139SOL     OW25315   6.968   1.222   2.902
 8139SOL    HW125316   6.874   1.212   2.935
 8139SOL    HW225317   7.010   1.131   2.893
 8140SOL     OW25318   4.768   0.531   1.068
 8140SOL    HW125319   4.866   0.524   1.046
 8140SOL    HW225320   4.758   0.570   1.160
 8141SOL     OW25321   4.799   6.727   5.461
 8141SOL    HW125322   4.708   6.717   5.419
 8141SOL    HW225323   4.830   6.638   5.495
 8142SOL     OW25324   1.173   5.112   6.677
 8142SOL    HW125325   1.209   5.051   6.606
 8142SOL    HW225326   1.158   5.060   6.761
 8143SOL     OW25327   6.728   4.535   1.054
 8143SOL    HW125328   6.687   4.513   0.966
 8143SOL    HW225329   6.658   4.570   1.116
 8144SOL     OW25330   6.523   6.763   6.423
 8144SOL    HW125331   6.542   6.673   6.383
 8144SOL    HW225332   6.530   6.757   6.522
 8145SOL     OW25333   5.630   5.611   1.591
 8145SOL    HW125334   5.677   5.523   1.595
 8145SOL    HW225335   5.696   5.685   1.606
 8146SOL     OW25336   4.655   0.639   4.553
 8146SOL    HW125337   4.586   0.612   4.620
 8146SOL    HW225338   4.734   0.678   4.600
 8147SOL     OW25339   6.433   1.635   1.743
 8147SOL    HW125340   6.408   1.682   1.828
 8147SOL    HW225341   6.422   1.696   1.666
 8148SOL     OW25342   4.826   4.065   0.307
 8148SOL    HW125343   4.899   3.997   0.294
 8148SOL    HW225344   4.837   4.139   0.242
 8149SOL     OW25345   2.989   6.713   2.515
 8149SOL    HW125346   2.932   6.664   2.449
 8149SOL    HW225347   2.996   6.659   2.599
 8150SOL     OW25348   2.519   4.128   1.118
 8150SOL    HW125349   2.591   4.088   1.061
 8150SOL    HW225350   2.501   4.068   1.196
 8151SOL     OW25351   5.685   3.592   2.073
 8151SOL    HW125352   5.686   3.576   1.975
 8151SOL    HW225353   5.663   3.507   2.121
 8152SOL     OW25354   6.576   2.395   2.516
 8152SOL    HW125355   6.487   2.431   2.545
 8152SOL    HW225356   6.648   2.459   2.544
 8153SOL     OW25357   1.585   0.174   3.490
 8153SOL    HW125358   1.580   0.079   3.522
 8153SOL    HW225359   1.493   0.208   3.471
 8154SOL     OW25360   3.610   5.580   2.122
 8154SOL    HW125361   3.563   5.497   2.089
 8154SOL    HW225362   3.542   5.649   2.146
 8155SOL     OW25363   1.988   3.270   2.218
 8155SOL    HW125364   1.949   3.200   2.278
 8155SOL    HW225365   1.921   3.343   2.205
 8156SOL     OW25366   5.880   6.456   0.892
 8156SOL    HW125367   5.801   6.458   0.830
 8156SOL    HW225368   5.887   6.543   0.940
 8157SOL     OW25369   6.725   4.901   6.138
 8157SOL    HW125370   6.736   4.995   6.172
 8157SOL    HW225371   6.794   4.842   6.181
 8158SOL     OW25372   5.133   4.892   0.626
 8158SOL    HW125373   5.201   4.906   0.554
 8158SOL    HW225374   5.174   4.838   0.700
 8159SOL     OW25375   2.944   5.996   3.084
 8159SOL    HW125376   2.993   6.012   3.170
 8159SOL    HW225377   2.866   6.059   3.078
 8160SOL     OW25378   5.181   0.764   3.206
 8160SOL    HW125379   5.268   0.809   3.188
 8160SOL    HW225380   5.184   0.721   3.296
 8161SOL     OW25381   6.022   2.276   6.476
 8161SOL    HW125382   5.997   2.209   6.406
 8161SOL    HW225383   6.014   2.234   6.567
 8162SOL     OW25384   5.549   6.633   6.696
 8162SOL    HW125385   5.640   6.671   6.714
 8162SOL    HW225386   5.555   6.534   6.693
 8163SOL     OW25387   2.669   3.982   5.292
 8163SOL    HW125388   2.722   4.067   5.288
 8163SOL    HW225389   2.582   3.994   5.244
 8164SOL     OW25390   5.265   2.571   0.616
 8164SOL    HW125391   5.356   2.575   0.655
 8164SOL    HW225392   5.245   2.477   0.588
 8165SOL     OW25393   0.609   3.473   6.572
 8165SOL    HW125394   0.572   3.500   6.661
 8165SOL    HW225395   0.701   3.510   6.561
 8166SOL     OW25396   1.329   0.333   2.815
 8166SOL    HW125397   1.243   0.312   2.862
 8166SOL    HW225398   1.310   0.377   2.728
 8167SOL     OW25399   6.546   6.751   4.470
 8167SOL    HW125400   6.461   6.799   4.447
 8167SOL    HW225401   6.603   6.743   4.388
 8168SOL     OW25402   1.792   1.766   3.571
 8168SOL    HW125403   1.795   1.748   3.473
 8168SOL    HW225404   1.791   1.865   3.587
 8169SOL     OW25405   4.964   2.010   1.021
 8169SOL    HW125406   4.957   2.097   1.070
 8169SOL    HW225407   4.886   1.952   1.044
 8170SOL     OW25408   1.050   4.755   2.646
 8170SOL    HW125409   0.955   4.726   2.660
 8170SOL    HW225410   1.101   4.683   2.599
 8171SOL     OW25411   1.432   1.904   6.342
 8171SOL    HW125412   1.337   1.924   6.366
 8171SOL    HW225413   1.436   1.822   6.285
 8172SOL     OW25414   0.997   2.008   2.146
 8172SOL    HW125415   1.051   1.950   2.207
 8172SOL    HW225416   1.035   2.003   2.054
 8173SOL     OW25417   5.276   1.051   2.083
 8173SOL    HW125418   5.275   1.040   1.983
 8173SOL    HW225419   5.283   0.961   2.126
 8174SOL     OW25420   6.020   2.873   0.715
 8174SOL    HW125421   5.974   2.939   0.774
 8174SOL    HW225422   5.965   2.790   0.709
 8175SOL     OW25423   6.767   2.507   5.665
 8175SOL    HW125424   6.773   2.417   5.706
 8175SOL    HW225425   6.672   2.539   5.667
 8176SOL     OW25426   2.779   5.433   1.894
 8176SOL    HW125427   2.846   5.418   1.967
 8176SOL    HW225428   2.697   5.379   1.912
 8177SOL     OW25429   3.329   6.539   3.806
 8177SOL    HW125430   3.259   6.564   3.873
 8177SOL    HW225431   3.337   6.439   3.802
 8178SOL     OW25432   3.005   5.964   6.467
 8178SOL    HW125433   2.917   5.939   6.427
 8178SOL    HW225434   3.031   6.056   6.436
 8179SOL     OW25435   5.182   2.014   5.596
 8179SOL    HW125436   5.269   2.017   5.546
 8179SOL    HW225437   5.191   1.952   5.674
 8180SOL     OW25438   6.788   0.213   4.828
 8180SOL    HW125439   6.725   0.289   4.810
 8180SOL    HW225440   6.812   0.169   4.742
 8181SOL     OW25441   1.828   1.180   0.736
 8181SOL    HW125442   1.803   1.233   0.655
 8181SOL    HW225443   1.879   1.238   0.800
 8182SOL     OW25444   3.838   3.389   5.599
 8182SOL    HW125445   3.864   3.388   5.502
 8182SOL    HW225446   3.917   3.361   5.655
 8183SOL     OW25447   6.885   2.157   4.978
 8183SOL    HW125448   6.829   2.183   4.899
 8183SOL    HW225449   6.875   2.226   5.049
 8184SOL     OW25450   5.945   1.451   6.630
 8184SOL    HW125451   5.916   1.364   6.590
 8184SOL    HW225452   5.973   1.437   6.725
 8185SOL     OW25453   2.424   6.250   0.478
 8185SOL    HW125454   2.492   6.307   0.525
 8185SOL    HW225455   2.369   6.306   0.417
 8186SOL     OW25456   3.701   5.811   5.154
 8186SOL    HW125457   3.708   5.901   5.197
 8186SOL    HW225458   3.605   5.785   5.146
 8187SOL     OW25459   1.483   2.614   5.403
 8187SOL    HW125460   1.576   2.577   5.413
 8187SOL    HW225461   1.488   2.710   5.373
 8188SOL     OW25462   5.680   3.159   2.937
 8188SOL    HW125463   5.710   3.151   3.032
 8188SOL    HW225464   5.758   3.181   2.878
 8189SOL     OW25465   4.695   4.841   2.498
 8189SOL    HW125466   4.632   4.768   2.471
 8189SOL    HW225467   4.771   4.802   2.549
 8190SOL     OW25468   4.391   4.935   4.061
 8190SOL    HW125469   4.381   5.024   4.015
 8190SOL    HW225470   4.330   4.869   4.018
 8191SOL     OW25471   3.767   6.650   2.009
 8191SOL    HW125472   3.757   6.552   2.027
 8191SOL    HW225473   3.738   6.670   1.915
 8192SOL     OW25474   3.973   4.897   0.556
 8192SOL    HW125475   3.903   4.850   0.609
 8192SOL    HW225476   4.045   4.930   0.618
 8193SOL     OW25477   6.969   6.407   4.453
 8193SOL    HW125478   6.975   6.447   4.544
 8193SOL    HW225479   6.928   6.316   4.459
 8194SOL     OW25480   5.678   2.501   0.967
 8194SOL    HW125481   5.694   2.546   1.055
 8194SOL    HW225482   5.671   2.402   0.981
 8195SOL     OW25483   1.574   0.073   1.728
 8195SOL    HW125484   1.571   0.074   1.628
 8195SOL    HW225485   1.534   7.010   1.762
 8196SOL     OW25486   3.703   6.371   5.883
 8196SOL    HW125487   3.618   6.406   5.844
 8196SOL    HW225488   3.778   6.384   5.818
 8197SOL     OW25489   4.572   1.730   6.827
 8197SOL    HW125490   4.475   1.752   6.838
 8197SOL    HW225491   4.620   1.746   6.913
 8198SOL     OW25492   3.615   6.688   3.431
 8198SOL    HW125493   3.557   6.624   3.482
 8198SOL    HW225494   3.699   6.705   3.482
 8199SOL     OW25495   5.424   2.709   6.456
 8199SOL    HW125496   5.331   2.711   6.494
 8199SOL    HW225497   5.419   2.688   6.358
 8200SOL     OW25498   4.981   3.972   1.583
 8200SOL    HW125499   4.954   3.961   1.487
 8200SOL    HW225500   4.996   4.068   1.603
 8201SOL     OW25501   5.680   0.236   3.583
 8201SOL    HW125502   5.606   0.171   3.603
 8201SOL    HW225503   5.767   0.186   3.578
 8202SOL     OW25504   6.988   5.926   4.818
 8202SOL    HW125505   6.937   6.009   4.841
 8202SOL    HW225506   0.036   5.911   4.888
 8203SOL     OW25507   4.576   2.205   0.108
 8203SOL    HW125508   4.537   2.292   0.139
 8203SOL    HW225509   4.674   2.216   0.091
 8204SOL     OW25510   3.137   5.366   6.849
 8204SOL    HW125511   3.051   5.408   6.880
 8204SOL    HW225512   3.164   5.405   6.761
 8205SOL     OW25513   0.497   4.727   0.831
 8205SOL    HW125514   0.436   4.652   0.809
 8205SOL    HW225515   0.583   4.691   0.867
 8206SOL     OW25516   4.913   2.563   6.278
 8206SOL    HW125517   4.886   2.489   6.339
 8206SOL    HW225518   4.836   2.588   6.220
 8207SOL     OW25519   3.816   3.845   5.486
 8207SOL    HW125520   3.772   3.863   5.398
 8207SOL    HW225521   3.895   3.906   5.496
 8208SOL     OW25522   1.691   6.993   1.353
 8208SOL    HW125523   1.683   6.899   1.388
 8208SOL    HW225524   1.781   0.007   1.377
 8209SOL     OW25525   0.764   1.498   5.649
 8209SOL    HW125526   0.703   1.555   5.703
 8209SOL    HW225527   0.831   1.557   5.601
 8210SOL     OW25528   2.805   0.625   1.015
 8210SOL    HW125529   2.847   0.536   0.997
 8210SOL    HW225530   2.831   0.688   0.941
 8211SOL     OW25531   3.962   3.761   2.540
 8211SOL    HW125532   3.905   3.684   2.510
 8211SOL    HW225533   3.970   3.828   2.466
 8212SOL     OW25534   3.071   1.501   1.079
 8212SOL    HW125535   3.052   1.517   0.982
 8212SOL    HW225536   3.002   1.548   1.135
 8213SOL     OW25537   5.839   4.674   2.153
 8213SOL    HW125538   5.913   4.735   2.124
 8213SOL    HW225539   5.854   4.647   2.248
 8214SOL     OW25540   0.220   5.875   4.417
 8214SOL    HW125541   0.200   5.814   4.340
 8214SOL    HW225542   0.174   5.840   4.500
 8215SOL     OW25543   2.836   5.693   6.147
 8215SOL    HW125544   2.933   5.684   6.127
 8215SOL    HW225545   2.784   5.633   6.086
 8216SOL     OW25546   5.228   6.132   3.483
 8216SOL    HW125547   5.172   6.197   3.431
 8216SOL    HW225548   5.246   6.051   3.426
 8217SOL     OW25549   2.301   4.101   2.016
 8217SOL    HW125550   2.247   4.134   1.938
 8217SOL    HW225551   2.337   4.011   1.995
 8218SOL     OW25552   1.052   6.601   5.077
 8218SOL    HW125553   0.999   6.618   5.160
 8218SOL    HW225554   0.994   6.556   5.009
 8219SOL     OW25555   3.780   2.883   1.019
 8219SOL    HW125556   3.714   2.957   1.029
 8219SOL    HW225557   3.796   2.865   0.922
 8220SOL     OW25558   3.301   3.661   5.046
 8220SOL    HW125559   3.306   3.570   5.005
 8220SOL    HW225560   3.257   3.724   4.982
 8221SOL     OW25561   6.387   5.613   3.188
 8221SOL    HW125562   6.296   5.620   3.147
 8221SOL    HW225563   6.453   5.660   3.130
 8222SOL     OW25564   5.069   1.825   1.332
 8222SOL    HW125565   4.999   1.851   1.398
 8222SOL    HW225566   5.050   1.733   1.297
 8223SOL     OW25567   0.951   4.362   5.187
 8223SOL    HW125568   0.969   4.446   5.239
 8223SOL    HW225569   0.856   4.335   5.199
 8224SOL     OW25570   5.618   2.512   1.949
 8224SOL    HW125571   5.610   2.497   2.048
 8224SOL    HW225572   5.618   2.611   1.931
 8225SOL     OW25573   3.902   1.342   1.595
 8225SOL    HW125574   3.826   1.335   1.530
 8225SOL    HW225575   3.967   1.268   1.578
 8226SOL     OW25576   3.269   0.014   0.333
 8226SOL    HW125577   3.215   6.981   0.269
 8226SOL    HW225578   3.280   0.106   0.296
 8227SOL     OW25579   0.089   0.960   2.855
 8227SOL    HW125580   0.068   0.863   2.841
 8227SOL    HW225581   0.179   0.980   2.816
 8228SOL     OW25582   0.632   1.520   6.460
 8228SOL    HW125583   0.594   1.432   6.486
 8228SOL    HW225584   0.647   1.522   6.361
 8229SOL     OW25585   3.597   4.079   1.201
 8229SOL    HW125586   3.652   4.144   1.253
 8229SOL    HW225587   3.543   4.128   1.132
 8230SOL     OW25588   3.849   6.794   5.253
 8230SOL    HW125589   3.850   6.878   5.199
 8230SOL    HW225590   3.943   6.761   5.264
 8231SOL     OW25591   2.982   2.742   1.419
 8231SOL    HW125592   2.938   2.714   1.505
 8231SOL    HW225593   3.021   2.661   1.374
 8232SOL     OW25594   5.847   1.575   2.411
 8232SOL    HW125595   5.805   1.512   2.476
 8232SOL    HW225596   5.842   1.668   2.446
 8233SOL     OW25597   1.588   7.015   6.865
 8233SOL    HW125598   1.516   6.965   6.914
 8233SOL    HW225599   1.641   0.047   6.929
 8234SOL     OW25600   3.109   4.113   0.051
 8234SOL    HW125601   3.125   4.033   0.109
 8234SOL    HW225602   3.014   4.114   0.021
 8235SOL     OW25603   0.222   3.732   6.897
 8235SOL    HW125604   0.243   3.782   6.981
 8235SOL    HW225605   0.248   3.788   6.818
 8236SOL     OW25606   6.875   4.551   6.816
 8236SOL    HW125607   6.853   4.644   6.847
 8236SOL    HW225608   6.904   4.496   6.894
 8237SOL     OW25609   4.632   6.403   5.950
 8237SOL    HW125610   4.618   6.498   5.921
 8237SOL    HW225611   4.727   6.377   5.936
 8238SOL     OW25612   0.538   5.464   6.917
 8238SOL    HW125613   0.603   5.478   6.842
 8238SOL    HW225614   0.497   5.373   6.908
 8239SOL     OW25615   0.608   0.895   5.063
 8239SOL    HW125616   0.521   0.846   5.068
 8239SOL    HW225617   0.615   0.941   4.974
 8240SOL     OW25618   3.261   4.054   3.084
 8240SOL    HW125619   3.265   3.998   3.167
 8240SOL    HW225620   3.352   4.090   3.065
 8241SOL     OW25621   2.694   4.844   5.776
 8241SOL    HW125622   2.607   4.809   5.742
 8241SOL    HW225623   2.677   4.922   5.836
 8242SOL     OW25624   0.643   3.659   5.346
 8242SOL    HW125625   0.686   3.679   5.434
 8242SOL    HW225626   0.708   3.674   5.272
 8243SOL     OW25627   0.046   3.494   1.307
 8243SOL    HW125628   7.016   3.574   1.281
 8243SOL    HW225629   7.006   3.420   1.333
 8244SOL     OW25630   0.290   0.124   3.294
 8244SOL    HW125631   0.389   0.128   3.277
 8244SOL    HW225632   0.260   0.211   3.334
 8245SOL     OW25633   3.354   2.111   2.721
 8245SOL    HW125634   3.356   2.128   2.820
 8245SOL    HW225635   3.282   2.045   2.700
 8246SOL     OW25636   0.219   3.703   6.446
 8246SOL    HW125637   0.259   3.685   6.536
 8246SOL    HW225638   0.284   3.676   6.375
 8247SOL     OW25639   1.908   6.713   3.317
 8247SOL    HW125640   1.998   6.683   3.286
 8247SOL    HW225641   1.909   6.812   3.332
 8248SOL     OW25642   0.666   4.329   4.730
 8248SOL    HW125643   0.576   4.290   4.750
 8248SOL    HW225644   0.724   4.322   4.811
 8249SOL     OW25645   2.078   1.398   5.777
 8249SOL    HW125646   2.145   1.324   5.783
 8249SOL    HW225647   2.125   1.484   5.757
 8250SOL     OW25648   2.410   1.953   1.306
 8250SOL    HW125649   2.429   1.985   1.399
 8250SOL    HW225650   2.444   2.020   1.240
 8251SOL     OW25651   5.451   2.235   4.265
 8251SOL    HW125652   5.484   2.219   4.173
 8251SOL    HW225653   5.527   2.260   4.324
 8252SOL     OW25654   4.083   2.070   6.660
 8252SOL    HW125655   4.017   2.003   6.694
 8252SOL    HW225656   4.117   2.124   6.737
 8253SOL     OW25657   3.943   5.777   5.963
 8253SOL    HW125658   3.934   5.843   5.888
 8253SOL    HW225659   4.030   5.793   6.009
 8254SOL     OW25660   4.970   4.759   5.727
 8254SOL    HW125661   5.002   4.765   5.821
 8254SOL    HW225662   5.045   4.780   5.664
 8255SOL     OW25663   1.287   6.591   5.578
 8255SOL    HW125664   1.254   6.674   5.534
 8255SOL    HW225665   1.249   6.511   5.531
 8256SOL     OW25666   6.826   6.182   2.791
 8256SOL    HW125667   6.770   6.100   2.804
 8256SOL    HW225668   6.909   6.158   2.740
 8257SOL     OW25669   5.348   4.109   3.159
 8257SOL    HW125670   5.358   4.096   3.258
 8257SOL    HW225671   5.251   4.115   3.136
 8258SOL     OW25672   4.652   2.625   1.938
 8258SOL    HW125673   4.596   2.686   1.882
 8258SOL    HW225674   4.695   2.677   2.012
 8259SOL     OW25675   3.516   2.225   5.463
 8259SOL    HW125676   3.435   2.212   5.406
 8259SOL    HW225677   3.539   2.140   5.510
 8260SOL     OW25678   2.343   7.012   1.715
 8260SOL    HW125679   2.371   7.016   1.811
 8260SOL    HW225680   2.287   0.069   1.693
 8261SOL     OW25681   5.095   6.644   3.151
 8261SOL    HW125682   4.996   6.656   3.152
 8261SOL    HW225683   5.139   6.730   3.124
 8262SOL     OW25684   1.106   4.793   0.319
 8262SOL    HW125685   1.099   4.732   0.398
 8262SOL    HW225686   1.109   4.888   0.350
 8263SOL     OW25687   0.095   3.067   6.577
 8263SOL    HW125688   0.168   3.064   6.645
 8263SOL    HW225689   0.083   2.976   6.536
 8264SOL     OW25690   1.017   6.315   1.500
 8264SOL    HW125691   1.027   6.415   1.506
 8264SOL    HW225692   1.094   6.272   1.546
 8265SOL     OW25693   5.400   0.241   2.075
 8265SOL    HW125694   5.388   0.245   1.976
 8265SOL    HW225695   5.397   0.333   2.113
 8266SOL     OW25696   2.197   0.861   4.025
 8266SOL    HW125697   2.121   0.796   4.023
 8266SOL    HW225698   2.182   0.932   3.956
 8267SOL     OW25699   1.238   3.915   1.759
 8267SOL    HW125700   1.150   3.963   1.750
 8267SOL    HW225701   1.255   3.896   1.856
 8268SOL     OW25702   3.162   5.730   6.357
 8268SOL    HW125703   3.243   5.788   6.363
 8268SOL    HW225704   3.089   5.768   6.414
 8269SOL     OW25705   4.812   2.960   2.905
 8269SOL    HW125706   4.847   2.867   2.896
 8269SOL    HW225707   4.810   2.985   3.002
 8270SOL     OW25708   3.033   5.681   5.065
 8270SOL    HW125709   3.040   5.700   4.967
 8270SOL    HW225710   2.953   5.728   5.102
 8271SOL     OW25711   6.601   6.809   3.237
 8271SOL    HW125712   6.525   6.799   3.301
 8271SOL    HW225713   6.599   6.901   3.198
 8272SOL     OW25714   6.606   1.560   2.430
 8272SOL    HW125715   6.540   1.488   2.406
 8272SOL    HW225716   6.687   1.519   2.471
 8273SOL     OW25717   3.201   0.871   0.429
 8273SOL    HW125718   3.163   0.959   0.402
 8273SOL    HW225719   3.252   0.880   0.514
 8274SOL     OW25720   4.452   5.370   4.697
 8274SOL    HW125721   4.426   5.379   4.793
 8274SOL    HW225722   4.371   5.383   4.639
 8275SOL     OW25723   5.591   0.549   3.952
 8275SOL    HW125724   5.632   0.521   3.866
 8275SOL    HW225725   5.583   0.469   4.013
 8276SOL     OW25726   6.882   2.488   5.434
 8276SOL    HW125727   6.820   2.493   5.513
 8276SOL    HW225728   6.966   2.440   5.460
 8277SOL     OW25729   1.361   6.132   6.461
 8277SOL    HW125730   1.425   6.058   6.444
 8277SOL    HW225731   1.289   6.131   6.391
 8278SOL     OW25732   3.309   1.345   6.836
 8278SOL    HW125733   3.313   1.306   6.929
 8278SOL    HW225734   3.317   1.444   6.841
 8279SOL     OW25735   6.634   6.445   5.157
 8279SOL    HW125736   6.671   6.514   5.219
 8279SOL    HW225737   6.557   6.398   5.201
 8280SOL     OW25738   3.629   2.369   0.729
 8280SOL    HW125739   3.603   2.398   0.637
 8280SOL    HW225740   3.549   2.373   0.790
 8281SOL     OW25741   2.391   4.723   2.017
 8281SOL    HW125742   2.411   4.625   2.009
 8281SOL    HW225743   2.292   4.737   2.015
 8282SOL     OW25744   3.928   4.341   0.318
 8282SOL    HW125745   3.912   4.364   0.414
 8282SOL    HW225746   4.023   4.360   0.295
 8283SOL     OW25747   1.668   4.723   4.445
 8283SOL    HW125748   1.732   4.796   4.420
 8283SOL    HW225749   1.608   4.756   4.518
 8284SOL     OW25750   1.802   4.128   2.275
 8284SOL    HW125751   1.792   4.089   2.183
 8284SOL    HW225752   1.832   4.223   2.267
 8285SOL     OW25753   4.399   3.992   5.519
 8285SOL    HW125754   4.324   4.046   5.480
 8285SOL    HW225755   4.486   4.038   5.502
 8286SOL     OW25756   5.393   1.712   4.963
 8286SOL    HW125757   5.373   1.622   5.003
 8286SOL    HW225758   5.372   1.783   5.030
 8287SOL     OW25759   0.756   5.051   4.463
 8287SOL    HW125760   0.705   5.135   4.449
 8287SOL    HW225761   0.735   5.014   4.554
 8288SOL     OW25762   2.054   2.520   2.634
 8288SOL    HW125763   2.033   2.617   2.637
 8288SOL    HW225764   2.125   2.503   2.565
 8289SOL     OW25765   6.699   0.213   6.421
 8289SOL    HW125766   6.653   0.134   6.380
 8289SOL    HW225767   6.649   0.242   6.502
 8290SOL     OW25768   4.925   1.681   0.971
 8290SOL    HW125769   4.830   1.703   0.993
 8290SOL    HW225770   4.946   1.716   0.880
 8291SOL     OW25771   6.065   5.441   6.374
 8291SOL    HW125772   6.036   5.480   6.287
 8291SOL    HW225773   5.984   5.411   6.426
 8292SOL     OW25774   2.597   5.305   6.716
 8292SOL    HW125775   2.645   5.263   6.794
 8292SOL    HW225776   2.592   5.404   6.730
 8293SOL     OW25777   2.074   5.154   1.483
 8293SOL    HW125778   2.004   5.163   1.554
 8293SOL    HW225779   2.163   5.176   1.521
 8294SOL     OW25780   6.753   3.478   5.051
 8294SOL    HW125781   6.688   3.487   4.976
 8294SOL    HW225782   6.712   3.516   5.135
 8295SOL     OW25783   4.902   3.472   2.871
 8295SOL    HW125784   4.865   3.561   2.898
 8295SOL    HW225785   4.911   3.468   2.772
 8296SOL     OW25786   2.933   5.904   0.318
 8296SOL    HW125787   2.973   5.827   0.368
 8296SOL    HW225788   2.947   5.988   0.370
 8297SOL     OW25789   6.537   3.071   2.532
 8297SOL    HW125790   6.515   3.059   2.629
 8297SOL    HW225791   6.573   3.163   2.517
 8298SOL     OW25792   6.835   0.559   0.928
 8298SOL    HW125793   6.808   0.541   1.023
 8298SOL    HW225794   6.821   0.477   0.873
 8299SOL     OW25795   0.261   2.859   2.172
 8299SOL    HW125796   0.238   2.823   2.081
 8299SOL    HW225797   0.356   2.839   2.193
 8300SOL     OW25798   0.581   6.790   4.449
 8300SOL    HW125799   0.487   6.820   4.431
 8300SOL    HW225800   0.601   6.801   4.547
 8301SOL     OW25801   4.868   1.107   6.948
 8301SOL    HW125802   4.850   1.125   6.852
 8301SOL    HW225803   4.966   1.091   6.961
 8302SOL     OW25804   5.086   6.671   5.634
 8302SOL    HW125805   5.083   6.680   5.534
 8302SOL    HW225806   5.009   6.721   5.674
 8303SOL     OW25807   6.203   0.440   3.217
 8303SOL    HW125808   6.171   0.372   3.151
 8303SOL    HW225809   6.301   0.428   3.233
 8304SOL     OW25810   5.691   4.748   1.420
 8304SOL    HW125811   5.746   4.831   1.416
 8304SOL    HW225812   5.616   4.754   1.354
 8305SOL     OW25813   4.581   4.875   4.216
 8305SOL    HW125814   4.505   4.903   4.157
 8305SOL    HW225815   4.552   4.800   4.275
 8306SOL     OW25816   5.913   1.563   3.749
 8306SOL    HW125817   6.006   1.584   3.720
 8306SOL    HW225818   5.903   1.464   3.759
 8307SOL     OW25819   3.450   5.671   1.677
 8307SOL    HW125820   3.358   5.706   1.659
 8307SOL    HW225821   3.444   5.575   1.705
 8308SOL     OW25822   2.478   5.845   0.208
 8308SOL    HW125823   2.465   5.919   0.274
 8308SOL    HW225824   2.572   5.811   0.215
 8309SOL     OW25825   6.140   5.619   3.066
 8309SOL    HW125826   6.047   5.655   3.072
 8309SOL    HW225827   6.156   5.579   2.976
 8310SOL     OW25828   1.537   5.067   1.251
 8310SOL    HW125829   1.602   4.992   1.262
 8310SOL    HW225830   1.559   5.140   1.316
 8311SOL     OW25831   6.145   1.033   4.238
 8311SOL    HW125832   6.161   1.058   4.143
 8311SOL    HW225833   6.054   0.992   4.247
 8312SOL     OW25834   5.672   0.628   6.278
 8312SOL    HW125835   5.702   0.612   6.372
 8312SOL    HW225836   5.583   0.584   6.263
 8313SOL     OW25837   5.780   0.431   5.898
 8313SOL    HW125838   5.682   0.451   5.908
 8313SOL    HW225839   5.832   0.487   5.963
 8314SOL     OW25840   6.609   0.016   6.270
 8314SOL    HW125841   6.529   0.029   6.210
 8314SOL    HW225842   6.618   6.941   6.291
 8315SOL     OW25843   3.736   2.945   2.778
 8315SOL    HW125844   3.761   2.970   2.872
 8315SOL    HW225845   3.670   3.011   2.743
 8316SOL     OW25846   1.939   3.192   1.309
 8316SOL    HW125847   1.970   3.268   1.252
 8316SOL    HW225848   1.851   3.158   1.276
 8317SOL     OW25849   1.478   2.438   2.905
 8317SOL    HW125850   1.431   2.397   2.827
 8317SOL    HW225851   1.442   2.400   2.990
 8318SOL     OW25852   4.282   1.657   6.537
 8318SOL    HW125853   4.256   1.630   6.629
 8318SOL    HW225854   4.302   1.756   6.536
 8319SOL     OW25855   1.381   0.651   0.516
 8319SOL    HW125856   1.467   0.599   0.520
 8319SOL    HW225857   1.402   0.748   0.502
 8320SOL     OW25858   3.251   3.952   3.371
 8320SOL    HW125859   3.168   3.906   3.403
 8320SOL    HW225860   3.267   4.034   3.426
 8321SOL     OW25861   0.141   6.964   6.952
 8321SOL    HW125862   0.083   0.008   7.000
 8321SOL    HW225863   0.152   6.882   7.008
 8322SOL     OW25864   6.382   1.316   1.261
 8322SOL    HW125865   6.400   1.391   1.198
 8322SOL    HW225866   6.288   1.322   1.294
 8323SOL     OW25867   4.034   4.836   1.674
 8323SOL    HW125868   4.059   4.918   1.623
 8323SOL    HW225869   3.937   4.816   1.660
 8324SOL     OW25870   5.470   0.710   0.727
 8324SOL    HW125871   5.420   0.781   0.678
 8324SOL    HW225872   5.413   0.674   0.801
 8325SOL     OW25873   1.044   3.686   5.174
 8325SOL    HW125874   0.996   3.772   5.188
 8325SOL    HW225875   1.141   3.704   5.157
 8326SOL     OW25876   4.091   3.802   6.068
 8326SOL    HW125877   4.012   3.862   6.081
 8326SOL    HW225878   4.077   3.717   6.118
 8327SOL     OW25879   0.553   0.839   5.558
 8327SOL    HW125880   0.555   0.869   5.654
 8327SOL    HW225881   0.574   0.916   5.499
 8328SOL     OW25882   2.911   6.429   6.255
 8328SOL    HW125883   2.935   6.347   6.204
 8328SOL    HW225884   2.961   6.431   6.342
 8329SOL     OW25885   0.605   2.121   4.447
 8329SOL    HW125886   0.670   2.198   4.442
 8329SOL    HW225887   0.558   2.112   4.359
 8330SOL     OW25888   3.371   1.093   6.686
 8330SOL    HW125889   3.299   1.084   6.617
 8330SOL    HW225890   3.357   1.177   6.738
 8331SOL     OW25891   3.479   0.602   0.564
 8331SOL    HW125892   3.395   0.592   0.618
 8331SOL    HW225893   3.457   0.645   0.476
 8332SOL     OW25894   5.900   5.310   2.060
 8332SOL    HW125895   5.842   5.241   2.102
 8332SOL    HW225896   5.945   5.364   2.132
 8333SOL     OW25897   1.385   4.796   6.844
 8333SOL    HW125898   1.404   4.829   6.751
 8333SOL    HW225899   1.434   4.711   6.859
 8334SOL     OW25900   3.213   1.889   5.644
 8334SOL    HW125901   3.288   1.899   5.709
 8334SOL    HW225902   3.243   1.920   5.554
 8335SOL     OW25903   4.539   1.233   0.256
 8335SOL    HW125904   4.618   1.171   0.261
 8335SOL    HW225905   4.487   1.228   0.341
 8336SOL     OW25906   0.710   3.879   3.043
 8336SOL    HW125907   0.809   3.875   3.028
 8336SOL    HW225908   0.681   3.975   3.042
 8337SOL     OW25909   0.297   6.720   4.108
 8337SOL    HW125910   0.317   6.804   4.058
 8337SOL    HW225911   0.328   6.641   4.055
 8338SOL     OW25912   3.649   5.327   1.122
 8338SOL    HW125913   3.737   5.371   1.102
 8338SOL    HW225914   3.663   5.229   1.134
 8339SOL     OW25915   6.948   0.890   2.035
 8339SOL    HW125916   0.007   0.926   2.081
 8339SOL    HW225917   6.973   0.860   1.943
 8340SOL     OW25918   4.970   3.855   1.025
 8340SOL    HW125919   4.911   3.935   1.036
 8340SOL    HW225920   4.934   3.797   0.952
 8341SOL     OW25921   3.238   0.193   6.662
 8341SOL    HW125922   3.283   0.154   6.581
 8341SOL    HW225923   3.306   0.246   6.714
 8342SOL     OW25924   4.541   6.588   0.135
 8342SOL    HW125925   4.602   6.653   0.090
 8342SOL    HW225926   4.506   6.628   0.220
 8343SOL     OW25927   7.000   5.432   3.442
 8343SOL    HW125928   6.977   5.521   3.404
 8343SOL    HW225929   6.915   5.381   3.460
 8344SOL     OW25930   6.588   5.736   4.807
 8344SOL    HW125931   6.498   5.739   4.762
 8344SOL    HW225932   6.577   5.707   4.902
 8345SOL     OW25933   3.487   1.932   2.538
 8345SOL    HW125934   3.445   1.987   2.610
 8345SOL    HW225935   3.569   1.978   2.505
 8346SOL     OW25936   3.741   4.635   0.376
 8346SOL    HW125937   3.682   4.557   0.354
 8346SOL    HW225938   3.835   4.603   0.390
 8347SOL     OW25939   3.026   6.342   5.684
 8347SOL    HW125940   3.043   6.391   5.599
 8347SOL    HW225941   3.092   6.372   5.753
 8348SOL     OW25942   1.833   0.728   1.474
 8348SOL    HW125943   1.819   0.805   1.412
 8348SOL    HW225944   1.828   0.759   1.569
 8349SOL     OW25945   0.979   6.565   2.117
 8349SOL    HW125946   0.982   6.467   2.139
 8349SOL    HW225947   0.903   6.608   2.167
 8350SOL     OW25948   2.954   6.809   6.286
 8350SOL    HW125949   2.922   6.897   6.320
 8350SOL    HW225950   3.040   6.785   6.331
 8351SOL     OW25951   4.836   5.152   4.537
 8351SOL    HW125952   4.771   5.115   4.472
 8351SOL    HW225953   4.875   5.237   4.501
 8352SOL     OW25954   1.142   0.305   3.493
 8352SOL    HW125955   1.214   0.246   3.530
 8352SOL    HW225956   1.064   0.249   3.465
 8353SOL     OW25957   1.096   3.878   0.741
 8353SOL    HW125958   1.083   3.828   0.827
 8353SOL    HW225959   1.024   3.851   0.676
 8354SOL     OW25960   3.247   0.159   4.387
 8354SOL    HW125961   3.269   0.162   4.485
 8354SOL    HW225962   3.328   0.182   4.334
 8355SOL     OW25963   2.044   1.348   4.697
 8355SOL    HW125964   2.082   1.396   4.776
 8355SOL    HW225965   1.967   1.399   4.660
 8356SOL     OW25966   1.511   6.551   1.715
 8356SOL    HW125967   1.540   6.539   1.620
 8356SOL    HW225968   1.413   6.528   1.722
 8357SOL     OW25969   3.898   6.943   5.487
 8357SOL    HW125970   3.857   6.897   5.408
 8357SOL    HW225971   3.941   0.006   5.457
 8358SOL     OW25972   1.201   3.313   4.426
 8358SOL    HW125973   1.134   3.381   4.453
 8358SOL    HW225974   1.279   3.316   4.488
 8359SOL     OW25975   2.756   1.411   5.057
 8359SOL    HW125976   2.708   1.373   4.978
 8359SOL    HW225977   2.807   1.493   5.029
 8360SOL     OW25978   4.270   0.331   0.094
 8360SOL    HW125979   4.311   0.418   0.069
 8360SOL    HW225980   4.223   0.340   0.182
 8361SOL     OW25981   3.754   0.558   1.327
 8361SOL    HW125982   3.687   0.623   1.363
 8361SOL    HW225983   3.709   0.469   1.314
 8362SOL     OW25984   5.254   1.992   1.230
 8362SOL    HW125985   5.295   2.047   1.302
 8362SOL    HW225986   5.211   1.911   1.270
 8363SOL     OW25987   4.799   2.631   0.139
 8363SOL    HW125988   4.759   2.721   0.157
 8363SOL    HW225989   4.894   2.643   0.109
 8364SOL     OW25990   6.763   1.604   4.136
 8364SOL    HW125991   6.851   1.647   4.157
 8364SOL    HW225992   6.720   1.652   4.060
 8365SOL     OW25993   1.647   2.334   2.670
 8365SOL    HW125994   1.681   2.345   2.576
 8365SOL    HW225995   1.565   2.390   2.682
 8366SOL     OW25996   2.892   5.052   1.037
 8366SOL    HW125997   2.887   4.976   1.102
 8366SOL    HW225998   2.819   5.117   1.056
 8367SOL     OW25999   3.678   5.794   4.797
 8367SOL    HW126000   3.741   5.786   4.874
 8367SOL    HW226001   3.612   5.719   4.800
 8368SOL     OW26002   1.142   6.157   7.001
 8368SOL    HW126003   1.161   6.188   0.072
 8368SOL    HW226004   1.126   6.236   6.942
 8369SOL     OW26005   0.574   0.325   6.496
 8369SOL    HW126006   0.612   0.409   6.534
 8369SOL    HW226007   0.584   0.251   6.563
 8370SOL     OW26008   2.299   1.235   5.846
 8370SOL    HW126009   2.332   1.285   5.926
 8370SOL    HW226010   2.371   1.231   5.777
 8371SOL     OW26011   2.608   4.262   0.759
 8371SOL    HW126012   2.620   4.361   0.752
 8371SOL    HW226013   2.570   4.227   0.674
 8372SOL     OW26014   1.762   5.973   1.975
 8372SOL    HW126015   1.695   5.934   2.039
 8372SOL    HW226016   1.715   5.998   1.890
 8373SOL     OW26017   1.427   6.587   3.965
 8373SOL    HW126018   1.403   6.490   3.975
 8373SOL    HW226019   1.527   6.596   3.964
 8374SOL     OW26020   0.415   6.878   5.129
 8374SOL    HW126021   0.377   6.838   5.045
 8374SOL    HW226022   0.513   6.892   5.119
 8375SOL     OW26023   3.761   6.476   5.442
 8375SOL    HW126024   3.686   6.423   5.482
 8375SOL    HW226025   3.812   6.521   5.515
 8376SOL     OW26026   1.318   1.340   4.318
 8376SOL    HW126027   1.232   1.317   4.363
 8376SOL    HW226028   1.379   1.261   4.319
 8377SOL     OW26029   5.743   6.125   0.604
 8377SOL    HW126030   5.785   6.215   0.611
 8377SOL    HW226031   5.784   6.075   0.527
 8378SOL     OW26032   3.539   4.941   3.086
 8378SOL    HW126033   3.517   5.036   3.061
 8378SOL    HW226034   3.458   4.884   3.072
 8379SOL     OW26035   4.835   2.956   1.734
 8379SOL    HW126036   4.789   2.878   1.693
 8379SOL    HW226037   4.776   2.998   1.803
 8380SOL     OW26038   0.291   0.390   0.664
 8380SOL    HW126039   0.210   0.428   0.710
 8380SOL    HW226040   0.363   0.376   0.732
 8381SOL     OW26041   0.405   2.141   4.252
 8381SOL    HW126042   0.395   2.046   4.224
 8381SOL    HW226043   0.458   2.191   4.183
 8382SOL     OW26044   2.216   6.735   1.860
 8382SOL    HW126045   2.303   6.750   1.906
 8382SOL    HW226046   2.147   6.795   1.899
 8383SOL     OW26047   3.105   6.995   6.028
 8383SOL    HW126048   3.018   6.952   6.005
 8383SOL    HW226049   3.161   7.002   5.945
 8384SOL     OW26050   5.999   1.832   1.761
 8384SOL    HW126051   6.066   1.902   1.736
 8384SOL    HW226052   5.948   1.803   1.680
 8385SOL     OW26053   5.061   2.355   6.801
 8385SOL    HW126054   5.036   2.324   6.892
 8385SOL    HW226055   4.983   2.401   6.758
 8386SOL     OW26056   2.035   6.156   1.785
 8386SOL    HW126057   1.945   6.188   1.754
 8386SOL    HW226058   2.023   6.086   1.856
 8387SOL     OW26059   1.081   1.428   1.193
 8387SOL    HW126060   1.041   1.341   1.163
 8387SOL    HW226061   1.036   1.458   1.277
 8388SOL     OW26062   2.204   6.606   0.466
 8388SOL    HW126063   2.108   6.618   0.491
 8388SOL    HW226064   2.217   6.515   0.426
 8389SOL     OW26065   0.134   3.191   4.068
 8389SOL    HW126066   0.199   3.267   4.071
 8389SOL    HW226067   0.184   3.104   4.079
 8390SOL     OW26068   3.591   6.705   0.390
 8390SOL    HW126069   3.639   6.642   0.451
 8390SOL    HW226070   3.494   6.679   0.386
 8391SOL     OW26071   5.308   5.498   1.261
 8391SOL    HW126072   5.395   5.452   1.278
 8391SOL    HW226073   5.269   5.528   1.348
 8392SOL     OW26074   6.855   5.364   5.267
 8392SOL    HW126075   6.865   5.273   5.307
 8392SOL    HW226076   6.912   5.370   5.185
 8393SOL     OW26077   0.302   6.843   3.130
 8393SOL    HW126078   0.358   6.761   3.118
 8393SOL    HW226079   0.344   6.920   3.081
 8394SOL     OW26080   0.602   3.207   1.916
 8394SOL    HW126081   0.616   3.222   1.818
 8394SOL    HW226082   0.535   3.134   1.929
 8395SOL     OW26083   1.868   6.198   4.422
 8395SOL    HW126084   1.943   6.139   4.452
 8395SOL    HW226085   1.833   6.250   4.500
 8396SOL     OW26086   4.273   5.087   2.438
 8396SOL    HW126087   4.259   5.032   2.520
 8396SOL    HW226088   4.186   5.097   2.389
 8397SOL     OW26089   2.387   1.082   3.155
 8397SOL    HW126090   2.300   1.037   3.131
 8397SOL    HW226091   2.368   1.165   3.208
 8398SOL     OW26092   4.320   2.522   6.506
 8398SOL    HW126093   4.376   2.477   6.577
 8398SOL    HW226094   4.343   2.619   6.502
 8399SOL     OW26095   5.971   0.219   0.625
 8399SOL    HW126096   6.029   0.234   0.545
 8399SOL    HW226097   5.942   0.123   0.627
 8400SOL     OW26098   1.441   0.933   4.253
 8400SOL    HW126099   1.395   0.971   4.173
 8400SOL    HW226100   1.467   1.007   4.315
 8401SOL     OW26101   3.042   1.901   6.121
 8401SOL    HW126102   3.070   1.832   6.054
 8401SOL    HW226103   3.056   1.992   6.084
 8402SOL     OW26104   4.071   1.967   5.892
 8402SOL    HW126105   3.992   2.015   5.852
 8402SOL    HW226106   4.108   1.904   5.824
 8403SOL     OW26107   0.632   2.081   3.886
 8403SOL    HW126108   0.657   2.176   3.872
 8403SOL    HW226109   0.682   2.044   3.964
 8404SOL     OW26110   4.209   6.442   5.962
 8404SOL    HW126111   4.291   6.385   5.964
 8404SOL    HW226112   4.182   6.459   5.867
 8405SOL     OW26113   2.558   0.807   6.105
 8405SOL    HW126114   2.584   0.809   6.201
 8405SOL    HW226115   2.465   0.771   6.096
 8406SOL     OW26116   5.408   6.947   0.740
 8406SOL    HW126117   5.493   6.996   0.720
 8406SOL    HW226118   5.429   6.863   0.790
 8407SOL     OW26119   3.864   6.157   3.802
 8407SOL    HW126120   3.948   6.112   3.832
 8407SOL    HW226121   3.885   6.222   3.729
 8408SOL     OW26122   5.388   2.877   2.040
 8408SOL    HW126123   5.376   2.977   2.039
 8408SOL    HW226124   5.475   2.854   1.995
 8409SOL     OW26125   5.720   3.212   3.914
 8409SOL    HW126126   5.715   3.309   3.890
 8409SOL    HW226127   5.699   3.200   4.011
 8410SOL     OW26128   4.966   0.176   1.828
 8410SOL    HW126129   5.049   0.232   1.826
 8410SOL    HW226130   4.888   0.231   1.799
 8411SOL     OW26131   0.307   5.213   6.900
 8411SOL    HW126132   0.263   5.167   6.823
 8411SOL    HW226133   0.401   5.180   6.909
 8412SOL     OW26134   3.589   2.137   1.712
 8412SOL    HW126135   3.662   2.139   1.644
 8412SOL    HW226136   3.623   2.172   1.799
 8413SOL     OW26137   3.916   5.923   6.930
 8413SOL    HW126138   3.830   5.873   6.921
 8413SOL    HW226139   3.909   6.010   6.880
 8414SOL     OW26140   4.447   5.263   3.228
 8414SOL    HW126141   4.396   5.348   3.211
 8414SOL    HW226142   4.382   5.186   3.232
 8415SOL     OW26143   6.697   5.862   3.218
 8415SOL    HW126144   6.755   5.845   3.298
 8415SOL    HW226145   6.629   5.931   3.241
 8416SOL     OW26146   5.713   3.420   2.619
 8416SOL    HW126147   5.765   3.414   2.704
 8416SOL    HW226148   5.661   3.335   2.606
 8417SOL     OW26149   1.319   5.088   6.033
 8417SOL    HW126150   1.275   5.094   5.943
 8417SOL    HW226151   1.413   5.057   6.022
 8418SOL     OW26152   5.802   5.215   1.277
 8418SOL    HW126153   5.809   5.151   1.201
 8418SOL    HW226154   5.864   5.292   1.262
 8419SOL     OW26155   4.936   0.809   2.603
 8419SOL    HW126156   5.029   0.780   2.581
 8419SOL    HW226157   4.872   0.738   2.574
 8420SOL     OW26158   4.138   6.772   0.428
 8420SOL    HW126159   4.061   6.749   0.487
 8420SOL    HW226160   4.122   6.860   0.384
 8421SOL     OW26161   2.996   5.741   0.021
 8421SOL    HW126162   3.054   5.820   7.021
 8421SOL    HW226163   3.023   5.705   0.111
 8422SOL     OW26164   4.285   1.149   1.136
 8422SOL    HW126165   4.343   1.157   1.217
 8422SOL    HW226166   4.189   1.159   1.162
 8423SOL     OW26167   4.278   4.795   5.763
 8423SOL    HW126168   4.186   4.828   5.780
 8423SOL    HW226169   4.314   4.751   5.846
 8424SOL     OW26170   1.967   2.312   3.182
 8424SOL    HW126171   1.872   2.319   3.152
 8424SOL    HW226172   1.999   2.401   3.212
 8425SOL     OW26173   5.304   5.968   0.470
 8425SOL    HW126174   5.288   6.052   0.419
 8425SOL    HW226175   5.298   5.986   0.568
 8426SOL     OW26176   3.124   3.594   4.413
 8426SOL    HW126177   3.077   3.518   4.458
 8426SOL    HW226178   3.203   3.622   4.467
 8427SOL     OW26179   3.276   3.317   5.033
 8427SOL    HW126180   3.197   3.256   5.030
 8427SOL    HW226181   3.284   3.357   5.124
 8428SOL     OW26182   0.399   4.113   1.753
 8428SOL    HW126183   0.300   4.121   1.769
 8428SOL    HW226184   0.437   4.047   1.816
 8429SOL     OW26185   1.874   4.351   3.679
 8429SOL    HW126186   1.895   4.301   3.763
 8429SOL    HW226187   1.792   4.408   3.693
 8430SOL     OW26188   3.445   5.181   4.677
 8430SOL    HW126189   3.376   5.128   4.626
 8430SOL    HW226190   3.405   5.268   4.706
 8431SOL     OW26191   3.013   5.375   0.891
 8431SOL    HW126192   2.988   5.302   0.828
 8431SOL    HW226193   3.084   5.432   0.850
 8432SOL     OW26194   5.247   6.520   5.982
 8432SOL    HW126195   5.154   6.552   5.997
 8432SOL    HW226196   5.251   6.421   5.987
 8433SOL     OW26197   5.639   1.696   0.405
 8433SOL    HW126198   5.685   1.608   0.390
 8433SOL    HW226199   5.683   1.766   0.349
 8434SOL     OW26200   3.501   6.783   4.652
 8434SOL    HW126201   3.552   6.793   4.567
 8434SOL    HW226202   3.519   6.693   4.692
 8435SOL     OW26203   5.780   0.814   1.381
 8435SOL    HW126204   5.722   0.811   1.462
 8435SOL    HW226205   5.826   0.726   1.369
 8436SOL     OW26206   3.398   0.326   4.249
 8436SOL    HW126207   3.471   0.306   4.184
 8436SOL    HW226208   3.421   0.408   4.301
 8437SOL     OW26209   2.142   0.307   3.638
 8437SOL    HW126210   2.054   0.285   3.679
 8437SOL    HW226211   2.207   0.332   3.710
 8438SOL     OW26212   2.685   4.926   2.332
 8438SOL    HW126213   2.732   4.844   2.297
 8438SOL    HW226214   2.589   4.924   2.302
 8439SOL     OW26215   6.363   5.210   2.287
 8439SOL    HW126216   6.305   5.203   2.368
 8439SOL    HW226217   6.448   5.160   2.302
 8440SOL     OW26218   0.882   2.005   3.344
 8440SOL    HW126219   0.872   1.908   3.366
 8440SOL    HW226220   0.821   2.028   3.268
 8441SOL     OW26221   6.006   0.204   0.188
 8441SOL    HW126222   6.053   0.235   0.270
 8441SOL    HW226223   5.914   0.243   0.186
 8442SOL     OW26224   3.326   1.943   5.413
 8442SOL    HW126225   3.330   1.994   5.327
 8442SOL    HW226226   3.374   1.856   5.401
 8443SOL     OW26227   1.633   5.527   3.807
 8443SOL    HW126228   1.539   5.558   3.793
 8443SOL    HW226229   1.633   5.450   3.871
 8444SOL     OW26230   3.124   6.120   3.931
 8444SOL    HW126231   3.051   6.117   3.864
 8444SOL    HW226232   3.107   6.051   4.002
 8445SOL     OW26233   3.716   6.004   1.020
 8445SOL    HW126234   3.807   6.009   0.980
 8445SOL    HW226235   3.650   5.977   0.949
 8446SOL     OW26236   5.039   5.175   6.415
 8446SOL    HW126237   4.940   5.164   6.414
 8446SOL    HW226238   5.082   5.094   6.374
 8447SOL     OW26239   4.845   2.332   2.309
 8447SOL    HW126240   4.842   2.290   2.399
 8447SOL    HW226241   4.804   2.423   2.312
 8448SOL     OW26242   4.857   6.096   3.816
 8448SOL    HW126243   4.797   6.122   3.892
 8448SOL    HW226244   4.936   6.158   3.814
 8449SOL     OW26245   6.715   2.039   4.066
 8449SOL    HW126246   6.790   1.997   4.116
 8449SOL    HW226247   6.665   1.969   4.015
 8450SOL     OW26248   1.191   5.797   1.400
 8450SOL    HW126249   1.147   5.722   1.350
 8450SOL    HW226250   1.139   5.817   1.483
 8451SOL     OW26251   4.280   2.437   7.017
 8451SOL    HW126252   4.281   2.524   0.045
 8451SOL    HW226253   4.262   2.362   0.058
 8452SOL     OW26254   6.645   0.969   3.121
 8452SOL    HW126255   6.650   0.955   3.022
 8452SOL    HW226256   6.725   1.020   3.152
 8453SOL     OW26257   6.917   4.163   6.154
 8453SOL    HW126258   6.916   4.123   6.063
 8453SOL    HW226259   6.995   4.129   6.205
 8454SOL     OW26260   6.960   6.534   0.699
 8454SOL    HW126261   6.902   6.452   0.690
 8454SOL    HW226262   6.906   6.610   0.732
 8455SOL     OW26263   5.634   2.397   1.466
 8455SOL    HW126264   5.729   2.428   1.474
 8455SOL    HW226265   5.586   2.414   1.552
 8456SOL     OW26266   4.991   5.977   3.085
 8456SOL    HW126267   5.048   6.014   3.158
 8456SOL    HW226268   5.001   6.032   3.002
 8457SOL     OW26269   6.476   6.354   4.186
 8457SOL    HW126270   6.527   6.335   4.270
 8457SOL    HW226271   6.499   6.445   4.153
 8458SOL     OW26272   2.642   1.602   6.359
 8458SOL    HW126273   2.739   1.628   6.355
 8458SOL    HW226274   2.587   1.683   6.378
 8459SOL     OW26275   3.003   6.538   2.107
 8459SOL    HW126276   3.096   6.554   2.074
 8459SOL    HW226277   3.003   6.461   2.171
 8460SOL     OW26278   4.662   3.556   5.535
 8460SOL    HW126279   4.623   3.489   5.471
 8460SOL    HW226280   4.593   3.626   5.555
 8461SOL     OW26281   6.899   3.927   3.807
 8461SOL    HW126282   6.973   3.984   3.772
 8461SOL    HW226283   6.830   3.985   3.851
 8462SOL     OW26284   3.298   2.397   0.244
 8462SOL    HW126285   3.268   2.493   0.242
 8462SOL    HW226286   3.320   2.368   0.151
 8463SOL     OW26287   6.085   6.684   0.364
 8463SOL    HW126288   6.140   6.624   0.422
 8463SOL    HW226289   6.046   6.758   0.419
 8464SOL     OW26290   5.477   3.612   5.637
 8464SOL    HW126291   5.404   3.602   5.704
 8464SOL    HW226292   5.475   3.704   5.598
 8465SOL     OW26293   1.624   2.723   1.119
 8465SOL    HW126294   1.543   2.752   1.068
 8465SOL    HW226295   1.649   2.630   1.091
 8466SOL     OW26296   0.921   6.613   5.314
 8466SOL    HW126297   0.825   6.615   5.286
 8466SOL    HW226298   0.930   6.653   5.405
 8467SOL     OW26299   4.296   0.264   1.656
 8467SOL    HW126300   4.278   0.211   1.573
 8467SOL    HW226301   4.394   0.262   1.676
 8468SOL     OW26302   4.530   2.529   6.888
 8468SOL    HW126303   4.591   2.459   6.850
 8468SOL    HW226304   4.441   2.487   6.908
 8469SOL     OW26305   4.129   1.622   5.591
 8469SOL    HW126306   4.125   1.539   5.646
 8469SOL    HW226307   4.169   1.602   5.502
 8470SOL     OW26308   1.317   4.720   0.103
 8470SOL    HW126309   1.369   4.741   0.020
 8470SOL    HW226310   1.352   4.776   0.178
 8471SOL     OW26311   3.769   0.869   4.175
 8471SOL    HW126312   3.702   0.884   4.102
 8471SOL    HW226313   3.834   0.798   4.147
 8472SOL     OW26314   6.494   0.531   5.359
 8472SOL    HW126315   6.533   0.495   5.444
 8472SOL    HW226316   6.455   0.621   5.376
 8473SOL     OW26317   6.705   6.097   0.923
 8473SOL    HW126318   6.638   6.026   0.945
 8473SOL    HW226319   6.797   6.059   0.928
 8474SOL     OW26320   3.461   3.162   2.423
 8474SOL    HW126321   3.475   3.149   2.521
 8474SOL    HW226322   3.534   3.115   2.372
 8475SOL     OW26323   0.150   2.304   3.518
 8475SOL    HW126324   0.050   2.295   3.518
 8475SOL    HW226325   0.178   2.364   3.443
 8476SOL     OW26326   6.797   1.997   0.920
 8476SOL    HW126327   6.761   1.911   0.885
 8476SOL    HW226328   6.732   2.036   0.986
 8477SOL     OW26329   4.789   6.857   1.833
 8477SOL    HW126330   4.730   6.937   1.848
 8477SOL    HW226331   4.733   6.774   1.828
 8478SOL     OW26332   1.732   0.136   6.343
 8478SOL    HW126333   1.699   0.223   6.307
 8478SOL    HW226334   1.764   0.079   6.267
 8479SOL     OW26335   0.320   2.969   0.872
 8479SOL    HW126336   0.319   3.032   0.795
 8479SOL    HW226337   0.351   3.017   0.954
 8480SOL     OW26338   4.574   2.407   6.582
 8480SOL    HW126339   4.583   2.349   6.663
 8480SOL    HW226340   4.649   2.388   6.519
 8481SOL     OW26341   4.566   2.626   4.731
 8481SOL    HW126342   4.481   2.619   4.680
 8481SOL    HW226343   4.551   2.595   4.825
 8482SOL     OW26344   4.758   5.594   2.314
 8482SOL    HW126345   4.779   5.607   2.411
 8482SOL    HW226346   4.665   5.626   2.296
 8483SOL     OW26347   4.132   6.572   2.105
 8483SOL    HW126348   4.190   6.650   2.128
 8483SOL    HW226349   4.064   6.557   2.177
 8484SOL     OW26350   0.105   6.261   3.032
 8484SOL    HW126351   0.121   6.246   2.934
 8484SOL    HW226352   0.088   6.358   3.049
 8485SOL     OW26353   3.618   2.754   0.594
 8485SOL    HW126354   3.658   2.683   0.536
 8485SOL    HW226355   3.520   2.760   0.576
 8486SOL     OW26356   2.328   1.601   2.407
 8486SOL    HW126357   2.240   1.555   2.414
 8486SOL    HW226358   2.329   1.680   2.468
 8487SOL     OW26359   5.927   1.290   5.918
 8487SOL    HW126360   6.013   1.267   5.873
 8487SOL    HW226361   5.853   1.289   5.851
 8488SOL     OW26362   5.015   6.008   0.744
 8488SOL    HW126363   4.944   6.054   0.692
 8488SOL    HW226364   5.003   6.028   0.841
 8489SOL     OW26365   6.221   2.023   1.644
 8489SOL    HW126366   6.258   1.939   1.604
 8489SOL    HW226367   6.296   2.084   1.668
 8490SOL     OW26368   4.637   6.833   3.940
 8490SOL    HW126369   4.699   6.763   3.905
 8490SOL    HW226370   4.684   6.887   4.010
 8491SOL     OW26371   3.184   5.877   1.258
 8491SOL    HW126372   3.101   5.919   1.295
 8491SOL    HW226373   3.212   5.927   1.175
 8492SOL     OW26374   4.831   3.823   5.492
 8492SOL    HW126375   4.801   3.775   5.574
 8492SOL    HW226376   4.848   3.757   5.419
 8493SOL     OW26377   2.207   2.860   6.628
 8493SOL    HW126378   2.259   2.784   6.589
 8493SOL    HW226379   2.269   2.923   6.674
 8494SOL     OW26380   4.045   5.757   1.210
 8494SOL    HW126381   4.090   5.698   1.143
 8494SOL    HW226382   3.960   5.715   1.240
 8495SOL     OW26383   6.054   4.821   2.573
 8495SOL    HW126384   5.977   4.780   2.623
 8495SOL    HW226385   6.020   4.895   2.516
 8496SOL     OW26386   1.550   1.854   1.949
 8496SOL    HW126387   1.516   1.930   1.894
 8496SOL    HW226388   1.641   1.876   1.984
 8497SOL     OW26389   6.679   0.811   3.630
 8497SOL    HW126390   6.611   0.787   3.561
 8497SOL    HW226391   6.755   0.861   3.587
 8498SOL     OW26392   6.500   6.041   3.242
 8498SOL    HW126393   6.492   6.084   3.152
 8498SOL    HW226394   6.416   6.055   3.294
 8499SOL     OW26395   2.099   4.633   6.567
 8499SOL    HW126396   2.042   4.674   6.639
 8499SOL    HW226397   2.109   4.535   6.584
 8500SOL     OW26398   1.542   6.399   5.465
 8500SOL    HW126399   1.491   6.359   5.388
 8500SOL    HW226400   1.489   6.474   5.505
 8501SOL     OW26401   6.901   2.395   0.097
 8501SOL    HW126402   6.808   2.428   0.076
 8501SOL    HW226403   6.961   2.415   0.020
 8502SOL     OW26404   0.636   3.262   1.137
 8502SOL    HW126405   0.705   3.311   1.083
 8502SOL    HW226406   0.665   3.257   1.232
 8503SOL     OW26407   0.631   6.508   4.041
 8503SOL    HW126408   0.617   6.585   4.104
 8503SOL    HW226409   0.623   6.422   4.091
 8504SOL     OW26410   2.324   4.794   2.715
 8504SOL    HW126411   2.258   4.864   2.689
 8504SOL    HW226412   2.365   4.818   2.803
 8505SOL     OW26413   5.548   3.598   3.316
 8505SOL    HW126414   5.617   3.537   3.278
 8505SOL    HW226415   5.518   3.563   3.405
 8506SOL     OW26416   0.717   0.556   6.520
 8506SOL    HW126417   0.762   0.571   6.608
 8506SOL    HW226418   0.786   0.535   6.451
 8507SOL     OW26419   3.379   0.402   4.831
 8507SOL    HW126420   3.353   0.494   4.801
 8507SOL    HW226421   3.306   0.365   4.889
 8508SOL     OW26422   5.078   1.708   4.626
 8508SOL    HW126423   5.030   1.762   4.557
 8508SOL    HW226424   5.124   1.770   4.690
 8509SOL     OW26425   4.350   1.506   4.148
 8509SOL    HW126426   4.350   1.606   4.145
 8509SOL    HW226427   4.428   1.471   4.096
 8510SOL     OW26428   5.809   4.280   2.676
 8510SOL    HW126429   5.854   4.300   2.589
 8510SOL    HW226430   5.848   4.338   2.748
 8511SOL     OW26431   6.189   4.161   2.063
 8511SOL    HW126432   6.259   4.218   2.105
 8511SOL    HW226433   6.223   4.068   2.052
 8512SOL     OW26434   2.730   1.860   1.743
 8512SOL    HW126435   2.830   1.856   1.737
 8512SOL    HW226436   2.702   1.949   1.778
 8513SOL     OW26437   5.929   5.370   1.057
 8513SOL    HW126438   5.966   5.353   0.965
 8513SOL    HW226439   5.998   5.346   1.125
 8514SOL     OW26440   2.410   2.644   4.244
 8514SOL    HW126441   2.364   2.599   4.321
 8514SOL    HW226442   2.505   2.615   4.240
 8515SOL     OW26443   4.622   2.534   0.755
 8515SOL    HW126444   4.636   2.630   0.730
 8515SOL    HW226445   4.683   2.476   0.700
 8516SOL     OW26446   6.216   2.028   2.008
 8516SOL    HW126447   6.149   2.061   2.074
 8516SOL    HW226448   6.203   1.930   1.993
 8517SOL     OW26449   1.060   2.754   6.398
 8517SOL    HW126450   1.045   2.675   6.457
 8517SOL    HW226451   1.056   2.725   6.302
 8518SOL     OW26452   4.291   4.648   6.823
 8518SOL    HW126453   4.225   4.705   6.871
 8518SOL    HW226454   4.383   4.668   6.857
 8519SOL     OW26455   1.602   4.961   1.845
 8519SOL    HW126456   1.649   4.990   1.929
 8519SOL    HW226457   1.625   5.024   1.771
 8520SOL     OW26458   2.929   2.245   0.413
 8520SOL    HW126459   3.018   2.208   0.388
 8520SOL    HW226460   2.876   2.177   0.463
 8521SOL     OW26461   1.539   5.211   6.212
 8521SOL    HW126462   1.456   5.201   6.157
 8521SOL    HW226463   1.555   5.127   6.264
 8522SOL     OW26464   1.080   5.783   1.673
 8522SOL    HW126465   1.110   5.688   1.668
 8522SOL    HW226466   1.004   5.791   1.737
 8523SOL     OW26467   3.126   0.131   6.261
 8523SOL    HW126468   3.115   0.079   6.176
 8523SOL    HW226469   3.045   0.117   6.318
 8524SOL     OW26470   0.969   2.219   4.854
 8524SOL    HW126471   0.943   2.152   4.785
 8524SOL    HW226472   0.893   2.284   4.867
 8525SOL     OW26473   6.523   4.176   3.107
 8525SOL    HW126474   6.477   4.226   3.180
 8525SOL    HW226475   6.518   4.078   3.125
 8526SOL     OW26476   3.675   5.385   0.161
 8526SOL    HW126477   3.635   5.354   0.075
 8526SOL    HW226478   3.642   5.327   0.236
 8527SOL     OW26479   2.880   0.473   5.608
 8527SOL    HW126480   2.788   0.436   5.621
 8527SOL    HW226481   2.893   0.496   5.512
 8528SOL     OW26482   4.723   2.897   6.044
 8528SOL    HW126483   4.693   2.811   6.085
 8528SOL    HW226484   4.797   2.880   5.979
 8529SOL     OW26485   0.537   6.969   0.883
 8529SOL    HW126486   0.456   6.994   0.936
 8529SOL    HW226487   0.619   7.005   0.927
 8530SOL     OW26488   2.630   3.468   5.385
 8530SOL    HW126489   2.652   3.410   5.306
 8530SOL    HW226490   2.710   3.477   5.443
 8531SOL     OW26491   6.554   4.722   2.021
 8531SOL    HW126492   6.561   4.639   1.966
 8531SOL    HW226493   6.587   4.704   2.114
 8532SOL     OW26494   4.207   4.815   4.646
 8532SOL    HW126495   4.159   4.830   4.733
 8532SOL    HW226496   4.140   4.794   4.575
 8533SOL     OW26497   1.920   0.120   5.571
 8533SOL    HW126498   1.944   0.159   5.482
 8533SOL    HW226499   1.821   0.126   5.584
 8534SOL     OW26500   6.340   3.054   4.648
 8534SOL    HW126501   6.430   3.015   4.632
 8534SOL    HW226502   6.270   2.992   4.613
 8535SOL     OW26503   7.007   1.746   5.150
 8535SOL    HW126504   0.069   1.759   5.100
 8535SOL    HW226505   6.929   1.773   5.093
 8536SOL     OW26506   5.564   2.444   4.859
 8536SOL    HW126507   5.625   2.393   4.919
 8536SOL    HW226508   5.469   2.421   4.881
 8537SOL     OW26509   5.460   1.727   2.700
 8537SOL    HW126510   5.488   1.726   2.604
 8537SOL    HW226511   5.464   1.633   2.736
 8538SOL     OW26512   0.678   1.472   6.175
 8538SOL    HW126513   0.777   1.466   6.169
 8538SOL    HW226514   0.643   1.528   6.099
 8539SOL     OW26515   6.376   1.243   1.846
 8539SOL    HW126516   6.471   1.270   1.829
 8539SOL    HW226517   6.374   1.166   1.910
 8540SOL     OW26518   4.817   1.360   0.427
 8540SOL    HW126519   4.830   1.298   0.349
 8540SOL    HW226520   4.757   1.316   0.494
 8541SOL     OW26521   3.059   2.214   4.318
 8541SOL    HW126522   3.064   2.312   4.298
 8541SOL    HW226523   2.972   2.178   4.283
 8542SOL     OW26524   2.494   4.439   6.748
 8542SOL    HW126525   2.433   4.517   6.764
 8542SOL    HW226526   2.550   4.457   6.667
 8543SOL     OW26527   3.361   1.413   0.297
 8543SOL    HW126528   3.315   1.415   0.385
 8543SOL    HW226529   3.305   1.363   0.231
 8544SOL     OW26530   5.543   2.879   4.730
 8544SOL    HW126531   5.538   2.842   4.822
 8544SOL    HW226532   5.531   2.805   4.663
 8545SOL     OW26533   4.499   6.979   4.406
 8545SOL    HW126534   4.585   6.985   4.355
 8545SOL    HW226535   4.432   6.928   4.352
 8546SOL     OW26536   0.576   0.323   2.750
 8546SOL    HW126537   0.496   0.332   2.691
 8546SOL    HW226538   0.592   0.410   2.798
 8547SOL     OW26539   1.027   6.563   6.658
 8547SOL    HW126540   1.090   6.641   6.658
 8547SOL    HW226541   0.935   6.594   6.634
 8548SOL     OW26542   6.996   3.051   5.754
 8548SOL    HW126543   6.937   2.971   5.764
 8548SOL    HW226544   0.012   3.053   5.662
 8549SOL     OW26545   0.865   2.814   4.445
 8549SOL    HW126546   0.820   2.874   4.511
 8549SOL    HW226547   0.855   2.852   4.353
 8550SOL     OW26548   1.287   5.242   0.182
 8550SOL    HW126549   1.209   5.223   0.121
 8550SOL    HW226550   1.372   5.221   0.134
 8551SOL     OW26551   2.599   2.773   0.081
 8551SOL    HW126552   2.669   2.770   0.151
 8551SOL    HW226553   2.519   2.721   0.111
 8552SOL     OW26554   2.243   6.998   2.636
 8552SOL    HW126555   2.211   0.046   2.573
 8552SOL    HW226556   2.343   6.992   2.632
 8553SOL     OW26557   4.338   4.954   6.976
 8553SOL    HW126558   4.340   5.050   6.947
 8553SOL    HW226559   4.249   4.915   6.953
 8554SOL     OW26560   0.731   4.762   0.486
 8554SOL    HW126561   0.650   4.812   0.456
 8554SOL    HW226562   0.797   4.756   0.411
 8555SOL     OW26563   3.101   0.747   3.003
 8555SOL    HW126564   3.182   0.690   3.009
 8555SOL    HW226565   3.078   0.782   3.093
 8556SOL     OW26566   2.034   6.384   5.041
 8556SOL    HW126567   1.978   6.412   5.119
 8556SOL    HW226568   2.067   6.290   5.055
 8557SOL     OW26569   6.778   6.746   2.522
 8557SOL    HW126570   6.811   6.750   2.616
 8557SOL    HW226571   6.780   6.838   2.483
 8558SOL     OW26572   2.592   5.127   2.825
 8558SOL    HW126573   2.513   5.153   2.881
 8558SOL    HW226574   2.675   5.133   2.879
 8559SOL     OW26575   1.934   0.127   2.542
 8559SOL    HW126576   1.931   0.030   2.565
 8559SOL    HW226577   1.865   0.147   2.472
 8560SOL     OW26578   0.646   5.823   1.698
 8560SOL    HW126579   0.644   5.770   1.613
 8560SOL    HW226580   0.604   5.913   1.682
 8561SOL     OW26581   3.579   0.389   3.079
 8561SOL    HW126582   3.586   0.290   3.076
 8561SOL    HW226583   3.645   0.429   3.014
 8562SOL     OW26584   4.132   6.528   6.238
 8562SOL    HW126585   4.144   6.512   6.140
 8562SOL    HW226586   4.200   6.475   6.289
 8563SOL     OW26587   0.950   4.981   1.139
 8563SOL    HW126588   1.011   4.901   1.141
 8563SOL    HW226589   0.985   5.048   1.074
 8564SOL     OW26590   3.110   0.447   5.113
 8564SOL    HW126591   3.053   0.366   5.113
 8564SOL    HW226592   3.153   0.458   5.203
 8565SOL     OW26593   3.648   5.071   1.123
 8565SOL    HW126594   3.566   5.014   1.113
 8565SOL    HW226595   3.729   5.017   1.100
 8566SOL     OW26596   0.784   6.364   1.377
 8566SOL    HW126597   0.804   6.407   1.289
 8566SOL    HW226598   0.870   6.339   1.421
 8567SOL     OW26599   0.204   1.766   3.311
 8567SOL    HW126600   0.251   1.716   3.237
 8567SOL    HW226601   0.174   1.855   3.276
 8568SOL     OW26602   5.800   1.615   6.432
 8568SOL    HW126603   5.769   1.701   6.473
 8568SOL    HW226604   5.864   1.569   6.495
 8569SOL     OW26605   4.323   1.657   5.391
 8569SOL    HW126606   4.403   1.705   5.426
 8569SOL    HW226607   4.292   1.700   5.307
 8570SOL     OW26608   1.754   1.601   4.853
 8570SOL    HW126609   1.776   1.560   4.765
 8570SOL    HW226610   1.680   1.667   4.841
 8571SOL     OW26611   0.195   6.005   5.731
 8571SOL    HW126612   0.212   6.000   5.829
 8571SOL    HW226613   0.220   5.917   5.689
 8572SOL     OW26614   2.673   4.464   6.010
 8572SOL    HW126615   2.710   4.392   6.069
 8572SOL    HW226616   2.608   4.520   6.062
 8573SOL     OW26617   3.390   6.062   6.213
 8573SOL    HW126618   3.379   5.976   6.264
 8573SOL    HW226619   3.445   6.044   6.131
 8574SOL     OW26620   6.796   6.764   6.248
 8574SOL    HW126621   6.879   6.752   6.194
 8574SOL    HW226622   6.808   6.719   6.337
 8575SOL     OW26623   2.264   2.275   3.336
 8575SOL    HW126624   2.191   2.214   3.306
 8575SOL    HW226625   2.281   2.263   3.434
 8576SOL     OW26626   1.412   4.200   5.338
 8576SOL    HW126627   1.371   4.264   5.402
 8576SOL    HW226628   1.489   4.244   5.292
 8577SOL     OW26629   1.573   6.577   4.806
 8577SOL    HW126630   1.512   6.508   4.845
 8577SOL    HW226631   1.621   6.539   4.727
 8578SOL     OW26632   6.102   6.143   4.612
 8578SOL    HW126633   6.160   6.114   4.535
 8578SOL    HW226634   6.042   6.068   4.639
 8579SOL     OW26635   2.220   0.363   2.198
 8579SOL    HW126636   2.198   0.345   2.294
 8579SOL    HW226637   2.135   0.363   2.145
 8580SOL     OW26638   2.253   5.884   1.125
 8580SOL    HW126639   2.194   5.898   1.046
 8580SOL    HW226640   2.315   5.808   1.108
 8581SOL     OW26641   3.340   3.617   1.420
 8581SOL    HW126642   3.268   3.548   1.406
 8581SOL    HW226643   3.408   3.581   1.484
 8582SOL     OW26644   4.753   4.201   4.772
 8582SOL    HW126645   4.662   4.237   4.793
 8582SOL    HW226646   4.823   4.260   4.813
 8583SOL     OW26647   4.623   0.556   4.239
 8583SOL    HW126648   4.692   0.605   4.292
 8583SOL    HW226649   4.642   0.458   4.241
 8584SOL     OW26650   0.286   5.789   6.658
 8584SOL    HW126651   0.344   5.811   6.579
 8584SOL    HW226652   0.333   5.723   6.716
 8585SOL     OW26653   6.496   0.603   6.950
 8585SOL    HW126654   6.518   0.661   6.872
 8585SOL    HW226655   6.432   0.531   6.922
 8586SOL     OW26656   2.913   6.912   1.972
 8586SOL    HW126657   2.879   6.910   2.066
 8586SOL    HW226658   2.941   7.005   1.949
 8587SOL     OW26659   1.226   0.409   4.283
 8587SOL    HW126660   1.192   0.344   4.352
 8587SOL    HW226661   1.150   0.454   4.239
 8588SOL     OW26662   4.101   0.831   0.435
 8588SOL    HW126663   4.158   0.799   0.360
 8588SOL    HW226664   4.016   0.777   0.437
 8589SOL     OW26665   5.286   2.851   5.584
 8589SOL    HW126666   5.257   2.823   5.493
 8589SOL    HW226667   5.345   2.932   5.577
 8590SOL     OW26668   0.053   6.683   2.837
 8590SOL    HW126669   0.107   6.643   2.763
 8590SOL    HW226670   0.055   6.783   2.830
 8591SOL     OW26671   0.391   4.321   0.297
 8591SOL    HW126672   0.376   4.366   0.385
 8591SOL    HW226673   0.403   4.222   0.311
 8592SOL     OW26674   5.911   2.366   6.826
 8592SOL    HW126675   5.910   2.267   6.807
 8592SOL    HW226676   5.880   2.416   6.745
 8593SOL     OW26677   2.659   1.067   0.665
 8593SOL    HW126678   2.627   1.161   0.653
 8593SOL    HW226679   2.650   1.018   0.578
 8594SOL     OW26680   4.508   2.531   4.993
 8594SOL    HW126681   4.546   2.607   5.046
 8594SOL    HW226682   4.410   2.524   5.010
 8595SOL     OW26683   0.412   1.026   3.316
 8595SOL    HW126684   0.498   1.040   3.364
 8595SOL    HW226685   0.336   1.047   3.378
 8596SOL     OW26686   1.145   4.324   2.930
 8596SOL    HW126687   1.236   4.346   2.895
 8596SOL    HW226688   1.087   4.406   2.926
 8597SOL     OW26689   4.663   2.014   1.172
 8597SOL    HW126690   4.717   1.984   1.250
 8597SOL    HW226691   4.662   1.941   1.103
 8598SOL     OW26692   6.148   0.308   0.429
 8598SOL    HW126693   6.154   0.405   0.402
 8598SOL    HW226694   6.212   0.254   0.374
 8599SOL     OW26695   1.635   2.618   5.063
 8599SOL    HW126696   1.646   2.543   4.997
 8599SOL    HW226697   1.679   2.593   5.149
 8600SOL     OW26698   5.466   4.455   6.544
 8600SOL    HW126699   5.400   4.396   6.590
 8600SOL    HW226700   5.446   4.456   6.445
 8601SOL     OW26701   1.318   1.517   4.790
 8601SOL    HW126702   1.361   1.502   4.879
 8601SOL    HW226703   1.243   1.453   4.778
 8602SOL     OW26704   3.224   6.476   2.393
 8602SOL    HW126705   3.197   6.424   2.474
 8602SOL    HW226706   3.191   6.570   2.402
 8603SOL     OW26707   5.019   6.050   1.016
 8603SOL    HW126708   5.029   5.953   1.038
 8603SOL    HW226709   5.083   6.104   1.072
 8604SOL     OW26710   0.745   2.799   4.851
 8604SOL    HW126711   0.672   2.750   4.898
 8604SOL    HW226712   0.708   2.881   4.807
 8605SOL     OW26713   2.504   5.541   4.287
 8605SOL    HW126714   2.588   5.525   4.338
 8605SOL    HW226715   2.440   5.466   4.305
 8606SOL     OW26716   1.367   3.281   6.644
 8606SOL    HW126717   1.310   3.314   6.569
 8606SOL    HW226718   1.375   3.352   6.714
 8607SOL     OW26719   3.257   4.906   6.271
 8607SOL    HW126720   3.310   4.828   6.305
 8607SOL    HW226721   3.274   4.986   6.328
 8608SOL     OW26722   3.028   4.845   2.342
 8608SOL    HW126723   3.107   4.869   2.398
 8608SOL    HW226724   3.007   4.920   2.279
 8609SOL     OW26725   4.994   0.735   2.860
 8609SOL    HW126726   4.977   0.783   2.773
 8609SOL    HW226727   5.091   0.713   2.867
 8610SOL     OW26728   0.735   2.116   3.121
 8610SOL    HW126729   0.649   2.082   3.159
 8610SOL    HW226730   0.746   2.212   3.144
 8611SOL     OW26731   3.247   2.120   4.783
 8611SOL    HW126732   3.171   2.117   4.718
 8611SOL    HW226733   3.218   2.168   4.866
 8612SOL     OW26734   2.605   3.049   0.043
 8612SOL    HW126735   2.583   2.953   0.060
 8612SOL    HW226736   2.561   3.106   0.111
 8613SOL     OW26737   3.053   1.358   1.859
 8613SOL    HW126738   3.079   1.386   1.952
 8613SOL    HW226739   3.018   1.438   1.810
 8614SOL     OW26740   1.044   2.900   3.582
 8614SOL    HW126741   0.993   2.864   3.661
 8614SOL    HW226742   1.126   2.844   3.568
 8615SOL     OW26743   4.246   1.545   5.071
 8615SOL    HW126744   4.303   1.525   4.991
 8615SOL    HW226745   4.295   1.518   5.153
 8616SOL     OW26746   3.153   4.654   1.736
 8616SOL    HW126747   3.070   4.643   1.791
 8616SOL    HW226748   3.228   4.683   1.795
 8617SOL     OW26749   6.513   1.308   5.590
 8617SOL    HW126750   6.486   1.348   5.502
 8617SOL    HW226751   6.612   1.295   5.591
 8618SOL     OW26752   6.219   4.886   1.038
 8618SOL    HW126753   6.170   4.837   0.966
 8618SOL    HW226754   6.311   4.907   1.006
 8619SOL     OW26755   3.770   4.884   2.148
 8619SOL    HW126756   3.701   4.841   2.090
 8619SOL    HW226757   3.744   4.979   2.167
 8620SOL     OW26758   1.179   6.997   3.210
 8620SOL    HW126759   1.244   7.015   3.136
 8620SOL    HW226760   1.217   6.928   3.272
 8621SOL     OW26761   5.929   1.729   2.754
 8621SOL    HW126762   5.871   1.736   2.835
 8621SOL    HW226763   5.879   1.762   2.674
 8622SOL     OW26764   5.344   3.571   1.278
 8622SOL    HW126765   5.385   3.657   1.309
 8622SOL    HW226766   5.259   3.554   1.329
 8623SOL     OW26767   0.937   3.553   4.854
 8623SOL    HW126768   0.887   3.507   4.780
 8623SOL    HW226769   1.034   3.532   4.845
 8624SOL     OW26770   1.771   3.928   4.660
 8624SOL    HW126771   1.861   3.889   4.679
 8624SOL    HW226772   1.722   3.940   4.746
 8625SOL     OW26773   4.589   0.940   6.079
 8625SOL    HW126774   4.558   0.882   6.004
 8625SOL    HW226775   4.541   1.028   6.075
 8626SOL     OW26776   3.153   2.905   6.770
 8626SOL    HW126777   3.061   2.868   6.785
 8626SOL    HW226778   3.213   2.833   6.734
 8627SOL     OW26779   0.697   1.512   3.293
 8627SOL    HW126780   0.636   1.494   3.370
 8627SOL    HW226781   0.728   1.425   3.254
 8628SOL     OW26782   6.677   6.476   0.472
 8628SOL    HW126783   6.592   6.459   0.423
 8628SOL    HW226784   6.656   6.500   0.567
 8629SOL     OW26785   2.247   5.608   5.103
 8629SOL    HW126786   2.224   5.552   5.183
 8629SOL    HW226787   2.313   5.678   5.129
 8630SOL     OW26788   5.353   4.373   4.299
 8630SOL    HW126789   5.274   4.346   4.354
 8630SOL    HW226790   5.406   4.441   4.349
 8631SOL     OW26791   0.552   5.393   6.478
 8631SOL    HW126792   0.584   5.299   6.470
 8631SOL    HW226793   0.453   5.396   6.463
 8632SOL     OW26794   4.070   4.898   4.875
 8632SOL    HW126795   3.977   4.935   4.878
 8632SOL    HW226796   4.107   4.893   4.967
 8633SOL     OW26797   5.354   2.429   5.660
 8633SOL    HW126798   5.311   2.470   5.741
 8633SOL    HW226799   5.412   2.498   5.615
 8634SOL     OW26800   4.986   3.823   0.198
 8634SOL    HW126801   4.931   3.742   0.220
 8634SOL    HW226802   4.955   3.861   0.111
 8635SOL     OW26803   5.173   3.357   6.398
 8635SOL    HW126804   5.079   3.325   6.407
 8635SOL    HW226805   5.235   3.279   6.390
 8636SOL     OW26806   5.690   5.924   0.817
 8636SOL    HW126807   5.712   6.008   0.768
 8636SOL    HW226808   5.627   5.869   0.762
 8637SOL     OW26809   2.702   0.737   6.955
 8637SOL    HW126810   2.616   0.725   6.905
 8637SOL    HW226811   2.746   0.648   6.966
 8638SOL     OW26812   3.771   2.021   4.928
 8638SOL    HW126813   3.671   2.020   4.930
 8638SOL    HW226814   3.806   1.928   4.946
 8639SOL     OW26815   5.230   2.437   0.320
 8639SOL    HW126816   5.172   2.378   0.262
 8639SOL    HW226817   5.192   2.529   0.321
 8640SOL     OW26818   4.327   4.129   6.901
 8640SOL    HW126819   4.253   4.131   6.968
 8640SOL    HW226820   4.327   4.215   6.849
 8641SOL     OW26821   4.447   4.549   3.884
 8641SOL    HW126822   4.508   4.626   3.866
 8641SOL    HW226823   4.429   4.500   3.798
 8642SOL     OW26824   1.151   6.400   3.787
 8642SOL    HW126825   1.220   6.333   3.815
 8642SOL    HW226826   1.113   6.445   3.868
 8643SOL     OW26827   3.086   0.898   6.191
 8643SOL    HW126828   3.047   0.898   6.098
 8643SOL    HW226829   3.044   0.971   6.244
 8644SOL     OW26830   5.160   2.257   5.338
 8644SOL    HW126831   5.103   2.176   5.335
 8644SOL    HW226832   5.142   2.308   5.423
 8645SOL     OW26833   4.392   4.652   0.997
 8645SOL    HW126834   4.324   4.609   1.056
 8645SOL    HW226835   4.483   4.639   1.035
 8646SOL     OW26836   0.097   2.018   6.947
 8646SOL    HW126837   7.022   2.002   6.928
 8646SOL    HW226838   0.111   2.023   0.023
 8647SOL     OW26839   2.783   5.393   6.471
 8647SOL    HW126840   2.688   5.392   6.505
 8647SOL    HW226841   2.815   5.299   6.460
 8648SOL     OW26842   6.692   0.140   2.690
 8648SOL    HW126843   6.654   0.078   2.758
 8648SOL    HW226844   6.633   0.221   2.682
 8649SOL     OW26845   5.515   5.710   6.297
 8649SOL    HW126846   5.449   5.779   6.325
 8649SOL    HW226847   5.494   5.624   6.343
 8650SOL     OW26848   2.169   5.072   4.379
 8650SOL    HW126849   2.144   5.006   4.449
 8650SOL    HW226850   2.201   5.024   4.297
 8651SOL     OW26851   4.482   0.949   0.388
 8651SOL    HW126852   4.476   0.903   0.477
 8651SOL    HW226853   4.416   1.024   0.385
 8652SOL     OW26854   1.664   5.390   3.547
 8652SOL    HW126855   1.710   5.478   3.546
 8652SOL    HW226856   1.698   5.335   3.624
 8653SOL     OW26857   6.631   0.963   6.406
 8653SOL    HW126858   6.634   1.053   6.362
 8653SOL    HW226859   6.642   0.974   6.504
 8654SOL     OW26860   0.655   4.673   2.290
 8654SOL    HW126861   0.650   4.615   2.209
 8654SOL    HW226862   0.750   4.685   2.317
 8655SOL     OW26863   5.872   0.983   3.903
 8655SOL    HW126864   5.797   1.039   3.935
 8655SOL    HW226865   5.923   0.946   3.981
 8656SOL     OW26866   6.555   6.782   1.325
 8656SOL    HW126867   6.584   6.857   1.385
 8656SOL    HW226868   6.465   6.803   1.286
 8657SOL     OW26869   4.704   5.616   6.974
 8657SOL    HW126870   4.775   5.602   0.020
 8657SOL    HW226871   4.743   5.664   6.895
 8658SOL     OW26872   6.552   6.366   0.018
 8658SOL    HW126873   6.624   6.297   0.023
 8658SOL    HW226874   6.559   6.428   0.096
 8659SOL     OW26875   4.607   2.039   2.428
 8659SOL    HW126876   4.634   1.994   2.344
 8659SOL    HW226877   4.681   2.034   2.495
 8660SOL     OW26878   0.059   3.266   1.657
 8660SOL    HW126879   0.101   3.182   1.694
 8660SOL    HW226880   0.127   3.339   1.656
 8661SOL     OW26881   6.875   3.710   1.282
 8661SOL    HW126882   6.920   3.752   1.204
 8661SOL    HW226883   6.783   3.749   1.293
 8662SOL     OW26884   4.014   5.707   0.885
 8662SOL    HW126885   4.100   5.694   0.837
 8662SOL    HW226886   4.018   5.789   0.941
 8663SOL     OW26887   3.082   5.684   2.127
 8663SOL    HW126888   3.156   5.689   2.195
 8663SOL    HW226889   2.996   5.713   2.170
 8664SOL     OW26890   1.369   6.415   1.214
 8664SOL    HW126891   1.401   6.376   1.128
 8664SOL    HW226892   1.269   6.409   1.219
 8665SOL     OW26893   6.011   5.743   5.221
 8665SOL    HW126894   6.014   5.830   5.172
 8665SOL    HW226895   5.944   5.682   5.178
 8666SOL     OW26896   5.689   1.147   3.715
 8666SOL    HW126897   5.590   1.151   3.727
 8666SOL    HW226898   5.719   1.051   3.713
 8667SOL     OW26899   3.742   2.036   3.794
 8667SOL    HW126900   3.748   2.065   3.890
 8667SOL    HW226901   3.832   2.003   3.764
 8668SOL     OW26902   5.224   3.550   3.339
 8668SOL    HW126903   5.175   3.504   3.265
 8668SOL    HW226904   5.297   3.606   3.301
 8669SOL     OW26905   1.426   6.435   6.352
 8669SOL    HW126906   1.469   6.401   6.269
 8669SOL    HW226907   1.326   6.428   6.343
 8670SOL     OW26908   4.566   5.081   6.117
 8670SOL    HW126909   4.633   5.025   6.068
 8670SOL    HW226910   4.598   5.175   6.122
 8671SOL     OW26911   5.058   1.983   3.351
 8671SOL    HW126912   5.078   2.081   3.353
 8671SOL    HW226913   5.023   1.954   3.440
 8672SOL     OW26914   1.315   5.009   3.948
 8672SOL    HW126915   1.221   5.033   3.971
 8672SOL    HW226916   1.330   5.025   3.850
 8673SOL     OW26917   5.188   2.668   6.820
 8673SOL    HW126918   5.148   2.580   6.846
 8673SOL    HW226919   5.267   2.687   6.879
 8674SOL     OW26920   4.965   6.145   2.889
 8674SOL    HW126921   5.022   6.226   2.874
 8674SOL    HW226922   4.947   6.100   2.802
 8675SOL     OW26923   4.170   1.992   4.856
 8675SOL    HW126924   4.126   2.043   4.782
 8675SOL    HW226925   4.118   2.004   4.940
 8676SOL     OW26926   5.466   6.622   3.213
 8676SOL    HW126927   5.393   6.582   3.269
 8676SOL    HW226928   5.463   6.721   3.221
 8677SOL     OW26929   2.165   5.320   6.129
 8677SOL    HW126930   2.186   5.223   6.123
 8677SOL    HW226931   2.249   5.373   6.111
 8678SOL     OW26932   0.044   0.504   1.680
 8678SOL    HW126933   6.981   0.488   1.630
 8678SOL    HW226934   0.090   0.584   1.642
 8679SOL     OW26935   0.539   1.913   3.246
 8679SOL    HW126936   0.609   1.853   3.208
 8679SOL    HW226937   0.512   1.880   3.336
 8680SOL     OW26938   6.827   3.144   0.040
 8680SOL    HW126939   6.864   3.202   0.112
 8680SOL    HW226940   6.837   3.048   0.066
 8681SOL     OW26941   4.779   5.598   1.179
 8681SOL    HW126942   4.706   5.542   1.140
 8681SOL    HW226943   4.866   5.551   1.170
 8682SOL     OW26944   5.634   6.940   2.747
 8682SOL    HW126945   5.570   6.992   2.689
 8682SOL    HW226946   5.727   6.952   2.712
 8683SOL     OW26947   1.540   2.354   4.321
 8683SOL    HW126948   1.490   2.435   4.352
 8683SOL    HW226949   1.638   2.372   4.323
 8684SOL     OW26950   6.320   2.730   4.918
 8684SOL    HW126951   6.332   2.829   4.924
 8684SOL    HW226952   6.354   2.687   5.001
 8685SOL     OW26953   6.670   1.937   6.376
 8685SOL    HW126954   6.723   1.953   6.459
 8685SOL    HW226955   6.598   1.869   6.394
 8686SOL     OW26956   0.063   0.978   3.227
 8686SOL    HW126957   0.006   1.049   3.185
 8686SOL    HW226958   0.088   1.007   3.319
 8687SOL     OW26959   4.783   5.391   1.906
 8687SOL    HW126960   4.781   5.383   2.006
 8687SOL    HW226961   4.833   5.314   1.867
 8688SOL     OW26962   0.472   5.218   5.968
 8688SOL    HW126963   0.429   5.209   5.878
 8688SOL    HW226964   0.543   5.288   5.964
 8689SOL     OW26965   3.534   3.364   1.237
 8689SOL    HW126966   3.483   3.438   1.194
 8689SOL    HW226967   3.473   3.312   1.297
 8690SOL     OW26968   1.610   3.827   3.840
 8690SOL    HW126969   1.549   3.750   3.858
 8690SOL    HW226970   1.584   3.904   3.898
 8691SOL     OW26971   3.874   2.583   6.308
 8691SOL    HW126972   3.943   2.595   6.380
 8691SOL    HW226973   3.870   2.665   6.251
 8692SOL     OW26974   2.628   1.402   4.462
 8692SOL    HW126975   2.547   1.460   4.474
 8692SOL    HW226976   2.690   1.415   4.540
 8693SOL     OW26977   5.143   6.942   0.663
 8693SOL    HW126978   5.243   6.949   0.667
 8693SOL    HW226979   5.115   6.907   0.573
 8694SOL     OW26980   5.448   1.086   4.784
 8694SOL    HW126981   5.421   0.997   4.820
 8694SOL    HW226982   5.402   1.102   4.696
 8695SOL     OW26983   4.714   2.915   5.662
 8695SOL    HW126984   4.614   2.909   5.662
 8695SOL    HW226985   4.742   3.005   5.697
 8696SOL     OW26986   2.199   5.219   5.273
 8696SOL    HW126987   2.222   5.316   5.273
 8696SOL    HW226988   2.279   5.166   5.301
 8697SOL     OW26989   0.383   3.767   5.951
 8697SOL    HW126990   0.320   3.746   6.026
 8697SOL    HW226991   0.473   3.730   5.971
 8698SOL     OW26992   4.862   6.254   5.106
 8698SOL    HW126993   4.955   6.282   5.129
 8698SOL    HW226994   4.797   6.318   5.147
 8699SOL     OW26995   1.034   3.201   5.041
 8699SOL    HW126996   1.082   3.151   4.969
 8699SOL    HW226997   1.097   3.267   5.083
 8700SOL     OW26998   1.050   0.075   4.823
 8700SOL    HW126999   1.093   0.108   4.907
 8700SOL    HW227000   0.965   0.125   4.808
 8701SOL     OW27001   1.468   1.071   6.583
 8701SOL    HW127002   1.484   1.074   6.485
 8701SOL    HW227003   1.436   1.160   6.615
 8702SOL     OW27004   5.639   4.746   1.690
 8702SOL    HW127005   5.594   4.658   1.706
 8702SOL    HW227006   5.665   4.753   1.594
 8703SOL     OW27007   2.952   5.138   0.146
 8703SOL    HW127008   2.893   5.085   0.208
 8703SOL    HW227009   2.976   5.082   0.067
 8704SOL     OW27010   0.417   3.942   3.389
 8704SOL    HW127011   0.434   4.005   3.465
 8704SOL    HW227012   0.368   3.989   3.316
 8705SOL     OW27013   5.142   0.830   6.384
 8705SOL    HW127014   5.150   0.906   6.320
 8705SOL    HW227015   5.200   0.847   6.464
 8706SOL     OW27016   5.331   2.294   6.643
 8706SOL    HW127017   5.308   2.303   6.546
 8706SOL    HW227018   5.261   2.338   6.698
 8707SOL     OW27019   0.277   1.733   5.823
 8707SOL    HW127020   0.263   1.783   5.909
 8707SOL    HW227021   0.188   1.707   5.785
 8708SOL     OW27022   3.891   1.416   3.243
 8708SOL    HW127023   3.875   1.515   3.244
 8708SOL    HW227024   3.927   1.389   3.153
 8709SOL     OW27025   6.741   6.669   0.262
 8709SOL    HW127026   6.794   6.739   0.309
 8709SOL    HW227027   6.723   6.593   0.325
 8710SOL     OW27028   1.729   3.054   3.867
 8710SOL    HW127029   1.629   3.042   3.864
 8710SOL    HW227030   1.753   3.114   3.943
 8711SOL     OW27031   1.565   6.502   2.806
 8711SOL    HW127032   1.639   6.435   2.817
 8711SOL    HW227033   1.482   6.466   2.848
 8712SOL     OW27034   4.029   1.707   4.544
 8712SOL    HW127035   3.930   1.704   4.559
 8712SOL    HW227036   4.050   1.778   4.476
 8713SOL     OW27037   6.382   3.212   2.974
 8713SOL    HW127038   6.476   3.228   3.007
 8713SOL    HW227039   6.359   3.282   2.906
 8714SOL     OW27040   1.162   0.151   5.636
 8714SOL    HW127041   1.142   0.249   5.642
 8714SOL    HW227042   1.181   0.115   5.727
 8715SOL     OW27043   4.060   1.195   0.893
 8715SOL    HW127044   4.055   1.209   0.795
 8715SOL    HW227045   4.152   1.216   0.926
 8716SOL     OW27046   6.986   0.317   1.298
 8716SOL    HW127047   7.010   0.359   1.210
 8716SOL    HW227048   0.024   0.239   1.315
 8717SOL     OW27049   2.957   4.090   5.289
 8717SOL    HW127050   3.015   4.010   5.303
 8717SOL    HW227051   2.957   4.114   5.192
 8718SOL     OW27052   1.234   3.178   5.606
 8718SOL    HW127053   1.327   3.210   5.583
 8718SOL    HW227054   1.198   3.125   5.529
 8719SOL     OW27055   4.224   6.728   0.169
 8719SOL    HW127056   4.208   6.743   0.267
 8719SOL    HW227057   4.194   6.636   0.144
 8720SOL     OW27058   0.378   5.863   6.399
 8720SOL    HW127059   0.345   5.957   6.400
 8720SOL    HW227060   0.364   5.823   6.308
 8721SOL     OW27061   6.331   2.750   1.899
 8721SOL    HW127062   6.305   2.699   1.981
 8721SOL    HW227063   6.418   2.714   1.864
 8722SOL     OW27064   3.742   0.892   1.289
 8722SOL    HW127065   3.767   0.954   1.215
 8722SOL    HW227066   3.825   0.850   1.326
 8723SOL     OW27067   4.503   6.890   2.108
 8723SOL    HW127068   4.508   6.942   2.023
 8723SOL    HW227069   4.502   6.792   2.088
 8724SOL     OW27070   5.603   6.980   4.552
 8724SOL    HW127071   5.515   6.941   4.581
 8724SOL    HW227072   5.614   6.967   4.453
 8725SOL     OW27073   1.966   5.762   5.560
 8725SOL    HW127074   2.026   5.774   5.639
 8725SOL    HW227075   1.952   5.850   5.515
 8726SOL     OW27076   6.967   0.483   3.385
 8726SOL    HW127077   0.002   0.534   3.449
 8726SOL    HW227078   6.876   0.471   3.423
 8727SOL     OW27079   5.392   0.423   2.285
 8727SOL    HW127080   5.437   0.398   2.371
 8727SOL    HW227081   5.302   0.460   2.305
 8728SOL     OW27082   6.395   0.725   2.293
 8728SOL    HW127083   6.464   0.698   2.360
 8728SOL    HW227084   6.397   0.824   2.281
 8729SOL     OW27085   3.577   4.747   5.784
 8729SOL    HW127086   3.605   4.822   5.844
 8729SOL    HW227087   3.656   4.690   5.763
 8730SOL     OW27088   5.527   4.165   2.290
 8730SOL    HW127089   5.482   4.177   2.378
 8730SOL    HW227090   5.596   4.236   2.277
 8731SOL     OW27091   1.119   3.225   2.509
 8731SOL    HW127092   1.141   3.141   2.459
 8731SOL    HW227093   1.096   3.202   2.604
 8732SOL     OW27094   5.838   5.084   1.714
 8732SOL    HW127095   5.850   5.023   1.792
 8732SOL    HW227096   5.926   5.128   1.692
 8733SOL     OW27097   1.717   6.044   1.409
 8733SOL    HW127098   1.648   6.075   1.345
 8733SOL    HW227099   1.750   5.953   1.382
 8734SOL     OW27100   0.799   3.515   2.529
 8734SOL    HW127101   0.757   3.603   2.550
 8734SOL    HW227102   0.746   3.442   2.571
 8735SOL     OW27103   1.007   2.768   6.745
 8735SOL    HW127104   1.029   2.832   6.819
 8735SOL    HW227105   1.090   2.720   6.718
 8736SOL     OW27106   0.311   5.079   1.090
 8736SOL    HW127107   0.309   5.112   0.995
 8736SOL    HW227108   0.230   5.110   1.138
 8737SOL     OW27109   1.735   6.409   0.510
 8737SOL    HW127110   1.748   6.424   0.412
 8737SOL    HW227111   1.642   6.376   0.527
 8738SOL     OW27112   2.682   5.701   3.968
 8738SOL    HW127113   2.655   5.608   3.992
 8738SOL    HW227114   2.623   5.766   4.016
 8739SOL     OW27115   5.707   5.802   6.604
 8739SOL    HW127116   5.722   5.714   6.558
 8739SOL    HW227117   5.663   5.865   6.540
 8740SOL     OW27118   3.933   1.401   4.660
 8740SOL    HW127119   3.922   1.500   4.664
 8740SOL    HW227120   3.993   1.376   4.584
 8741SOL     OW27121   2.094   1.456   2.373
 8741SOL    HW127122   2.029   1.452   2.448
 8741SOL    HW227123   2.132   1.365   2.356
 8742SOL     OW27124   4.637   6.626   1.822
 8742SOL    HW127125   4.591   6.618   1.734
 8742SOL    HW227126   4.572   6.612   1.896
 8743SOL     OW27127   1.532   6.802   2.162
 8743SOL    HW127128   1.456   6.832   2.219
 8743SOL    HW227129   1.521   6.706   2.139
 8744SOL     OW27130   4.064   2.886   0.018
 8744SOL    HW127131   4.019   2.902   0.106
 8744SOL    HW227132   4.066   2.971   6.988
 8745SOL     OW27133   6.428   1.751   6.110
 8745SOL    HW127134   6.369   1.786   6.182
 8745SOL    HW227135   6.491   1.823   6.080
 8746SOL     OW27136   4.619   5.493   4.258
 8746SOL    HW127137   4.570   5.430   4.318
 8746SOL    HW227138   4.565   5.511   4.176
 8747SOL     OW27139   6.775   2.008   3.417
 8747SOL    HW127140   6.694   2.066   3.426
 8747SOL    HW227141   6.807   2.010   3.323
 8748SOL     OW27142   0.434   1.338   4.079
 8748SOL    HW127143   0.504   1.273   4.109
 8748SOL    HW227144   0.477   1.410   4.024
 8749SOL     OW27145   2.435   0.588   4.966
 8749SOL    HW127146   2.370   0.647   4.917
 8749SOL    HW227147   2.448   0.623   5.059
 8750SOL     OW27148   3.336   4.285   5.263
 8750SOL    HW127149   3.414   4.344   5.283
 8750SOL    HW227150   3.251   4.339   5.266
 8751SOL     OW27151   6.327   1.735   2.203
 8751SOL    HW127152   6.384   1.799   2.256
 8751SOL    HW227153   6.265   1.687   2.265
 8752SOL     OW27154   3.210   3.004   6.224
 8752SOL    HW127155   3.227   2.930   6.289
 8752SOL    HW227156   3.112   3.016   6.212
 8753SOL     OW27157   3.106   1.789   6.346
 8753SOL    HW127158   3.083   1.812   6.251
 8753SOL    HW227159   3.205   1.777   6.354
 8754SOL     OW27160   1.706   3.764   5.898
 8754SOL    HW127161   1.777   3.704   5.862
 8754SOL    HW227162   1.748   3.838   5.950
 8755SOL     OW27163   2.481   1.028   1.137
 8755SOL    HW127164   2.465   0.974   1.220
 8755SOL    HW227165   2.517   0.969   1.065
 8756SOL     OW27166   1.646   3.121   4.332
 8756SOL    HW127167   1.702   3.059   4.278
 8756SOL    HW227168   1.694   3.144   4.417
 8757SOL     OW27169   3.744   6.100   6.591
 8757SOL    HW127170   3.682   6.118   6.514
 8757SOL    HW227171   3.774   6.005   6.587
 8758SOL     OW27172   5.223   6.343   2.779
 8758SOL    HW127173   5.186   6.409   2.844
 8758SOL    HW227174   5.323   6.341   2.787
 8759SOL     OW27175   4.580   3.285   6.778
 8759SOL    HW127176   4.656   3.341   6.810
 8759SOL    HW227177   4.588   3.193   6.817
 8760SOL     OW27178   2.800   0.950   5.447
 8760SOL    HW127179   2.838   0.866   5.484
 8760SOL    HW227180   2.837   1.029   5.497
 8761SOL     OW27181   6.129   2.401   1.481
 8761SOL    HW127182   6.212   2.344   1.478
 8761SOL    HW227183   6.151   2.488   1.526
 8762SOL     OW27184   0.836   4.684   3.479
 8762SOL    HW127185   0.809   4.722   3.567
 8762SOL    HW227186   0.843   4.758   3.411
 8763SOL     OW27187   6.286   6.918   6.358
 8763SOL    HW127188   6.375   6.873   6.356
 8763SOL    HW227189   6.241   6.907   6.270
 8764SOL     OW27190   4.777   0.378   5.432
 8764SOL    HW127191   4.749   0.283   5.447
 8764SOL    HW227192   4.771   0.401   5.335
 8765SOL     OW27193   5.069   0.193   3.996
 8765SOL    HW127194   5.095   0.141   3.914
 8765SOL    HW227195   5.101   0.287   3.987
 8766SOL     OW27196   4.586   4.416   4.841
 8766SOL    HW127197   4.512   4.452   4.897
 8766SOL    HW227198   4.581   4.457   4.750
 8767SOL     OW27199   5.305   6.106   2.519
 8767SOL    HW127200   5.395   6.107   2.478
 8767SOL    HW227201   5.269   6.199   2.524
 8768SOL     OW27202   1.307   2.456   0.444
 8768SOL    HW127203   1.384   2.484   0.502
 8768SOL    HW227204   1.335   2.380   0.386
 8769SOL     OW27205   6.854   0.705   3.167
 8769SOL    HW127206   6.907   0.631   3.210
 8769SOL    HW227207   6.757   0.691   3.186
 8770SOL     OW27208   4.455   4.572   1.915
 8770SOL    HW127209   4.436   4.474   1.924
 8770SOL    HW227210   4.552   4.589   1.932
 8771SOL     OW27211   1.428   1.768   6.780
 8771SOL    HW127212   1.462   1.838   6.718
 8771SOL    HW227213   1.388   1.811   6.862
 8772SOL     OW27214   4.465   0.741   6.655
 8772SOL    HW127215   4.397   0.677   6.619
 8772SOL    HW227216   4.464   0.825   6.600
 8773SOL     OW27217   5.862   2.948   4.030
 8773SOL    HW127218   5.783   2.996   3.992
 8773SOL    HW227219   5.938   2.954   3.965
 8774SOL     OW27220   1.557   0.681   0.113
 8774SOL    HW127221   1.599   0.697   0.024
 8774SOL    HW227222   1.531   0.769   0.153
 8775SOL     OW27223   5.561   0.728   5.477
 8775SOL    HW127224   5.608   0.696   5.559
 8775SOL    HW227225   5.629   0.760   5.410
 8776SOL     OW27226   4.667   3.009   0.439
 8776SOL    HW127227   4.592   3.058   0.483
 8776SOL    HW227228   4.749   3.066   0.441
 8777SOL     OW27229   5.857   4.197   3.624
 8777SOL    HW127230   5.811   4.130   3.683
 8777SOL    HW227231   5.872   4.282   3.675
 8778SOL     OW27232   5.554   3.164   6.092
 8778SOL    HW127233   5.514   3.201   6.008
 8778SOL    HW227234   5.630   3.104   6.069
 8779SOL     OW27235   2.735   4.971   2.651
 8779SOL    HW127236   2.697   5.050   2.700
 8779SOL    HW227237   2.813   5.001   2.596
 8780SOL     OW27238   0.576   6.669   2.491
 8780SOL    HW127239   0.545   6.577   2.467
 8780SOL    HW227240   0.643   6.662   2.565
 8781SOL     OW27241   5.116   0.900   4.023
 8781SOL    HW127242   5.065   0.863   3.946
 8781SOL    HW227243   5.066   0.881   4.108
 8782SOL     OW27244   6.590   0.043   2.449
 8782SOL    HW127245   6.654   0.064   2.375
 8782SOL    HW227246   6.636   0.055   2.537
 8783SOL     OW27247   6.360   4.202   3.567
 8783SOL    HW127248   6.309   4.275   3.612
 8783SOL    HW227249   6.433   4.171   3.627
 8784SOL     OW27250   6.947   5.654   5.475
 8784SOL    HW127251   6.854   5.687   5.495
 8784SOL    HW227252   6.964   5.570   5.525
 8785SOL     OW27253   5.309   5.126   0.210
 8785SOL    HW127254   5.333   5.091   0.119
 8785SOL    HW227255   5.211   5.146   0.213
 8786SOL     OW27256   2.954   1.204   0.150
 8786SOL    HW127257   2.929   1.290   0.106
 8786SOL    HW227258   2.883   1.135   0.132
 8787SOL     OW27259   2.949   0.922   1.964
 8787SOL    HW127260   2.981   0.998   2.021
 8787SOL    HW227261   2.891   0.956   1.891
 8788SOL     OW27262   6.772   0.087   5.522
 8788SOL    HW127263   6.771   0.119   5.427
 8788SOL    HW227264   6.862   0.048   5.542
 8789SOL     OW27265   6.006   5.686   4.809
 8789SOL    HW127266   5.948   5.676   4.890
 8789SOL    HW227267   5.997   5.605   4.751
 8790SOL     OW27268   6.596   0.482   6.294
 8790SOL    HW127269   6.672   0.424   6.323
 8790SOL    HW227270   6.553   0.442   6.213
 8791SOL     OW27271   5.438   6.722   4.972
 8791SOL    HW127272   5.517   6.783   4.963
 8791SOL    HW227273   5.383   6.727   4.889
 8792SOL     OW27274   2.951   5.385   3.247
 8792SOL    HW127275   2.897   5.302   3.250
 8792SOL    HW227276   2.894   5.462   3.217
 8793SOL     OW27277   1.050   4.291   2.614
 8793SOL    HW127278   1.016   4.271   2.706
 8793SOL    HW227279   1.032   4.214   2.554
 8794SOL     OW27280   5.186   0.288   2.838
 8794SOL    HW127281   5.140   0.252   2.919
 8794SOL    HW227282   5.253   0.357   2.865
 8795SOL     OW27283   0.892   3.934   5.862
 8795SOL    HW127284   0.963   3.886   5.810
 8795SOL    HW227285   0.901   4.033   5.847
 8796SOL     OW27286   4.614   2.297   3.859
 8796SOL    HW127287   4.650   2.220   3.912
 8796SOL    HW227288   4.562   2.357   3.920
 8797SOL     OW27289   0.128   0.339   0.214
 8797SOL    HW127290   0.090   0.393   0.139
 8797SOL    HW227291   0.228   0.338   0.208
 8798SOL     OW27292   4.857   6.205   6.168
 8798SOL    HW127293   4.936   6.148   6.145
 8798SOL    HW227294   4.804   6.162   6.240
 8799SOL     OW27295   2.817   4.783   3.448
 8799SOL    HW127296   2.833   4.795   3.350
 8799SOL    HW227297   2.722   4.758   3.464
 8800SOL     OW27298   6.042   4.382   6.540
 8800SOL    HW127299   6.015   4.425   6.454
 8800SOL    HW227300   6.049   4.283   6.527
 8801SOL     OW27301   0.146   0.922   4.359
 8801SOL    HW127302   0.209   0.999   4.345
 8801SOL    HW227303   0.079   0.947   4.429
 8802SOL     OW27304   2.061   0.017   6.306
 8802SOL    HW127305   2.073   0.030   6.405
 8802SOL    HW227306   1.964   0.015   6.285
 8803SOL     OW27307   0.171   6.469   0.288
 8803SOL    HW127308   0.243   6.497   0.224
 8803SOL    HW227309   0.088   6.448   0.237
 8804SOL     OW27310   2.511   6.251   1.713
 8804SOL    HW127311   2.488   6.289   1.623
 8804SOL    HW227312   2.589   6.301   1.751
 8805SOL     OW27313   3.574   6.112   3.509
 8805SOL    HW127314   3.622   6.036   3.555
 8805SOL    HW227315   3.476   6.106   3.531
 8806SOL     OW27316   3.439   4.822   1.620
 8806SOL    HW127317   3.508   4.873   1.570
 8806SOL    HW227318   3.483   4.768   1.692
 8807SOL     OW27319   5.188   0.659   0.277
 8807SOL    HW127320   5.281   0.629   0.293
 8807SOL    HW227321   5.143   0.678   0.364
 8808SOL     OW27322   6.021   3.197   6.559
 8808SOL    HW127323   5.924   3.174   6.560
 8808SOL    HW227324   6.060   3.185   6.650
 8809SOL     OW27325   3.711   4.938   3.499
 8809SOL    HW127326   3.629   4.913   3.448
 8809SOL    HW227327   3.770   4.996   3.442
 8810SOL     OW27328   6.068   0.676   5.004
 8810SOL    HW127329   6.082   0.639   5.096
 8810SOL    HW227330   6.029   0.605   4.946
 8811SOL     OW27331   3.438   1.463   2.704
 8811SOL    HW127332   3.460   1.402   2.780
 8811SOL    HW227333   3.394   1.546   2.739
 8812SOL     OW27334   2.166   0.730   0.336
 8812SOL    HW127335   2.175   0.747   0.434
 8812SOL    HW227336   2.105   0.653   0.321
 8813SOL     OW27337   2.604   5.805   2.755
 8813SOL    HW127338   2.683   5.859   2.783
 8813SOL    HW227339   2.533   5.809   2.825
 8814SOL     OW27340   6.431   0.160   0.754
 8814SOL    HW127341   6.389   0.177   0.843
 8814SOL    HW227342   6.499   0.232   0.735
 8815SOL     OW27343   5.582   6.809   1.338
 8815SOL    HW127344   5.559   6.764   1.252
 8815SOL    HW227345   5.515   6.783   1.408
 8816SOL     OW27346   1.144   6.127   0.596
 8816SOL    HW127347   1.113   6.215   0.561
 8816SOL    HW227348   1.128   6.056   0.528
 8817SOL     OW27349   0.081   4.765   4.028
 8817SOL    HW127350   0.155   4.831   4.038
 8817SOL    HW227351   0.117   4.673   4.042
 8818SOL     OW27352   0.728   4.836   4.324
 8818SOL    HW127353   0.678   4.772   4.383
 8818SOL    HW227354   0.739   4.923   4.371
 8819SOL     OW27355   5.378   5.104   5.430
 8819SOL    HW127356   5.360   5.166   5.353
 8819SOL    HW227357   5.405   5.014   5.395
 8820SOL     OW27358   2.398   0.908   5.113
 8820SOL    HW127359   2.433   0.843   5.179
 8820SOL    HW227360   2.474   0.953   5.066
 8821SOL     OW27361   1.804   5.921   0.968
 8821SOL    HW127362   1.771   5.994   0.907
 8821SOL    HW227363   1.799   5.952   1.063
 8822SOL     OW27364   0.850   0.581   4.395
 8822SOL    HW127365   0.917   0.635   4.446
 8822SOL    HW227366   0.764   0.631   4.390
 8823SOL     OW27367   2.036   1.147   2.673
 8823SOL    HW127368   2.077   1.063   2.707
 8823SOL    HW227369   2.083   1.176   2.589
 8824SOL     OW27370   1.516   1.539   0.279
 8824SOL    HW127371   1.608   1.570   0.302
 8824SOL    HW227372   1.458   1.540   0.360
 8825SOL     OW27373   1.791   0.838   1.731
 8825SOL    HW127374   1.807   0.893   1.813
 8825SOL    HW227375   1.707   0.868   1.686
 8826SOL     OW27376   0.910   3.719   0.237
 8826SOL    HW127377   0.830   3.777   0.224
 8826SOL    HW227378   0.993   3.772   0.221
 8827SOL     OW27379   4.116   0.753   3.203
 8827SOL    HW127380   4.169   0.837   3.192
 8827SOL    HW227381   4.051   0.765   3.279
 8828SOL     OW27382   4.120   5.672   6.498
 8828SOL    HW127383   4.159   5.606   6.563
 8828SOL    HW227384   4.116   5.632   6.407
 8829SOL     OW27385   5.188   2.312   1.605
 8829SOL    HW127386   5.168   2.214   1.594
 8829SOL    HW227387   5.263   2.324   1.669
 8830SOL     OW27388   1.625   2.051   2.614
 8830SOL    HW127389   1.653   2.147   2.613
 8830SOL    HW227390   1.527   2.045   2.632
 8831SOL     OW27391   4.901   2.520   3.346
 8831SOL    HW127392   4.912   2.532   3.247
 8831SOL    HW227393   4.805   2.534   3.371
 8832SOL     OW27394   7.014   6.504   3.052
 8832SOL    HW127395   0.002   6.558   2.968
 8832SOL    HW227396   6.982   6.563   3.126
 8833SOL     OW27397   2.567   5.559   6.810
 8833SOL    HW127398   2.623   5.626   6.761
 8833SOL    HW227399   2.546   5.594   6.902
 8834SOL     OW27400   5.909   3.888   4.730
 8834SOL    HW127401   5.844   3.961   4.748
 8834SOL    HW227402   5.894   3.813   4.795
 8835SOL     OW27403   4.895   0.765   5.634
 8835SOL    HW127404   4.951   0.801   5.560
 8835SOL    HW227405   4.863   0.673   5.610
 8836SOL     OW27406   4.948   2.041   0.313
 8836SOL    HW127407   4.994   1.965   0.358
 8836SOL    HW227408   4.850   2.022   0.306
 8837SOL     OW27409   0.307   7.010   2.550
 8837SOL    HW127410   0.391   7.016   2.497
 8837SOL    HW227411   0.321   6.949   2.629
 8838SOL     OW27412   2.167   4.937   3.484
 8838SOL    HW127413   2.166   4.865   3.553
 8838SOL    HW227414   2.097   4.918   3.415
 8839SOL     OW27415   4.541   5.869   1.569
 8839SOL    HW127416   4.471   5.941   1.572
 8839SOL    HW227417   4.562   5.847   1.474
 8840SOL     OW27418   0.364   1.317   3.250
 8840SOL    HW127419   0.345   1.255   3.326
 8840SOL    HW227420   0.355   1.266   3.164
 8841SOL     OW27421   0.557   0.970   4.634
 8841SOL    HW127422   0.642   0.943   4.589
 8841SOL    HW227423   0.523   0.894   4.690
 8842SOL     OW27424   3.229   3.192   3.266
 8842SOL    HW127425   3.130   3.209   3.258
 8842SOL    HW227426   3.272   3.268   3.313
 8843SOL     OW27427   1.613   3.523   5.273
 8843SOL    HW127428   1.697   3.487   5.233
 8843SOL    HW227429   1.632   3.556   5.366
 8844SOL     OW27430   0.520   1.501   5.472
 8844SOL    HW127431   0.610   1.457   5.469
 8844SOL    HW227432   0.453   1.438   5.511
 8845SOL     OW27433   3.013   3.586   1.105
 8845SOL    HW127434   2.936   3.620   1.160
 8845SOL    HW227435   3.001   3.614   1.010
 8846SOL     OW27436   4.040   4.837   4.438
 8846SOL    HW127437   4.029   4.785   4.354
 8846SOL    HW227438   3.963   4.899   4.449
 8847SOL     OW27439   2.386   1.421   2.738
 8847SOL    HW127440   2.295   1.462   2.744
 8847SOL    HW227441   2.382   1.326   2.769
 8848SOL     OW27442   2.375   1.922   2.121
 8848SOL    HW127443   2.410   1.954   2.209
 8848SOL    HW227444   2.413   1.979   2.048
 8849SOL     OW27445   3.512   5.741   3.604
 8849SOL    HW127446   3.500   5.667   3.670
 8849SOL    HW227447   3.454   5.819   3.629
 8850SOL     OW27448   1.995   1.319   6.651
 8850SOL    HW127449   1.981   1.332   6.552
 8850SOL    HW227450   1.906   1.322   6.697
 8851SOL     OW27451   0.682   5.167   2.187
 8851SOL    HW127452   0.765   5.113   2.197
 8851SOL    HW227453   0.602   5.109   2.202
 8852SOL     OW27454   4.915   3.849   5.966
 8852SOL    HW127455   4.870   3.876   6.051
 8852SOL    HW227456   4.848   3.809   5.904
 8853SOL     OW27457   2.841   0.867   6.536
 8853SOL    HW127458   2.808   0.910   6.620
 8853SOL    HW227459   2.768   0.814   6.494
 8854SOL     OW27460   3.324   1.651   6.053
 8854SOL    HW127461   3.230   1.663   6.020
 8854SOL    HW227462   3.388   1.679   5.982
 8855SOL     OW27463   0.546   5.728   0.509
 8855SOL    HW127464   0.513   5.754   0.600
 8855SOL    HW227465   0.471   5.736   0.443
 8856SOL     OW27466   0.072   0.283   6.327
 8856SOL    HW127467   0.047   0.370   6.369
 8856SOL    HW227468   7.020   0.217   6.341
 8857SOL     OW27469   0.064   1.069   4.052
 8857SOL    HW127470   7.000   1.029   4.023
 8857SOL    HW227471   0.052   1.119   4.138
 8858SOL     OW27472   1.116   2.298   5.423
 8858SOL    HW127473   1.111   2.337   5.331
 8858SOL    HW227474   1.191   2.341   5.474
 8859SOL     OW27475   6.788   0.361   4.178
 8859SOL    HW127476   6.738   0.340   4.094
 8859SOL    HW227477   6.733   0.337   4.258
 8860SOL     OW27478   0.614   3.044   2.368
 8860SOL    HW127479   0.709   3.077   2.362
 8860SOL    HW227480   0.552   3.115   2.334
 8861SOL     OW27481   4.305   1.888   6.256
 8861SOL    HW127482   4.219   1.866   6.211
 8861SOL    HW227483   4.287   1.919   6.349
 8862SOL     OW27484   5.921   0.916   3.507
 8862SOL    HW127485   5.943   0.871   3.420
 8862SOL    HW227486   5.914   0.848   3.579
 8863SOL     OW27487   1.752   4.896   4.181
 8863SOL    HW127488   1.776   4.946   4.264
 8863SOL    HW227489   1.835   4.872   4.131
 8864SOL     OW27490   3.340   3.788   5.710
 8864SOL    HW127491   3.425   3.832   5.681
 8864SOL    HW227492   3.351   3.689   5.710
 8865SOL     OW27493   3.268   1.226   5.925
 8865SOL    HW127494   3.356   1.254   5.964
 8865SOL    HW227495   3.198   1.226   5.996
 8866SOL     OW27496   5.188   0.136   3.118
 8866SOL    HW127497   5.226   0.220   3.156
 8866SOL    HW227498   5.235   0.113   3.033
 8867SOL     OW27499   5.608   3.383   2.251
 8867SOL    HW127500   5.517   3.354   2.220
 8867SOL    HW227501   5.626   3.342   2.340
 8868SOL     OW27502   6.530   2.475   0.790
 8868SOL    HW127503   6.443   2.444   0.828
 8868SOL    HW227504   6.602   2.469   0.860
 8869SOL     OW27505   4.437   6.141   4.630
 8869SOL    HW127506   4.398   6.062   4.584
 8869SOL    HW227507   4.374   6.173   4.701
 8870SOL     OW27508   3.684   0.448   6.729
 8870SOL    HW127509   3.751   0.522   6.738
 8870SOL    HW227510   3.645   0.449   6.637
 8871SOL     OW27511   1.774   0.779   3.772
 8871SOL    HW127512   1.814   0.862   3.733
 8871SOL    HW227513   1.817   0.699   3.730
 8872SOL     OW27514   1.500   4.611   4.735
 8872SOL    HW127515   1.568   4.651   4.796
 8872SOL    HW227516   1.420   4.671   4.730
 8873SOL     OW27517   0.869   5.826   1.873
 8873SOL    HW127518   0.845   5.822   1.970
 8873SOL    HW227519   0.785   5.826   1.819
 8874SOL     OW27520   2.464   5.386   2.403
 8874SOL    HW127521   2.412   5.443   2.467
 8874SOL    HW227522   2.473   5.294   2.440
 8875SOL     OW27523   6.665   3.164   5.242
 8875SOL    HW127524   6.610   3.088   5.277
 8875SOL    HW227525   6.661   3.165   5.142
 8876SOL     OW27526   1.973   6.986   4.533
 8876SOL    HW127527   2.020   6.954   4.450
 8876SOL    HW227528   1.974   6.914   4.602
 8877SOL     OW27529   2.797   0.776   3.870
 8877SOL    HW127530   2.741   0.810   3.946
 8877SOL    HW227531   2.880   0.735   3.907
 8878SOL     OW27532   6.572   5.296   0.052
 8878SOL    HW127533   6.511   5.272   6.999
 8878SOL    HW227534   6.628   5.218   0.077
 8879SOL     OW27535   4.924   4.425   1.800
 8879SOL    HW127536   4.883   4.449   1.888
 8879SOL    HW227537   4.887   4.338   1.768
 8880SOL     OW27538   5.090   5.907   4.732
 8880SOL    HW127539   5.153   5.843   4.689
 8880SOL    HW227540   5.072   5.983   4.669
 8881SOL     OW27541   6.140   6.879   3.745
 8881SOL    HW127542   6.130   6.857   3.648
 8881SOL    HW227543   6.119   6.798   3.800
 8882SOL     OW27544   5.436   1.713   1.245
 8882SOL    HW127545   5.501   1.638   1.230
 8882SOL    HW227546   5.359   1.702   1.182
 8883SOL     OW27547   1.742   6.352   6.224
 8883SOL    HW127548   1.780   6.432   6.177
 8883SOL    HW227549   1.657   6.325   6.179
 8884SOL     OW27550   6.263   4.107   6.208
 8884SOL    HW127551   6.273   4.199   6.171
 8884SOL    HW227552   6.305   4.102   6.298
 8885SOL     OW27553   7.008   3.534   1.003
 8885SOL    HW127554   6.913   3.566   1.002
 8885SOL    HW227555   7.013   3.444   0.959
 8886SOL     OW27556   3.343   6.558   4.753
 8886SOL    HW127557   3.271   6.603   4.699
 8886SOL    HW227558   3.348   6.600   4.844
 8887SOL     OW27559   3.212   1.589   1.360
 8887SOL    HW127560   3.142   1.560   1.295
 8887SOL    HW227561   3.270   1.658   1.317
 8888SOL     OW27562   2.019   1.677   6.459
 8888SOL    HW127563   1.997   1.764   6.415
 8888SOL    HW227564   2.021   1.689   6.558
 8889SOL     OW27565   6.505   0.393   6.037
 8889SOL    HW127566   6.579   0.326   6.027
 8889SOL    HW227567   6.422   0.347   6.069
 8890SOL     OW27568   6.638   5.722   3.989
 8890SOL    HW127569   6.666   5.800   4.045
 8890SOL    HW227570   6.647   5.638   4.043
 8891SOL     OW27571   5.114   3.821   6.325
 8891SOL    HW127572   5.120   3.787   6.231
 8891SOL    HW227573   5.082   3.747   6.385
 8892SOL     OW27574   3.863   5.666   3.275
 8892SOL    HW127575   3.841   5.577   3.315
 8892SOL    HW227576   3.957   5.691   3.299
 8893SOL     OW27577   0.791   5.733   3.510
 8893SOL    HW127578   0.728   5.723   3.433
 8893SOL    HW227579   0.883   5.755   3.476
 8894SOL     OW27580   4.348   2.792   6.512
 8894SOL    HW127581   4.403   2.876   6.516
 8894SOL    HW227582   4.258   2.813   6.475
 8895SOL     OW27583   6.315   2.455   2.544
 8895SOL    HW127584   6.245   2.527   2.544
 8895SOL    HW227585   6.296   2.391   2.470
 8896SOL     OW27586   2.358   3.526   5.691
 8896SOL    HW127587   2.417   3.515   5.611
 8896SOL    HW227588   2.292   3.599   5.674
 8897SOL     OW27589   1.952   2.607   3.266
 8897SOL    HW127590   2.045   2.596   3.303
 8897SOL    HW227591   1.894   2.647   3.337
 8898SOL     OW27592   5.031   3.445   3.117
 8898SOL    HW127593   4.983   3.455   3.030
 8898SOL    HW227594   5.050   3.349   3.135
 8899SOL     OW27595   1.976   5.714   0.741
 8899SOL    HW127596   1.902   5.647   0.749
 8899SOL    HW227597   1.973   5.755   0.650
 8900SOL     OW27598   6.088   3.275   2.586
 8900SOL    HW127599   6.151   3.245   2.515
 8900SOL    HW227600   6.060   3.370   2.567
 8901SOL     OW27601   2.020   0.851   4.324
 8901SOL    HW127602   2.018   0.774   4.388
 8901SOL    HW227603   2.001   0.936   4.373
 8902SOL     OW27604   2.000   0.259   0.264
 8902SOL    HW127605   2.048   0.346   0.270
 8902SOL    HW227606   1.984   0.236   0.168
 8903SOL     OW27607   1.336   1.464   5.249
 8903SOL    HW127608   1.372   1.439   5.159
 8903SOL    HW227609   1.238   1.447   5.251
 8904SOL     OW27610   5.946   6.344   3.984
 8904SOL    HW127611   5.860   6.298   4.009
 8904SOL    HW227612   5.982   6.391   4.065
 8905SOL     OW27613   1.174   4.276   4.171
 8905SOL    HW127614   1.116   4.352   4.202
 8905SOL    HW227615   1.268   4.292   4.201
 8906SOL     OW27616   0.504   6.249   0.138
 8906SOL    HW127617   0.508   6.215   0.232
 8906SOL    HW227618   0.596   6.259   0.102
 8907SOL     OW27619   2.694   2.418   5.055
 8907SOL    HW127620   2.742   2.480   5.118
 8907SOL    HW227621   2.605   2.395   5.094
 8908SOL     OW27622   1.228   3.746   6.501
 8908SOL    HW127623   1.155   3.766   6.436
 8908SOL    HW227624   1.313   3.727   6.452
 8909SOL     OW27625   2.879   0.722   5.733
 8909SOL    HW127626   2.868   0.629   5.699
 8909SOL    HW227627   2.791   0.755   5.768
 8910SOL     OW27628   0.281   2.526   5.991
 8910SOL    HW127629   0.273   2.625   5.998
 8910SOL    HW227630   0.193   2.487   5.966
 8911SOL     OW27631   3.779   1.714   4.610
 8911SOL    HW127632   3.691   1.667   4.613
 8911SOL    HW227633   3.769   1.806   4.648
 8912SOL     OW27634   3.310   3.290   0.269
 8912SOL    HW127635   3.210   3.295   0.276
 8912SOL    HW227636   3.344   3.367   0.216
 8913SOL     OW27637   5.262   5.180   5.667
 8913SOL    HW127638   5.313   5.148   5.587
 8913SOL    HW227639   5.318   5.243   5.720
 8914SOL     OW27640   4.695   0.329   4.940
 8914SOL    HW127641   4.781   0.334   4.891
 8914SOL    HW227642   4.619   0.345   4.876
 8915SOL     OW27643   0.682   2.914   3.836
 8915SOL    HW127644   0.592   2.931   3.797
 8915SOL    HW227645   0.677   2.835   3.897
 8916SOL     OW27646   0.341   3.821   0.797
 8916SOL    HW127647   0.434   3.854   0.811
 8916SOL    HW227648   0.324   3.741   0.855
 8917SOL     OW27649   0.033   3.495   0.255
 8917SOL    HW127650   0.029   3.581   0.306
 8917SOL    HW227651   0.064   3.514   0.162
 8918SOL     OW27652   6.409   3.920   1.242
 8918SOL    HW127653   6.344   3.939   1.169
 8918SOL    HW227654   6.378   3.966   1.326
 8919SOL     OW27655   3.977   4.590   0.538
 8919SOL    HW127656   3.969   4.653   0.615
 8919SOL    HW227657   4.062   4.609   0.489
 8920SOL     OW27658   0.453   0.262   6.913
 8920SOL    HW127659   0.503   0.190   6.866
 8920SOL    HW227660   0.371   0.286   6.860
 8921SOL     OW27661   1.953   2.256   2.584
 8921SOL    HW127662   1.973   2.352   2.602
 8921SOL    HW227663   1.934   2.208   2.670
 8922SOL     OW27664   3.746   5.241   1.535
 8922SOL    HW127665   3.819   5.256   1.468
 8922SOL    HW227666   3.662   5.214   1.487
 8923SOL     OW27667   1.744   3.256   6.340
 8923SOL    HW127668   1.709   3.239   6.432
 8923SOL    HW227669   1.837   3.221   6.332
 8924SOL     OW27670   4.105   5.090   5.565
 8924SOL    HW127671   4.042   5.164   5.585
 8924SOL    HW227672   4.199   5.124   5.566
 8925SOL     OW27673   0.661   1.283   2.843
 8925SOL    HW127674   0.617   1.373   2.840
 8925SOL    HW227675   0.638   1.237   2.929
 8926SOL     OW27676   6.478   3.586   5.807
 8926SOL    HW127677   6.415   3.514   5.835
 8926SOL    HW227678   6.429   3.673   5.800
 8927SOL     OW27679   0.605   1.281   4.604
 8927SOL    HW127680   0.645   1.267   4.514
 8927SOL    HW227681   0.676   1.274   4.674
 8928SOL     OW27682   0.301   0.108   6.345
 8928SOL    HW127683   0.294   0.034   6.412
 8928SOL    HW227684   0.221   0.167   6.352
 8929SOL     OW27685   6.351   3.016   4.217
 8929SOL    HW127686   6.332   2.926   4.257
 8929SOL    HW227687   6.265   3.066   4.208
 8930SOL     OW27688   1.639   3.670   4.251
 8930SOL    HW127689   1.656   3.742   4.318
 8930SOL    HW227690   1.553   3.687   4.205
 8931SOL     OW27691   2.948   3.010   0.736
 8931SOL    HW127692   2.945   3.074   0.812
 8931SOL    HW227693   2.861   2.960   0.731
 8932SOL     OW27694   5.951   0.638   1.093
 8932SOL    HW127695   5.909   0.547   1.089
 8932SOL    HW227696   5.882   0.705   1.119
 8933SOL     OW27697   1.750   3.081   5.896
 8933SOL    HW127698   1.755   3.163   5.839
 8933SOL    HW227699   1.780   3.103   5.989
 8934SOL     OW27700   3.715   5.326   4.640
 8934SOL    HW127701   3.636   5.271   4.667
 8934SOL    HW227702   3.798   5.287   4.680
 8935SOL     OW27703   6.390   4.337   0.937
 8935SOL    HW127704   6.417   4.349   1.033
 8935SOL    HW227705   6.459   4.380   0.878
 8936SOL     OW27706   1.189   3.160   2.174
 8936SOL    HW127707   1.276   3.169   2.125
 8936SOL    HW227708   1.195   3.085   2.240
 8937SOL     OW27709   0.127   6.554   4.731
 8937SOL    HW127710   0.084   6.637   4.696
 8937SOL    HW227711   0.214   6.577   4.774
 8938SOL     OW27712   0.166   0.855   0.470
 8938SOL    HW127713   0.223   0.924   0.425
 8938SOL    HW227714   0.180   0.766   0.428
 8939SOL     OW27715   5.555   4.805   4.520
 8939SOL    HW127716   5.562   4.878   4.451
 8939SOL    HW227717   5.639   4.804   4.575
 8940SOL     OW27718   5.738   1.149   2.123
 8940SOL    HW127719   5.792   1.215   2.072
 8940SOL    HW227720   5.661   1.195   2.167
 8941SOL     OW27721   6.131   2.592   4.332
 8941SOL    HW127722   6.048   2.560   4.377
 8941SOL    HW227723   6.107   2.648   4.253
 8942SOL     OW27724   6.306   5.597   5.763
 8942SOL    HW127725   6.232   5.643   5.713
 8942SOL    HW227726   6.378   5.663   5.783
 8943SOL     OW27727   3.757   5.475   0.444
 8943SOL    HW127728   3.680   5.416   0.470
 8943SOL    HW227729   3.826   5.420   0.396
 8944SOL     OW27730   5.162   6.355   4.186
 8944SOL    HW127731   5.095   6.427   4.199
 8944SOL    HW227732   5.176   6.306   4.272
 8945SOL     OW27733   0.725   1.242   3.912
 8945SOL    HW127734   0.698   1.149   3.938
 8945SOL    HW227735   0.823   1.245   3.893
 8946SOL     OW27736   3.077   0.687   3.512
 8946SOL    HW127737   3.133   0.677   3.595
 8946SOL    HW227738   3.076   0.600   3.462
 8947SOL     OW27739   2.509   3.547   5.939
 8947SOL    HW127740   2.545   3.638   5.958
 8947SOL    HW227741   2.472   3.545   5.847
 8948SOL     OW27742   5.977   5.710   3.485
 8948SOL    HW127743   5.975   5.715   3.585
 8948SOL    HW227744   6.072   5.715   3.454
 8949SOL     OW27745   3.903   6.429   0.922
 8949SOL    HW127746   3.865   6.517   0.953
 8949SOL    HW227747   3.947   6.383   0.999
 8950SOL     OW27748   3.777   3.523   0.483
 8950SOL    HW127749   3.808   3.428   0.474
 8950SOL    HW227750   3.779   3.567   0.393
 8951SOL     OW27751   2.036   1.070   4.473
 8951SOL    HW127752   2.122   1.120   4.472
 8951SOL    HW227753   1.968   1.118   4.418
 8952SOL     OW27754   1.034   5.177   3.590
 8952SOL    HW127755   0.944   5.179   3.634
 8952SOL    HW227756   1.064   5.271   3.571
 8953SOL     OW27757   1.443   4.348   0.465
 8953SOL    HW127758   1.491   4.424   0.509
 8953SOL    HW227759   1.506   4.273   0.449
 8954SOL     OW27760   6.805   6.897   4.517
 8954SOL    HW127761   6.852   6.854   4.440
 8954SOL    HW227762   6.709   6.869   4.517
 8955SOL     OW27763   6.679   4.731   3.202
 8955SOL    HW127764   6.729   4.814   3.228
 8955SOL    HW227765   6.743   4.655   3.195
 8956SOL     OW27766   1.833   1.693   5.646
 8956SOL    HW127767   1.835   1.635   5.728
 8956SOL    HW227768   1.909   1.757   5.649
 8957SOL     OW27769   1.907   4.722   1.592
 8957SOL    HW127770   2.004   4.745   1.601
 8957SOL    HW227771   1.872   4.761   1.506
 8958SOL     OW27772   0.440   2.306   4.906
 8958SOL    HW127773   0.424   2.375   4.977
 8958SOL    HW227774   0.389   2.223   4.928
 8959SOL     OW27775   1.726   4.440   2.323
 8959SOL    HW127776   1.703   4.531   2.358
 8959SOL    HW227777   1.656   4.375   2.353
 8960SOL     OW27778   4.806   5.508   3.569
 8960SOL    HW127779   4.854   5.448   3.632
 8960SOL    HW227780   4.824   5.479   3.475
 8961SOL     OW27781   3.331   1.296   3.437
 8961SOL    HW127782   3.418   1.260   3.404
 8961SOL    HW227783   3.340   1.326   3.532
 8962SOL     OW27784   6.075   5.399   2.261
 8962SOL    HW127785   6.022   5.460   2.319
 8962SOL    HW227786   6.131   5.338   2.318
 8963SOL     OW27787   3.653   0.412   4.825
 8963SOL    HW127788   3.555   0.403   4.808
 8963SOL    HW227789   3.689   0.490   4.774
 8964SOL     OW27790   5.827   2.895   3.280
 8964SOL    HW127791   5.869   2.937   3.200
 8964SOL    HW227792   5.729   2.913   3.280
 8965SOL     OW27793   2.371   5.592   0.121
 8965SOL    HW127794   2.413   5.682   0.125
 8965SOL    HW227795   2.334   5.568   0.211
 8966SOL     OW27796   6.693   3.852   6.997
 8966SOL    HW127797   6.791   3.873   6.998
 8966SOL    HW227798   6.657   3.870   6.905
 8967SOL     OW27799   3.733   0.639   1.728
 8967SOL    HW127800   3.664   0.567   1.725
 8967SOL    HW227801   3.810   0.614   1.669
 8968SOL     OW27802   4.450   5.727   2.440
 8968SOL    HW127803   4.369   5.669   2.446
 8968SOL    HW227804   4.429   5.807   2.383
 8969SOL     OW27805   6.524   0.102   3.733
 8969SOL    HW127806   6.472   0.024   3.769
 8969SOL    HW227807   6.492   0.186   3.778
 8970SOL     OW27808   2.422   3.311   6.740
 8970SOL    HW127809   2.376   3.381   6.684
 8970SOL    HW227810   2.521   3.322   6.733
 8971SOL     OW27811   6.123   4.889   1.528
 8971SOL    HW127812   6.115   4.862   1.624
 8971SOL    HW227813   6.032   4.907   1.491
 8972SOL     OW27814   4.448   3.936   0.461
 8972SOL    HW127815   4.475   4.032   0.470
 8972SOL    HW227816   4.446   3.911   0.364
 8973SOL     OW27817   0.274   3.712   3.170
 8973SOL    HW127818   0.177   3.737   3.166
 8973SOL    HW227819   0.287   3.638   3.236
 8974SOL     OW27820   1.473   3.416   4.028
 8974SOL    HW127821   1.565   3.406   4.067
 8974SOL    HW227822   1.408   3.362   4.082
 8975SOL     OW27823   0.785   6.240   0.518
 8975SOL    HW127824   0.755   6.315   0.460
 8975SOL    HW227825   0.823   6.278   0.603
 8976SOL     OW27826   0.481   5.253   0.371
 8976SOL    HW127827   0.420   5.303   0.309
 8976SOL    HW227828   0.545   5.316   0.413
 8977SOL     OW27829   6.715   3.109   6.814
 8977SOL    HW127830   6.735   3.120   6.912
 8977SOL    HW227831   6.616   3.108   6.801
 8978SOL     OW27832   5.128   6.921   4.450
 8978SOL    HW127833   5.207   6.899   4.393
 8978SOL    HW227834   5.128   7.020   4.469
 8979SOL     OW27835   0.806   4.617   5.606
 8979SOL    HW127836   0.724   4.561   5.608
 8979SOL    HW227837   0.878   4.569   5.556
 8980SOL     OW27838   4.666   2.706   5.237
 8980SOL    HW127839   4.687   2.755   5.152
 8980SOL    HW227840   4.687   2.765   5.315
 8981SOL     OW27841   4.504   2.137   4.775
 8981SOL    HW127842   4.531   2.123   4.680
 8981SOL    HW227843   4.415   2.183   4.777
 8982SOL     OW27844   1.686   1.446   1.665
 8982SOL    HW127845   1.711   1.364   1.716
 8982SOL    HW227846   1.737   1.448   1.579
 8983SOL     OW27847   0.678   5.502   0.734
 8983SOL    HW127848   0.681   5.442   0.814
 8983SOL    HW227849   0.760   5.559   0.732
 8984SOL     OW27850   6.088   6.216   3.786
 8984SOL    HW127851   6.019   6.259   3.843
 8984SOL    HW227852   6.044   6.172   3.708
 8985SOL     OW27853   2.202   1.277   0.702
 8985SOL    HW127854   2.110   1.313   0.717
 8985SOL    HW227855   2.269   1.339   0.742
 8986SOL     OW27856   4.242   4.977   2.079
 8986SOL    HW127857   4.308   4.911   2.116
 8986SOL    HW227858   4.277   5.070   2.092
 8987SOL     OW27859   3.978   0.318   0.869
 8987SOL    HW127860   3.918   0.391   0.902
 8987SOL    HW227861   4.020   0.346   0.783
 8988SOL     OW27862   1.935   4.460   0.487
 8988SOL    HW127863   1.979   4.512   0.413
 8988SOL    HW227864   1.907   4.371   0.452
 8989SOL     OW27865   4.912   4.157   2.006
 8989SOL    HW127866   4.895   4.249   2.042
 8989SOL    HW227867   4.858   4.143   1.923
 8990SOL     OW27868   2.281   6.053   2.701
 8990SOL    HW127869   2.346   6.056   2.625
 8990SOL    HW227870   2.188   6.048   2.666
 8991SOL     OW27871   1.713   1.658   6.510
 8991SOL    HW127872   1.701   1.660   6.609
 8991SOL    HW227873   1.810   1.663   6.488
 8992SOL     OW27874   6.706   2.647   6.406
 8992SOL    HW127875   6.781   2.713   6.418
 8992SOL    HW227876   6.742   2.554   6.416
 8993SOL     OW27877   5.171   2.746   2.887
 8993SOL    HW127878   5.109   2.767   2.812
 8993SOL    HW227879   5.266   2.757   2.857
 8994SOL     OW27880   0.676   5.017   4.743
 8994SOL    HW127881   0.596   5.039   4.798
 8994SOL    HW227882   0.685   4.917   4.736
 8995SOL     OW27883   1.233   2.656   6.640
 8995SOL    HW127884   1.190   2.581   6.589
 8995SOL    HW227885   1.256   2.730   6.577
 8996SOL     OW27886   6.665   5.217   1.869
 8996SOL    HW127887   6.651   5.309   1.907
 8996SOL    HW227888   6.620   5.150   1.928
 8997SOL     OW27889   3.986   1.731   6.416
 8997SOL    HW127890   3.995   1.640   6.377
 8997SOL    HW227891   4.000   1.799   6.344
 8998SOL     OW27892   0.150   3.498   5.287
 8998SOL    HW127893   0.245   3.487   5.318
 8998SOL    HW227894   0.107   3.408   5.280
 8999SOL     OW27895   5.358   0.238   0.442
 8999SOL    HW127896   5.261   0.238   0.465
 8999SOL    HW227897   5.380   0.153   0.395
 9000SOL     OW27898   2.502   4.347   6.357
 9000SOL    HW127899   2.563   4.423   6.334
 9000SOL    HW227900   2.411   4.365   6.320
 9001SOL     OW27901   0.901   5.308   2.780
 9001SOL    HW127902   0.841   5.367   2.725
 9001SOL    HW227903   0.888   5.329   2.877
 9002SOL     OW27904   6.806   4.989   4.795
 9002SOL    HW127905   6.809   5.051   4.873
 9002SOL    HW227906   6.716   4.947   4.789
 9003SOL     OW27907   5.251   2.453   1.007
 9003SOL    HW127908   5.249   2.395   0.926
 9003SOL    HW227909   5.286   2.543   0.983
 9004SOL     OW27910   5.019   6.684   2.010
 9004SOL    HW127911   5.033   6.783   2.007
 9004SOL    HW227912   5.021   6.654   2.106
 9005SOL     OW27913   5.095   2.244   5.039
 9005SOL    HW127914   5.083   2.239   5.138
 9005SOL    HW227915   5.009   2.221   4.994
 9006SOL     OW27916   2.143   6.220   0.621
 9006SOL    HW127917   2.110   6.256   0.534
 9006SOL    HW227918   2.243   6.214   0.618
 9007SOL     OW27919   3.790   6.658   3.920
 9007SOL    HW127920   3.864   6.707   3.966
 9007SOL    HW227921   3.707   6.665   3.974
 9008SOL     OW27922   6.756   5.036   3.016
 9008SOL    HW127923   6.681   5.005   2.957
 9008SOL    HW227924   6.717   5.078   3.098
 9009SOL     OW27925   2.531   0.122   0.271
 9009SOL    HW127926   2.470   0.151   0.197
 9009SOL    HW227927   2.487   0.139   0.359
 9010SOL     OW27928   0.915   6.893   4.964
 9010SOL    HW127929   0.967   6.810   4.946
 9010SOL    HW227930   0.941   6.964   4.898
 9011SOL     OW27931   4.188   2.166   1.583
 9011SOL    HW127932   4.138   2.087   1.548
 9011SOL    HW227933   4.150   2.193   1.671
 9012SOL     OW27934   3.529   4.400   1.294
 9012SOL    HW127935   3.588   4.456   1.353
 9012SOL    HW227936   3.451   4.455   1.264
 9013SOL     OW27937   0.149   6.426   4.028
 9013SOL    HW127938   0.114   6.373   3.951
 9013SOL    HW227939   0.247   6.445   4.013
 9014SOL     OW27940   0.726   0.690   0.095
 9014SOL    HW127941   0.784   0.768   0.073
 9014SOL    HW227942   0.741   0.662   0.189
 9015SOL     OW27943   6.072   1.634   1.352
 9015SOL    HW127944   6.098   1.538   1.365
 9015SOL    HW227945   5.995   1.641   1.290
 9016SOL     OW27946   0.700   6.482   6.798
 9016SOL    HW127947   0.722   6.528   6.712
 9016SOL    HW227948   0.775   6.420   6.822
 9017SOL     OW27949   4.581   2.349   1.942
 9017SOL    HW127950   4.605   2.444   1.964
 9017SOL    HW227951   4.523   2.312   2.015
 9018SOL     OW27952   4.612   1.713   5.513
 9018SOL    HW127953   4.676   1.639   5.533
 9018SOL    HW227954   4.595   1.766   5.596
 9019SOL     OW27955   0.611   0.567   0.926
 9019SOL    HW127956   0.523   0.613   0.914
 9019SOL    HW227957   0.600   0.491   0.990
 9020SOL     OW27958   1.464   3.543   1.653
 9020SOL    HW127959   1.480   3.639   1.632
 9020SOL    HW227960   1.366   3.524   1.651
 9021SOL     OW27961   6.811   0.071   3.877
 9021SOL    HW127962   6.896   0.115   3.908
 9021SOL    HW227963   6.803   0.083   3.778
 9022SOL     OW27964   2.786   1.266   0.927
 9022SOL    HW127965   2.692   1.243   0.950
 9022SOL    HW227966   2.786   1.329   0.849
 9023SOL     OW27967   3.180   3.063   2.435
 9023SOL    HW127968   3.255   3.125   2.460
 9023SOL    HW227969   3.210   3.003   2.360
 9024SOL     OW27970   0.625   5.249   5.233
 9024SOL    HW127971   0.580   5.336   5.252
 9024SOL    HW227972   0.600   5.218   5.141
 9025SOL     OW27973   0.316   5.946   0.001
 9025SOL    HW127974   0.254   5.911   0.071
 9025SOL    HW227975   0.294   6.042   7.004
 9026SOL     OW27976   3.773   3.505   1.762
 9026SOL    HW127977   3.719   3.582   1.798
 9026SOL    HW227978   3.870   3.525   1.775
 9027SOL     OW27979   1.116   1.777   3.757
 9027SOL    HW127980   1.182   1.718   3.803
 9027SOL    HW227981   1.164   1.843   3.700
 9028SOL     OW27982   2.468   3.818   6.702
 9028SOL    HW127983   2.435   3.912   6.689
 9028SOL    HW227984   2.527   3.792   6.625
 9029SOL     OW27985   3.444   5.350   4.960
 9029SOL    HW127986   3.540   5.323   4.949
 9029SOL    HW227987   3.420   5.349   5.057
 9030SOL     OW27988   1.753   1.091   3.397
 9030SOL    HW127989   1.770   1.185   3.425
 9030SOL    HW227990   1.800   1.028   3.459
 9031SOL     OW27991   4.727   6.034   4.552
 9031SOL    HW127992   4.663   6.089   4.498
 9031SOL    HW227993   4.683   5.948   4.578
 9032SOL     OW27994   3.099   2.806   0.909
 9032SOL    HW127995   3.092   2.887   0.851
 9032SOL    HW227996   3.007   2.779   0.939
 9033SOL     OW27997   1.850   5.002   3.786
 9033SOL    HW127998   1.833   4.904   3.797
 9033SOL    HW227999   1.767   5.047   3.752
 9034SOL     OW28000   2.736   0.573   5.269
 9034SOL    HW128001   2.724   0.608   5.176
 9034SOL    HW228002   2.803   0.628   5.318
 9035SOL     OW28003   1.028   5.446   5.942
 9035SOL    HW128004   0.962   5.406   5.879
 9035SOL    HW228005   1.030   5.393   6.027
 9036SOL     OW28006   1.492   0.986   5.504
 9036SOL    HW128007   1.477   1.078   5.469
 9036SOL    HW228008   1.540   0.991   5.591
 9037SOL     OW28009   1.458   3.640   5.877
 9037SOL    HW128010   1.547   3.666   5.915
 9037SOL    HW228011   1.427   3.556   5.920
 9038SOL     OW28012   4.696   7.009   5.802
 9038SOL    HW128013   4.748   6.990   5.885
 9038SOL    HW228014   4.745   0.055   5.748
 9039SOL     OW28015   2.436   4.698   4.244
 9039SOL    HW128016   2.383   4.626   4.290
 9039SOL    HW228017   2.506   4.655   4.186
 9040SOL     OW28018   2.517   1.878   2.413
 9040SOL    HW128019   2.442   1.890   2.478
 9040SOL    HW228020   2.516   1.785   2.377
 9041SOL     OW28021   0.689   2.210   2.021
 9041SOL    HW128022   0.717   2.296   1.979
 9041SOL    HW228023   0.726   2.203   2.113
 9042SOL     OW28024   2.671   6.735   3.958
 9042SOL    HW128025   2.687   6.647   4.005
 9042SOL    HW228026   2.722   6.735   3.872
 9043SOL     OW28027   2.926   1.576   6.377
 9043SOL    HW128028   2.973   1.488   6.370
 9043SOL    HW228029   2.993   1.650   6.372
 9044SOL     OW28030   5.503   1.719   1.721
 9044SOL    HW128031   5.467   1.794   1.665
 9044SOL    HW228032   5.498   1.634   1.670
 9045SOL     OW28033   3.044   1.813   2.357
 9045SOL    HW128034   3.105   1.794   2.280
 9045SOL    HW228035   3.037   1.912   2.371
 9046SOL     OW28036   3.762   3.639   4.668
 9046SOL    HW128037   3.725   3.547   4.683
 9046SOL    HW228038   3.860   3.639   4.687
 9047SOL     OW28039   1.156   3.025   5.388
 9047SOL    HW128040   1.165   2.948   5.325
 9047SOL    HW228041   1.076   3.079   5.362
 9048SOL     OW28042   6.362   2.655   6.111
 9048SOL    HW128043   6.263   2.653   6.122
 9048SOL    HW228044   6.397   2.743   6.143
 9049SOL     OW28045   4.037   0.293   6.364
 9049SOL    HW128046   4.049   0.390   6.344
 9049SOL    HW228047   3.942   0.277   6.391
 9050SOL     OW28048   0.303   4.282   5.867
 9050SOL    HW128049   0.307   4.218   5.944
 9050SOL    HW228050   0.389   4.332   5.861
 9051SOL     OW28051   3.965   5.994   0.907
 9051SOL    HW128052   3.893   5.956   0.847
 9051SOL    HW228053   4.049   6.004   0.854
 9052SOL     OW28054   1.661   2.285   3.093
 9052SOL    HW128055   1.634   2.339   3.173
 9052SOL    HW228056   1.616   2.322   3.011
 9053SOL     OW28057   1.339   1.451   2.960
 9053SOL    HW128058   1.379   1.360   2.973
 9053SOL    HW228059   1.409   1.513   2.924
 9054SOL     OW28060   1.640   0.025   2.034
 9054SOL    HW128061   1.704   0.006   1.959
 9054SOL    HW228062   1.593   6.963   2.059
 9055SOL     OW28063   6.400   3.308   3.823
 9055SOL    HW128064   6.334   3.356   3.880
 9055SOL    HW228065   6.480   3.284   3.877
 9056SOL     OW28066   6.454   0.626   1.412
 9056SOL    HW128067   6.412   0.542   1.378
 9056SOL    HW228068   6.435   0.701   1.349
 9057SOL     OW28069   5.659   5.142   5.806
 9057SOL    HW128070   5.706   5.093   5.733
 9057SOL    HW228071   5.677   5.240   5.797
 9058SOL     OW28072   2.173   1.616   3.656
 9058SOL    HW128073   2.219   1.650   3.738
 9058SOL    HW228074   2.238   1.567   3.599
 9059SOL     OW28075   1.444   1.416   5.011
 9059SOL    HW128076   1.544   1.410   5.014
 9059SOL    HW228077   1.406   1.330   4.980
 9060SOL     OW28078   6.853   2.788   2.232
 9060SOL    HW128079   6.798   2.709   2.205
 9060SOL    HW228080   6.948   2.760   2.246
 9061SOL     OW28081   3.243   6.163   2.343
 9061SOL    HW128082   3.261   6.166   2.245
 9061SOL    HW228083   3.325   6.194   2.393
 9062SOL     OW28084   1.792   5.648   2.065
 9062SOL    HW128085   1.825   5.655   2.159
 9062SOL    HW228086   1.727   5.722   2.046
 9063SOL     OW28087   2.195   6.720   2.643
 9063SOL    HW128088   2.143   6.704   2.559
 9063SOL    HW228089   2.187   6.817   2.668
 9064SOL     OW28090   6.187   4.025   5.589
 9064SOL    HW128091   6.249   3.948   5.571
 9064SOL    HW228092   6.100   4.009   5.541
 9065SOL     OW28093   3.069   6.219   6.394
 9065SOL    HW128094   3.107   6.223   6.301
 9065SOL    HW228095   3.127   6.270   6.456
 9066SOL     OW28096   5.712   0.099   0.405
 9066SOL    HW128097   5.734   0.154   0.325
 9066SOL    HW228098   5.720   0.002   0.382
 9067SOL     OW28099   6.443   0.130   4.161
 9067SOL    HW128100   6.381   0.207   4.174
 9067SOL    HW228101   6.521   0.158   4.104
 9068SOL     OW28102   2.864   0.131   5.539
 9068SOL    HW128103   2.870   0.155   5.636
 9068SOL    HW228104   2.788   0.182   5.497
 9069SOL     OW28105   2.757   2.272   1.794
 9069SOL    HW128106   2.697   2.344   1.762
 9069SOL    HW228107   2.817   2.307   1.866
 9070SOL     OW28108   0.995   3.187   5.730
 9070SOL    HW128109   1.086   3.155   5.705
 9070SOL    HW228110   1.002   3.273   5.780
 9071SOL     OW28111   5.532   0.305   0.882
 9071SOL    HW128112   5.571   0.260   0.802
 9071SOL    HW228113   5.442   0.266   0.902
 9072SOL     OW28114   6.379   0.981   2.229
 9072SOL    HW128115   6.303   1.044   2.216
 9072SOL    HW228116   6.448   0.998   2.158
 9073SOL     OW28117   3.329   6.553   0.452
 9073SOL    HW128118   3.300   6.637   0.499
 9073SOL    HW228119   3.264   6.533   0.378
 9074SOL     OW28120   2.077   1.128   2.070
 9074SOL    HW128121   2.017   1.191   2.020
 9074SOL    HW228122   2.136   1.080   2.005
 9075SOL     OW28123   1.379   1.336   2.188
 9075SOL    HW128124   1.399   1.262   2.252
 9075SOL    HW228125   1.420   1.315   2.099
 9076SOL     OW28126   5.778   1.649   5.036
 9076SOL    HW128127   5.850   1.718   5.035
 9076SOL    HW228128   5.819   1.558   5.042
 9077SOL     OW28129   5.305   6.747   6.670
 9077SOL    HW128130   5.298   6.814   6.744
 9077SOL    HW228131   5.394   6.701   6.676
 9078SOL     OW28132   4.408   3.586   6.684
 9078SOL    HW128133   4.347   3.595   6.605
 9078SOL    HW228134   4.359   3.615   6.767
 9079SOL     OW28135   2.482   6.482   4.059
 9079SOL    HW128136   2.579   6.496   4.075
 9079SOL    HW228137   2.468   6.430   3.975
 9080SOL     OW28138   5.477   1.859   0.186
 9080SOL    HW128139   5.461   1.865   0.284
 9080SOL    HW228140   5.407   1.802   0.144
 9081SOL     OW28141   4.227   6.482   2.631
 9081SOL    HW128142   4.141   6.532   2.632
 9081SOL    HW228143   4.282   6.511   2.553
 9082SOL     OW28144   2.802   6.383   5.353
 9082SOL    HW128145   2.830   6.433   5.271
 9082SOL    HW228146   2.746   6.442   5.411
 9083SOL     OW28147   3.801   4.598   5.818
 9083SOL    HW128148   3.854   4.513   5.809
 9083SOL    HW228149   3.857   4.668   5.862
 9084SOL     OW28150   3.231   3.510   5.558
 9084SOL    HW128151   3.325   3.474   5.556
 9084SOL    HW228152   3.173   3.448   5.610
 9085SOL     OW28153   1.982   4.541   1.204
 9085SOL    HW128154   1.951   4.515   1.112
 9085SOL    HW228155   1.988   4.641   1.210
 9086SOL     OW28156   0.688   4.480   0.518
 9086SOL    HW128157   0.741   4.432   0.449
 9086SOL    HW228158   0.709   4.578   0.514
 9087SOL     OW28159   4.489   2.453   2.221
 9087SOL    HW128160   4.466   2.384   2.290
 9087SOL    HW228161   4.408   2.508   2.201
 9088SOL     OW28162   5.469   6.161   0.644
 9088SOL    HW128163   5.550   6.109   0.673
 9088SOL    HW228164   5.406   6.169   0.721
 9089SOL     OW28165   5.018   6.531   4.965
 9089SOL    HW128166   4.975   6.587   5.036
 9089SOL    HW228167   5.115   6.522   4.985
 9090SOL     OW28168   6.844   6.623   3.258
 9090SOL    HW128169   6.754   6.663   3.278
 9090SOL    HW228170   6.912   6.696   3.257
 9091SOL     OW28171   3.261   3.869   0.955
 9091SOL    HW128172   3.276   3.784   0.905
 9091SOL    HW228173   3.195   3.926   0.905
 9092SOL     OW28174   0.281   2.052   1.063
 9092SOL    HW128175   0.206   2.006   1.016
 9092SOL    HW228176   0.265   2.151   1.064
 9093SOL     OW28177   1.130   6.438   6.290
 9093SOL    HW128178   1.084   6.379   6.224
 9093SOL    HW228179   1.140   6.530   6.252
 9094SOL     OW28180   6.196   5.409   2.857
 9094SOL    HW128181   6.117   5.363   2.816
 9094SOL    HW228182   6.248   5.344   2.911
 9095SOL     OW28183   4.536   4.010   6.239
 9095SOL    HW128184   4.511   4.103   6.212
 9095SOL    HW228185   4.470   3.946   6.200
 9096SOL     OW28186   5.733   3.789   1.606
 9096SOL    HW128187   5.677   3.727   1.551
 9096SOL    HW228188   5.797   3.736   1.661
 9097SOL     OW28189   0.817   1.832   6.790
 9097SOL    HW128190   0.777   1.742   6.769
 9097SOL    HW228191   0.770   1.872   6.868
 9098SOL     OW28192   3.840   2.290   6.138
 9098SOL    HW128193   3.909   2.358   6.165
 9098SOL    HW228194   3.876   2.198   6.155
 9099SOL     OW28195   2.899   2.506   5.988
 9099SOL    HW128196   2.991   2.468   5.997
 9099SOL    HW228197   2.897   2.571   5.912
 9100SOL     OW28198   0.514   3.858   3.782
 9100SOL    HW128199   0.612   3.871   3.799
 9100SOL    HW228200   0.501   3.788   3.712
 9101SOL     OW28201   2.179   2.168   3.001
 9101SOL    HW128202   2.217   2.246   2.951
 9101SOL    HW228203   2.103   2.199   3.059
 9102SOL     OW28204   3.040   0.096   1.537
 9102SOL    HW128205   2.973   0.026   1.514
 9102SOL    HW228206   3.117   0.054   1.585
 9103SOL     OW28207   6.444   3.110   6.746
 9103SOL    HW128208   6.416   3.132   6.653
 9103SOL    HW228209   6.439   3.192   6.803
 9104SOL     OW28210   0.214   6.539   1.910
 9104SOL    HW128211   0.252   6.564   1.820
 9104SOL    HW228212   0.205   6.440   1.916
 9105SOL     OW28213   1.672   1.580   6.778
 9105SOL    HW128214   1.578   1.604   6.802
 9105SOL    HW228215   1.735   1.629   6.839
 9106SOL     OW28216   0.144   2.903   0.477
 9106SOL    HW128217   0.128   2.812   0.441
 9106SOL    HW228218   0.108   2.909   0.570
 9107SOL     OW28219   3.540   0.921   5.645
 9107SOL    HW128220   3.603   0.977   5.591
 9107SOL    HW228221   3.449   0.962   5.643
 9108SOL     OW28222   4.980   4.040   5.759
 9108SOL    HW128223   5.049   4.027   5.689
 9108SOL    HW228224   4.953   3.951   5.797
 9109SOL     OW28225   6.758   2.210   3.212
 9109SOL    HW128226   6.662   2.181   3.207
 9109SOL    HW228227   6.782   2.260   3.128
 9110SOL     OW28228   1.867   4.735   3.816
 9110SOL    HW128229   1.924   4.697   3.888
 9110SOL    HW228230   1.799   4.668   3.788
 9111SOL     OW28231   4.660   1.785   0.690
 9111SOL    HW128232   4.624   1.715   0.628
 9111SOL    HW228233   4.725   1.843   0.641
 9112SOL     OW28234   0.706   5.263   3.512
 9112SOL    HW128235   0.733   5.309   3.596
 9112SOL    HW228236   0.690   5.166   3.531
 9113SOL     OW28237   4.662   1.478   2.564
 9113SOL    HW128238   4.594   1.551   2.559
 9113SOL    HW228239   4.617   1.392   2.588
 9114SOL     OW28240   0.922   4.610   2.333
 9114SOL    HW128241   0.943   4.518   2.301
 9114SOL    HW228242   0.901   4.608   2.431
 9115SOL     OW28243   0.180   6.154   4.416
 9115SOL    HW128244   0.088   6.176   4.448
 9115SOL    HW228245   0.195   6.055   4.426
 9116SOL     OW28246   6.750   0.951   1.656
 9116SOL    HW128247   6.654   0.973   1.636
 9116SOL    HW228248   6.759   0.851   1.664
 9117SOL     OW28249   5.372   2.231   0.406
 9117SOL    HW128250   5.468   2.250   0.384
 9117SOL    HW228251   5.315   2.304   0.369
 9118SOL     OW28252   6.644   3.577   0.103
 9118SOL    HW128253   6.722   3.519   0.083
 9118SOL    HW228254   6.656   3.666   0.058
 9119SOL     OW28255   4.623   0.290   2.585
 9119SOL    HW128256   4.601   0.207   2.636
 9119SOL    HW228257   4.539   0.338   2.561
 9120SOL     OW28258   6.190   2.120   6.266
 9120SOL    HW128259   6.185   2.176   6.183
 9120SOL    HW228260   6.249   2.163   6.333
 9121SOL     OW28261   4.180   0.952   5.001
 9121SOL    HW128262   4.184   1.030   5.064
 9121SOL    HW228263   4.211   0.870   5.048
 9122SOL     OW28264   2.397   4.330   2.352
 9122SOL    HW128265   2.495   4.346   2.349
 9122SOL    HW228266   2.362   4.356   2.442
 9123SOL     OW28267   2.401   0.703   3.219
 9123SOL    HW128268   2.309   0.677   3.246
 9123SOL    HW228269   2.444   0.757   3.291
 9124SOL     OW28270   5.574   6.405   0.286
 9124SOL    HW128271   5.521   6.322   0.266
 9124SOL    HW228272   5.669   6.389   0.261
 9125SOL     OW28273   5.068   4.372   0.290
 9125SOL    HW128274   5.144   4.354   0.228
 9125SOL    HW228275   4.983   4.339   0.249
 9126SOL     OW28276   6.261   3.498   1.314
 9126SOL    HW128277   6.293   3.420   1.368
 9126SOL    HW228278   6.162   3.508   1.323
 9127SOL     OW28279   6.940   1.548   6.391
 9127SOL    HW128280   6.877   1.597   6.331
 9127SOL    HW228281   7.007   1.498   6.337
 9128SOL     OW28282   5.907   2.367   5.302
 9128SOL    HW128283   5.971   2.413   5.365
 9128SOL    HW228284   5.926   2.397   5.208
 9129SOL     OW28285   0.361   2.424   0.470
 9129SOL    HW128286   0.267   2.443   0.497
 9129SOL    HW228287   0.366   2.331   0.432
 9130SOL     OW28288   0.625   3.380   6.011
 9130SOL    HW128289   0.660   3.305   5.956
 9130SOL    HW228290   0.610   3.349   6.105
 9131SOL     OW28291   5.729   2.740   5.730
 9131SOL    HW128292   5.820   2.752   5.691
 9131SOL    HW228293   5.680   2.827   5.730
 9132SOL     OW28294   7.000   5.767   4.208
 9132SOL    HW128295   6.975   5.674   4.236
 9132SOL    HW228296   6.953   5.789   4.122
 9133SOL     OW28297   3.723   6.779   1.781
 9133SOL    HW128298   3.634   6.810   1.748
 9133SOL    HW228299   3.795   6.807   1.718
 9134SOL     OW28300   3.691   5.919   1.299
 9134SOL    HW128301   3.621   5.981   1.336
 9134SOL    HW228302   3.724   5.954   1.211
 9135SOL     OW28303   6.262   6.861   1.294
 9135SOL    HW128304   6.253   6.769   1.332
 9135SOL    HW228305   6.217   6.926   1.355
 9136SOL     OW28306   5.074   6.102   0.074
 9136SOL    HW128307   4.997   6.038   0.078
 9136SOL    HW228308   5.102   6.126   0.167
 9137SOL     OW28309   5.049   1.399   0.772
 9137SOL    HW128310   5.092   1.456   0.703
 9137SOL    HW228311   5.095   1.412   0.860
 9138SOL     OW28312   0.183   5.569   6.466
 9138SOL    HW128313   0.232   5.633   6.525
 9138SOL    HW228314   0.086   5.568   6.492
 9139SOL     OW28315   2.074   2.038   3.246
 9139SOL    HW128316   2.144   1.990   3.195
 9139SOL    HW228317   1.984   2.020   3.206
 9140SOL     OW28318   6.882   3.347   2.508
 9140SOL    HW128319   6.941   3.304   2.440
 9140SOL    HW228320   6.914   3.323   2.600
 9141SOL     OW28321   5.375   0.043   1.330
 9141SOL    HW128322   5.314   7.007   1.384
 9141SOL    HW228323   5.438   7.009   1.277
 9142SOL     OW28324   0.609   2.894   1.141
 9142SOL    HW128325   0.658   2.824   1.088
 9142SOL    HW228326   0.674   2.963   1.173
 9143SOL     OW28327   6.344   3.069   0.548
 9143SOL    HW128328   6.408   3.017   0.492
 9143SOL    HW228329   6.386   3.157   0.573
 9144SOL     OW28330   2.747   5.014   4.695
 9144SOL    HW128331   2.831   5.068   4.697
 9144SOL    HW228332   2.685   5.053   4.627
 9145SOL     OW28333   0.340   5.370   0.159
 9145SOL    HW128334   0.367   5.461   0.125
 9145SOL    HW228335   0.314   5.312   0.083
 9146SOL     OW28336   5.446   3.019   3.516
 9146SOL    HW128337   5.495   2.946   3.563
 9146SOL    HW228338   5.493   3.106   3.532
 9147SOL     OW28339   5.853   6.660   5.232
 9147SOL    HW128340   5.927   6.692   5.291
 9147SOL    HW228341   5.853   6.711   5.146
 9148SOL     OW28342   4.903   6.426   2.043
 9148SOL    HW128343   4.933   6.521   2.038
 9148SOL    HW228344   4.878   6.403   2.137
 9149SOL     OW28345   5.319   4.108   2.587
 9149SOL    HW128346   5.380   4.046   2.635
 9149SOL    HW228347   5.253   4.055   2.533
 9150SOL     OW28348   3.150   5.330   1.270
 9150SOL    HW128349   3.061   5.341   1.226
 9150SOL    HW228350   3.186   5.419   1.297
 9151SOL     OW28351   1.401   4.493   3.734
 9151SOL    HW128352   1.403   4.465   3.638
 9151SOL    HW228353   1.322   4.450   3.779
 9152SOL     OW28354   2.210   3.927   4.438
 9152SOL    HW128355   2.267   3.875   4.502
 9152SOL    HW228356   2.187   3.870   4.360
 9153SOL     OW28357   0.395   2.929   0.394
 9153SOL    HW128358   0.410   3.027   0.411
 9153SOL    HW228359   0.306   2.903   0.430
 9154SOL     OW28360   5.571   4.636   5.798
 9154SOL    HW128361   5.597   4.557   5.742
 9154SOL    HW228362   5.617   4.718   5.763
 9155SOL     OW28363   1.674   4.245   2.774
 9155SOL    HW128364   1.696   4.202   2.862
 9155SOL    HW228365   1.734   4.207   2.704
 9156SOL     OW28366   0.555   1.980   1.101
 9156SOL    HW128367   0.459   2.007   1.093
 9156SOL    HW228368   0.588   2.001   1.193
 9157SOL     OW28369   2.400   4.205   6.636
 9157SOL    HW128370   2.402   4.273   6.709
 9157SOL    HW228371   2.410   4.250   6.548
 9158SOL     OW28372   6.408   3.596   4.462
 9158SOL    HW128373   6.496   3.642   4.452
 9158SOL    HW228374   6.423   3.503   4.498
 9159SOL     OW28375   1.552   0.839   2.558
 9159SOL    HW128376   1.637   0.873   2.597
 9159SOL    HW228377   1.539   0.743   2.584
 9160SOL     OW28378   0.059   6.611   6.113
 9160SOL    HW128379   0.069   6.531   6.173
 9160SOL    HW228380   0.127   6.680   6.138
 9161SOL     OW28381   5.132   5.071   3.774
 9161SOL    HW128382   5.136   5.038   3.680
 9161SOL    HW228383   5.188   5.013   3.832
 9162SOL     OW28384   4.101   0.585   3.525
 9162SOL    HW128385   4.100   0.671   3.577
 9162SOL    HW228386   4.194   0.547   3.526
 9163SOL     OW28387   6.802   2.139   4.393
 9163SOL    HW128388   6.779   2.216   4.333
 9163SOL    HW228389   6.883   2.092   4.358
 9164SOL     OW28390   1.455   0.752   6.835
 9164SOL    HW128391   1.539   0.796   6.805
 9164SOL    HW228392   1.463   0.653   6.823
 9165SOL     OW28393   5.767   1.707   6.069
 9165SOL    HW128394   5.806   1.655   6.145
 9165SOL    HW228395   5.699   1.772   6.105
 9166SOL     OW28396   3.973   6.514   1.351
 9166SOL    HW128397   3.904   6.443   1.363
 9166SOL    HW228398   3.985   6.565   1.437
 9167SOL     OW28399   2.138   2.368   5.899
 9167SOL    HW128400   2.191   2.319   5.967
 9167SOL    HW228401   2.131   2.465   5.925
 9168SOL     OW28402   6.519   5.998   6.530
 9168SOL    HW128403   6.458   5.971   6.604
 9168SOL    HW228404   6.487   6.083   6.488
 9169SOL     OW28405   7.001   6.564   6.693
 9169SOL    HW128406   0.062   6.586   6.744
 9169SOL    HW228407   6.926   6.546   6.757
 9170SOL     OW28408   1.582   0.113   6.610
 9170SOL    HW128409   1.667   0.078   6.570
 9170SOL    HW228410   1.581   0.092   6.708
 9171SOL     OW28411   3.157   6.064   0.438
 9171SOL    HW128412   3.150   5.966   0.455
 9171SOL    HW228413   3.138   6.114   0.523
 9172SOL     OW28414   5.017   1.166   3.965
 9172SOL    HW128415   5.039   1.069   3.979
 9172SOL    HW228416   5.084   1.205   3.902
 9173SOL     OW28417   5.905   4.442   5.715
 9173SOL    HW128418   5.944   4.424   5.625
 9173SOL    HW228419   5.948   4.523   5.755
 9174SOL     OW28420   0.029   5.319   0.298
 9174SOL    HW128421   0.041   5.244   0.234
 9174SOL    HW228422   0.018   5.405   0.248
 9175SOL     OW28423   1.336   6.379   6.631
 9175SOL    HW128424   1.378   6.446   6.570
 9175SOL    HW228425   1.360   6.287   6.601
 9176SOL     OW28426   2.531   0.961   2.102
 9176SOL    HW128427   2.612   1.010   2.135
 9176SOL    HW228428   2.543   0.940   2.004
 9177SOL     OW28429   0.717   3.876   4.177
 9177SOL    HW128430   0.728   3.911   4.084
 9177SOL    HW228431   0.659   3.795   4.176
 9178SOL     OW28432   2.175   4.999   6.802
 9178SOL    HW128433   2.258   5.036   6.761
 9178SOL    HW228434   2.095   5.047   6.765
 9179SOL     OW28435   1.844   5.388   4.030
 9179SOL    HW128436   1.835   5.363   3.934
 9179SOL    HW228437   1.930   5.351   4.067
 9180SOL     OW28438   6.163   2.378   3.486
 9180SOL    HW128439   6.212   2.325   3.416
 9180SOL    HW228440   6.121   2.458   3.443
 9181SOL     OW28441   5.993   2.490   5.073
 9181SOL    HW128442   6.008   2.588   5.061
 9181SOL    HW228443   6.047   2.439   5.006
 9182SOL     OW28444   2.697   6.813   3.075
 9182SOL    HW128445   2.774   6.826   3.137
 9182SOL    HW228446   2.679   6.715   3.064
 9183SOL     OW28447   4.749   4.835   6.508
 9183SOL    HW128448   4.729   4.932   6.491
 9183SOL    HW228449   4.805   4.827   6.591
 9184SOL     OW28450   4.012   2.688   1.103
 9184SOL    HW128451   3.947   2.617   1.080
 9184SOL    HW228452   3.971   2.778   1.088
 9185SOL     OW28453   6.613   6.501   4.558
 9185SOL    HW128454   6.598   6.579   4.498
 9185SOL    HW228455   6.689   6.521   4.620
 9186SOL     OW28456   5.812   0.043   4.698
 9186SOL    HW128457   5.797   0.112   4.768
 9186SOL    HW228458   5.726   0.026   4.649
 9187SOL     OW28459   3.443   1.605   0.103
 9187SOL    HW128460   3.524   1.579   0.051
 9187SOL    HW228461   3.430   1.541   0.179
 9188SOL     OW28462   1.894   0.307   1.397
 9188SOL    HW128463   1.834   0.347   1.467
 9188SOL    HW228464   1.904   0.209   1.414
 9189SOL     OW28465   3.464   6.223   2.513
 9189SOL    HW128466   3.442   6.300   2.573
 9189SOL    HW228467   3.550   6.181   2.543
 9190SOL     OW28468   0.545   2.849   5.234
 9190SOL    HW128469   0.620   2.899   5.277
 9190SOL    HW228470   0.582   2.782   5.170
 9191SOL     OW28471   5.800   1.028   6.226
 9191SOL    HW128472   5.843   0.970   6.295
 9191SOL    HW228473   5.870   1.059   6.160
 9192SOL     OW28474   6.966   2.218   6.284
 9192SOL    HW128475   6.883   2.197   6.232
 9192SOL    HW228476   0.003   2.138   6.286
 9193SOL     OW28477   4.053   3.260   4.561
 9193SOL    HW128478   4.080   3.246   4.466
 9193SOL    HW228479   4.028   3.173   4.602
 9194SOL     OW28480   3.212   0.361   2.536
 9194SOL    HW128481   3.186   0.277   2.487
 9194SOL    HW228482   3.275   0.337   2.610
 9195SOL     OW28483   1.505   3.272   2.971
 9195SOL    HW128484   1.571   3.332   2.925
 9195SOL    HW228485   1.428   3.327   3.002
 9196SOL     OW28486   5.523   6.701   4.000
 9196SOL    HW128487   5.498   6.765   3.928
 9196SOL    HW228488   5.498   6.608   3.973
 9197SOL     OW28489   3.400   4.926   1.013
 9197SOL    HW128490   3.345   4.993   1.064
 9197SOL    HW228491   3.443   4.863   1.077
 9198SOL     OW28492   6.440   4.209   6.663
 9198SOL    HW128493   6.358   4.263   6.681
 9198SOL    HW228494   6.511   4.233   6.729
 9199SOL     OW28495   0.244   3.068   5.397
 9199SOL    HW128496   0.315   3.015   5.443
 9199SOL    HW228497   0.154   3.037   5.428
 9200SOL     OW28498   2.780   5.957   5.483
 9200SOL    HW128499   2.847   6.010   5.535
 9200SOL    HW228500   2.808   5.861   5.482
 9201SOL     OW28501   0.119   2.718   7.000
 9201SOL    HW128502   0.035   2.768   6.981
 9201SOL    HW228503   0.139   2.721   0.076
 9202SOL     OW28504   0.829   5.336   4.334
 9202SOL    HW128505   0.740   5.306   4.299
 9202SOL    HW228506   0.821   5.427   4.374
 9203SOL     OW28507   6.295   2.992   6.340
 9203SOL    HW128508   6.265   3.085   6.365
 9203SOL    HW228509   6.393   2.984   6.355
 9204SOL     OW28510   4.990   3.525   4.283
 9204SOL    HW128511   5.019   3.434   4.314
 9204SOL    HW228512   4.982   3.586   4.362
 9205SOL     OW28513   4.894   5.588   2.784
 9205SOL    HW128514   4.837   5.517   2.825
 9205SOL    HW228515   4.963   5.619   2.850
 9206SOL     OW28516   3.030   6.478   3.755
 9206SOL    HW128517   3.076   6.567   3.756
 9206SOL    HW228518   3.000   6.454   3.847
 9207SOL     OW28519   4.272   5.138   0.281
 9207SOL    HW128520   4.261   5.232   0.314
 9207SOL    HW228521   4.365   5.107   0.298
 9208SOL     OW28522   6.135   3.920   2.363
 9208SOL    HW128523   6.218   3.883   2.321
 9208SOL    HW228524   6.099   3.854   2.429
 9209SOL     OW28525   4.577   0.668   1.558
 9209SOL    HW128526   4.517   0.604   1.606
 9209SOL    HW228527   4.541   0.761   1.568
 9210SOL     OW28528   0.838   0.771   1.349
 9210SOL    HW128529   0.915   0.728   1.301
 9210SOL    HW228530   0.764   0.787   1.285
 9211SOL     OW28531   5.761   3.204   6.588
 9211SOL    HW128532   5.712   3.285   6.619
 9211SOL    HW228533   5.697   3.128   6.576
 9212SOL     OW28534   5.073   4.199   4.285
 9212SOL    HW128535   4.999   4.215   4.220
 9212SOL    HW228536   5.125   4.118   4.258
 9213SOL     OW28537   4.978   5.418   4.452
 9213SOL    HW128538   4.924   5.403   4.369
 9213SOL    HW228539   5.067   5.457   4.428
 9214SOL     OW28540   6.963   2.961   5.224
 9214SOL    HW128541   7.003   2.899   5.156
 9214SOL    HW228542   6.953   3.052   5.185
 9215SOL     OW28543   1.585   4.400   2.569
 9215SOL    HW128544   1.625   4.326   2.624
 9215SOL    HW228545   1.515   4.446   2.623
 9216SOL     OW28546   2.339   6.483   3.617
 9216SOL    HW128547   2.343   6.583   3.618
 9216SOL    HW228548   2.389   6.449   3.538
 9217SOL     OW28549   6.290   2.827   7.001
 9217SOL    HW128550   6.255   2.780   6.920
 9217SOL    HW228551   6.243   2.915   7.011
 9218SOL     OW28552   4.286   0.761   0.225
 9218SOL    HW128553   4.300   0.857   0.200
 9218SOL    HW228554   4.287   0.705   0.142
 9219SOL     OW28555   4.839   3.623   6.222
 9219SOL    HW128556   4.850   3.610   6.321
 9219SOL    HW228557   4.799   3.712   6.204
 9220SOL     OW28558   1.000   6.279   2.181
 9220SOL    HW128559   0.978   6.264   2.277
 9220SOL    HW228560   0.950   6.214   2.124
 9221SOL     OW28561   2.287   6.964   3.973
 9221SOL    HW128562   2.289   6.866   3.994
 9221SOL    HW228563   2.336   7.014   4.045
 9222SOL     OW28564   2.562   5.460   5.285
 9222SOL    HW128565   2.565   5.555   5.255
 9222SOL    HW228566   2.588   5.400   5.209
 9223SOL     OW28567   1.400   3.041   4.316
 9223SOL    HW128568   1.370   3.092   4.236
 9223SOL    HW228569   1.492   3.071   4.342
 9224SOL     OW28570   1.323   4.780   3.715
 9224SOL    HW128571   1.300   4.754   3.809
 9224SOL    HW228572   1.368   4.704   3.669
 9225SOL     OW28573   3.522   5.990   5.972
 9225SOL    HW128574   3.506   6.032   5.883
 9225SOL    HW228575   3.620   5.980   5.988
 9226SOL     OW28576   0.498   6.846   1.402
 9226SOL    HW128577   0.552   6.808   1.477
 9226SOL    HW228578   0.441   6.920   1.436
 9227SOL     OW28579   2.429   6.094   1.231
 9227SOL    HW128580   2.466   6.152   1.158
 9227SOL    HW228581   2.399   6.007   1.192
 9228SOL     OW28582   2.858   2.014   6.969
 9228SOL    HW128583   2.777   2.003   0.003
 9228SOL    HW228584   2.832   2.037   6.875
 9229SOL     OW28585   1.039   4.545   5.423
 9229SOL    HW128586   1.074   4.635   5.397
 9229SOL    HW228587   1.078   4.518   5.511
 9230SOL     OW28588   5.098   2.945   3.763
 9230SOL    HW128589   5.002   2.967   3.781
 9230SOL    HW228590   5.122   2.975   3.670
 9231SOL     OW28591   1.495   3.201   5.508
 9231SOL    HW128592   1.589   3.225   5.483
 9231SOL    HW228593   1.493   3.107   5.541
 9232SOL     OW28594   3.173   5.295   0.079
 9232SOL    HW128595   3.177   5.318   7.004
 9232SOL    HW228596   3.091   5.242   0.098
 9233SOL     OW28597   6.631   6.404   0.959
 9233SOL    HW128598   6.616   6.307   0.945
 9233SOL    HW228599   6.711   6.418   1.018
 9234SOL     OW28600   2.975   5.830   0.609
 9234SOL    HW128601   2.972   5.799   0.704
 9234SOL    HW228602   3.066   5.812   0.571
 9235SOL     OW28603   2.213   2.578   3.344
 9235SOL    HW128604   2.276   2.656   3.343
 9235SOL    HW228605   2.264   2.494   3.328
 9236SOL     OW28606   1.851   4.241   0.306
 9236SOL    HW128607   1.836   4.275   0.213
 9236SOL    HW228608   1.895   4.152   0.302
 9237SOL     OW28609   0.646   5.576   3.046
 9237SOL    HW128610   0.636   5.638   3.124
 9237SOL    HW228611   0.602   5.488   3.067
 9238SOL     OW28612   2.467   2.833   6.302
 9238SOL    HW128613   2.421   2.746   6.322
 9238SOL    HW228614   2.529   2.856   6.377
 9239SOL     OW28615   6.952   3.810   5.983
 9239SOL    HW128616   6.985   3.764   6.066
 9239SOL    HW228617   0.006   3.856   5.938
 9240SOL     OW28618   4.960   3.064   2.145
 9240SOL    HW128619   4.996   2.970   2.148
 9240SOL    HW228620   4.877   3.065   2.090
 9241SOL     OW28621   0.329   5.145   0.561
 9241SOL    HW128622   0.373   5.057   0.577
 9241SOL    HW228623   0.364   5.184   0.476
 9242SOL     OW28624   1.337   4.073   1.064
 9242SOL    HW128625   1.281   4.153   1.042
 9242SOL    HW228626   1.407   4.061   0.993
 9243SOL     OW28627   6.662   0.245   1.288
 9243SOL    HW128628   6.750   0.258   1.243
 9243SOL    HW228629   6.614   0.168   1.247
 9244SOL     OW28630   3.100   5.605   6.105
 9244SOL    HW128631   3.117   5.651   6.192
 9244SOL    HW228632   3.187   5.584   6.061
 9245SOL     OW28633   0.783   5.305   3.763
 9245SOL    HW128634   0.840   5.380   3.797
 9245SOL    HW228635   0.801   5.223   3.817
 9246SOL     OW28636   6.021   6.902   3.037
 9246SOL    HW128637   5.925   6.883   3.054
 9246SOL    HW228638   6.067   6.819   3.004
 9247SOL     OW28639   2.653   6.054   3.454
 9247SOL    HW128640   2.704   6.021   3.374
 9247SOL    HW228641   2.558   6.023   3.448
 9248SOL     OW28642   3.014   1.884   4.082
 9248SOL    HW128643   2.945   1.956   4.070
 9248SOL    HW228644   3.010   1.849   4.176
 9249SOL     OW28645   3.911   4.981   1.297
 9249SOL    HW128646   3.972   5.014   1.369
 9249SOL    HW228647   3.963   4.926   1.231
 9250SOL     OW28648   5.448   3.365   4.932
 9250SOL    HW128649   5.533   3.378   4.882
 9250SOL    HW228650   5.371   3.380   4.870
 9251SOL     OW28651   4.166   1.952   2.821
 9251SOL    HW128652   4.211   1.887   2.883
 9251SOL    HW228653   4.108   1.902   2.757
 9252SOL     OW28654   5.601   0.602   4.540
 9252SOL    HW128655   5.613   0.503   4.534
 9252SOL    HW228656   5.654   0.638   4.617
 9253SOL     OW28657   5.657   5.366   5.590
 9253SOL    HW128658   5.558   5.353   5.591
 9253SOL    HW228659   5.678   5.462   5.568
 9254SOL     OW28660   4.862   5.385   3.047
 9254SOL    HW128661   4.946   5.423   3.086
 9254SOL    HW228662   4.865   5.285   3.053
 9255SOL     OW28663   5.177   3.766   7.010
 9255SOL    HW128664   5.130   3.766   0.076
 9255SOL    HW228665   5.276   3.765   0.004
 9256SOL     OW28666   3.391   0.346   2.722
 9256SOL    HW128667   3.389   0.295   2.808
 9256SOL    HW228668   3.424   0.439   2.740
 9257SOL     OW28669   6.664   4.866   3.573
 9257SOL    HW128670   6.578   4.881   3.621
 9257SOL    HW228671   6.645   4.828   3.482
 9258SOL     OW28672   4.037   3.668   2.200
 9258SOL    HW128673   3.976   3.679   2.278
 9258SOL    HW228674   4.084   3.580   2.206
 9259SOL     OW28675   0.506   1.929   0.731
 9259SOL    HW128676   0.422   1.908   0.781
 9259SOL    HW228677   0.494   2.015   0.682
 9260SOL     OW28678   6.098   2.067   5.428
 9260SOL    HW128679   6.150   2.006   5.487
 9260SOL    HW228680   6.000   2.054   5.445
 9261SOL     OW28681   3.636   1.434   0.619
 9261SOL    HW128682   3.617   1.341   0.649
 9261SOL    HW228683   3.692   1.480   0.689
 9262SOL     OW28684   6.765   5.918   5.073
 9262SOL    HW128685   6.783   5.982   4.999
 9262SOL    HW228686   6.679   5.869   5.055
 9263SOL     OW28687   4.612   0.283   2.200
 9263SOL    HW128688   4.604   0.363   2.260
 9263SOL    HW228689   4.708   0.263   2.184
 9264SOL     OW28690   4.944   4.515   0.490
 9264SOL    HW128691   5.001   4.507   0.572
 9264SOL    HW228692   4.993   4.479   0.411
 9265SOL     OW28693   3.519   2.621   6.867
 9265SOL    HW128694   3.494   2.711   6.830
 9265SOL    HW228695   3.571   2.633   6.951
 9266SOL     OW28696   1.035   5.849   1.042
 9266SOL    HW128697   1.104   5.794   0.996
 9266SOL    HW228698   0.949   5.843   0.992
 9267SOL     OW28699   6.982   1.889   4.729
 9267SOL    HW128700   0.052   1.911   4.699
 9267SOL    HW228701   6.975   1.900   4.828
 9268SOL     OW28702   1.300   6.743   2.942
 9268SOL    HW128703   1.247   6.763   2.860
 9268SOL    HW228704   1.387   6.792   2.938
 9269SOL     OW28705   4.514   1.243   6.280
 9269SOL    HW128706   4.547   1.334   6.255
 9269SOL    HW228707   4.590   1.187   6.314
 9270SOL     OW28708   4.577   6.683   5.910
 9270SOL    HW128709   4.524   6.743   5.970
 9270SOL    HW228710   4.565   6.712   5.815
 9271SOL     OW28711   6.287   0.205   1.005
 9271SOL    HW128712   6.280   0.283   1.068
 9271SOL    HW228713   6.206   0.203   0.946
 9272SOL     OW28714   0.839   5.399   5.482
 9272SOL    HW128715   0.868   5.486   5.442
 9272SOL    HW228716   0.741   5.402   5.501
 9273SOL     OW28717   5.858   6.038   2.772
 9273SOL    HW128718   5.909   6.065   2.854
 9273SOL    HW228719   5.785   5.974   2.799
 9274SOL     OW28720   6.408   1.479   0.554
 9274SOL    HW128721   6.408   1.556   0.618
 9274SOL    HW228722   6.451   1.400   0.597
 9275SOL     OW28723   6.088   0.950   6.927
 9275SOL    HW128724   6.117   0.896   7.006
 9275SOL    HW228725   6.113   0.901   6.843
 9276SOL     OW28726   1.967   4.143   1.500
 9276SOL    HW128727   1.918   4.218   1.456
 9276SOL    HW228728   1.997   4.078   1.430
 9277SOL     OW28729   4.530   4.526   0.717
 9277SOL    HW128730   4.542   4.471   0.800
 9277SOL    HW228731   4.483   4.611   0.739
 9278SOL     OW28732   1.735   6.876   5.536
 9278SOL    HW128733   1.639   6.870   5.508
 9278SOL    HW228734   1.790   6.907   5.458
 9279SOL     OW28735   3.017   0.562   1.597
 9279SOL    HW128736   3.055   0.498   1.530
 9279SOL    HW228737   2.918   0.550   1.602
 9280SOL     OW28738   2.097   1.871   2.164
 9280SOL    HW128739   2.193   1.864   2.135
 9280SOL    HW228740   2.085   1.954   2.218
 9281SOL     OW28741   2.856   4.070   0.001
 9281SOL    HW128742   2.816   3.978   0.002
 9281SOL    HW228743   2.827   4.120   0.082
 9282SOL     OW28744   5.440   0.826   3.194
 9282SOL    HW128745   5.444   0.761   3.269
 9282SOL    HW228746   5.533   0.856   3.171
 9283SOL     OW28747   4.778   0.791   4.082
 9283SOL    HW128748   4.715   0.719   4.054
 9283SOL    HW228749   4.762   0.873   4.027
 9284SOL     OW28750   2.896   2.883   5.383
 9284SOL    HW128751   2.871   2.972   5.419
 9284SOL    HW228752   2.829   2.853   5.315
 9285SOL     OW28753   5.111   3.369   0.987
 9285SOL    HW128754   5.201   3.371   0.943
 9285SOL    HW228755   5.040   3.353   0.918
 9286SOL     OW28756   5.504   5.787   0.668
 9286SOL    HW128757   5.506   5.814   0.571
 9286SOL    HW228758   5.426   5.829   0.713
 9287SOL     OW28759   3.649   4.914   6.427
 9287SOL    HW128760   3.679   4.976   6.499
 9287SOL    HW228761   3.719   4.844   6.412
 9288SOL     OW28762   4.477   1.482   2.968
 9288SOL    HW128763   4.409   1.510   3.035
 9288SOL    HW228764   4.517   1.563   2.924
 9289SOL     OW28765   4.305   0.550   1.650
 9289SOL    HW128766   4.286   0.453   1.665
 9289SOL    HW228767   4.244   0.605   1.708
 9290SOL     OW28768   5.556   0.594   3.360
 9290SOL    HW128769   5.598   0.639   3.281
 9290SOL    HW228770   5.579   0.645   3.443
 9291SOL     OW28771   1.114   4.995   5.849
 9291SOL    HW128772   1.111   4.972   5.946
 9291SOL    HW228773   1.024   5.029   5.820
 9292SOL     OW28774   2.187   2.600   6.002
 9292SOL    HW128775   2.125   2.664   6.049
 9292SOL    HW228776   2.219   2.640   5.917
 9293SOL     OW28777   6.128   3.142   6.785
 9293SOL    HW128778   6.226   3.125   6.785
 9293SOL    HW228779   6.089   3.113   6.872
 9294SOL     OW28780   5.047   0.484   6.156
 9294SOL    HW128781   5.000   0.492   6.068
 9294SOL    HW228782   5.061   0.388   6.178
 9295SOL     OW28783   5.399   0.837   4.953
 9295SOL    HW128784   5.432   0.846   5.047
 9295SOL    HW228785   5.423   0.747   4.918
 9296SOL     OW28786   1.707   5.384   6.552
 9296SOL    HW128787   1.746   5.461   6.602
 9296SOL    HW228788   1.774   5.348   6.487
 9297SOL     OW28789   0.980   6.869   3.016
 9297SOL    HW128790   1.044   6.895   3.088
 9297SOL    HW228791   0.991   6.929   2.937
 9298SOL     OW28792   1.158   6.379   6.834
 9298SOL    HW128793   1.240   6.359   6.781
 9298SOL    HW228794   1.086   6.412   6.772
 9299SOL     OW28795   0.396   1.908   4.121
 9299SOL    HW128796   0.332   1.941   4.052
 9299SOL    HW228797   0.388   1.809   4.128
 9300SOL     OW28798   0.533   4.408   5.886
 9300SOL    HW128799   0.582   4.400   5.973
 9300SOL    HW228800   0.554   4.496   5.844
 9301SOL     OW28801   5.495   5.255   4.628
 9301SOL    HW128802   5.456   5.163   4.619
 9301SOL    HW228803   5.518   5.272   4.723
 9302SOL     OW28804   2.160   3.263   3.983
 9302SOL    HW128805   2.236   3.197   3.978
 9302SOL    HW228806   2.092   3.241   3.913
 9303SOL     OW28807   3.235   4.060   0.534
 9303SOL    HW128808   3.173   4.034   0.607
 9303SOL    HW228809   3.195   4.135   0.481
 9304SOL     OW28810   4.249   4.461   1.745
 9304SOL    HW128811   4.200   4.389   1.696
 9304SOL    HW228812   4.347   4.451   1.731
 9305SOL     OW28813   3.578   1.197   0.738
 9305SOL    HW128814   3.661   1.145   0.754
 9305SOL    HW228815   3.514   1.184   0.814
 9306SOL     OW28816   1.114   3.995   5.389
 9306SOL    HW128817   1.137   4.039   5.301
 9306SOL    HW228818   1.198   3.959   5.430
 9307SOL     OW28819   1.174   4.297   1.089
 9307SOL    HW128820   1.084   4.332   1.065
 9307SOL    HW228821   1.244   4.363   1.062
 9308SOL     OW28822   1.522   3.655   0.774
 9308SOL    HW128823   1.577   3.719   0.828
 9308SOL    HW228824   1.580   3.580   0.742
 9309SOL     OW28825   3.400   5.291   6.173
 9309SOL    HW128826   3.422   5.301   6.076
 9309SOL    HW228827   3.456   5.218   6.213
 9310SOL     OW28828   5.684   5.834   5.765
 9310SOL    HW128829   5.619   5.852   5.690
 9310SOL    HW228830   5.634   5.830   5.851
 9311SOL     OW28831   5.046   5.000   1.118
 9311SOL    HW128832   4.970   5.066   1.115
 9311SOL    HW228833   5.012   4.910   1.093
 9312SOL     OW28834   1.511   3.405   1.384
 9312SOL    HW128835   1.508   3.469   1.460
 9312SOL    HW228836   1.422   3.362   1.373
 9313SOL     OW28837   0.219   0.247   1.619
 9313SOL    HW128838   0.226   0.342   1.588
 9313SOL    HW228839   0.133   0.207   1.588
 9314SOL     OW28840   6.361   4.223   7.018
 9314SOL    HW128841   6.435   4.286   0.019
 9314SOL    HW228842   6.299   4.267   6.954
 9315SOL     OW28843   0.012   7.022   5.263
 9315SOL    HW128844   7.021   0.095   5.289
 9315SOL    HW228845   7.010   7.009   5.167
 9316SOL     OW28846   5.673   6.356   5.701
 9316SOL    HW128847   5.665   6.367   5.801
 9316SOL    HW228848   5.669   6.447   5.658
 9317SOL     OW28849   4.417   5.598   3.798
 9317SOL    HW128850   4.466   5.581   3.713
 9317SOL    HW228851   4.334   5.542   3.801
 9318SOL     OW28852   6.212   0.759   6.345
 9318SOL    HW128853   6.310   0.742   6.345
 9318SOL    HW228854   6.163   0.671   6.344
 9319SOL     OW28855   2.428   3.169   1.000
 9319SOL    HW128856   2.439   3.266   1.025
 9319SOL    HW228857   2.518   3.125   1.002
 9320SOL     OW28858   3.542   0.635   5.245
 9320SOL    HW128859   3.599   0.596   5.172
 9320SOL    HW228860   3.596   0.640   5.329
 9321SOL     OW28861   1.061   0.467   4.837
 9321SOL    HW128862   0.984   0.404   4.845
 9321SOL    HW228863   1.139   0.419   4.798
 9322SOL     OW28864   0.031   3.539   6.603
 9322SOL    HW128865   0.087   3.588   6.536
 9322SOL    HW228866   0.090   3.487   6.665
 9323SOL     OW28867   0.899   1.399   5.055
 9323SOL    HW128868   0.810   1.427   5.091
 9323SOL    HW228869   0.970   1.459   5.091
 9324SOL     OW28870   1.458   4.326   2.348
 9324SOL    HW128871   1.488   4.342   2.442
 9324SOL    HW228872   1.412   4.238   2.343
 9325SOL     OW28873   6.307   0.219   6.841
 9325SOL    HW128874   6.350   0.243   6.928
 9325SOL    HW228875   6.283   0.303   6.792
 9326SOL     OW28876   2.747   4.509   0.453
 9326SOL    HW128877   2.795   4.466   0.377
 9326SOL    HW228878   2.807   4.578   0.495
 9327SOL     OW28879   4.889   0.325   2.529
 9327SOL    HW128880   4.794   0.300   2.545
 9327SOL    HW228881   4.949   0.254   2.566
 9328SOL     OW28882   2.248   1.005   4.251
 9328SOL    HW128883   2.246   0.972   4.157
 9328SOL    HW228884   2.183   0.953   4.306
 9329SOL     OW28885   5.794   3.984   1.244
 9329SOL    HW128886   5.780   4.078   1.275
 9329SOL    HW228887   5.800   3.983   1.144
 9330SOL     OW28888   6.694   0.471   5.120
 9330SOL    HW128889   6.607   0.472   5.170
 9330SOL    HW228890   6.727   0.565   5.109
 9331SOL     OW28891   2.945   1.119   6.289
 9331SOL    HW128892   2.997   1.164   6.362
 9331SOL    HW228893   2.850   1.107   6.319
 9332SOL     OW28894   3.374   4.644   0.533
 9332SOL    HW128895   3.419   4.723   0.574
 9332SOL    HW228896   3.310   4.675   0.462
 9333SOL     OW28897   3.519   5.066   6.223
 9333SOL    HW128898   3.561   5.007   6.155
 9333SOL    HW228899   3.543   5.034   6.315
 9334SOL     OW28900   4.527   6.567   4.563
 9334SOL    HW128901   4.554   6.648   4.615
 9334SOL    HW228902   4.597   6.545   4.496
 9335SOL     OW28903   1.444   1.411   6.590
 9335SOL    HW128904   1.345   1.426   6.593
 9335SOL    HW228905   1.489   1.493   6.554
 9336SOL     OW28906   3.714   0.566   5.041
 9336SOL    HW128907   3.684   0.500   4.973
 9336SOL    HW228908   3.812   0.558   5.055
 9337SOL     OW28909   4.650   0.973   4.753
 9337SOL    HW128910   4.560   0.973   4.710
 9337SOL    HW228911   4.641   0.946   4.849
 9338SOL     OW28912   5.963   0.030   1.188
 9338SOL    HW128913   6.038   0.057   1.249
 9338SOL    HW228914   5.913   0.112   1.159
 9339SOL     OW28915   6.204   6.660   0.134
 9339SOL    HW128916   6.146   6.688   0.057
 9339SOL    HW228917   6.150   6.662   0.218
 9340SOL     OW28918   4.064   4.754   3.296
 9340SOL    HW128919   4.027   4.776   3.386
 9340SOL    HW228920   3.990   4.756   3.229
 9341SOL     OW28921   5.842   4.987   1.471
 9341SOL    HW128922   5.840   5.024   1.564
 9341SOL    HW228923   5.846   5.062   1.405
 9342SOL     OW28924   3.018   6.691   4.451
 9342SOL    HW128925   3.096   6.751   4.429
 9342SOL    HW228926   2.933   6.743   4.444
 9343SOL     OW28927   4.763   4.419   2.036
 9343SOL    HW128928   4.745   4.517   2.044
 9343SOL    HW228929   4.687   4.375   1.987
 9344SOL     OW28930   5.621   6.422   1.827
 9344SOL    HW128931   5.558   6.447   1.900
 9344SOL    HW228932   5.570   6.378   1.753
 9345SOL     OW28933   6.892   5.079   0.912
 9345SOL    HW128934   6.855   5.134   0.838
 9345SOL    HW228935   6.855   4.986   0.907
 9346SOL     OW28936   4.932   0.859   1.871
 9346SOL    HW128937   4.977   0.819   1.791
 9346SOL    HW228938   4.934   0.959   1.864
 9347SOL     OW28939   3.069   5.060   0.577
 9347SOL    HW128940   3.165   5.066   0.603
 9347SOL    HW228941   3.011   5.065   0.659
 9348SOL     OW28942   3.319   5.454   2.795
 9348SOL    HW128943   3.302   5.454   2.894
 9348SOL    HW228944   3.402   5.507   2.776
 9349SOL     OW28945   6.097   5.157   1.722
 9349SOL    HW128946   6.147   5.132   1.806
 9349SOL    HW228947   6.117   5.253   1.700
 9350SOL     OW28948   6.404   1.760   5.024
 9350SOL    HW128949   6.457   1.757   5.109
 9350SOL    HW228950   6.465   1.784   4.948
 9351SOL     OW28951   3.589   6.759   5.826
 9351SOL    HW128952   3.545   6.718   5.746
 9351SOL    HW228953   3.639   6.842   5.798
 9352SOL     OW28954   3.403   1.715   6.304
 9352SOL    HW128955   3.383   1.668   6.218
 9352SOL    HW228956   3.383   1.654   6.381
 9353SOL     OW28957   0.962   4.529   1.071
 9353SOL    HW128958   0.925   4.458   1.131
 9353SOL    HW228959   0.891   4.557   1.006
 9354SOL     OW28960   0.254   1.836   6.125
 9354SOL    HW128961   0.211   1.921   6.096
 9354SOL    HW228962   0.219   1.810   6.215
 9355SOL     OW28963   0.714   1.516   4.375
 9355SOL    HW128964   0.791   1.548   4.321
 9355SOL    HW228965   0.717   1.416   4.382
 9356SOL     OW28966   4.720   6.103   2.126
 9356SOL    HW128967   4.711   6.169   2.200
 9356SOL    HW228968   4.817   6.078   2.114
 9357SOL     OW28969   2.283   3.603   6.676
 9357SOL    HW128970   2.289   3.601   6.576
 9357SOL    HW228971   2.335   3.681   6.711
 9358SOL     OW28972   6.605   3.317   2.454
 9358SOL    HW128973   6.699   3.326   2.486
 9358SOL    HW228974   6.589   3.378   2.377
 9359SOL     OW28975   0.809   3.402   5.539
 9359SOL    HW128976   0.887   3.421   5.479
 9359SOL    HW228977   0.837   3.415   5.635
 9360SOL     OW28978   1.889   5.606   6.658
 9360SOL    HW128979   1.885   5.676   6.730
 9360SOL    HW228980   1.969   5.621   6.600
 9361SOL     OW28981   1.402   6.612   2.625
 9361SOL    HW128982   1.468   6.583   2.694
 9361SOL    HW228983   1.365   6.532   2.578
 9362SOL     OW28984   1.938   3.486   2.770
 9362SOL    HW128985   2.034   3.516   2.775
 9362SOL    HW228986   1.888   3.546   2.707
 9363SOL     OW28987   3.763   6.920   2.086
 9363SOL    HW128988   3.856   6.955   2.082
 9363SOL    HW228989   3.762   6.825   2.053
 9364SOL     OW28990   3.890   3.031   6.177
 9364SOL    HW128991   3.987   3.011   6.158
 9364SOL    HW228992   3.862   2.985   6.260
 9365SOL     OW28993   2.223   2.191   4.724
 9365SOL    HW128994   2.261   2.144   4.805
 9365SOL    HW228995   2.245   2.138   4.642
 9366SOL     OW28996   3.397   6.491   6.246
 9366SOL    HW128997   3.340   6.550   6.304
 9366SOL    HW228998   3.447   6.547   6.181
 9367SOL     OW28999   0.039   6.389   2.440
 9367SOL    HW129000   0.111   6.392   2.370
 9367SOL    HW229001   6.980   6.436   2.405
 9368SOL     OW29002   2.945   1.329   2.875
 9368SOL    HW129003   2.879   1.404   2.885
 9368SOL    HW229004   2.924   1.258   2.942
 9369SOL     OW29005   6.245   6.463   5.015
 9369SOL    HW129006   6.254   6.428   4.921
 9369SOL    HW229007   6.150   6.456   5.044
 9370SOL     OW29008   4.932   0.453   2.948
 9370SOL    HW129009   4.929   0.552   2.932
 9370SOL    HW229010   4.841   0.414   2.936
 9371SOL     OW29011   2.505   5.262   0.390
 9371SOL    HW129012   2.516   5.196   0.316
 9371SOL    HW229013   2.577   5.331   0.384
 9372SOL     OW29014   5.558   6.426   2.380
 9372SOL    HW129015   5.616   6.507   2.371
 9372SOL    HW229016   5.586   6.357   2.313
 9373SOL     OW29017   4.913   2.202   2.962
 9373SOL    HW129018   4.835   2.258   2.989
 9373SOL    HW229019   4.882   2.126   2.905
 9374SOL     OW29020   0.534   3.622   0.188
 9374SOL    HW129021   0.548   3.529   0.222
 9374SOL    HW229022   0.530   3.621   0.089
 9375SOL     OW29023   0.487   1.180   2.370
 9375SOL    HW129024   0.409   1.126   2.401
 9375SOL    HW229025   0.559   1.176   2.439
 9376SOL     OW29026   2.646   4.070   1.545
 9376SOL    HW129027   2.662   4.168   1.553
 9376SOL    HW229028   2.587   4.051   1.467
 9377SOL     OW29029   2.304   5.317   4.416
 9377SOL    HW129030   2.269   5.224   4.407
 9377SOL    HW229031   2.344   5.329   4.507
 9378SOL     OW29032   1.762   1.456   4.338
 9378SOL    HW129033   1.800   1.500   4.257
 9378SOL    HW229034   1.663   1.471   4.341
 9379SOL     OW29035   4.152   6.196   5.720
 9379SOL    HW129036   4.110   6.197   5.811
 9379SOL    HW229037   4.111   6.122   5.666
 9380SOL     OW29038   5.251   5.473   4.807
 9380SOL    HW129039   5.261   5.374   4.795
 9380SOL    HW229040   5.171   5.504   4.757
 9381SOL     OW29041   3.512   3.006   6.119
 9381SOL    HW129042   3.452   3.041   6.191
 9381SOL    HW229043   3.538   3.082   6.058
 9382SOL     OW29044   3.598   0.834   3.653
 9382SOL    HW129045   3.658   0.783   3.714
 9382SOL    HW229046   3.510   0.850   3.698
 9383SOL     OW29047   0.406   5.347   4.632
 9383SOL    HW129048   0.506   5.348   4.641
 9383SOL    HW229049   0.371   5.440   4.643
 9384SOL     OW29050   4.207   0.235   2.312
 9384SOL    HW129051   4.262   0.157   2.343
 9384SOL    HW229052   4.130   0.248   2.375
 9385SOL     OW29053   4.619   1.219   3.744
 9385SOL    HW129054   4.695   1.277   3.774
 9385SOL    HW229055   4.532   1.259   3.774
 9386SOL     OW29056   2.092   5.958   5.258
 9386SOL    HW129057   2.022   5.886   5.251
 9386SOL    HW229058   2.074   6.014   5.339
 9387SOL     OW29059   2.805   1.771   6.547
 9387SOL    HW129060   2.733   1.757   6.615
 9387SOL    HW229061   2.865   1.691   6.545
 9388SOL     OW29062   3.193   5.755   2.719
 9388SOL    HW129063   3.292   5.755   2.711
 9388SOL    HW229064   3.153   5.802   2.640
 9389SOL     OW29065   1.854   6.966   3.402
 9389SOL    HW129066   1.875   0.029   3.356
 9389SOL    HW229067   1.916   6.954   3.480
 9390SOL     OW29068   5.228   5.123   5.940
 9390SOL    HW129069   5.228   5.133   5.841
 9390SOL    HW229070   5.322   5.109   5.972
 9391SOL     OW29071   2.357   1.545   5.258
 9391SOL    HW129072   2.261   1.569   5.242
 9391SOL    HW229073   2.368   1.446   5.250
 9392SOL     OW29074   5.976   6.462   5.120
 9392SOL    HW129075   5.900   6.515   5.158
 9392SOL    HW229076   6.021   6.411   5.193
 9393SOL     OW29077   3.234   6.321   6.587
 9393SOL    HW129078   3.192   6.403   6.549
 9393SOL    HW229079   3.319   6.347   6.634
 9394SOL     OW29080   0.146   1.072   1.706
 9394SOL    HW129081   0.233   1.082   1.754
 9394SOL    HW229082   0.107   0.982   1.726
 9395SOL     OW29083   2.659   1.504   1.471
 9395SOL    HW129084   2.654   1.513   1.371
 9395SOL    HW229085   2.725   1.433   1.495
 9396SOL     OW29086   2.161   4.191   4.076
 9396SOL    HW129087   2.157   4.094   4.055
 9396SOL    HW229088   2.169   4.203   4.175
 9397SOL     OW29089   4.623   0.265   6.278
 9397SOL    HW129090   4.658   0.293   6.188
 9397SOL    HW229091   4.589   0.171   6.272
 9398SOL     OW29092   6.654   0.981   4.993
 9398SOL    HW129093   6.734   1.014   5.043
 9398SOL    HW229094   6.624   0.894   5.031
 9399SOL     OW29095   0.970   2.296   5.751
 9399SOL    HW129096   0.905   2.220   5.751
 9399SOL    HW229097   0.964   2.345   5.664
 9400SOL     OW29098   4.547   0.778   1.881
 9400SOL    HW129099   4.620   0.844   1.866
 9400SOL    HW229100   4.461   0.814   1.844
 9401SOL     OW29101   6.581   0.633   3.820
 9401SOL    HW129102   6.615   0.684   3.741
 9401SOL    HW229103   6.654   0.627   3.889
 9402SOL     OW29104   1.308   5.411   2.620
 9402SOL    HW129105   1.221   5.367   2.599
 9402SOL    HW229106   1.350   5.443   2.535
 9403SOL     OW29107   6.377   1.570   3.157
 9403SOL    HW129108   6.331   1.637   3.216
 9403SOL    HW229109   6.313   1.539   3.087
 9404SOL     OW29110   1.290   2.995   0.223
 9404SOL    HW129111   1.302   2.927   0.151
 9404SOL    HW229112   1.350   2.973   0.300
 9405SOL     OW29113   2.488   4.446   3.812
 9405SOL    HW129114   2.443   4.433   3.724
 9405SOL    HW229115   2.566   4.507   3.802
 9406SOL     OW29116   6.817   2.918   5.910
 9406SOL    HW129117   6.841   3.006   5.951
 9406SOL    HW229118   6.730   2.926   5.862
 9407SOL     OW29119   3.239   4.989   3.596
 9407SOL    HW129120   3.229   5.089   3.601
 9407SOL    HW229121   3.150   4.946   3.604
 9408SOL     OW29122   6.541   2.862   6.162
 9408SOL    HW129123   6.468   2.929   6.174
 9408SOL    HW229124   6.629   2.906   6.181
 9409SOL     OW29125   5.922   5.869   0.376
 9409SOL    HW129126   6.014   5.905   0.394
 9409SOL    HW229127   5.929   5.790   0.315
 9410SOL     OW29128   2.797   0.366   1.212
 9410SOL    HW129129   2.859   0.444   1.204
 9410SOL    HW229130   2.706   0.398   1.238
 9411SOL     OW29131   3.501   3.077   2.104
 9411SOL    HW129132   3.566   3.002   2.093
 9411SOL    HW229133   3.411   3.041   2.126
 9412SOL     OW29134   0.012   1.347   2.579
 9412SOL    HW129135   0.104   1.383   2.562
 9412SOL    HW229136   0.019   1.261   2.629
 9413SOL     OW29137   4.023   5.551   3.578
 9413SOL    HW129138   4.027   5.651   3.589
 9413SOL    HW229139   3.928   5.520   3.585
 9414SOL     OW29140   2.899   1.127   3.022
 9414SOL    HW129141   2.956   1.103   3.101
 9414SOL    HW229142   2.806   1.094   3.036
 9415SOL     OW29143   2.409   6.994   1.984
 9415SOL    HW129144   2.322   6.972   2.028
 9415SOL    HW229145   2.479   6.930   2.014
 9416SOL     OW29146   6.928   2.157   0.516
 9416SOL    HW129147   6.999   2.094   0.547
 9416SOL    HW229148   6.941   2.178   0.419
 9417SOL     OW29149   4.537   0.717   0.604
 9417SOL    HW129150   4.615   0.691   0.661
 9417SOL    HW229151   4.558   0.699   0.508
 9418SOL     OW29152   3.639   0.321   1.285
 9418SOL    HW129153   3.555   0.276   1.253
 9418SOL    HW229154   3.689   0.258   1.345
 9419SOL     OW29155   2.817   4.594   5.795
 9419SOL    HW129156   2.785   4.688   5.786
 9419SOL    HW229157   2.763   4.547   5.864
 9420SOL     OW29158   5.802   4.165   5.767
 9420SOL    HW129159   5.863   4.245   5.762
 9420SOL    HW229160   5.842   4.097   5.829
 9421SOL     OW29161   2.314   6.433   4.307
 9421SOL    HW129162   2.355   6.489   4.235
 9421SOL    HW229163   2.386   6.401   4.370
 9422SOL     OW29164   3.199   5.383   3.089
 9422SOL    HW129165   3.117   5.374   3.146
 9422SOL    HW229166   3.267   5.439   3.136
 9423SOL     OW29167   2.904   6.111   3.791
 9423SOL    HW129168   2.849   6.099   3.874
 9423SOL    HW229169   2.856   6.170   3.727
 9424SOL     OW29170   5.277   2.435   4.948
 9424SOL    HW129171   5.227   2.351   4.967
 9424SOL    HW229172   5.308   2.476   5.034
 9425SOL     OW29173   5.839   3.752   0.851
 9425SOL    HW129174   5.911   3.710   0.907
 9425SOL    HW229175   5.879   3.826   0.797
 9426SOL     OW29176   4.040   1.887   6.194
 9426SOL    HW129177   3.969   1.949   6.227
 9426SOL    HW229178   4.021   1.864   6.098
 9427SOL     OW29179   2.628   5.431   2.960
 9427SOL    HW129180   2.569   5.438   2.880
 9427SOL    HW229181   2.720   5.461   2.936
 9428SOL     OW29182   6.768   0.764   1.287
 9428SOL    HW129183   6.803   0.845   1.333
 9428SOL    HW229184   6.781   0.773   1.188
 9429SOL     OW29185   2.151   3.980   2.948
 9429SOL    HW129186   2.134   4.078   2.961
 9429SOL    HW229187   2.190   3.964   2.857
 9430SOL     OW29188   0.172   3.762   4.334
 9430SOL    HW129189   0.107   3.752   4.410
 9430SOL    HW229190   0.253   3.811   4.366
 9431SOL     OW29191   6.591   4.023   0.770
 9431SOL    HW129192   6.650   3.979   0.702
 9431SOL    HW229193   6.592   3.969   0.854
 9432SOL     OW29194   5.506   0.448   3.641
 9432SOL    HW129195   5.434   0.401   3.692
 9432SOL    HW229196   5.571   0.381   3.605
 9433SOL     OW29197   3.379   6.249   3.024
 9433SOL    HW129198   3.393   6.253   3.123
 9433SOL    HW229199   3.441   6.182   2.983
 9434SOL     OW29200   5.450   5.802   2.782
 9434SOL    HW129201   5.433   5.729   2.716
 9434SOL    HW229202   5.382   5.875   2.769
 9435SOL     OW29203   0.239   2.605   4.511
 9435SOL    HW129204   0.200   2.516   4.488
 9435SOL    HW229205   0.325   2.592   4.560
 9436SOL     OW29206   1.717   2.787   1.472
 9436SOL    HW129207   1.734   2.731   1.553
 9436SOL    HW229208   1.774   2.755   1.397
 9437SOL     OW29209   1.439   5.833   3.123
 9437SOL    HW129210   1.513   5.881   3.171
 9437SOL    HW229211   1.361   5.823   3.184
 9438SOL     OW29212   0.651   0.351   1.341
 9438SOL    HW129213   0.665   0.362   1.439
 9438SOL    HW229214   0.704   0.420   1.292
 9439SOL     OW29215   0.175   3.245   0.990
 9439SOL    HW129216   0.178   3.331   1.041
 9439SOL    HW229217   0.252   3.188   1.016
 9440SOL     OW29218   3.899   5.050   3.328
 9440SOL    HW129219   3.940   5.140   3.310
 9440SOL    HW229220   3.957   4.998   3.390
 9441SOL     OW29221   6.384   4.431   5.764
 9441SOL    HW129222   6.399   4.346   5.815
 9441SOL    HW229223   6.353   4.409   5.672
 9442SOL     OW29224   4.552   3.527   1.175
 9442SOL    HW129225   4.642   3.529   1.217
 9442SOL    HW229226   4.491   3.468   1.228
 9443SOL     OW29227   2.687   5.253   1.043
 9443SOL    HW129228   2.652   5.328   0.987
 9443SOL    HW229229   2.611   5.211   1.094
 9444SOL     OW29230   1.338   3.213   1.216
 9444SOL    HW129231   1.363   3.218   1.119
 9444SOL    HW229232   1.291   3.298   1.242
 9445SOL     OW29233   6.143   2.753   2.964
 9445SOL    HW129234   6.071   2.797   3.018
 9445SOL    HW229235   6.114   2.661   2.937
 9446SOL     OW29236   6.214   5.402   3.870
 9446SOL    HW129237   6.182   5.318   3.827
 9446SOL    HW229238   6.284   5.445   3.813
 9447SOL     OW29239   5.928   4.794   3.300
 9447SOL    HW129240   5.858   4.789   3.371
 9447SOL    HW229241   5.885   4.808   3.211
 9448SOL     OW29242   0.138   0.014   6.697
 9448SOL    HW129243   0.050   7.022   6.652
 9448SOL    HW229244   0.135   6.998   6.789
 9449SOL     OW29245   6.314   6.849   6.844
 9449SOL    HW129246   6.292   6.752   6.833
 9449SOL    HW229247   6.284   6.880   6.934
 9450SOL     OW29248   1.603   5.325   4.404
 9450SOL    HW129249   1.536   5.313   4.331
 9450SOL    HW229250   1.651   5.239   4.419
 9451SOL     OW29251   4.393   0.425   6.056
 9451SOL    HW129252   4.410   0.340   6.007
 9451SOL    HW229253   4.372   0.498   5.991
 9452SOL     OW29254   1.657   3.894   0.536
 9452SOL    HW129255   1.576   3.837   0.554
 9452SOL    HW229256   1.732   3.863   0.594
 9453SOL     OW29257   2.153   4.555   3.286
 9453SOL    HW129258   2.074   4.566   3.226
 9453SOL    HW229259   2.122   4.545   3.380
 9454SOL     OW29260   3.358   3.817   6.370
 9454SOL    HW129261   3.418   3.808   6.450
 9454SOL    HW229262   3.389   3.892   6.312
 9455SOL     OW29263   2.607   1.547   3.837
 9455SOL    HW129264   2.516   1.519   3.868
 9455SOL    HW229265   2.613   1.534   3.738
 9456SOL     OW29266   7.022   3.851   1.119
 9456SOL    HW129267   0.031   3.815   1.032
 9456SOL    HW229268   6.958   3.927   1.104
 9457SOL     OW29269   1.416   3.577   4.719
 9457SOL    HW129270   1.488   3.608   4.781
 9457SOL    HW229271   1.410   3.477   4.722
 9458SOL     OW29272   1.120   2.865   7.004
 9458SOL    HW129273   1.196   2.891   6.943
 9458SOL    HW229274   1.083   2.947   0.024
 9459SOL     OW29275   5.974   4.417   3.769
 9459SOL    HW129276   5.955   4.514   3.755
 9459SOL    HW229277   6.072   4.401   3.761
 9460SOL     OW29278   1.291   3.238   4.163
 9460SOL    HW129279   1.267   3.294   4.243
 9460SOL    HW229280   1.207   3.213   4.115
 9461SOL     OW29281   0.234   1.607   1.751
 9461SOL    HW129282   0.169   1.587   1.678
 9461SOL    HW229283   0.184   1.629   1.835
 9462SOL     OW29284   2.006   3.527   3.211
 9462SOL    HW129285   1.912   3.558   3.227
 9462SOL    HW229286   2.048   3.585   3.141
 9463SOL     OW29287   6.168   0.342   1.561
 9463SOL    HW129288   6.213   0.413   1.615
 9463SOL    HW229289   6.237   0.288   1.512
 9464SOL     OW29290   6.084   0.555   0.866
 9464SOL    HW129291   6.111   0.613   0.789
 9464SOL    HW229292   6.029   0.608   0.930
 9465SOL     OW29293   1.213   4.597   1.964
 9465SOL    HW129294   1.309   4.575   1.979
 9465SOL    HW229295   1.176   4.537   1.893
 9466SOL     OW29296   4.014   4.531   5.519
 9466SOL    HW129297   3.946   4.458   5.523
 9466SOL    HW229298   4.103   4.495   5.546
 9467SOL     OW29299   1.381   2.493   1.886
 9467SOL    HW129300   1.420   2.422   1.944
 9467SOL    HW229301   1.332   2.451   1.810
 9468SOL     OW29302   5.776   3.764   6.689
 9468SOL    HW129303   5.839   3.689   6.709
 9468SOL    HW229304   5.692   3.728   6.649
 9469SOL     OW29305   6.213   5.413   1.677
 9469SOL    HW129306   6.179   5.479   1.744
 9469SOL    HW229307   6.286   5.456   1.623
 9470SOL     OW29308   5.037   3.232   6.006
 9470SOL    HW129309   4.941   3.224   6.033
 9470SOL    HW229310   5.083   3.145   6.020
 9471SOL     OW29311   6.641   1.668   4.513
 9471SOL    HW129312   6.582   1.597   4.552
 9471SOL    HW229313   6.595   1.710   4.435
 9472SOL     OW29314   6.257   3.029   5.426
 9472SOL    HW129315   6.266   3.100   5.496
 9472SOL    HW229316   6.186   3.057   5.361
 9473SOL     OW29317   2.719   5.161   6.944
 9473SOL    HW129318   2.723   5.061   6.937
 9473SOL    HW229319   2.799   5.194   6.994
 9474SOL     OW29320   0.058   3.026   6.925
 9474SOL    HW129321   0.132   2.976   6.970
 9474SOL    HW229322   6.998   2.970   6.922
 9475SOL     OW29323   3.786   3.219   6.910
 9475SOL    HW129324   3.709   3.190   6.967
 9475SOL    HW229325   3.755   3.230   6.815
 9476SOL     OW29326   3.797   4.108   4.737
 9476SOL    HW129327   3.804   4.038   4.808
 9476SOL    HW229328   3.872   4.098   4.672
 9477SOL     OW29329   0.810   2.814   0.701
 9477SOL    HW129330   0.721   2.831   0.658
 9477SOL    HW229331   0.798   2.799   0.799
 9478SOL     OW29332   5.002   3.049   0.560
 9478SOL    HW129333   5.038   3.027   0.469
 9478SOL    HW229334   5.075   3.036   0.628
 9479SOL     OW29335   4.371   6.162   6.632
 9479SOL    HW129336   4.277   6.187   6.655
 9479SOL    HW229337   4.418   6.131   6.715
 9480SOL     OW29338   5.894   5.045   1.086
 9480SOL    HW129339   5.932   5.100   1.011
 9480SOL    HW229340   5.967   5.017   1.147
 9481SOL     OW29341   5.348   2.804   2.316
 9481SOL    HW129342   5.383   2.871   2.381
 9481SOL    HW229343   5.357   2.840   2.223
 9482SOL     OW29344   0.266   1.239   2.998
 9482SOL    HW129345   0.287   1.224   2.902
 9482SOL    HW229346   0.169   1.259   3.008
 9483SOL     OW29347   1.973   0.893   0.931
 9483SOL    HW129348   1.880   0.899   0.894
 9483SOL    HW229349   2.039   0.900   0.857
 9484SOL     OW29350   4.426   0.468   4.033
 9484SOL    HW129351   4.377   0.383   4.053
 9484SOL    HW229352   4.362   0.535   3.995
 9485SOL     OW29353   0.692   0.872   0.400
 9485SOL    HW129354   0.710   0.776   0.380
 9485SOL    HW229355   0.720   0.894   0.493
 9486SOL     OW29356   4.126   6.625   0.727
 9486SOL    HW129357   4.055   6.683   0.687
 9486SOL    HW229358   4.083   6.548   0.775
 9487SOL     OW29359   3.368   3.664   4.538
 9487SOL    HW129360   3.434   3.640   4.467
 9487SOL    HW229361   3.413   3.714   4.611
 9488SOL     OW29362   2.979   6.820   1.053
 9488SOL    HW129363   3.026   6.761   0.987
 9488SOL    HW229364   3.023   6.910   1.055
 9489SOL     OW29365   4.561   4.368   0.939
 9489SOL    HW129366   4.632   4.298   0.946
 9489SOL    HW229367   4.570   4.433   1.014
 9490SOL     OW29368   6.110   4.759   2.193
 9490SOL    HW129369   6.082   4.839   2.247
 9490SOL    HW229370   6.128   4.682   2.254
 9491SOL     OW29371   5.728   5.015   4.078
 9491SOL    HW129372   5.633   4.994   4.058
 9491SOL    HW229373   5.783   5.004   3.995
 9492SOL     OW29374   3.554   2.877   4.212
 9492SOL    HW129375   3.457   2.860   4.227
 9492SOL    HW229376   3.566   2.937   4.133
 9493SOL     OW29377   3.089   5.297   4.486
 9493SOL    HW129378   3.067   5.365   4.556
 9493SOL    HW229379   3.129   5.342   4.407
 9494SOL     OW29380   5.282   2.977   2.693
 9494SOL    HW129381   5.202   2.920   2.673
 9494SOL    HW229382   5.265   3.070   2.658
 9495SOL     OW29383   6.302   1.402   3.702
 9495SOL    HW129384   6.304   1.377   3.799
 9495SOL    HW229385   6.223   1.460   3.684
 9496SOL     OW29386   5.985   3.438   1.579
 9496SOL    HW129387   5.985   3.472   1.485
 9496SOL    HW229388   6.079   3.419   1.607
 9497SOL     OW29389   5.438   6.506   5.592
 9497SOL    HW129390   5.440   6.603   5.616
 9497SOL    HW229391   5.484   6.493   5.504
 9498SOL     OW29392   4.290   6.662   4.454
 9498SOL    HW129393   4.281   6.740   4.515
 9498SOL    HW229394   4.358   6.598   4.490
 9499SOL     OW29395   2.352   4.954   6.438
 9499SOL    HW129396   2.342   4.998   6.349
 9499SOL    HW229397   2.306   5.008   6.507
 9500SOL     OW29398   5.230   0.095   0.903
 9500SOL    HW129399   5.141   0.108   0.861
 9500SOL    HW229400   5.286   0.035   0.846
 9501SOL     OW29401   2.599   1.333   4.828
 9501SOL    HW129402   2.518   1.381   4.861
 9501SOL    HW229403   2.654   1.394   4.771
 9502SOL     OW29404   5.385   3.121   5.088
 9502SOL    HW129405   5.378   3.198   5.025
 9502SOL    HW229406   5.316   3.052   5.065
 9503SOL     OW29407   0.678   1.599   1.537
 9503SOL    HW129408   0.594   1.630   1.581
 9503SOL    HW229409   0.744   1.571   1.606
 9504SOL     OW29410   0.362   2.203   0.295
 9504SOL    HW129411   0.271   2.173   0.266
 9504SOL    HW229412   0.390   2.151   0.376
 9505SOL     OW29413   4.880   4.672   4.078
 9505SOL    HW129414   4.785   4.644   4.094
 9505SOL    HW229415   4.882   4.751   4.017
 9506SOL     OW29416   1.013   2.016   6.186
 9506SOL    HW129417   1.030   2.055   6.096
 9506SOL    HW229418   0.928   2.054   6.224
 9507SOL     OW29419   1.002   2.304   3.033
 9507SOL    HW129420   0.912   2.260   3.032
 9507SOL    HW229421   1.063   2.256   2.969
 9508SOL     OW29422   6.295   2.056   1.281
 9508SOL    HW129423   6.302   2.125   1.354
 9508SOL    HW229424   6.225   2.085   1.216
 9509SOL     OW29425   0.924   1.115   4.205
 9509SOL    HW129426   0.858   1.053   4.249
 9509SOL    HW229427   0.953   1.075   4.118
 9510SOL     OW29428   1.234   3.647   3.448
 9510SOL    HW129429   1.330   3.652   3.475
 9510SOL    HW229430   1.194   3.562   3.484
 9511SOL     OW29431   1.631   0.504   0.657
 9511SOL    HW129432   1.696   0.535   0.588
 9511SOL    HW229433   1.639   0.405   0.669
 9512SOL     OW29434   5.880   1.449   1.550
 9512SOL    HW129435   5.828   1.533   1.567
 9512SOL    HW229436   5.966   1.471   1.505
 9513SOL     OW29437   1.992   3.535   6.636
 9513SOL    HW129438   1.951   3.444   6.643
 9513SOL    HW229439   2.091   3.528   6.649
 9514SOL     OW29440   2.036   5.395   5.821
 9514SOL    HW129441   2.060   5.298   5.822
 9514SOL    HW229442   2.007   5.423   5.913
 9515SOL     OW29443   2.106   5.922   0.908
 9515SOL    HW129444   2.030   5.859   0.896
 9515SOL    HW229445   2.141   5.949   0.819
 9516SOL     OW29446   5.981   4.643   5.898
 9516SOL    HW129447   5.900   4.666   5.953
 9516SOL    HW229448   6.060   4.631   5.958
 9517SOL     OW29449   2.219   4.720   1.046
 9517SOL    HW129450   2.251   4.643   0.991
 9517SOL    HW229451   2.179   4.789   0.986
 9518SOL     OW29452   2.140   2.059   0.444
 9518SOL    HW129453   2.046   2.068   0.476
 9518SOL    HW229454   2.162   2.137   0.384
 9519SOL     OW29455   3.807   3.891   4.940
 9519SOL    HW129456   3.772   3.809   4.986
 9519SOL    HW229457   3.890   3.922   4.985
 9520SOL     OW29458   1.417   1.592   3.665
 9520SOL    HW129459   1.369   1.505   3.673
 9520SOL    HW229460   1.443   1.624   3.757
 9521SOL     OW29461   4.771   5.847   1.676
 9521SOL    HW129462   4.691   5.866   1.619
 9521SOL    HW229463   4.757   5.761   1.726
 9522SOL     OW29464   2.830   5.922   1.060
 9522SOL    HW129465   2.774   5.990   1.108
 9522SOL    HW229466   2.832   5.837   1.114
 9523SOL     OW29467   2.587   4.631   4.938
 9523SOL    HW129468   2.521   4.619   5.012
 9523SOL    HW229469   2.679   4.611   4.971
 9524SOL     OW29470   3.204   2.872   1.402
 9524SOL    HW129471   3.265   2.806   1.445
 9524SOL    HW229472   3.111   2.834   1.399
 9525SOL     OW29473   2.350   2.902   5.727
 9525SOL    HW129474   2.319   2.985   5.774
 9525SOL    HW229475   2.315   2.901   5.634
 9526SOL     OW29476   5.455   5.129   1.267
 9526SOL    HW129477   5.490   5.055   1.325
 9526SOL    HW229478   5.460   5.215   1.316
 9527SOL     OW29479   0.570   0.563   3.630
 9527SOL    HW129480   0.578   0.533   3.534
 9527SOL    HW229481   0.538   0.486   3.686
 9528SOL     OW29482   0.064   1.355   0.355
 9528SOL    HW129483   0.050   1.317   0.447
 9528SOL    HW229484   0.028   1.292   0.287
 9529SOL     OW29485   6.427   3.190   5.753
 9529SOL    HW129486   6.384   3.229   5.671
 9529SOL    HW229487   6.450   3.263   5.816
 9530SOL     OW29488   2.003   3.899   2.026
 9530SOL    HW129489   2.087   3.899   1.971
 9530SOL    HW229490   2.026   3.881   2.122
 9531SOL     OW29491   5.008   5.238   2.635
 9531SOL    HW129492   5.049   5.206   2.549
 9531SOL    HW229493   4.970   5.329   2.621
 9532SOL     OW29494   6.687   6.794   2.139
 9532SOL    HW129495   6.656   6.845   2.219
 9532SOL    HW229496   6.771   6.835   2.103
 9533SOL     OW29497   6.898   6.919   5.824
 9533SOL    HW129498   6.923   6.824   5.838
 9533SOL    HW229499   6.940   6.953   5.740
 9534SOL     OW29500   0.017   3.473   5.034
 9534SOL    HW129501   0.085   3.512   5.096
 9534SOL    HW229502   6.949   3.512   5.054
 9535SOL     OW29503   2.401   1.351   6.082
 9535SOL    HW129504   2.392   1.332   6.179
 9535SOL    HW229505   2.432   1.445   6.068
 9536SOL     OW29506   2.716   4.318   5.315
 9536SOL    HW129507   2.716   4.355   5.408
 9536SOL    HW229508   2.786   4.363   5.261
 9537SOL     OW29509   2.921   6.645   2.980
 9537SOL    HW129510   2.978   6.634   2.898
 9537SOL    HW229511   2.963   6.712   3.041
 9538SOL     OW29512   6.388   1.944   3.645
 9538SOL    HW129513   6.380   2.010   3.719
 9538SOL    HW229514   6.297   1.913   3.617
 9539SOL     OW29515   2.804   3.797   5.172
 9539SOL    HW129516   2.751   3.866   5.220
 9539SOL    HW229517   2.825   3.722   5.234
 9540SOL     OW29518   6.247   4.172   4.477
 9540SOL    HW129519   6.194   4.241   4.526
 9540SOL    HW229520   6.190   4.093   4.456
 9541SOL     OW29521   3.745   0.628   5.438
 9541SOL    HW129522   3.672   0.601   5.501
 9541SOL    HW229523   3.770   0.723   5.454
 9542SOL     OW29524   5.470   4.009   4.367
 9542SOL    HW129525   5.464   3.909   4.356
 9542SOL    HW229526   5.417   4.037   4.446
 9543SOL     OW29527   3.445   0.926   5.151
 9543SOL    HW129528   3.543   0.906   5.154
 9543SOL    HW229529   3.393   0.842   5.162
 9544SOL     OW29530   6.821   1.449   3.882
 9544SOL    HW129531   6.843   1.354   3.860
 9544SOL    HW229532   6.769   1.452   3.968
 9545SOL     OW29533   5.963   5.226   3.784
 9545SOL    HW129534   5.904   5.150   3.757
 9545SOL    HW229535   5.989   5.217   3.880
 9546SOL     OW29536   3.118   2.254   5.728
 9546SOL    HW129537   3.121   2.202   5.643
 9546SOL    HW229538   3.039   2.316   5.727
 9547SOL     OW29539   2.295   6.706   4.479
 9547SOL    HW129540   2.303   6.613   4.443
 9547SOL    HW229541   2.332   6.708   4.572
 9548SOL     OW29542   5.904   6.102   6.407
 9548SOL    HW129543   5.857   6.159   6.340
 9548SOL    HW229544   5.995   6.139   6.424
 9549SOL     OW29545   2.854   3.073   1.274
 9549SOL    HW129546   2.815   2.993   1.229
 9549SOL    HW229547   2.805   3.090   1.360
 9550SOL     OW29548   0.138   1.342   0.881
 9550SOL    HW129549   0.074   1.285   0.931
 9550SOL    HW229550   0.107   1.437   0.883
 9551SOL     OW29551   5.779   1.322   4.349
 9551SOL    HW129552   5.813   1.365   4.432
 9551SOL    HW229553   5.713   1.251   4.372
 9552SOL     OW29554   1.082   6.459   2.778
 9552SOL    HW129555   1.140   6.466   2.697
 9552SOL    HW229556   1.140   6.465   2.860
 9553SOL     OW29557   6.177   4.047   0.101
 9553SOL    HW129558   6.210   4.024   0.192
 9553SOL    HW229559   6.247   4.099   0.053
 9554SOL     OW29560   2.682   0.521   1.561
 9554SOL    HW129561   2.745   0.447   1.583
 9554SOL    HW229562   2.664   0.521   1.463
 9555SOL     OW29563   1.104   0.647   2.950
 9555SOL    HW129564   1.044   0.578   2.909
 9555SOL    HW229565   1.158   0.692   2.878
 9556SOL     OW29566   1.861   2.019   1.245
 9556SOL    HW129567   1.897   1.983   1.331
 9556SOL    HW229568   1.933   2.018   1.176
 9557SOL     OW29569   0.104   0.318   2.645
 9557SOL    HW129570   0.109   0.414   2.674
 9557SOL    HW229571   0.024   0.275   2.687
 9558SOL     OW29572   6.478   6.380   4.745
 9558SOL    HW129573   6.513   6.435   4.669
 9558SOL    HW229574   6.378   6.383   4.744
 9559SOL     OW29575   0.988   4.183   0.821
 9559SOL    HW129576   1.046   4.262   0.800
 9559SOL    HW229577   1.023   4.103   0.773
 9560SOL     OW29578   1.051   1.678   3.155
 9560SOL    HW129579   1.033   1.609   3.084
 9560SOL    HW229580   0.968   1.692   3.209
 9561SOL     OW29581   1.032   6.401   0.500
 9561SOL    HW129582   0.963   6.471   0.518
 9561SOL    HW229583   1.094   6.434   0.428
 9562SOL     OW29584   3.410   0.229   5.587
 9562SOL    HW129585   3.329   0.258   5.638
 9562SOL    HW229586   3.492   0.258   5.636
 9563SOL     OW29587   6.019   6.990   0.706
 9563SOL    HW129588   6.106   7.007   0.658
 9563SOL    HW229589   6.033   6.998   0.805
 9564SOL     OW29590   3.063   0.371   0.162
 9564SOL    HW129591   2.997   0.296   0.157
 9564SOL    HW229592   3.071   0.415   0.073
 9565SOL     OW29593   4.122   6.019   5.118
 9565SOL    HW129594   4.030   6.049   5.145
 9565SOL    HW229595   4.178   6.098   5.098
 9566SOL     OW29596   2.590   4.776   6.673
 9566SOL    HW129597   2.660   4.704   6.669
 9566SOL    HW229598   2.503   4.740   6.639
 9567SOL     OW29599   5.921   4.815   0.128
 9567SOL    HW129600   6.008   4.782   0.165
 9567SOL    HW229601   5.846   4.771   0.177
 9568SOL     OW29602   4.452   2.751   6.771
 9568SOL    HW129603   4.445   2.749   6.671
 9568SOL    HW229604   4.486   2.663   6.804
 9569SOL     OW29605   0.179   0.552   2.789
 9569SOL    HW129606   0.098   0.598   2.824
 9569SOL    HW229607   0.228   0.509   2.865
 9570SOL     OW29608   0.693   2.743   2.628
 9570SOL    HW129609   0.714   2.700   2.716
 9570SOL    HW229610   0.717   2.840   2.631
 9571SOL     OW29611   2.188   3.844   0.130
 9571SOL    HW129612   2.198   3.903   0.050
 9571SOL    HW229613   2.200   3.749   0.104
 9572SOL     OW29614   1.965   5.693   1.501
 9572SOL    HW129615   2.006   5.683   1.591
 9572SOL    HW229616   2.016   5.762   1.449
 9573SOL     OW29617   1.057   1.304   6.663
 9573SOL    HW129618   1.006   1.373   6.611
 9573SOL    HW229619   1.117   1.349   6.729
 9574SOL     OW29620   3.556   3.089   4.049
 9574SOL    HW129621   3.470   3.122   4.010
 9574SOL    HW229622   3.576   3.139   4.133
 9575SOL     OW29623   5.884   1.616   1.154
 9575SOL    HW129624   5.886   1.712   1.127
 9575SOL    HW229625   5.801   1.573   1.119
 9576SOL     OW29626   2.792   0.417   2.718
 9576SOL    HW129627   2.818   0.512   2.704
 9576SOL    HW229628   2.725   0.411   2.792
 9577SOL     OW29629   1.055   0.566   4.171
 9577SOL    HW129630   1.044   0.637   4.101
 9577SOL    HW229631   1.054   0.609   4.262
 9578SOL     OW29632   0.099   4.048   3.666
 9578SOL    HW129633   0.153   4.009   3.740
 9578SOL    HW229634   0.153   4.118   3.619
 9579SOL     OW29635   1.937   5.463   2.569
 9579SOL    HW129636   1.873   5.451   2.645
 9579SOL    HW229637   1.971   5.556   2.568
 9580SOL     OW29638   4.330   3.185   0.962
 9580SOL    HW129639   4.254   3.120   0.954
 9580SOL    HW229640   4.365   3.185   1.056
 9581SOL     OW29641   1.379   5.692   6.205
 9581SOL    HW129642   1.463   5.642   6.226
 9581SOL    HW229643   1.330   5.646   6.131
 9582SOL     OW29644   4.652   4.778   4.646
 9582SOL    HW129645   4.744   4.740   4.655
 9582SOL    HW229646   4.585   4.710   4.679
 9583SOL     OW29647   3.314   4.552   1.218
 9583SOL    HW129648   3.220   4.561   1.248
 9583SOL    HW229649   3.317   4.526   1.121
 9584SOL     OW29650   6.934   6.500   0.173
 9584SOL    HW129651   6.870   6.572   0.198
 9584SOL    HW229652   6.925   6.423   0.236
 9585SOL     OW29653   6.337   0.294   3.523
 9585SOL    HW129654   6.404   0.222   3.539
 9585SOL    HW229655   6.381   0.369   3.473
 9586SOL     OW29656   5.776   3.917   2.411
 9586SOL    HW129657   5.738   3.869   2.331
 9586SOL    HW229658   5.876   3.917   2.405
 9587SOL     OW29659   6.150   0.516   2.336
 9587SOL    HW129660   6.176   0.420   2.339
 9587SOL    HW229661   6.074   0.528   2.271
 9588SOL     OW29662   0.486   1.599   2.268
 9588SOL    HW129663   0.455   1.621   2.361
 9588SOL    HW229664   0.504   1.684   2.219
 9589SOL     OW29665   2.666   5.396   6.192
 9589SOL    HW129666   2.759   5.433   6.200
 9589SOL    HW229667   2.671   5.297   6.180
 9590SOL     OW29668   0.313   4.510   2.222
 9590SOL    HW129669   0.293   4.603   2.189
 9590SOL    HW229670   0.406   4.485   2.195
 9591SOL     OW29671   2.804   6.108   0.494
 9591SOL    HW129672   2.765   6.030   0.446
 9591SOL    HW229673   2.762   6.193   0.460
 9592SOL     OW29674   3.978   4.568   1.737
 9592SOL    HW129675   4.058   4.510   1.751
 9592SOL    HW229676   4.007   4.658   1.705
 9593SOL     OW29677   6.370   0.661   4.681
 9593SOL    HW129678   6.465   0.647   4.655
 9593SOL    HW229679   6.356   0.756   4.708
 9594SOL     OW29680   1.799   6.104   3.420
 9594SOL    HW129681   1.795   6.005   3.408
 9594SOL    HW229682   1.839   6.125   3.509
 9595SOL     OW29683   2.031   4.274   4.893
 9595SOL    HW129684   2.092   4.309   4.965
 9595SOL    HW229685   1.950   4.234   4.934
 9596SOL     OW29686   0.237   6.002   0.320
 9596SOL    HW129687   0.288   5.927   0.360
 9596SOL    HW229688   0.189   5.970   0.238
 9597SOL     OW29689   0.406   4.571   0.515
 9597SOL    HW129690   0.494   4.525   0.509
 9597SOL    HW229691   0.340   4.513   0.562
 9598SOL     OW29692   0.517   3.882   5.116
 9598SOL    HW129693   0.487   3.900   5.210
 9598SOL    HW229694   0.490   3.790   5.090
 9599SOL     OW29695   2.993   0.615   5.372
 9599SOL    HW129696   3.030   0.695   5.326
 9599SOL    HW229697   3.067   0.559   5.408
 9600SOL     OW29698   1.807   6.873   6.785
 9600SOL    HW129699   1.724   6.920   6.817
 9600SOL    HW229700   1.787   6.824   6.700
 9601SOL     OW29701   6.288   4.470   0.167
 9601SOL    HW129702   6.255   4.391   0.219
 9601SOL    HW229703   6.384   4.487   0.189
 9602SOL     OW29704   6.406   5.168   6.867
 9602SOL    HW129705   6.328   5.106   6.874
 9602SOL    HW229706   6.453   5.152   6.780
 9603SOL     OW29707   3.043   0.492   4.844
 9603SOL    HW129708   3.019   0.589   4.848
 9603SOL    HW229709   3.056   0.458   4.937
 9604SOL     OW29710   5.105   0.238   0.569
 9604SOL    HW129711   5.051   0.201   0.644
 9604SOL    HW229712   5.113   0.337   0.579
 9605SOL     OW29713   0.879   4.971   5.162
 9605SOL    HW129714   0.782   4.953   5.147
 9605SOL    HW229715   0.915   5.028   5.088
 9606SOL     OW29716   1.571   6.038   4.951
 9606SOL    HW129717   1.620   6.116   4.991
 9606SOL    HW229718   1.536   5.979   5.024
 9607SOL     OW29719   1.198   2.026   1.936
 9607SOL    HW129720   1.240   2.098   1.991
 9607SOL    HW229721   1.222   2.037   1.840
 9608SOL     OW29722   6.567   6.338   2.042
 9608SOL    HW129723   6.636   6.410   2.038
 9608SOL    HW229724   6.535   6.327   2.136
 9609SOL     OW29725   1.352   3.902   5.482
 9609SOL    HW129726   1.418   3.939   5.417
 9609SOL    HW229727   1.397   3.883   5.569
 9610SOL     OW29728   1.389   4.022   4.423
 9610SOL    HW129729   1.407   4.102   4.479
 9610SOL    HW229730   1.310   4.039   4.364
 9611SOL     OW29731   0.120   6.641   0.505
 9611SOL    HW129732   0.073   6.613   0.589
 9611SOL    HW229733   0.128   6.562   0.444
 9612SOL     OW29734   6.251   3.211   1.417
 9612SOL    HW129735   6.332   3.228   1.360
 9612SOL    HW229736   6.192   3.143   1.372
 9613SOL     OW29737   3.763   6.087   3.163
 9613SOL    HW129738   3.733   5.995   3.137
 9613SOL    HW229739   3.820   6.081   3.244
 9614SOL     OW29740   3.572   3.077   1.370
 9614SOL    HW129741   3.505   3.136   1.416
 9614SOL    HW229742   3.639   3.134   1.322
 9615SOL     OW29743   1.008   6.797   2.404
 9615SOL    HW129744   1.096   6.801   2.357
 9615SOL    HW229745   0.947   6.866   2.365
 9616SOL     OW29746   4.263   3.913   0.668
 9616SOL    HW129747   4.199   3.978   0.627
 9616SOL    HW229748   4.347   3.908   0.613
 9617SOL     OW29749   0.873   3.696   4.374
 9617SOL    HW129750   0.953   3.751   4.349
 9617SOL    HW229751   0.823   3.671   4.291
 9618SOL     OW29752   4.799   6.947   6.041
 9618SOL    HW129753   4.806   6.910   6.133
 9618SOL    HW229754   4.891   6.954   6.001
 9619SOL     OW29755   1.183   0.443   0.459
 9619SOL    HW129756   1.242   0.523   0.452
 9619SOL    HW229757   1.228   0.372   0.512
 9620SOL     OW29758   5.568   1.779   6.586
 9620SOL    HW129759   5.518   1.808   6.505
 9620SOL    HW229760   5.654   1.829   6.592
 9621SOL     OW29761   1.704   1.222   2.989
 9621SOL    HW129762   1.715   1.268   2.901
 9621SOL    HW229763   1.607   1.207   3.006
 9622SOL     OW29764   5.606   1.225   6.744
 9622SOL    HW129765   5.694   1.177   6.743
 9622SOL    HW229766   5.564   1.219   6.654
 9623SOL     OW29767   4.554   5.432   5.624
 9623SOL    HW129768   4.465   5.427   5.579
 9623SOL    HW229769   4.552   5.502   5.695
 9624SOL     OW29770   5.336   4.429   4.017
 9624SOL    HW129771   5.381   4.517   4.004
 9624SOL    HW229772   5.348   4.399   4.112
 9625SOL     OW29773   5.135   4.542   7.005
 9625SOL    HW129774   5.211   4.498   6.958
 9625SOL    HW229775   5.169   4.590   0.064
 9626SOL     OW29776   2.359   5.894   5.638
 9626SOL    HW129777   2.363   5.910   5.736
 9626SOL    HW229778   2.392   5.975   5.590
 9627SOL     OW29779   6.826   3.740   4.816
 9627SOL    HW129780   6.774   3.655   4.824
 9627SOL    HW229781   6.859   3.768   4.906
 9628SOL     OW29782   6.206   4.131   0.721
 9628SOL    HW129783   6.285   4.131   0.660
 9628SOL    HW229784   6.236   4.115   0.815
 9629SOL     OW29785   6.689   5.522   2.444
 9629SOL    HW129786   6.738   5.564   2.521
 9629SOL    HW229787   6.748   5.457   2.398
 9630SOL     OW29788   6.414   6.372   5.893
 9630SOL    HW129789   6.369   6.287   5.867
 9630SOL    HW229790   6.513   6.358   5.898
 9631SOL     OW29791   4.666   2.159   0.915
 9631SOL    HW129792   4.680   2.116   1.005
 9631SOL    HW229793   4.568   2.162   0.894
 9632SOL     OW29794   2.496   5.289   1.943
 9632SOL    HW129795   2.500   5.199   1.899
 9632SOL    HW229796   2.430   5.286   2.018
 9633SOL     OW29797   3.810   4.399   0.684
 9633SOL    HW129798   3.884   4.335   0.664
 9633SOL    HW229799   3.831   4.489   0.646
 9634SOL     OW29800   0.308   5.545   3.662
 9634SOL    HW129801   0.305   5.446   3.651
 9634SOL    HW229802   0.288   5.589   3.574
 9635SOL     OW29803   2.026   4.131   5.381
 9635SOL    HW129804   2.098   4.063   5.388
 9635SOL    HW229805   2.066   4.222   5.370
 9636SOL     OW29806   4.324   1.729   6.008
 9636SOL    HW129807   4.321   1.783   6.091
 9636SOL    HW229808   4.410   1.746   5.960
 9637SOL     OW29809   3.774   2.512   1.066
 9637SOL    HW129810   3.693   2.526   1.124
 9637SOL    HW229811   3.751   2.535   0.971
 9638SOL     OW29812   0.077   3.066   6.009
 9638SOL    HW129813   0.034   3.084   5.921
 9638SOL    HW229814   0.080   3.150   6.063
 9639SOL     OW29815   4.131   2.216   2.011
 9639SOL    HW129816   4.175   2.211   2.101
 9639SOL    HW229817   4.034   2.194   2.020
 9640SOL     OW29818   3.124   0.538   2.752
 9640SOL    HW129819   3.086   0.495   2.834
 9640SOL    HW229820   3.134   0.469   2.680
 9641SOL     OW29821   5.733   5.550   2.102
 9641SOL    HW129822   5.643   5.530   2.140
 9641SOL    HW229823   5.777   5.465   2.073
 9642SOL     OW29824   1.348   5.905   4.546
 9642SOL    HW129825   1.444   5.889   4.525
 9642SOL    HW229826   1.299   5.930   4.462
 9643SOL     OW29827   5.165   4.156   3.509
 9643SOL    HW129828   5.199   4.250   3.509
 9643SOL    HW229829   5.229   4.097   3.558
 9644SOL     OW29830   0.817   5.746   5.564
 9644SOL    HW129831   0.815   5.673   5.632
 9644SOL    HW229832   0.741   5.809   5.581
 9645SOL     OW29833   2.743   4.841   4.159
 9645SOL    HW129834   2.708   4.748   4.168
 9645SOL    HW229835   2.766   4.877   4.249
 9646SOL     OW29836   2.502   5.039   1.767
 9646SOL    HW129837   2.529   4.973   1.837
 9646SOL    HW229838   2.581   5.094   1.741
 9647SOL     OW29839   0.107   6.746   3.301
 9647SOL    HW129840   0.165   6.775   3.225
 9647SOL    HW229841   0.134   6.655   3.332
 9648SOL     OW29842   3.949   2.646   6.924
 9648SOL    HW129843   3.965   2.719   6.990
 9648SOL    HW229844   3.891   2.576   6.965
 9649SOL     OW29845   1.869   4.361   0.051
 9649SOL    HW129846   1.791   4.420   0.027
 9649SOL    HW229847   1.866   4.279   7.015
 9650SOL     OW29848   5.163   4.695   2.853
 9650SOL    HW129849   5.157   4.740   2.764
 9650SOL    HW229850   5.113   4.608   2.850
 9651SOL     OW29851   5.477   1.327   1.004
 9651SOL    HW129852   5.483   1.304   0.906
 9651SOL    HW229853   5.458   1.244   1.056
 9652SOL     OW29854   1.147   4.466   1.736
 9652SOL    HW129855   1.132   4.487   1.639
 9652SOL    HW229856   1.105   4.377   1.757
 9653SOL     OW29857   4.629   5.003   4.455
 9653SOL    HW129858   4.636   4.919   4.509
 9653SOL    HW229859   4.607   4.979   4.360
 9654SOL     OW29860   3.055   3.481   3.061
 9654SOL    HW129861   3.002   3.531   2.993
 9654SOL    HW229862   3.115   3.415   3.015
 9655SOL     OW29863   0.147   1.990   0.180
 9655SOL    HW129864   0.167   1.922   0.251
 9655SOL    HW229865   0.069   2.046   0.209
 9656SOL     OW29866   4.273   2.955   1.367
 9656SOL    HW129867   4.231   2.865   1.372
 9656SOL    HW229868   4.243   3.010   1.446
 9657SOL     OW29869   5.709   3.132   2.363
 9657SOL    HW129870   5.740   3.052   2.312
 9657SOL    HW229871   5.786   3.175   2.410
 9658SOL     OW29872   5.536   1.458   2.767
 9658SOL    HW129873   5.466   1.428   2.702
 9658SOL    HW229874   5.618   1.402   2.756
 9659SOL     OW29875   0.679   3.486   6.882
 9659SOL    HW129876   0.677   3.390   6.909
 9659SOL    HW229877   0.586   3.522   6.882
 9660SOL     OW29878   0.632   6.665   2.944
 9660SOL    HW129879   0.638   6.763   2.964
 9660SOL    HW229880   0.541   6.644   2.908
 9661SOL     OW29881   3.487   6.415   1.777
 9661SOL    HW129882   3.464   6.318   1.774
 9661SOL    HW229883   3.404   6.470   1.775
 9662SOL     OW29884   4.170   3.083   6.049
 9662SOL    HW129885   4.117   3.166   6.031
 9662SOL    HW229886   4.256   3.108   6.095
 9663SOL     OW29887   0.209   6.024   2.738
 9663SOL    HW129888   0.128   5.985   2.782
 9663SOL    HW229889   0.181   6.101   2.680
 9664SOL     OW29890   5.816   5.213   4.244
 9664SOL    HW129891   5.758   5.172   4.174
 9664SOL    HW229892   5.871   5.287   4.203
 9665SOL     OW29893   5.779   6.700   6.720
 9665SOL    HW129894   5.823   6.784   6.688
 9665SOL    HW229895   5.844   6.625   6.718
 9666SOL     OW29896   6.565   4.178   1.970
 9666SOL    HW129897   6.659   4.201   1.994
 9666SOL    HW229898   6.503   4.211   2.042
 9667SOL     OW29899   4.137   3.951   0.335
 9667SOL    HW129900   4.178   3.860   0.327
 9667SOL    HW229901   4.039   3.945   0.319
 9668SOL     OW29902   0.540   0.564   6.261
 9668SOL    HW129903   0.512   0.475   6.226
 9668SOL    HW229904   0.577   0.553   6.353
 9669SOL     OW29905   1.854   6.987   1.866
 9669SOL    HW129906   1.870   6.918   1.795
 9669SOL    HW229907   1.831   0.052   1.823
 9670SOL     OW29908   0.000   4.692   6.157
 9670SOL    HW129909   7.021   4.592   6.155
 9670SOL    HW229910   0.021   4.726   6.065
 9671SOL     OW29911   0.155   4.427   0.538
 9671SOL    HW129912   0.174   4.334   0.570
 9671SOL    HW229913   0.088   4.423   0.464
 9672SOL     OW29914   1.721   5.410   3.175
 9672SOL    HW129915   1.678   5.359   3.101
 9672SOL    HW229916   1.729   5.352   3.256
 9673SOL     OW29917   4.073   4.059   1.328
 9673SOL    HW129918   4.026   4.007   1.257
 9673SOL    HW229919   4.040   4.031   1.418
 9674SOL     OW29920   3.364   6.807   3.418
 9674SOL    HW129921   3.461   6.789   3.401
 9674SOL    HW229922   3.337   6.890   3.368
 9675SOL     OW29923   5.600   2.308   6.322
 9675SOL    HW129924   5.579   2.350   6.233
 9675SOL    HW229925   5.557   2.362   6.394
 9676SOL     OW29926   0.811   2.773   5.853
 9676SOL    HW129927   0.861   2.752   5.770
 9676SOL    HW229928   0.870   2.824   5.916
 9677SOL     OW29929   6.317   5.478   4.905
 9677SOL    HW129930   6.398   5.422   4.889
 9677SOL    HW229931   6.281   5.511   4.818
 9678SOL     OW29932   3.001   3.826   4.380
 9678SOL    HW129933   3.035   3.735   4.403
 9678SOL    HW229934   2.967   3.827   4.286
 9679SOL     OW29935   2.756   0.217   3.174
 9679SOL    HW129936   2.743   0.304   3.221
 9679SOL    HW229937   2.744   0.231   3.075
 9680SOL     OW29938   3.831   0.764   3.834
 9680SOL    HW129939   3.883   0.740   3.916
 9680SOL    HW229940   3.859   0.855   3.803
 9681SOL     OW29941   2.609   1.669   0.453
 9681SOL    HW129942   2.638   1.586   0.405
 9681SOL    HW229943   2.531   1.647   0.512
 9682SOL     OW29944   4.915   4.292   3.357
 9682SOL    HW129945   4.974   4.250   3.287
 9682SOL    HW229946   4.830   4.323   3.314
 9683SOL     OW29947   3.249   6.534   1.762
 9683SOL    HW129948   3.223   6.548   1.666
 9683SOL    HW229949   3.217   6.611   1.817
 9684SOL     OW29950   1.046   3.092   6.477
 9684SOL    HW129951   0.989   3.027   6.427
 9684SOL    HW229952   1.090   3.046   6.554
 9685SOL     OW29953   4.777   4.176   0.565
 9685SOL    HW129954   4.757   4.272   0.548
 9685SOL    HW229955   4.780   4.127   0.478
 9686SOL     OW29956   0.575   3.353   6.306
 9686SOL    HW129957   0.534   3.262   6.312
 9686SOL    HW229958   0.588   3.390   6.397
 9687SOL     OW29959   0.959   0.759   3.942
 9687SOL    HW129960   1.032   0.789   3.880
 9687SOL    HW229961   0.903   0.690   3.896
 9688SOL     OW29962   1.618   3.076   1.207
 9688SOL    HW129963   1.524   3.048   1.225
 9688SOL    HW229964   1.665   3.004   1.155
 9689SOL     OW29965   0.689   4.526   6.354
 9689SOL    HW129966   0.701   4.590   6.278
 9689SOL    HW229967   0.770   4.528   6.413
 9690SOL     OW29968   6.316   5.900   6.708
 9690SOL    HW129969   6.236   5.842   6.696
 9690SOL    HW229970   6.304   5.956   6.790
 9691SOL     OW29971   3.484   4.776   1.226
 9691SOL    HW129972   3.535   4.819   1.301
 9691SOL    HW229973   3.431   4.699   1.263
 9692SOL     OW29974   3.909   6.056   1.805
 9692SOL    HW129975   3.979   5.994   1.771
 9692SOL    HW229976   3.847   6.007   1.866
 9693SOL     OW29977   5.459   3.875   2.698
 9693SOL    HW129978   5.522   3.951   2.684
 9693SOL    HW229979   5.479   3.803   2.631
 9694SOL     OW29980   3.199   1.175   1.679
 9694SOL    HW129981   3.233   1.254   1.627
 9694SOL    HW229982   3.166   1.207   1.768
 9695SOL     OW29983   0.126   2.785   3.202
 9695SOL    HW129984   0.077   2.868   3.227
 9695SOL    HW229985   0.078   2.706   3.240
 9696SOL     OW29986   5.371   2.782   1.326
 9696SOL    HW129987   5.435   2.790   1.403
 9696SOL    HW229988   5.321   2.696   1.332
 9697SOL     OW29989   0.094   5.151   0.067
 9697SOL    HW129990   0.165   5.162   7.019
 9697SOL    HW229991   0.004   5.171   0.027
 9698SOL     OW29992   5.365   1.985   6.013
 9698SOL    HW129993   5.305   1.905   6.020
 9698SOL    HW229994   5.309   2.068   6.002
 9699SOL     OW29995   6.315   6.265   6.636
 9699SOL    HW129996   6.245   6.327   6.671
 9699SOL    HW229997   6.273   6.197   6.576
 9700SOL     OW29998   4.948   5.694   4.978
 9700SOL    HW129999   4.999   5.641   4.911
 9700SOL    HW230000   4.890   5.761   4.931
 9701SOL     OW30001   4.392   5.187   5.280
 9701SOL    HW130002   4.428   5.254   5.345
 9701SOL    HW230003   4.302   5.215   5.249
 9702SOL     OW30004   4.147   1.502   6.780
 9702SOL    HW130005   4.118   1.406   6.772
 9702SOL    HW230006   4.207   1.511   6.859
 9703SOL     OW30007   4.861   3.720   3.679
 9703SOL    HW130008   4.857   3.641   3.741
 9703SOL    HW230009   4.864   3.687   3.585
 9704SOL     OW30010   3.423   6.645   1.435
 9704SOL    HW130011   3.379   6.555   1.435
 9704SOL    HW230012   3.356   6.715   1.458
 9705SOL     OW30013   5.658   3.950   5.933
 9705SOL    HW130014   5.645   3.876   5.999
 9705SOL    HW230015   5.639   4.038   5.977
 9706SOL     OW30016   2.103   2.866   0.821
 9706SOL    HW130017   2.050   2.941   0.861
 9706SOL    HW230018   2.183   2.903   0.775
 9707SOL     OW30019   6.422   4.264   2.181
 9707SOL    HW130020   6.482   4.214   2.243
 9707SOL    HW230021   6.417   4.360   2.208
 9708SOL     OW30022   1.202   1.690   3.379
 9708SOL    HW130023   1.300   1.670   3.374
 9708SOL    HW230024   1.163   1.683   3.287
 9709SOL     OW30025   5.224   6.311   3.100
 9709SOL    HW130026   5.278   6.231   3.073
 9709SOL    HW230027   5.264   6.393   3.061
 9710SOL     OW30028   6.918   1.789   1.517
 9710SOL    HW130029   6.847   1.810   1.450
 9710SOL    HW230030   6.920   1.690   1.534
 9711SOL     OW30031   3.600   5.141   5.684
 9711SOL    HW130032   3.656   5.209   5.732
 9711SOL    HW230033   3.531   5.187   5.630
 9712SOL     OW30034   5.342   4.072   6.846
 9712SOL    HW130035   5.442   4.068   6.849
 9712SOL    HW230036   5.307   4.001   6.785
 9713SOL     OW30037   1.860   4.291   3.394
 9713SOL    HW130038   1.861   4.334   3.485
 9713SOL    HW230039   1.906   4.202   3.399
 9714SOL     OW30040   4.453   6.271   6.378
 9714SOL    HW130041   4.412   6.243   6.465
 9714SOL    HW230042   4.531   6.332   6.396
 9715SOL     OW30043   5.978   4.217   0.234
 9715SOL    HW130044   6.042   4.246   0.306
 9715SOL    HW230045   6.029   4.169   0.162
 9716SOL     OW30046   3.583   4.437   6.481
 9716SOL    HW130047   3.625   4.348   6.497
 9716SOL    HW230048   3.509   4.428   6.415
 9717SOL     OW30049   5.005   6.679   5.990
 9717SOL    HW130050   4.924   6.682   5.931
 9717SOL    HW230051   4.977   6.658   6.083
 9718SOL     OW30052   5.485   3.454   0.336
 9718SOL    HW130053   5.418   3.423   0.404
 9718SOL    HW230054   5.572   3.473   0.381
 9719SOL     OW30055   6.487   0.678   5.978
 9719SOL    HW130056   6.507   0.583   6.002
 9719SOL    HW230057   6.398   0.704   6.015
 9720SOL     OW30058   0.494   4.882   2.371
 9720SOL    HW130059   0.554   4.802   2.364
 9720SOL    HW230060   0.468   4.912   2.280
 9721SOL     OW30061   0.475   2.163   0.594
 9721SOL    HW130062   0.425   2.244   0.624
 9721SOL    HW230063   0.565   2.191   0.560
 9722SOL     OW30064   4.353   1.285   4.335
 9722SOL    HW130065   4.334   1.351   4.261
 9722SOL    HW230066   4.452   1.276   4.347
 9723SOL     OW30067   3.165   6.730   3.133
 9723SOL    HW130068   3.180   6.783   3.050
 9723SOL    HW230069   3.222   6.647   3.130
 9724SOL     OW30070   1.610   5.068   6.993
 9724SOL    HW130071   1.561   5.110   6.916
 9724SOL    HW230072   1.585   5.115   0.056
 9725SOL     OW30073   5.333   5.749   5.801
 9725SOL    HW130074   5.319   5.673   5.737
 9725SOL    HW230075   5.319   5.835   5.752
 9726SOL     OW30076   5.104   1.513   3.985
 9726SOL    HW130077   5.071   1.586   4.045
 9726SOL    HW230078   5.131   1.434   4.039
 9727SOL     OW30079   0.963   2.211   0.012
 9727SOL    HW130080   0.892   2.276   0.038
 9727SOL    HW230081   1.047   2.232   0.062
 9728SOL     OW30082   1.080   0.388   5.565
 9728SOL    HW130083   1.102   0.411   5.471
 9728SOL    HW230084   1.126   0.453   5.627
 9729SOL     OW30085   1.344   4.365   3.219
 9729SOL    HW130086   1.424   4.424   3.228
 9729SOL    HW230087   1.324   4.350   3.123
 9730SOL     OW30088   2.074   4.062   3.694
 9730SOL    HW130089   2.134   4.141   3.682
 9730SOL    HW230090   2.018   4.075   3.776
 9731SOL     OW30091   5.264   4.665   1.076
 9731SOL    HW130092   5.186   4.663   1.139
 9731SOL    HW230093   5.319   4.582   1.089
 9732SOL     OW30094   0.083   5.231   2.434
 9732SOL    HW130095   0.182   5.242   2.420
 9732SOL    HW230096   0.048   5.311   2.482
 9733SOL     OW30097   5.039   5.149   0.261
 9733SOL    HW130098   4.947   5.131   0.295
 9733SOL    HW230099   5.043   5.240   0.221
 9734SOL     OW30100   6.597   1.714   0.773
 9734SOL    HW130101   6.656   1.694   0.695
 9734SOL    HW230102   6.550   1.801   0.759
 9735SOL     OW30103   2.144   3.585   3.479
 9735SOL    HW130104   2.134   3.672   3.527
 9735SOL    HW230105   2.107   3.593   3.386
 9736SOL     OW30106   6.013   1.967   6.142
 9736SOL    HW130107   6.078   2.039   6.166
 9736SOL    HW230108   6.023   1.890   6.204
 9737SOL     OW30109   5.559   2.928   3.242
 9737SOL    HW130110   5.563   2.864   3.166
 9737SOL    HW230111   5.485   2.901   3.304
 9738SOL     OW30112   2.439   0.251   0.491
 9738SOL    HW130113   2.476   0.344   0.491
 9738SOL    HW230114   2.349   0.251   0.535
 9739SOL     OW30115   5.571   5.368   1.346
 9739SOL    HW130116   5.639   5.310   1.302
 9739SOL    HW230117   5.604   5.397   1.435
 9740SOL     OW30118   6.827   0.893   3.376
 9740SOL    HW130119   6.816   0.992   3.376
 9740SOL    HW230120   6.855   0.863   3.285
 9741SOL     OW30121   3.631   2.108   2.365
 9741SOL    HW130122   3.569   2.060   2.304
 9741SOL    HW230123   3.725   2.078   2.347
 9742SOL     OW30124   4.692   1.138   0.698
 9742SOL    HW130125   4.713   1.224   0.745
 9742SOL    HW230126   4.593   1.125   0.695
 9743SOL     OW30127   6.689   3.319   4.361
 9743SOL    HW130128   6.661   3.235   4.409
 9743SOL    HW230129   6.787   3.316   4.345
 9744SOL     OW30130   2.000   0.037   2.260
 9744SOL    HW130131   1.916   0.089   2.279
 9744SOL    HW230132   2.068   0.057   2.330
 9745SOL     OW30133   5.259   2.334   6.372
 9745SOL    HW130134   5.332   2.345   6.305
 9745SOL    HW230135   5.213   2.247   6.357
 9746SOL     OW30136   6.266   0.024   5.614
 9746SOL    HW130137   6.354   7.003   5.592
 9746SOL    HW230138   6.225   6.999   5.692
 9747SOL     OW30139   2.827   1.540   1.845
 9747SOL    HW130140   2.757   1.539   1.773
 9747SOL    HW230141   2.790   1.498   1.928
 9748SOL     OW30142   0.155   0.292   3.458
 9748SOL    HW130143   0.056   0.296   3.449
 9748SOL    HW230144   0.179   0.263   3.550
 9749SOL     OW30145   1.985   0.364   4.209
 9749SOL    HW130146   1.989   0.265   4.195
 9749SOL    HW230147   2.071   0.406   4.179
 9750SOL     OW30148   5.854   3.659   3.385
 9750SOL    HW130149   5.876   3.687   3.292
 9750SOL    HW230150   5.794   3.728   3.427
 9751SOL     OW30151   2.478   0.908   0.497
 9751SOL    HW130152   2.389   0.876   0.466
 9751SOL    HW230153   2.522   0.837   0.552
 9752SOL     OW30154   4.067   2.194   4.660
 9752SOL    HW130155   4.114   2.201   4.572
 9752SOL    HW230156   3.972   2.223   4.649
 9753SOL     OW30157   6.864   5.301   5.991
 9753SOL    HW130158   6.853   5.277   5.894
 9753SOL    HW230159   6.953   5.346   6.004
 9754SOL     OW30160   2.018   0.567   0.206
 9754SOL    HW130161   2.038   0.554   0.108
 9754SOL    HW230162   1.919   0.568   0.220
 9755SOL     OW30163   3.779   3.773   4.431
 9755SOL    HW130164   3.772   3.705   4.504
 9755SOL    HW230165   3.833   3.851   4.463
 9756SOL     OW30166   5.729   3.080   6.875
 9756SOL    HW130167   5.750   2.983   6.859
 9756SOL    HW230168   5.785   3.136   6.813
 9757SOL     OW30169   6.168   4.277   4.010
 9757SOL    HW130170   6.077   4.248   3.980
 9757SOL    HW230171   6.163   4.371   4.043
 9758SOL     OW30172   3.228   0.375   6.386
 9758SOL    HW130173   3.215   0.301   6.319
 9758SOL    HW230174   3.139   0.406   6.420
 9759SOL     OW30175   1.354   0.550   7.021
 9759SOL    HW130176   1.416   0.608   0.051
 9759SOL    HW230177   1.274   0.604   6.992
 9760SOL     OW30178   5.028   2.992   5.761
 9760SOL    HW130179   4.932   3.017   5.753
 9760SOL    HW230180   5.055   2.937   5.682
 9761SOL     OW30181   0.240   1.521   2.150
 9761SOL    HW130182   0.324   1.510   2.203
 9761SOL    HW230183   0.207   1.432   2.120
 9762SOL     OW30184   3.281   1.824   4.626
 9762SOL    HW130185   3.223   1.845   4.704
 9762SOL    HW230186   3.269   1.893   4.555
 9763SOL     OW30187   4.911   1.950   2.554
 9763SOL    HW130188   4.979   1.905   2.497
 9763SOL    HW230189   4.851   1.881   2.595
 9764SOL     OW30190   0.180   2.679   2.934
 9764SOL    HW130191   0.156   2.721   3.022
 9764SOL    HW230192   0.257   2.728   2.894
 9765SOL     OW30193   6.941   6.870   3.524
 9765SOL    HW130194   6.885   6.953   3.519
 9765SOL    HW230195   0.008   6.887   3.482
 9766SOL     OW30196   2.904   0.217   1.955
 9766SOL    HW130197   2.831   0.163   1.914
 9766SOL    HW230198   2.886   0.314   1.938
 9767SOL     OW30199   4.089   1.323   5.347
 9767SOL    HW130200   4.048   1.403   5.303
 9767SOL    HW230201   4.169   1.352   5.400
 9768SOL     OW30202   5.581   1.352   2.196
 9768SOL    HW130203   5.498   1.334   2.142
 9768SOL    HW230204   5.560   1.339   2.293
 9769SOL     OW30205   3.833   1.049   3.751
 9769SOL    HW130206   3.908   1.067   3.687
 9769SOL    HW230207   3.757   1.110   3.731
 9770SOL     OW30208   4.379   1.553   6.318
 9770SOL    HW130209   4.350   1.584   6.409
 9770SOL    HW230210   4.380   1.630   6.255
 9771SOL     OW30211   2.788   6.332   0.304
 9771SOL    HW130212   2.718   6.379   0.250
 9771SOL    HW230213   2.849   6.399   0.346
 9772SOL     OW30214   2.221   6.013   1.608
 9772SOL    HW130215   2.310   5.987   1.646
 9772SOL    HW230216   2.169   6.065   1.676
 9773SOL     OW30217   5.080   5.557   3.718
 9773SOL    HW130218   4.998   5.535   3.771
 9773SOL    HW230219   5.152   5.491   3.740
 9774SOL     OW30220   0.502   5.349   1.852
 9774SOL    HW130221   0.511   5.276   1.920
 9774SOL    HW230222   0.430   5.324   1.786
 9775SOL     OW30223   2.694   0.671   2.998
 9775SOL    HW130224   2.624   0.742   2.996
 9775SOL    HW230225   2.661   0.590   2.950
 9776SOL     OW30226   1.133   4.891   5.056
 9776SOL    HW130227   1.196   4.967   5.073
 9776SOL    HW230228   1.073   4.879   5.134
 9777SOL     OW30229   6.766   5.943   6.865
 9777SOL    HW130230   6.704   5.872   6.831
 9777SOL    HW230231   6.771   6.017   6.797
 9778SOL     OW30232   0.619   0.740   4.427
 9778SOL    HW130233   0.527   0.712   4.454
 9778SOL    HW230234   0.616   0.785   4.338
 9779SOL     OW30235   0.971   1.536   4.264
 9779SOL    HW130236   1.027   1.607   4.223
 9779SOL    HW230237   0.999   1.446   4.230
 9780SOL     OW30238   2.091   2.633   0.984
 9780SOL    HW130239   2.147   2.709   0.952
 9780SOL    HW230240   2.035   2.663   1.062
 9781SOL     OW30241   2.149   3.222   4.338
 9781SOL    HW130242   2.164   3.134   4.292
 9781SOL    HW230243   2.166   3.212   4.436
 9782SOL     OW30244   0.058   0.664   1.314
 9782SOL    HW130245   7.006   0.606   1.347
 9782SOL    HW230246   0.020   0.741   1.262
 9783SOL     OW30247   3.926   2.082   2.930
 9783SOL    HW130248   4.007   2.023   2.922
 9783SOL    HW230249   3.867   2.069   2.851
 9784SOL     OW30250   2.950   1.671   5.330
 9784SOL    HW130251   3.026   1.706   5.276
 9784SOL    HW230252   2.869   1.662   5.272
 9785SOL     OW30253   1.104   2.488   6.459
 9785SOL    HW130254   1.033   2.441   6.511
 9785SOL    HW230255   1.149   2.423   6.397
 9786SOL     OW30256   2.429   4.009   0.187
 9786SOL    HW130257   2.346   3.954   0.181
 9786SOL    HW230258   2.408   4.104   0.166
 9787SOL     OW30259   3.936   3.969   2.341
 9787SOL    HW130260   3.968   4.004   2.254
 9787SOL    HW230261   3.880   4.039   2.387
 9788SOL     OW30262   1.023   1.040   3.680
 9788SOL    HW130263   1.120   1.033   3.656
 9788SOL    HW230264   0.970   0.980   3.620
 9789SOL     OW30265   2.261   5.894   0.627
 9789SOL    HW130266   2.180   5.885   0.569
 9789SOL    HW230267   2.333   5.942   0.577
 9790SOL     OW30268   6.700   4.306   6.791
 9790SOL    HW130269   6.728   4.239   6.723
 9790SOL    HW230270   6.744   4.394   6.771
 9791SOL     OW30271   0.023   0.921   1.175
 9791SOL    HW130272   0.114   0.960   1.160
 9791SOL    HW230273   7.002   0.966   1.253
 9792SOL     OW30274   4.177   4.656   0.368
 9792SOL    HW130275   4.274   4.675   0.354
 9792SOL    HW230276   4.124   4.738   0.345
 9793SOL     OW30277   4.539   6.658   3.078
 9793SOL    HW130278   4.529   6.639   3.176
 9793SOL    HW230279   4.497   6.746   3.056
 9794SOL     OW30280   0.086   4.192   0.139
 9794SOL    HW130281   0.078   4.116   0.203
 9794SOL    HW230282   0.176   4.235   0.148
 9795SOL     OW30283   1.945   2.241   4.579
 9795SOL    HW130284   2.014   2.201   4.640
 9795SOL    HW230285   1.943   2.190   4.493
 9796SOL     OW30286   3.273   2.919   2.228
 9796SOL    HW130287   3.369   2.911   2.255
 9796SOL    HW230288   3.247   2.839   2.175
 9797SOL     OW30289   2.236   5.526   6.897
 9797SOL    HW130290   2.280   5.541   6.985
 9797SOL    HW230291   2.142   5.494   6.911
 9798SOL     OW30292   2.543   0.350   1.889
 9798SOL    HW130293   2.601   0.411   1.835
 9798SOL    HW230294   2.573   0.255   1.876
 9799SOL     OW30295   3.034   3.123   5.053
 9799SOL    HW130296   3.061   3.040   5.100
 9799SOL    HW230297   3.041   3.110   4.954
 9800SOL     OW30298   3.923   5.207   4.786
 9800SOL    HW130299   3.904   5.112   4.813
 9800SOL    HW230300   4.008   5.238   4.829
 9801SOL     OW30301   4.686   4.351   6.943
 9801SOL    HW130302   4.702   4.427   6.879
 9801SOL    HW230303   4.692   4.264   6.894
 9802SOL     OW30304   0.115   3.894   1.362
 9802SOL    HW130305   0.034   3.894   1.422
 9802SOL    HW230306   0.086   3.886   1.267
 9803SOL     OW30307   1.135   2.284   6.804
 9803SOL    HW130308   1.080   2.264   6.886
 9803SOL    HW230309   1.074   2.298   6.726
 9804SOL     OW30310   1.678   5.990   3.120
 9804SOL    HW130311   1.753   5.956   3.063
 9804SOL    HW230312   1.706   6.076   3.163
 9805SOL     OW30313   1.233   6.551   4.171
 9805SOL    HW130314   1.307   6.548   4.104
 9805SOL    HW230315   1.258   6.614   4.245
 9806SOL     OW30316   1.008   1.058   6.577
 9806SOL    HW130317   1.066   1.135   6.604
 9806SOL    HW230318   0.932   1.091   6.522
 9807SOL     OW30319   3.140   4.531   0.018
 9807SOL    HW130320   3.144   4.469   6.962
 9807SOL    HW230321   3.197   4.495   0.092
 9808SOL     OW30322   3.942   0.526   5.302
 9808SOL    HW130323   3.932   0.574   5.214
 9808SOL    HW230324   3.866   0.551   5.362
 9809SOL     OW30325   1.570   2.527   6.639
 9809SOL    HW130326   1.526   2.568   6.719
 9809SOL    HW230327   1.516   2.547   6.557
 9810SOL     OW30328   2.159   2.618   3.618
 9810SOL    HW130329   2.199   2.564   3.544
 9810SOL    HW230330   2.150   2.713   3.588
 9811SOL     OW30331   5.348   4.471   3.273
 9811SOL    HW130332   5.261   4.478   3.223
 9811SOL    HW230333   5.406   4.403   3.229
 9812SOL     OW30334   3.678   2.651   5.881
 9812SOL    HW130335   3.737   2.592   5.826
 9812SOL    HW230336   3.588   2.610   5.891
 9813SOL     OW30337   5.511   1.627   0.814
 9813SOL    HW130338   5.490   1.534   0.781
 9813SOL    HW230339   5.480   1.693   0.746
 9814SOL     OW30340   0.037   0.049   0.375
 9814SOL    HW130341   0.129   0.012   0.386
 9814SOL    HW230342   0.019   0.065   0.278
 9815SOL     OW30343   5.403   3.875   3.567
 9815SOL    HW130344   5.479   3.816   3.595
 9815SOL    HW230345   5.438   3.964   3.539
 9816SOL     OW30346   0.573   1.085   6.320
 9816SOL    HW130347   0.498   1.152   6.313
 9816SOL    HW230348   0.535   0.993   6.320
 9817SOL     OW30349   2.696   6.975   3.594
 9817SOL    HW130350   2.607   6.988   3.635
 9817SOL    HW230351   2.685   6.950   3.497
 9818SOL     OW30352   1.524   0.757   4.652
 9818SOL    HW130353   1.457   0.692   4.690
 9818SOL    HW230354   1.543   0.827   4.720
 9819SOL     OW30355   4.855   3.079   3.852
 9819SOL    HW130356   4.887   3.170   3.824
 9819SOL    HW230357   4.839   3.078   3.951
 9820SOL     OW30358   4.101   3.103   6.564
 9820SOL    HW130359   4.192   3.114   6.603
 9820SOL    HW230360   4.089   3.008   6.533
 9821SOL     OW30361   5.116   0.634   6.885
 9821SOL    HW130362   5.215   0.629   6.873
 9821SOL    HW230363   5.095   0.694   6.963
 9822SOL     OW30364   3.050   5.973   3.609
 9822SOL    HW130365   3.083   5.883   3.636
 9822SOL    HW230366   3.016   6.022   3.690
 9823SOL     OW30367   2.601   1.305   6.426
 9823SOL    HW130368   2.616   1.306   6.525
 9823SOL    HW230369   2.628   1.393   6.387
 9824SOL     OW30370   2.124   4.856   4.563
 9824SOL    HW130371   2.084   4.774   4.521
 9824SOL    HW230372   2.224   4.845   4.566
 9825SOL     OW30373   4.893   5.850   4.395
 9825SOL    HW130374   4.872   5.886   4.486
 9825SOL    HW230375   4.815   5.798   4.361
 9826SOL     OW30376   4.575   5.219   5.780
 9826SOL    HW130377   4.585   5.288   5.708
 9826SOL    HW230378   4.651   5.227   5.845
 9827SOL     OW30379   2.194   3.670   3.855
 9827SOL    HW130380   2.256   3.599   3.824
 9827SOL    HW230381   2.178   3.735   3.780
 9828SOL     OW30382   2.321   2.178   5.386
 9828SOL    HW130383   2.224   2.170   5.364
 9828SOL    HW230384   2.334   2.178   5.485
 9829SOL     OW30385   4.376   5.345   6.086
 9829SOL    HW130386   4.346   5.251   6.100
 9829SOL    HW230387   4.476   5.348   6.086
 9830SOL     OW30388   5.195   2.360   2.235
 9830SOL    HW130389   5.137   2.289   2.274
 9830SOL    HW230390   5.138   2.431   2.193
 9831SOL     OW30391   1.945   5.210   1.709
 9831SOL    HW130392   1.892   5.295   1.709
 9831SOL    HW230393   1.999   5.204   1.793
 9832SOL     OW30394   5.284   5.785   2.308
 9832SOL    HW130395   5.308   5.877   2.340
 9832SOL    HW230396   5.186   5.781   2.291
 9833SOL     OW30397   3.002   3.516   4.913
 9833SOL    HW130398   2.942   3.437   4.902
 9833SOL    HW230399   3.096   3.485   4.926
 9834SOL     OW30400   2.421   4.271   5.261
 9834SOL    HW130401   2.516   4.302   5.268
 9834SOL    HW230402   2.420   4.172   5.247
 9835SOL     OW30403   4.024   3.411   5.179
 9835SOL    HW130404   4.115   3.386   5.211
 9835SOL    HW230405   4.003   3.363   5.094
 9836SOL     OW30406   6.633   3.993   3.525
 9836SOL    HW130407   6.593   4.035   3.607
 9836SOL    HW230408   6.728   4.023   3.515
 9837SOL     OW30409   3.717   0.309   2.440
 9837SOL    HW130410   3.703   0.227   2.384
 9837SOL    HW230411   3.713   0.390   2.382
 9838SOL     OW30412   1.685   6.819   0.470
 9838SOL    HW130413   1.755   6.760   0.429
 9838SOL    HW230414   1.598   6.805   0.423
 9839SOL     OW30415   5.208   0.073   3.768
 9839SOL    HW130416   5.263   0.155   3.754
 9839SOL    HW230417   5.140   0.065   3.695
 9840SOL     OW30418   5.355   1.972   0.998
 9840SOL    HW130419   5.439   2.026   0.988
 9840SOL    HW230420   5.308   2.000   1.082
 9841SOL     OW30421   1.318   4.836   4.773
 9841SOL    HW130422   1.226   4.872   4.789
 9841SOL    HW230423   1.367   4.831   4.861
 9842SOL     OW30424   3.244   3.298   2.033
 9842SOL    HW130425   3.265   3.311   2.130
 9842SOL    HW230426   3.326   3.317   1.979
 9843SOL     OW30427   6.563   0.413   1.711
 9843SOL    HW130428   6.622   0.478   1.760
 9843SOL    HW230429   6.469   0.425   1.743
 9844SOL     OW30430   6.458   0.686   2.960
 9844SOL    HW130431   6.405   0.605   2.937
 9844SOL    HW230432   6.532   0.698   2.894
 9845SOL     OW30433   2.198   2.881   3.202
 9845SOL    HW130434   2.145   2.796   3.196
 9845SOL    HW230435   2.283   2.864   3.251
 9846SOL     OW30436   3.407   2.797   1.949
 9846SOL    HW130437   3.487   2.766   2.001
 9846SOL    HW230438   3.437   2.843   1.865
 9847SOL     OW30439   3.560   2.873   3.499
 9847SOL    HW130440   3.651   2.869   3.539
 9847SOL    HW230441   3.495   2.908   3.567
 9848SOL     OW30442   4.267   3.160   5.498
 9848SOL    HW130443   4.276   3.251   5.457
 9848SOL    HW230444   4.227   3.097   5.432
 9849SOL     OW30445   0.871   6.767   6.323
 9849SOL    HW130446   0.964   6.780   6.288
 9849SOL    HW230447   0.805   6.782   6.250
 9850SOL     OW30448   6.214   0.090   3.857
 9850SOL    HW130449   6.171   0.020   3.800
 9850SOL    HW230450   6.268   0.047   3.928
 9851SOL     OW30451   0.236   0.161   4.836
 9851SOL    HW130452   0.254   0.227   4.909
 9851SOL    HW230453   0.323   0.124   4.803
 9852SOL     OW30454   3.241   1.466   4.118
 9852SOL    HW130455   3.150   1.443   4.083
 9852SOL    HW230456   3.288   1.383   4.146
 9853SOL     OW30457   5.288   4.012   4.606
 9853SOL    HW130458   5.269   4.019   4.703
 9853SOL    HW230459   5.228   4.073   4.555
 9854SOL     OW30460   6.452   5.993   4.652
 9854SOL    HW130461   6.373   5.944   4.690
 9854SOL    HW230462   6.420   6.070   4.597
 9855SOL     OW30463   2.076   3.910   1.069
 9855SOL    HW130464   1.989   3.861   1.070
 9855SOL    HW230465   2.095   3.945   1.161
 9856SOL     OW30466   4.830   3.916   4.409
 9856SOL    HW130467   4.756   3.849   4.421
 9856SOL    HW230468   4.851   3.957   4.498
 9857SOL     OW30469   5.087   2.811   2.613
 9857SOL    HW130470   5.005   2.866   2.629
 9857SOL    HW230471   5.062   2.715   2.605
 9858SOL     OW30472   0.169   0.310   1.889
 9858SOL    HW130473   0.216   0.395   1.911
 9858SOL    HW230474   0.185   0.286   1.794
 9859SOL     OW30475   6.243   6.145   2.595
 9859SOL    HW130476   6.270   6.130   2.500
 9859SOL    HW230477   6.258   6.061   2.647
 9860SOL     OW30478   1.809   2.320   3.563
 9860SOL    HW130479   1.748   2.321   3.642
 9860SOL    HW230480   1.902   2.342   3.593
 9861SOL     OW30481   2.968   0.489   2.996
 9861SOL    HW130482   2.889   0.550   2.998
 9861SOL    HW230483   3.052   0.543   3.004
 9862SOL     OW30484   3.481   2.900   6.822
 9862SOL    HW130485   3.491   2.978   6.760
 9862SOL    HW230486   3.455   2.933   6.913
 9863SOL     OW30487   3.617   6.856   2.359
 9863SOL    HW130488   3.716   6.846   2.350
 9863SOL    HW230489   3.571   6.807   2.285
 9864SOL     OW30490   3.993   6.797   3.766
 9864SOL    HW130491   3.913   6.738   3.774
 9864SOL    HW230492   3.973   6.887   3.805
 9865SOL     OW30493   1.449   6.818   4.712
 9865SOL    HW130494   1.449   6.822   4.612
 9865SOL    HW230495   1.493   6.734   4.742
 9866SOL     OW30496   5.065   4.593   6.017
 9866SOL    HW130497   5.100   4.515   5.965
 9866SOL    HW230498   5.013   4.559   6.096
 9867SOL     OW30499   6.643   1.737   1.058
 9867SOL    HW130500   6.709   1.663   1.067
 9867SOL    HW230501   6.604   1.737   0.966
 9868SOL     OW30502   0.716   3.399   4.783
 9868SOL    HW130503   0.623   3.369   4.761
 9868SOL    HW230504   0.718   3.437   4.876
 9869SOL     OW30505   0.556   2.274   1.470
 9869SOL    HW130506   0.551   2.269   1.370
 9869SOL    HW230507   0.470   2.241   1.509
 9870SOL     OW30508   3.808   5.967   2.456
 9870SOL    HW130509   3.826   6.001   2.363
 9870SOL    HW230510   3.836   5.872   2.463
 9871SOL     OW30511   6.431   4.739   6.237
 9871SOL    HW130512   6.477   4.761   6.151
 9871SOL    HW230513   6.333   4.759   6.230
 9872SOL     OW30514   2.769   5.331   5.040
 9872SOL    HW130515   2.738   5.243   5.075
 9872SOL    HW230516   2.829   5.374   5.107
 9873SOL     OW30517   2.331   2.556   0.797
 9873SOL    HW130518   2.312   2.519   0.887
 9873SOL    HW230519   2.296   2.493   0.727
 9874SOL     OW30520   5.604   3.464   5.125
 9874SOL    HW130521   5.625   3.556   5.093
 9874SOL    HW230522   5.541   3.420   5.061
 9875SOL     OW30523   5.803   5.802   1.663
 9875SOL    HW130524   5.841   5.780   1.753
 9875SOL    HW230525   5.783   5.899   1.659
 9876SOL     OW30526   5.672   1.094   4.070
 9876SOL    HW130527   5.691   1.148   4.152
 9876SOL    HW230528   5.648   1.001   4.096
 9877SOL     OW30529   6.508   4.798   4.536
 9877SOL    HW130530   6.592   4.837   4.501
 9877SOL    HW230531   6.451   4.766   4.460
 9878SOL     OW30532   2.925   4.199   5.556
 9878SOL    HW130533   2.943   4.158   5.466
 9878SOL    HW230534   2.982   4.154   5.625
 9879SOL     OW30535   4.901   5.935   5.223
 9879SOL    HW130536   4.849   5.877   5.160
 9879SOL    HW230537   4.902   6.028   5.188
 9880SOL     OW30538   3.530   0.898   0.189
 9880SOL    HW130539   3.523   0.855   0.098
 9880SOL    HW230540   3.555   0.994   0.179
 9881SOL     OW30541   0.669   1.597   4.908
 9881SOL    HW130542   0.762   1.619   4.879
 9881SOL    HW230543   0.605   1.612   4.832
 9882SOL     OW30544   1.641   3.970   4.910
 9882SOL    HW130545   1.726   3.989   4.958
 9882SOL    HW230546   1.563   3.994   4.968
 9883SOL     OW30547   1.225   6.104   1.047
 9883SOL    HW130548   1.144   6.144   1.006
 9883SOL    HW230549   1.201   6.017   1.091
 9884SOL     OW30550   4.963   2.389   1.111
 9884SOL    HW130551   4.933   2.403   1.017
 9884SOL    HW230552   5.054   2.429   1.123
 9885SOL     OW30553   6.852   1.894   4.984
 9885SOL    HW130554   6.857   1.991   5.008
 9885SOL    HW230555   6.760   1.872   4.954
 9886SOL     OW30556   1.108   5.141   2.013
 9886SOL    HW130557   1.156   5.071   1.961
 9886SOL    HW230558   1.041   5.097   2.073
 9887SOL     OW30559   3.658   0.198   0.114
 9887SOL    HW130560   3.738   0.253   0.090
 9887SOL    HW230561   3.688   0.109   0.148
 9888SOL     OW30562   5.204   5.320   2.446
 9888SOL    HW130563   5.161   5.239   2.407
 9888SOL    HW230564   5.135   5.392   2.459
 9889SOL     OW30565   6.117   4.454   0.816
 9889SOL    HW130566   6.067   4.489   0.895
 9889SOL    HW230567   6.211   4.433   0.843
 9890SOL     OW30568   0.548   2.435   1.071
 9890SOL    HW130569   0.598   2.372   1.130
 9890SOL    HW230570   0.526   2.518   1.123
 9891SOL     OW30571   5.896   3.170   1.622
 9891SOL    HW130572   5.914   3.262   1.587
 9891SOL    HW230573   5.812   3.134   1.581
 9892SOL     OW30574   1.495   5.044   2.509
 9892SOL    HW130575   1.411   5.079   2.469
 9892SOL    HW230576   1.573   5.072   2.453
 9893SOL     OW30577   6.564   0.370   2.501
 9893SOL    HW130578   6.565   0.298   2.432
 9893SOL    HW230579   6.634   0.438   2.478
 9894SOL     OW30580   3.065   1.993   6.546
 9894SOL    HW130581   3.026   1.911   6.503
 9894SOL    HW230582   3.142   2.025   6.492
 9895SOL     OW30583   5.193   3.725   5.436
 9895SOL    HW130584   5.133   3.645   5.435
 9895SOL    HW230585   5.288   3.696   5.445
 9896SOL     OW30586   5.560   1.379   0.629
 9896SOL    HW130587   5.487   1.359   0.564
 9896SOL    HW230588   5.647   1.344   0.595
 9897SOL     OW30589   5.399   0.133   2.349
 9897SOL    HW130590   5.421   0.188   2.268
 9897SOL    HW230591   5.419   0.037   2.331
 9898SOL     OW30592   1.033   4.875   6.093
 9898SOL    HW130593   1.094   4.911   6.164
 9898SOL    HW230594   0.938   4.892   6.119
 9899SOL     OW30595   1.291   5.172   2.390
 9899SOL    HW130596   1.315   5.245   2.326
 9899SOL    HW230597   1.195   5.182   2.417
 9900SOL     OW30598   1.446   3.150   2.042
 9900SOL    HW130599   1.444   3.089   1.963
 9900SOL    HW230600   1.493   3.234   2.018
 9901SOL     OW30601   3.012   0.580   6.982
 9901SOL    HW130602   2.991   0.653   0.024
 9901SOL    HW230603   2.996   0.612   6.889
 9902SOL     OW30604   4.233   4.277   1.386
 9902SOL    HW130605   4.195   4.213   1.320
 9902SOL    HW230606   4.163   4.299   1.455
 9903SOL     OW30607   5.437   1.871   1.503
 9903SOL    HW130608   5.353   1.902   1.549
 9903SOL    HW230609   5.420   1.867   1.404
 9904SOL     OW30610   0.528   3.753   6.432
 9904SOL    HW130611   0.619   3.794   6.438
 9904SOL    HW230612   0.514   3.693   6.511
 9905SOL     OW30613   1.977   0.484   6.018
 9905SOL    HW130614   2.019   0.414   6.075
 9905SOL    HW230615   1.959   0.565   6.073
 9906SOL     OW30616   1.924   3.292   0.363
 9906SOL    HW130617   1.946   3.280   0.460
 9906SOL    HW230618   1.998   3.342   0.317
 9907SOL     OW30619   1.285   1.046   2.038
 9907SOL    HW130620   1.295   1.004   2.128
 9907SOL    HW230621   1.345   1.000   1.972
 9908SOL     OW30622   0.250   2.605   5.151
 9908SOL    HW130623   0.162   2.580   5.191
 9908SOL    HW230624   0.253   2.704   5.138
 9909SOL     OW30625   3.761   0.509   2.641
 9909SOL    HW130626   3.746   0.429   2.582
 9909SOL    HW230627   3.835   0.564   2.604
 9910SOL     OW30628   1.824   5.447   1.702
 9910SOL    HW130629   1.731   5.475   1.725
 9910SOL    HW230630   1.881   5.529   1.688
 9911SOL     OW30631   3.114   5.950   2.483
 9911SOL    HW130632   3.144   6.035   2.440
 9911SOL    HW230633   3.159   5.873   2.437
 9912SOL     OW30634   4.277   1.223   1.680
 9912SOL    HW130635   4.202   1.215   1.614
 9912SOL    HW230636   4.265   1.307   1.733
 9913SOL     OW30637   5.837   2.994   1.172
 9913SOL    HW130638   5.778   2.917   1.198
 9913SOL    HW230639   5.780   3.072   1.146
 9914SOL     OW30640   6.924   6.820   5.404
 9914SOL    HW130641   6.986   6.884   5.359
 9914SOL    HW230642   6.834   6.827   5.363
 9915SOL     OW30643   5.504   1.511   3.265
 9915SOL    HW130644   5.603   1.502   3.262
 9915SOL    HW230645   5.463   1.447   3.200
 9916SOL     OW30646   1.814   2.048   3.500
 9916SOL    HW130647   1.824   2.138   3.543
 9916SOL    HW230648   1.802   2.059   3.402
 9917SOL     OW30649   3.482   3.472   5.534
 9917SOL    HW130650   3.536   3.505   5.456
 9917SOL    HW230651   3.527   3.392   5.574
 9918SOL     OW30652   1.230   2.975   2.382
 9918SOL    HW130653   1.314   2.937   2.344
 9918SOL    HW230654   1.164   2.901   2.396
 9919SOL     OW30655   2.848   5.731   2.199
 9919SOL    HW130656   2.780   5.665   2.230
 9919SOL    HW230657   2.837   5.816   2.251
 9920SOL     OW30658   4.375   0.775   2.907
 9920SOL    HW130659   4.450   0.820   2.857
 9920SOL    HW230660   4.340   0.699   2.852
 9921SOL     OW30661   4.616   0.176   5.163
 9921SOL    HW130662   4.526   0.176   5.208
 9921SOL    HW230663   4.608   0.217   5.072
 9922SOL     OW30664   4.230   4.494   1.172
 9922SOL    HW130665   4.146   4.481   1.118
 9922SOL    HW230666   4.253   4.408   1.219
 9923SOL     OW30667   6.280   3.542   0.433
 9923SOL    HW130668   6.326   3.619   0.477
 9923SOL    HW230669   6.329   3.458   0.453
 9924SOL     OW30670   5.059   1.757   3.170
 9924SOL    HW130671   5.151   1.746   3.132
 9924SOL    HW230672   5.052   1.846   3.216
 9925SOL     OW30673   0.774   4.758   3.749
 9925SOL    HW130674   0.681   4.785   3.773
 9925SOL    HW230675   0.801   4.680   3.806
 9926SOL     OW30676   3.940   3.002   0.284
 9926SOL    HW130677   3.842   3.022   0.280
 9926SOL    HW230678   3.992   3.085   0.263
 9927SOL     OW30679   1.370   1.293   0.779
 9927SOL    HW130680   1.289   1.277   0.835
 9927SOL    HW230681   1.365   1.384   0.739
 9928SOL     OW30682   5.694   3.830   3.064
 9928SOL    HW130683   5.744   3.864   3.144
 9928SOL    HW230684   5.621   3.895   3.040
 9929SOL     OW30685   3.522   3.795   4.702
 9929SOL    HW130686   3.607   3.743   4.697
 9929SOL    HW230687   3.537   3.888   4.670
 9930SOL     OW30688   0.578   6.863   6.306
 9930SOL    HW130689   0.531   6.939   6.260
 9930SOL    HW230690   0.622   6.897   6.389
 9931SOL     OW30691   6.918   5.888   3.973
 9931SOL    HW130692   6.977   5.897   3.893
 9931SOL    HW230693   6.832   5.937   3.957
 9932SOL     OW30694   2.743   2.165   5.682
 9932SOL    HW130695   2.789   2.247   5.648
 9932SOL    HW230696   2.794   2.129   5.760
 9933SOL     OW30697   1.698   6.851   3.972
 9933SOL    HW130698   1.769   6.879   4.036
 9933SOL    HW230699   1.683   6.753   3.981
 9934SOL     OW30700   6.732   1.700   6.226
 9934SOL    HW130701   6.690   1.713   6.137
 9934SOL    HW230702   6.735   1.787   6.275
 9935SOL     OW30703   2.851   0.117   1.136
 9935SOL    HW130704   2.854   0.209   1.174
 9935SOL    HW230705   2.756   0.090   1.120
 9936SOL     OW30706   6.262   4.934   0.719
 9936SOL    HW130707   6.181   4.919   0.663
 9936SOL    HW230708   6.327   4.858   0.706
 9937SOL     OW30709   0.874   1.253   2.007
 9937SOL    HW130710   0.820   1.257   2.091
 9937SOL    HW230711   0.965   1.291   2.023
 9938SOL     OW30712   5.722   5.706   4.168
 9938SOL    HW130713   5.817   5.719   4.140
 9938SOL    HW230714   5.694   5.612   4.148
 9939SOL     OW30715   2.909   3.373   0.839
 9939SOL    HW130716   2.977   3.360   0.767
 9939SOL    HW230717   2.913   3.297   0.903
 9940SOL     OW30718   1.171   0.218   2.278
 9940SOL    HW130719   1.160   0.220   2.179
 9940SOL    HW230720   1.264   0.245   2.303
 9941SOL     OW30721   3.208   4.812   5.874
 9941SOL    HW130722   3.232   4.737   5.812
 9941SOL    HW230723   3.123   4.791   5.921
 9942SOL     OW30724   4.034   5.463   2.201
 9942SOL    HW130725   3.978   5.387   2.167
 9942SOL    HW230726   4.018   5.544   2.145
 9943SOL     OW30727   0.921   4.568   6.525
 9943SOL    HW130728   0.999   4.543   6.468
 9943SOL    HW230729   0.925   4.515   6.610
 9944SOL     OW30730   0.875   4.430   6.766
 9944SOL    HW130731   0.793   4.488   6.769
 9944SOL    HW230732   0.851   4.337   6.796
 9945SOL     OW30733   4.575   5.394   6.845
 9945SOL    HW130734   4.614   5.486   6.858
 9945SOL    HW230735   4.618   5.331   6.910
 9946SOL     OW30736   6.384   0.183   3.212
 9946SOL    HW130737   6.415   0.187   3.307
 9946SOL    HW230738   6.290   0.147   3.209
 9947SOL     OW30739   2.845   2.338   4.825
 9947SOL    HW130740   2.793   2.371   4.904
 9947SOL    HW230741   2.942   2.355   4.839
 9948SOL     OW30742   6.254   5.833   4.776
 9948SOL    HW130743   6.229   5.909   4.836
 9948SOL    HW230744   6.179   5.768   4.772
 9949SOL     OW30745   0.283   4.617   3.771
 9949SOL    HW130746   0.183   4.617   3.759
 9949SOL    HW230747   0.308   4.550   3.841
 9950SOL     OW30748   6.267   6.060   6.990
 9950SOL    HW130749   6.247   6.158   6.986
 9950SOL    HW230750   6.318   6.040   0.051
 9951SOL     OW30751   0.830   2.574   3.427
 9951SOL    HW130752   0.913   2.603   3.380
 9951SOL    HW230753   0.787   2.654   3.471
 9952SOL     OW30754   2.342   3.822   0.955
 9952SOL    HW130755   2.376   3.883   0.883
 9952SOL    HW230756   2.247   3.845   0.976
 9953SOL     OW30757   6.086   1.892   3.735
 9953SOL    HW130758   5.987   1.891   3.748
 9953SOL    HW230759   6.122   1.980   3.767
 9954SOL     OW30760   1.278   6.989   5.200
 9954SOL    HW130761   1.257   6.893   5.187
 9954SOL    HW230762   1.265   7.013   5.296
 9955SOL     OW30763   4.290   3.647   6.442
 9955SOL    HW130764   4.209   3.622   6.390
 9955SOL    HW230765   4.366   3.587   6.417
 9956SOL     OW30766   0.520   4.832   3.771
 9956SOL    HW130767   0.493   4.927   3.790
 9956SOL    HW230768   0.452   4.770   3.810
 9957SOL     OW30769   5.717   0.334   1.965
 9957SOL    HW130770   5.675   0.411   2.012
 9957SOL    HW230771   5.790   0.296   2.021
 9958SOL     OW30772   2.896   6.198   6.807
 9958SOL    HW130773   2.889   6.231   6.901
 9958SOL    HW230774   2.982   6.147   6.796
 9959SOL     OW30775   4.141   3.588   3.480
 9959SOL    HW130776   4.232   3.560   3.510
 9959SOL    HW230777   4.118   3.543   3.394
 9960SOL     OW30778   0.715   6.514   2.241
 9960SOL    HW130779   0.681   6.534   2.149
 9960SOL    HW230780   0.640   6.518   2.307
 9961SOL     OW30781   1.497   5.352   4.685
 9961SOL    HW130782   1.593   5.359   4.714
 9961SOL    HW230783   1.477   5.426   4.619
 9962SOL     OW30784   4.473   0.799   2.549
 9962SOL    HW130785   4.531   0.820   2.628
 9962SOL    HW230786   4.407   0.729   2.575
 9963SOL     OW30787   2.027   2.771   6.121
 9963SOL    HW130788   2.024   2.718   6.206
 9963SOL    HW230789   2.093   2.845   6.131
 9964SOL     OW30790   4.341   4.708   6.026
 9964SOL    HW130791   4.275   4.708   6.102
 9964SOL    HW230792   4.339   4.619   5.981
 9965SOL     OW30793   3.677   4.694   5.361
 9965SOL    HW130794   3.608   4.744   5.308
 9965SOL    HW230795   3.659   4.705   5.458
 9966SOL     OW30796   2.807   5.580   2.531
 9966SOL    HW130797   2.790   5.550   2.438
 9966SOL    HW230798   2.906   5.578   2.549
 9967SOL     OW30799   5.362   5.829   1.925
 9967SOL    HW130800   5.321   5.836   1.834
 9967SOL    HW230801   5.343   5.739   1.964
 9968SOL     OW30802   3.341   5.137   6.512
 9968SOL    HW130803   3.425   5.191   6.513
 9968SOL    HW230804   3.265   5.194   6.480
 9969SOL     OW30805   0.755   2.690   4.004
 9969SOL    HW130806   0.679   2.627   4.020
 9969SOL    HW230807   0.772   2.744   4.087
 9970SOL     OW30808   6.382   4.528   2.283
 9970SOL    HW130809   6.331   4.567   2.360
 9970SOL    HW230810   6.471   4.574   2.276
 9971SOL     OW30811   2.521   4.166   0.507
 9971SOL    HW130812   2.503   4.244   0.448
 9971SOL    HW230813   2.450   4.097   0.495
 9972SOL     OW30814   3.690   4.984   0.056
 9972SOL    HW130815   3.660   5.046   0.128
 9972SOL    HW230816   3.744   5.035   7.012
 9973SOL     OW30817   4.225   1.740   4.759
 9973SOL    HW130818   4.153   1.729   4.690
 9973SOL    HW230819   4.215   1.830   4.803
 9974SOL     OW30820   6.234   3.734   3.211
 9974SOL    HW130821   6.269   3.647   3.177
 9974SOL    HW230822   6.219   3.728   3.309
 9975SOL     OW30823   0.130   4.631   0.059
 9975SOL    HW130824   0.062   4.701   0.038
 9975SOL    HW230825   0.115   4.596   0.152
 9976SOL     OW30826   6.746   5.619   5.220
 9976SOL    HW130827   6.783   5.527   5.211
 9976SOL    HW230828   6.816   5.686   5.196
 9977SOL     OW30829   6.454   4.939   5.881
 9977SOL    HW130830   6.436   4.899   5.791
 9977SOL    HW230831   6.386   5.010   5.900
 9978SOL     OW30832   6.531   2.252   4.056
 9978SOL    HW130833   6.606   2.192   4.084
 9978SOL    HW230834   6.560   2.347   4.066
 9979SOL     OW30835   6.596   4.804   6.446
 9979SOL    HW130836   6.513   4.786   6.393
 9979SOL    HW230837   6.675   4.763   6.400
 9980SOL     OW30838   1.620   1.367   6.268
 9980SOL    HW130839   1.531   1.345   6.307
 9980SOL    HW230840   1.634   1.466   6.269
 9981SOL     OW30841   2.405   1.771   0.997
 9981SOL    HW130842   2.319   1.722   1.005
 9981SOL    HW230843   2.466   1.744   1.071
 9982SOL     OW30844   0.842   2.007   2.907
 9982SOL    HW130845   0.805   2.072   2.842
 9982SOL    HW230846   0.800   2.021   2.997
 9983SOL     OW30847   1.282   1.755   1.654
 9983SOL    HW130848   1.289   1.855   1.663
 9983SOL    HW230849   1.373   1.715   1.654
 9984SOL     OW30850   1.375   0.244   0.571
 9984SOL    HW130851   1.375   0.147   0.544
 9984SOL    HW230852   1.361   0.250   0.670
 9985SOL     OW30853   3.353   0.597   1.329
 9985SOL    HW130854   3.420   0.641   1.390
 9985SOL    HW230855   3.365   0.631   1.236
 9986SOL     OW30856   5.286   4.303   6.634
 9986SOL    HW130857   5.279   4.203   6.637
 9986SOL    HW230858   5.214   4.340   6.576
 9987SOL     OW30859   5.177   2.157   2.794
 9987SOL    HW130860   5.206   2.074   2.746
 9987SOL    HW230861   5.135   2.220   2.728
 9988SOL     OW30862   0.121   5.909   5.040
 9988SOL    HW130863   0.045   5.881   5.099
 9988SOL    HW230864   0.167   5.988   5.079
 9989SOL     OW30865   5.073   3.699   2.575
 9989SOL    HW130866   5.101   3.658   2.488
 9989SOL    HW230867   5.043   3.793   2.560
 9990SOL     OW30868   2.634   6.693   3.417
 9990SOL    HW130869   2.694   6.641   3.478
 9990SOL    HW230870   2.550   6.719   3.466
 9991SOL     OW30871   1.150   3.015   4.851
 9991SOL    HW130872   1.062   2.988   4.811
 9991SOL    HW230873   1.180   2.944   4.915
 9992SOL     OW30874   5.101   3.709   0.600
 9992SOL    HW130875   5.034   3.750   0.537
 9992SOL    HW230876   5.191   3.710   0.558
 9993SOL     OW30877   4.725   6.720   2.593
 9993SOL    HW130878   4.798   6.657   2.565
 9993SOL    HW230879   4.765   6.799   2.639
 9994SOL     OW30880   6.605   3.800   4.398
 9994SOL    HW130881   6.615   3.881   4.456
 9994SOL    HW230882   6.666   3.728   4.430
 9995SOL     OW30883   2.860   6.915   2.814
 9995SOL    HW130884   2.907   7.000   2.791
 9995SOL    HW230885   2.836   6.915   2.911
 9996SOL     OW30886   2.712   1.955   1.162
 9996SOL    HW130887   2.647   1.982   1.090
 9996SOL    HW230888   2.793   2.014   1.158
 9997SOL     OW30889   4.022   2.184   0.932
 9997SOL    HW130890   3.990   2.244   0.858
 9997SOL    HW230891   3.973   2.206   1.016
 9998SOL     OW30892   6.756   3.902   1.845
 9998SOL    HW130893   6.677   3.843   1.826
 9998SOL    HW230894   6.840   3.848   1.836
 9999SOL     OW30895   6.430   4.423   4.454
 9999SOL    HW130896   6.361   4.365   4.411
 9999SOL    HW230897   6.425   4.516   4.417
10000SOL     OW30898   6.207   2.478   6.613
10000SOL    HW130899   6.258   2.502   6.531
10000SOL    HW230900   6.158   2.392   6.598
10001SOL     OW30901   4.936   1.291   1.569
10001SOL    HW130902   4.897   1.359   1.632
10001SOL    HW230903   5.034   1.305   1.561
10002SOL     OW30904   1.213   0.728   1.382
10002SOL    HW130905   1.287   0.749   1.318
10002SOL    HW230906   1.247   0.735   1.476
10003SOL     OW30907   3.846   2.206   3.544
10003SOL    HW130908   3.822   2.302   3.536
10003SOL    HW230909   3.907   2.193   3.623
10004SOL     OW30910   5.145   3.024   4.533
10004SOL    HW130911   5.226   3.083   4.532
10004SOL    HW230912   5.169   2.934   4.497
10005SOL     OW30913   5.055   5.606   3.288
10005SOL    HW130914   5.074   5.680   3.352
10005SOL    HW230915   5.005   5.533   3.335
10006SOL     OW30916   5.623   1.119   4.418
10006SOL    HW130917   5.668   1.030   4.433
10006SOL    HW230918   5.524   1.107   4.420
10007SOL     OW30919   0.994   4.406   4.913
10007SOL    HW130920   1.002   4.366   5.004
10007SOL    HW230921   0.999   4.505   4.920
10008SOL     OW30922   3.962   1.653   3.909
10008SOL    HW130923   3.864   1.654   3.931
10008SOL    HW230924   4.013   1.608   3.983
10009SOL     OW30925   2.080   3.943   1.323
10009SOL    HW130926   2.021   3.869   1.355
10009SOL    HW230927   2.157   3.954   1.385
10010SOL     OW30928   1.921   6.525   6.832
10010SOL    HW130929   2.020   6.531   6.825
10010SOL    HW230930   1.880   6.606   6.789
10011SOL     OW30931   0.224   2.205   5.276
10011SOL    HW130932   0.170   2.253   5.346
10011SOL    HW230933   0.279   2.135   5.320
10012SOL     OW30934   5.137   6.894   2.899
10012SOL    HW130935   5.218   6.931   2.945
10012SOL    HW230936   5.056   6.910   2.956
10013SOL     OW30937   2.111   1.813   4.375
10013SOL    HW130938   2.126   1.717   4.349
10013SOL    HW230939   2.065   1.861   4.300
10014SOL     OW30940   6.510   2.535   0.253
10014SOL    HW130941   6.566   2.566   0.330
10014SOL    HW230942   6.517   2.436   0.245
10015SOL     OW30943   3.069   4.229   0.373
10015SOL    HW130944   3.091   4.304   0.311
10015SOL    HW230945   3.037   4.151   0.321
10016SOL     OW30946   2.388   0.459   4.683
10016SOL    HW130947   2.288   0.455   4.682
10016SOL    HW230948   2.425   0.376   4.723
10017SOL     OW30949   1.830   2.388   2.166
10017SOL    HW130950   1.864   2.294   2.163
10017SOL    HW230951   1.898   2.450   2.128
10018SOL     OW30952   5.476   6.486   6.200
10018SOL    HW130953   5.503   6.476   6.104
10018SOL    HW230954   5.496   6.579   6.232
10019SOL     OW30955   1.302   1.857   3.080
10019SOL    HW130956   1.211   1.816   3.082
10019SOL    HW230957   1.371   1.785   3.078
10020SOL     OW30958   0.090   2.352   1.090
10020SOL    HW130959   0.028   2.297   1.146
10020SOL    HW230960   0.053   2.444   1.079
10021SOL     OW30961   1.013   2.766   1.531
10021SOL    HW130962   0.936   2.821   1.500
10021SOL    HW230963   1.048   2.712   1.454
10022SOL     OW30964   3.386   6.797   1.028
10022SOL    HW130965   3.326   6.813   0.949
10022SOL    HW230966   3.462   6.737   1.000
10023SOL     OW30967   1.823   5.336   5.592
10023SOL    HW130968   1.839   5.415   5.533
10023SOL    HW230969   1.882   5.343   5.673
10024SOL     OW30970   2.097   6.946   1.999
10024SOL    HW130971   2.020   6.994   1.957
10024SOL    HW230972   2.094   6.958   2.098
10025SOL     OW30973   1.243   1.119   1.109
10025SOL    HW130974   1.144   1.122   1.093
10025SOL    HW230975   1.280   1.211   1.104
10026SOL     OW30976   5.052   6.598   3.625
10026SOL    HW130977   4.975   6.655   3.598
10026SOL    HW230978   5.020   6.510   3.658
10027SOL     OW30979   0.670   4.549   5.041
10027SOL    HW130980   0.734   4.478   5.012
10027SOL    HW230981   0.696   4.583   5.131
10028SOL     OW30982   1.562   1.687   1.678
10028SOL    HW130983   1.606   1.598   1.695
10028SOL    HW230984   1.608   1.757   1.734
10029SOL     OW30985   3.201   1.882   3.585
10029SOL    HW130986   3.145   1.801   3.566
10029SOL    HW230987   3.162   1.931   3.663
10030SOL     OW30988   2.317   6.700   4.051
10030SOL    HW130989   2.364   6.614   4.035
10030SOL    HW230990   2.381   6.767   4.088
10031SOL     OW30991   5.943   5.206   3.484
10031SOL    HW130992   5.978   5.287   3.436
10031SOL    HW230993   5.966   5.213   3.581
10032SOL     OW30994   3.087   0.825   5.258
10032SOL    HW130995   3.118   0.839   5.352
10032SOL    HW230996   3.162   0.788   5.203
10033SOL     OW30997   4.766   2.487   4.350
10033SOL    HW130998   4.776   2.584   4.328
10033SOL    HW230999   4.794   2.431   4.272
10034SOL     OW31000   3.131   0.060   4.133
10034SOL    HW131001   3.152   0.119   4.055
10034SOL    HW231002   3.180   0.091   4.213
10035SOL     OW31003   0.114   4.350   2.126
10035SOL    HW131004   0.047   4.344   2.200
10035SOL    HW231005   0.186   4.414   2.152
10036SOL     OW31006   5.228   1.411   0.996
10036SOL    HW131007   5.305   1.352   1.020
10036SOL    HW231008   5.256   1.507   1.002
10037SOL     OW31009   5.659   1.537   1.020
10037SOL    HW131010   5.630   1.593   0.942
10037SOL    HW231011   5.581   1.484   1.054
10038SOL     OW31012   3.902   1.459   6.400
10038SOL    HW131013   3.992   1.415   6.410
10038SOL    HW231014   3.831   1.389   6.399
10039SOL     OW31015   3.274   0.406   3.942
10039SOL    HW131016   3.194   0.357   3.907
10039SOL    HW231017   3.316   0.459   3.868
10040SOL     OW31018   4.140   5.957   6.308
10040SOL    HW131019   4.126   5.862   6.281
10040SOL    HW231020   4.225   5.991   6.267
10041SOL     OW31021   3.953   6.300   6.195
10041SOL    HW131022   3.962   6.248   6.280
10041SOL    HW231023   4.002   6.387   6.204
10042SOL     OW31024   1.049   1.537   4.584
10042SOL    HW131025   1.040   1.507   4.489
10042SOL    HW231026   1.078   1.461   4.641
10043SOL     OW31027   6.598   1.909   4.826
10043SOL    HW131028   6.649   1.952   4.752
10043SOL    HW231029   6.506   1.884   4.794
10044SOL     OW31030   2.708   1.459   5.334
10044SOL    HW131031   2.658   1.541   5.363
10044SOL    HW231032   2.699   1.447   5.236
10045SOL     OW31033   4.085   0.387   2.974
10045SOL    HW131034   4.171   0.345   2.944
10045SOL    HW231035   4.085   0.484   2.948
10046SOL     OW31036   2.402   4.029   0.772
10046SOL    HW131037   2.457   3.963   0.722
10046SOL    HW231038   2.459   4.107   0.800
10047SOL     OW31039   0.793   3.902   5.233
10047SOL    HW131040   0.843   3.966   5.175
10047SOL    HW231041   0.697   3.899   5.205
10048SOL     OW31042   6.192   1.017   2.647
10048SOL    HW131043   6.175   0.938   2.587
10048SOL    HW231044   6.211   0.985   2.740
10049SOL     OW31045   0.487   1.866   6.457
10049SOL    HW131046   0.496   1.767   6.467
10049SOL    HW231047   0.512   1.910   6.543
10050SOL     OW31048   5.480   3.983   4.885
10050SOL    HW131049   5.463   3.885   4.871
10050SOL    HW231050   5.394   4.032   4.888
10051SOL     OW31051   6.125   3.562   5.590
10051SOL    HW131052   6.084   3.642   5.635
10051SOL    HW231053   6.121   3.484   5.651
10052SOL     OW31054   1.791   1.399   3.200
10052SOL    HW131055   1.865   1.352   3.248
10052SOL    HW231056   1.755   1.340   3.128
10053SOL     OW31057   3.814   5.536   3.019
10053SOL    HW131058   3.883   5.475   2.982
10053SOL    HW231059   3.854   5.592   3.092
10054SOL     OW31060   5.614   6.012   6.458
10054SOL    HW131061   5.642   6.081   6.390
10054SOL    HW231062   5.525   5.975   6.433
10055SOL     OW31063   5.950   1.153   4.734
10055SOL    HW131064   5.861   1.198   4.732
10055SOL    HW231065   5.941   1.060   4.768
10056SOL     OW31066   5.307   4.340   2.868
10056SOL    HW131067   5.363   4.327   2.950
10056SOL    HW231068   5.365   4.340   2.787
10057SOL     OW31069   4.126   2.475   5.581
10057SOL    HW131070   4.177   2.440   5.502
10057SOL    HW231071   4.171   2.446   5.665
10058SOL     OW31072   6.543   3.361   5.359
10058SOL    HW131073   6.601   3.296   5.310
10058SOL    HW231074   6.573   3.454   5.338
10059SOL     OW31075   6.764   1.378   0.528
10059SOL    HW131076   6.704   1.352   0.604
10059SOL    HW231077   6.756   1.311   0.455
10060SOL     OW31078   2.144   2.951   2.149
10060SOL    HW131079   2.131   3.050   2.147
10060SOL    HW231080   2.097   2.910   2.071
10061SOL     OW31081   4.620   1.249   4.354
10061SOL    HW131082   4.657   1.247   4.447
10061SOL    HW231083   4.686   1.208   4.291
10062SOL     OW31084   5.562   0.764   3.609
10062SOL    HW131085   5.503   0.690   3.643
10062SOL    HW231086   5.642   0.773   3.669
10063SOL     OW31087   2.620   0.896   4.041
10063SOL    HW131088   2.593   0.950   4.121
10063SOL    HW231089   2.593   0.944   3.958
10064SOL     OW31090   4.829   6.789   0.447
10064SOL    HW131091   4.836   6.698   0.488
10064SOL    HW231092   4.823   6.858   0.519
10065SOL     OW31093   2.713   6.715   2.666
10065SOL    HW131094   2.621   6.707   2.704
10065SOL    HW231095   2.766   6.781   2.719
10066SOL     OW31096   0.283   2.569   4.187
10066SOL    HW131097   0.214   2.587   4.118
10066SOL    HW231098   0.239   2.556   4.276
10067SOL     OW31099   0.439   3.650   5.018
10067SOL    HW131100   0.409   3.622   4.927
10067SOL    HW231101   0.491   3.576   5.061
10068SOL     OW31102   0.145   3.418   3.145
10068SOL    HW131103   0.081   3.479   3.099
10068SOL    HW231104   0.143   3.328   3.100
10069SOL     OW31105   3.397   5.410   1.750
10069SOL    HW131106   3.422   5.315   1.731
10069SOL    HW231107   3.315   5.411   1.809
10070SOL     OW31108   0.119   6.274   5.245
10070SOL    HW131109   0.194   6.241   5.188
10070SOL    HW231110   0.156   6.333   5.317
10071SOL     OW31111   6.361   6.207   4.483
10071SOL    HW131112   6.451   6.247   4.462
10071SOL    HW231113   6.289   6.272   4.456
10072SOL     OW31114   0.565   6.790   4.156
10072SOL    HW131115   0.616   6.827   4.233
10072SOL    HW231116   0.467   6.795   4.175
10073SOL     OW31117   6.534   4.134   4.158
10073SOL    HW131118   6.441   4.109   4.131
10073SOL    HW231119   6.559   4.084   4.241
10074SOL     OW31120   2.280   0.225   5.847
10074SOL    HW131121   2.372   0.212   5.883
10074SOL    HW231122   2.277   0.306   5.789
10075SOL     OW31123   1.579   2.358   2.033
10075SOL    HW131124   1.597   2.287   1.965
10075SOL    HW231125   1.654   2.362   2.099
10076SOL     OW31126   6.202   6.009   3.577
10076SOL    HW131127   6.109   6.030   3.608
10076SOL    HW231128   6.263   6.000   3.655
10077SOL     OW31129   4.625   3.636   0.094
10077SOL    HW131130   4.567   3.571   0.045
10077SOL    HW231131   4.682   3.686   0.029
10078SOL     OW31132   6.416   6.097   4.100
10078SOL    HW131133   6.436   6.194   4.114
10078SOL    HW231134   6.375   6.059   4.182
10079SOL     OW31135   5.944   3.084   3.435
10079SOL    HW131136   5.943   3.066   3.533
10079SOL    HW231137   5.893   3.013   3.387
10080SOL     OW31138   5.328   0.757   5.769
10080SOL    HW131139   5.263   0.806   5.828
10080SOL    HW231140   5.341   0.808   5.684
10081SOL     OW31141   0.590   1.539   0.302
10081SOL    HW131142   0.645   1.605   0.352
10081SOL    HW231143   0.646   1.493   0.234
10082SOL     OW31144   0.787   5.181   1.724
10082SOL    HW131145   0.779   5.252   1.793
10082SOL    HW231146   0.882   5.148   1.721
10083SOL     OW31147   3.722   0.497   3.780
10083SOL    HW131148   3.778   0.577   3.757
10083SOL    HW231149   3.716   0.487   3.880
10084SOL     OW31150   1.547   0.609   5.917
10084SOL    HW131151   1.494   0.535   5.875
10084SOL    HW231152   1.643   0.582   5.922
10085SOL     OW31153   3.023   6.782   0.713
10085SOL    HW131154   2.995   6.698   0.759
10085SOL    HW231155   3.122   6.793   0.722
10086SOL     OW31156   6.323   5.926   2.743
10086SOL    HW131157   6.340   5.923   2.842
10086SOL    HW231158   6.264   5.849   2.718
10087SOL     OW31159   6.483   5.789   3.774
10087SOL    HW131160   6.473   5.885   3.748
10087SOL    HW231161   6.547   5.781   3.851
10088SOL     OW31162   6.890   6.982   2.362
10088SOL    HW131163   6.946   6.972   2.279
10088SOL    HW231164   6.935   0.023   2.425
10089SOL     OW31165   2.983   2.144   3.816
10089SOL    HW131166   2.946   2.201   3.742
10089SOL    HW231167   2.908   2.098   3.863
10090SOL     OW31168   0.121   4.973   1.881
10090SOL    HW131169   0.099   4.940   1.973
10090SOL    HW231170   0.076   4.914   1.814
10091SOL     OW31171   6.696   5.678   6.592
10091SOL    HW131172   6.662   5.713   6.680
10091SOL    HW231173   6.767   5.739   6.557
10092SOL     OW31174   1.958   3.086   6.312
10092SOL    HW131175   2.036   3.096   6.373
10092SOL    HW231176   1.905   3.005   6.338
10093SOL     OW31177   4.575   3.368   5.362
10093SOL    HW131178   4.603   3.274   5.341
10093SOL    HW231179   4.615   3.431   5.295
10094SOL     OW31180   3.001   5.963   1.464
10094SOL    HW131181   2.904   5.937   1.458
10094SOL    HW231182   3.021   5.993   1.557
10095SOL     OW31183   5.377   1.821   4.480
10095SOL    HW131184   5.345   1.728   4.462
10095SOL    HW231185   5.299   1.882   4.491
10096SOL     OW31186   4.747   6.305   2.684
10096SOL    HW131187   4.650   6.299   2.704
10096SOL    HW231188   4.787   6.213   2.685
10097SOL     OW31189   1.628   2.130   0.199
10097SOL    HW131190   1.635   2.031   0.213
10097SOL    HW231191   1.716   2.165   0.168
10098SOL     OW31192   2.909   0.269   5.040
10098SOL    HW131193   2.823   0.262   5.091
10098SOL    HW231194   2.910   0.200   4.967
10099SOL     OW31195   1.154   4.717   1.121
10099SOL    HW131196   1.091   4.643   1.143
10099SOL    HW231197   1.192   4.755   1.205
10100SOL     OW31198   4.812   5.934   5.482
10100SOL    HW131199   4.854   5.932   5.392
10100SOL    HW231200   4.883   5.931   5.553
10101SOL     OW31201   7.015   2.695   1.836
10101SOL    HW131202   7.001   2.626   1.908
10101SOL    HW231203   6.928   2.738   1.813
10102SOL     OW31204   0.345   1.070   1.942
10102SOL    HW131205   0.359   1.119   2.028
10102SOL    HW231206   0.430   1.069   1.890
10103SOL     OW31207   2.248   0.283   5.254
10103SOL    HW131208   2.326   0.244   5.303
10103SOL    HW231209   2.248   0.250   5.160
10104SOL     OW31210   1.450   2.148   5.581
10104SOL    HW131211   1.543   2.180   5.601
10104SOL    HW231212   1.454   2.079   5.508
10105SOL     OW31213   2.062   0.238   6.123
10105SOL    HW131214   2.056   0.181   6.041
10105SOL    HW231215   2.099   0.185   6.199
10106SOL     OW31216   3.718   6.560   0.593
10106SOL    HW131217   3.669   6.475   0.575
10106SOL    HW231218   3.693   6.593   0.684
10107SOL     OW31219   5.007   1.419   6.107
10107SOL    HW131220   5.071   1.496   6.100
10107SOL    HW231221   5.055   1.339   6.142
10108SOL     OW31222   6.969   1.099   0.257
10108SOL    HW131223   7.020   1.029   0.209
10108SOL    HW231224   6.982   1.089   0.356
10109SOL     OW31225   0.032   0.734   0.959
10109SOL    HW131226   0.037   0.799   1.035
10109SOL    HW231227   6.959   0.716   0.937
10110SOL     OW31228   5.245   4.847   3.906
10110SOL    HW131229   5.228   4.824   4.002
10110SOL    HW231230   5.200   4.781   3.847
10111SOL     OW31231   6.679   3.427   3.679
10111SOL    HW131232   6.602   3.481   3.712
10111SOL    HW231233   6.706   3.361   3.749
10112SOL     OW31234   5.999   3.480   3.075
10112SOL    HW131235   5.997   3.579   3.084
10112SOL    HW231236   6.092   3.451   3.052
10113SOL     OW31237   4.586   6.868   0.313
10113SOL    HW131238   4.658   6.831   0.371
10113SOL    HW231239   4.618   6.872   0.218
10114SOL     OW31240   4.280   2.181   2.248
10114SOL    HW131241   4.294   2.083   2.242
10114SOL    HW231242   4.322   2.215   2.332
10115SOL     OW31243   4.388   2.142   5.078
10115SOL    HW131244   4.335   2.168   4.998
10115SOL    HW231245   4.483   2.124   5.051
10116SOL     OW31246   0.814   6.957   6.502
10116SOL    HW131247   0.855   6.884   6.448
10116SOL    HW231248   0.874   0.014   6.501
10117SOL     OW31249   6.382   6.703   5.885
10117SOL    HW131250   6.467   6.715   5.835
10117SOL    HW231251   6.396   6.635   5.957
10118SOL     OW31252   2.505   4.496   3.500
10118SOL    HW131253   2.478   4.482   3.404
10118SOL    HW231254   2.593   4.452   3.516
10119SOL     OW31255   6.473   5.159   3.882
10119SOL    HW131256   6.396   5.155   3.818
10119SOL    HW231257   6.460   5.236   3.945
10120SOL     OW31258   1.856   3.926   4.148
10120SOL    HW131259   1.915   3.849   4.123
10120SOL    HW231260   1.761   3.895   4.152
10121SOL     OW31261   5.758   4.040   0.161
10121SOL    HW131262   5.836   4.090   0.197
10121SOL    HW231263   5.782   4.001   0.072
10122SOL     OW31264   5.416   2.691   3.345
10122SOL    HW131265   5.352   2.660   3.415
10122SOL    HW231266   5.413   2.629   3.267
10123SOL     OW31267   5.668   6.443   0.719
10123SOL    HW131268   5.737   6.454   0.647
10123SOL    HW231269   5.588   6.395   0.681
10124SOL     OW31270   1.511   4.835   0.326
10124SOL    HW131271   1.601   4.818   0.286
10124SOL    HW231272   1.504   4.931   0.353
10125SOL     OW31273   2.213   1.122   1.097
10125SOL    HW131274   2.167   1.045   1.143
10125SOL    HW231275   2.310   1.102   1.089
10126SOL     OW31276   0.400   0.321   0.159
10126SOL    HW131277   0.417   0.299   0.063
10126SOL    HW231278   0.459   0.264   0.217
10127SOL     OW31279   1.938   3.746   0.480
10127SOL    HW131280   1.897   3.667   0.435
10127SOL    HW231281   1.887   3.768   0.563
10128SOL     OW31282   3.107   0.839   5.596
10128SOL    HW131283   3.033   0.797   5.647
10128SOL    HW231284   3.096   0.938   5.595
10129SOL     OW31285   6.741   1.273   2.225
10129SOL    HW131286   6.683   1.355   2.219
10129SOL    HW231287   6.730   1.219   2.141
10130SOL     OW31288   0.763   3.600   1.141
10130SOL    HW131289   0.776   3.640   1.232
10130SOL    HW231290   0.814   3.514   1.135
10131SOL     OW31291   2.169   0.135   4.578
10131SOL    HW131292   2.088   0.076   4.578
10131SOL    HW231293   2.144   0.225   4.613
10132SOL     OW31294   1.872   0.725   3.115
10132SOL    HW131295   1.957   0.701   3.067
10132SOL    HW231296   1.855   0.657   3.186
10133SOL     OW31297   4.599   6.651   0.902
10133SOL    HW131298   4.534   6.724   0.923
10133SOL    HW231299   4.571   6.568   0.949
10134SOL     OW31300   5.269   1.412   2.613
10134SOL    HW131301   5.296   1.324   2.574
10134SOL    HW231302   5.193   1.398   2.677
10135SOL     OW31303   5.212   2.368   4.132
10135SOL    HW131304   5.271   2.319   4.196
10135SOL    HW231305   5.219   2.467   4.149
10136SOL     OW31306   5.529   1.740   2.430
10136SOL    HW131307   5.580   1.738   2.343
10136SOL    HW231308   5.463   1.665   2.431
10137SOL     OW31309   0.386   4.638   5.367
10137SOL    HW131310   0.459   4.586   5.412
10137SOL    HW231311   0.359   4.714   5.427
10138SOL     OW31312   5.544   3.303   0.080
10138SOL    HW131313   5.497   3.346   0.157
10138SOL    HW231314   5.491   3.317   7.018
10139SOL     OW31315   2.934   3.769   4.879
10139SOL    HW131316   2.906   3.811   4.966
10139SOL    HW231317   2.967   3.677   4.895
10140SOL     OW31318   0.471   6.614   6.912
10140SOL    HW131319   0.471   6.714   6.922
10140SOL    HW231320   0.558   6.584   6.872
10141SOL     OW31321   4.650   1.099   5.075
10141SOL    HW131322   4.704   1.116   5.158
10141SOL    HW231323   4.580   1.169   5.066
10142SOL     OW31324   5.937   6.321   6.015
10142SOL    HW131325   5.927   6.222   6.021
10142SOL    HW231326   5.993   6.344   5.935
10143SOL     OW31327   5.134   2.279   0.810
10143SOL    HW131328   5.144   2.183   0.782
10143SOL    HW231329   5.038   2.297   0.832
10144SOL     OW31330   4.493   0.207   5.910
10144SOL    HW131331   4.589   0.234   5.912
10144SOL    HW231332   4.478   0.133   5.976
10145SOL     OW31333   3.743   5.776   2.769
10145SOL    HW131334   3.815   5.767   2.838
10145SOL    HW231335   3.784   5.767   2.678
10146SOL     OW31336   6.374   4.189   4.709
10146SOL    HW131337   6.324   4.142   4.636
10146SOL    HW231338   6.344   4.284   4.714
10147SOL     OW31339   4.790   4.057   6.512
10147SOL    HW131340   4.692   4.036   6.507
10147SOL    HW231341   4.804   4.152   6.484
10148SOL     OW31342   5.940   5.274   0.168
10148SOL    HW131343   5.865   5.229   0.119
10148SOL    HW231344   6.004   5.206   0.203
10149SOL     OW31345   5.154   4.060   1.343
10149SOL    HW131346   5.229   4.028   1.285
10149SOL    HW231347   5.136   4.157   1.324
10150SOL     OW31348   4.164   3.115   1.562
10150SOL    HW131349   4.196   3.209   1.552
10150SOL    HW231350   4.154   3.094   1.660
10151SOL     OW31351   1.340   6.808   6.879
10151SOL    HW131352   1.294   6.800   6.790
10151SOL    HW231353   1.394   6.726   6.895
10152SOL     OW31354   6.776   6.043   3.749
10152SOL    HW131355   6.856   5.985   3.763
10152SOL    HW231356   6.804   6.129   3.707
10153SOL     OW31357   5.040   6.348   3.735
10153SOL    HW131358   5.107   6.342   3.810
10153SOL    HW231359   5.064   6.283   3.663
10154SOL     OW31360   4.031   6.637   4.916
10154SOL    HW131361   4.100   6.697   4.875
10154SOL    HW231362   3.954   6.628   4.853
10155SOL     OW31363   4.827   2.217   5.545
10155SOL    HW131364   4.915   2.225   5.593
10155SOL    HW231365   4.844   2.194   5.449
10156SOL     OW31366   5.469   0.526   1.505
10156SOL    HW131367   5.416   0.468   1.443
10156SOL    HW231368   5.522   0.468   1.567
10157SOL     OW31369   6.926   2.145   0.231
10157SOL    HW131370   6.852   2.105   0.177
10157SOL    HW231371   6.932   2.243   0.214
10158SOL     OW31372   6.234   6.382   1.084
10158SOL    HW131373   6.232   6.348   0.990
10158SOL    HW231374   6.279   6.471   1.086
10159SOL     OW31375   3.725   3.284   2.516
10159SOL    HW131376   3.730   3.275   2.416
10159SOL    HW231377   3.656   3.221   2.551
10160SOL     OW31378   1.165   3.659   3.180
10160SOL    HW131379   1.238   3.600   3.146
10160SOL    HW231380   1.171   3.664   3.280
10161SOL     OW31381   3.418   4.155   6.529
10161SOL    HW131382   3.344   4.115   6.583
10161SOL    HW231383   3.499   4.167   6.587
10162SOL     OW31384   2.999   4.682   0.817
10162SOL    HW131385   2.974   4.593   0.855
10162SOL    HW231386   3.085   4.713   0.858
10163SOL     OW31387   0.406   4.011   6.982
10163SOL    HW131388   0.388   3.934   0.020
10163SOL    HW231389   0.376   4.096   0.004
10164SOL     OW31390   5.671   3.643   4.718
10164SOL    HW131391   5.602   3.684   4.779
10164SOL    HW231392   5.703   3.557   4.757
10165SOL     OW31393   6.498   2.147   3.470
10165SOL    HW131394   6.435   2.085   3.516
10165SOL    HW231395   6.525   2.220   3.532
10166SOL     OW31396   2.157   1.571   0.994
10166SOL    HW131397   2.231   1.554   1.060
10166SOL    HW231398   2.083   1.620   1.040
10167SOL     OW31399   0.068   5.845   0.145
10167SOL    HW131400   0.051   5.846   0.047
10167SOL    HW231401   7.013   5.801   0.192
10168SOL     OW31402   6.765   2.372   6.054
10168SOL    HW131403   6.737   2.285   6.094
10168SOL    HW231404   6.705   2.445   6.087
10169SOL     OW31405   6.650   3.533   3.271
10169SOL    HW131406   6.701   3.472   3.332
10169SOL    HW231407   6.630   3.619   3.319
10170SOL     OW31408   6.063   5.844   6.392
10170SOL    HW131409   5.965   5.855   6.376
10170SOL    HW231410   6.077   5.777   6.465
10171SOL     OW31411   0.546   2.539   4.097
10171SOL    HW131412   0.462   2.521   4.148
10171SOL    HW231413   0.603   2.457   4.096
10172SOL     OW31414   0.886   6.556   4.298
10172SOL    HW131415   0.798   6.521   4.329
10172SOL    HW231416   0.908   6.518   4.208
10173SOL     OW31417   1.986   3.094   6.829
10173SOL    HW131418   1.946   3.088   6.920
10173SOL    HW231419   2.084   3.115   6.836
10174SOL     OW31420   5.139   4.673   3.747
10174SOL    HW131421   5.041   4.695   3.742
10174SOL    HW231422   5.153   4.578   3.718
10175SOL     OW31423   6.023   2.156   3.465
10175SOL    HW131424   6.078   2.239   3.474
10175SOL    HW231425   6.072   2.090   3.408
10176SOL     OW31426   6.364   2.676   5.465
10176SOL    HW131427   6.312   2.712   5.388
10176SOL    HW231428   6.462   2.693   5.450
10177SOL     OW31429   1.848   0.549   0.494
10177SOL    HW131430   1.906   0.481   0.538
10177SOL    HW231431   1.809   0.510   0.410
10178SOL     OW31432   0.925   1.023   0.372
10178SOL    HW131433   0.965   0.943   0.416
10178SOL    HW231434   0.852   0.994   0.310
10179SOL     OW31435   0.935   3.497   6.228
10179SOL    HW131436   0.872   3.422   6.205
10179SOL    HW231437   0.903   3.544   6.310
10180SOL     OW31438   4.736   0.629   0.764
10180SOL    HW131439   4.702   0.593   0.851
10180SOL    HW231440   4.830   0.661   0.775
10181SOL     OW31441   0.723   2.688   0.963
10181SOL    HW131442   0.810   2.652   0.994
10181SOL    HW231443   0.656   2.614   0.958
10182SOL     OW31444   4.817   0.732   0.100
10182SOL    HW131445   4.761   0.679   0.163
10182SOL    HW231446   4.804   0.698   0.007
10183SOL     OW31447   5.749   2.944   6.087
10183SOL    HW131448   5.810   3.013   6.125
10183SOL    HW231449   5.760   2.858   6.137
10184SOL     OW31450   4.615   3.010   6.831
10184SOL    HW131451   4.541   2.946   6.810
10184SOL    HW231452   4.679   3.013   6.755
10185SOL     OW31453   6.071   5.620   1.765
10185SOL    HW131454   6.100   5.626   1.860
10185SOL    HW231455   6.090   5.707   1.719
10186SOL     OW31456   4.996   3.704   4.512
10186SOL    HW131457   4.954   3.795   4.512
10186SOL    HW231458   4.957   3.649   4.586
10187SOL     OW31459   1.456   3.655   6.369
10187SOL    HW131460   1.537   3.597   6.361
10187SOL    HW231461   1.386   3.624   6.305
10188SOL     OW31462   2.646   4.871   6.383
10188SOL    HW131463   2.556   4.874   6.427
10188SOL    HW231464   2.712   4.827   6.445
10189SOL     OW31465   0.982   0.996   6.017
10189SOL    HW131466   1.020   0.981   6.109
10189SOL    HW231467   0.883   0.988   6.020
10190SOL     OW31468   3.886   2.848   1.625
10190SOL    HW131469   3.907   2.750   1.629
10190SOL    HW231470   3.962   2.900   1.665
10191SOL     OW31471   4.955   5.458   6.747
10191SOL    HW131472   5.033   5.439   6.687
10191SOL    HW231473   4.982   5.446   6.842
10192SOL     OW31474   3.485   1.762   5.155
10192SOL    HW131475   3.466   1.787   5.060
10192SOL    HW231476   3.552   1.826   5.194
10193SOL     OW31477   3.066   3.945   2.893
10193SOL    HW131478   3.125   3.907   2.821
10193SOL    HW231479   3.107   4.027   2.931
10194SOL     OW31480   4.846   1.166   4.210
10194SOL    HW131481   4.933   1.203   4.176
10194SOL    HW231482   4.797   1.122   4.135
10195SOL     OW31483   0.199   6.992   1.782
10195SOL    HW131484   0.153   6.984   1.693
10195SOL    HW231485   0.156   0.042   1.836
10196SOL     OW31486   4.378   2.445   3.764
10196SOL    HW131487   4.396   2.488   3.853
10196SOL    HW231488   4.406   2.508   3.691
10197SOL     OW31489   4.669   2.037   3.973
10197SOL    HW131490   4.614   2.042   3.890
10197SOL    HW231491   4.710   1.946   3.980
10198SOL     OW31492   4.036   0.127   1.294
10198SOL    HW131493   3.960   0.171   1.342
10198SOL    HW231494   4.057   0.178   1.210
10199SOL     OW31495   0.716   1.936   7.022
10199SOL    HW131496   0.725   2.019   6.967
10199SOL    HW231497   0.628   1.937   0.048
10200SOL     OW31498   5.038   3.261   5.347
10200SOL    HW131499   4.959   3.267   5.408
10200SOL    HW231500   5.013   3.295   5.256
10201SOL     OW31501   0.511   6.161   0.744
10201SOL    HW131502   0.591   6.106   0.720
10201SOL    HW231503   0.449   6.106   0.800
10202SOL     OW31504   1.884   4.665   0.042
10202SOL    HW131505   1.886   4.569   0.013
10202SOL    HW231506   1.895   4.724   6.984
10203SOL     OW31507   1.024   2.893   1.950
10203SOL    HW131508   1.097   2.826   1.962
10203SOL    HW231509   0.964   2.891   2.030
10204SOL     OW31510   3.385   5.535   6.287
10204SOL    HW131511   3.317   5.515   6.357
10204SOL    HW231512   3.417   5.449   6.246
10205SOL     OW31513   3.243   1.182   2.346
10205SOL    HW131514   3.235   1.140   2.436
10205SOL    HW231515   3.320   1.245   2.345
10206SOL     OW31516   5.172   0.110   6.497
10206SOL    HW131517   5.098   0.098   6.562
10206SOL    HW231518   5.138   0.093   6.404
10207SOL     OW31519   2.419   0.977   0.060
10207SOL    HW131520   2.432   0.916   7.004
10207SOL    HW231521   2.492   0.962   0.127
10208SOL     OW31522   6.417   4.623   3.795
10208SOL    HW131523   6.504   4.659   3.829
10208SOL    HW231524   6.386   4.677   3.717
10209SOL     OW31525   0.442   0.330   5.761
10209SOL    HW131526   0.444   0.395   5.684
10209SOL    HW231527   0.450   0.380   5.847
10210SOL     OW31528   5.199   6.932   1.489
10210SOL    HW131529   5.274   6.872   1.516
10210SOL    HW231530   5.131   6.935   1.562
10211SOL     OW31531   3.978   6.233   4.810
10211SOL    HW131532   3.914   6.300   4.773
10211SOL    HW231533   3.927   6.151   4.839
10212SOL     OW31534   0.017   0.525   4.927
10212SOL    HW131535   6.981   0.544   4.849
10212SOL    HW231536   7.000   0.452   4.982
10213SOL     OW31537   5.655   2.553   2.576
10213SOL    HW131538   5.640   2.625   2.643
10213SOL    HW231539   5.581   2.487   2.580
10214SOL     OW31540   1.133   1.872   2.340
10214SOL    HW131541   1.202   1.929   2.386
10214SOL    HW231542   1.116   1.790   2.395
10215SOL     OW31543   3.673   2.927   3.861
10215SOL    HW131544   3.637   2.997   3.923
10215SOL    HW231545   3.664   2.837   3.904
10216SOL     OW31546   0.567   6.712   1.078
10216SOL    HW131547   0.481   6.757   1.100
10216SOL    HW231548   0.641   6.754   1.132
10217SOL     OW31549   2.521   1.775   3.121
10217SOL    HW131550   2.570   1.828   3.052
10217SOL    HW231551   2.495   1.686   3.081
10218SOL     OW31552   1.658   0.553   1.970
10218SOL    HW131553   1.688   0.465   2.008
10218SOL    HW231554   1.635   0.541   1.874
10219SOL     OW31555   0.122   2.738   2.370
10219SOL    HW131556   0.183   2.767   2.443
10219SOL    HW231557   0.162   2.761   2.281
10220SOL     OW31558   4.450   2.071   1.559
10220SOL    HW131559   4.515   2.063   1.483
10220SOL    HW231560   4.360   2.099   1.524
10221SOL     OW31561   1.875   2.998   4.244
10221SOL    HW131562   1.972   2.974   4.240
10221SOL    HW231563   1.857   3.075   4.182
10222SOL     OW31564   2.702   3.698   5.592
10222SOL    HW131565   2.678   3.681   5.687
10222SOL    HW231566   2.649   3.775   5.557
10223SOL     OW31567   2.040   6.080   6.552
10223SOL    HW131568   1.966   6.100   6.488
10223SOL    HW231569   2.119   6.045   6.501
10224SOL     OW31570   0.303   1.397   5.279
10224SOL    HW131571   0.326   1.382   5.375
10224SOL    HW231572   0.319   1.493   5.256
10225SOL     OW31573   2.027   6.386   6.392
10225SOL    HW131574   1.955   6.383   6.462
10225SOL    HW231575   2.001   6.329   6.314
10226SOL     OW31576   2.858   0.590   6.401
10226SOL    HW131577   2.792   0.648   6.355
10226SOL    HW231578   2.946   0.595   6.354
10227SOL     OW31579   5.301   4.739   0.810
10227SOL    HW131580   5.294   4.695   0.899
10227SOL    HW231581   5.386   4.712   0.766
10228SOL     OW31582   0.785   5.754   2.124
10228SOL    HW131583   0.723   5.823   2.159
10228SOL    HW231584   0.829   5.706   2.201
10229SOL     OW31585   1.085   1.756   4.113
10229SOL    HW131586   1.019   1.795   4.048
10229SOL    HW231587   1.173   1.804   4.103
10230SOL     OW31588   6.354   6.277   2.823
10230SOL    HW131589   6.262   6.287   2.862
10230SOL    HW231590   6.347   6.261   2.725
10231SOL     OW31591   6.269   5.677   5.100
10231SOL    HW131592   6.194   5.740   5.080
10231SOL    HW231593   6.270   5.604   5.032
10232SOL     OW31594   2.802   0.903   4.680
10232SOL    HW131595   2.734   0.974   4.659
10232SOL    HW231596   2.796   0.831   4.611
10233SOL     OW31597   4.927   3.578   5.296
10233SOL    HW131598   4.838   3.569   5.253
10233SOL    HW231599   4.999   3.567   5.228
10234SOL     OW31600   5.414   0.531   0.373
10234SOL    HW131601   5.396   0.448   0.424
10234SOL    HW231602   5.506   0.565   0.394
10235SOL     OW31603   3.935   3.286   0.270
10235SOL    HW131604   4.008   3.337   0.315
10235SOL    HW231605   3.906   3.335   0.188
10236SOL     OW31606   1.992   0.304   2.031
10236SOL    HW131607   1.982   0.236   2.104
10236SOL    HW231608   1.948   0.271   1.948
10237SOL     OW31609   6.810   4.221   0.633
10237SOL    HW131610   6.759   4.148   0.680
10237SOL    HW231611   6.883   4.255   0.693
10238SOL     OW31612   3.375   4.076   3.576
10238SOL    HW131613   3.457   4.126   3.550
10238SOL    HW231614   3.351   4.096   3.671
10239SOL     OW31615   1.620   3.815   5.617
10239SOL    HW131616   1.711   3.851   5.596
10239SOL    HW231617   1.608   3.812   5.717
10240SOL     OW31618   1.886   4.843   3.523
10240SOL    HW131619   1.926   4.821   3.611
10240SOL    HW231620   1.789   4.864   3.534
10241SOL     OW31621   6.461   0.537   2.096
10241SOL    HW131622   6.427   0.603   2.163
10241SOL    HW231623   6.429   0.446   2.120
10242SOL     OW31624   0.032   1.349   6.952
10242SOL    HW131625   6.966   1.350   6.999
10242SOL    HW231626   0.030   1.284   6.876
10243SOL     OW31627   1.106   4.766   1.693
10243SOL    HW131628   1.148   4.841   1.743
10243SOL    HW231629   1.121   4.680   1.742
10244SOL     OW31630   1.080   4.099   0.412
10244SOL    HW131631   1.115   4.180   0.459
10244SOL    HW231632   1.059   4.027   0.478
10245SOL     OW31633   2.905   4.595   6.922
10245SOL    HW131634   2.842   4.523   6.893
10245SOL    HW231635   2.981   4.555   6.974
10246SOL     OW31636   3.365   4.146   3.849
10246SOL    HW131637   3.301   4.102   3.911
10246SOL    HW231638   3.439   4.188   3.901
10247SOL     OW31639   6.726   5.393   5.539
10247SOL    HW131640   6.774   5.410   5.452
10247SOL    HW231641   6.658   5.465   5.554
10248SOL     OW31642   3.232   0.046   2.286
10248SOL    HW131643   3.162   0.110   2.254
10248SOL    HW231644   3.303   0.097   2.335
10249SOL     OW31645   3.510   0.652   5.623
10249SOL    HW131646   3.519   0.751   5.622
10249SOL    HW231647   3.487   0.621   5.716
10250SOL     OW31648   6.911   2.819   1.055
10250SOL    HW131649   6.927   2.914   1.080
10250SOL    HW231650   6.814   2.798   1.064
10251SOL     OW31651   2.468   1.857   5.580
10251SOL    HW131652   2.561   1.818   5.580
10251SOL    HW231653   2.427   1.844   5.490
10252SOL     OW31654   4.760   4.943   0.198
10252SOL    HW131655   4.674   4.894   0.183
10252SOL    HW231656   4.783   4.939   0.295
10253SOL     OW31657   3.596   5.816   0.110
10253SOL    HW131658   3.636   5.786   0.023
10253SOL    HW231659   3.559   5.909   0.099
10254SOL     OW31660   4.918   1.617   5.033
10254SOL    HW131661   4.979   1.695   5.051
10254SOL    HW231662   4.879   1.625   4.941
10255SOL     OW31663   1.889   6.772   1.111
10255SOL    HW131664   1.965   6.793   1.172
10255SOL    HW231665   1.808   6.749   1.164
10256SOL     OW31666   5.839   1.343   1.944
10256SOL    HW131667   5.862   1.275   1.875
10256SOL    HW231668   5.906   1.417   1.941
10257SOL     OW31669   1.759   5.346   4.737
10257SOL    HW131670   1.801   5.425   4.783
10257SOL    HW231671   1.799   5.262   4.773
10258SOL     OW31672   3.461   1.076   4.453
10258SOL    HW131673   3.459   1.116   4.545
10258SOL    HW231674   3.555   1.075   4.419
10259SOL     OW31675   0.370   4.569   3.312
10259SOL    HW131676   0.409   4.588   3.402
10259SOL    HW231677   0.274   4.543   3.322
10260SOL     OW31678   0.217   0.730   3.381
10260SOL    HW131679   0.307   0.729   3.425
10260SOL    HW231680   0.148   0.761   3.447
10261SOL     OW31681   6.948   5.652   3.301
10261SOL    HW131682   0.009   5.662   3.246
10261SOL    HW231683   6.877   5.609   3.246
10262SOL     OW31684   1.719   6.755   4.394
10262SOL    HW131685   1.787   6.697   4.439
10262SOL    HW231686   1.764   6.811   4.324
10263SOL     OW31687   5.409   0.712   6.415
10263SOL    HW131688   5.340   0.693   6.346
10263SOL    HW231689   5.426   0.811   6.420
10264SOL     OW31690   6.071   2.701   5.938
10264SOL    HW131691   6.108   2.682   5.847
10264SOL    HW231692   5.985   2.651   5.949
10265SOL     OW31693   3.115   2.134   3.096
10265SOL    HW131694   3.073   2.144   3.006
10265SOL    HW231695   3.064   2.187   3.163
10266SOL     OW31696   3.291   2.917   4.947
10266SOL    HW131697   3.327   2.975   5.020
10266SOL    HW231698   3.235   2.844   4.987
10267SOL     OW31699   6.276   1.445   6.944
10267SOL    HW131700   6.198   1.499   6.974
10267SOL    HW231701   6.306   1.478   6.854
10268SOL     OW31702   5.465   4.995   1.994
10268SOL    HW131703   5.368   4.988   2.018
10268SOL    HW231704   5.521   4.970   2.072
10269SOL     OW31705   0.277   2.867   5.198
10269SOL    HW131706   0.370   2.854   5.232
10269SOL    HW231707   0.233   2.941   5.248
10270SOL     OW31708   3.101   5.039   3.185
10270SOL    HW131709   3.167   5.098   3.138
10270SOL    HW231710   3.047   5.095   3.248
10271SOL     OW31711   3.426   2.375   7.007
10271SOL    HW131712   3.446   2.465   6.968
10271SOL    HW231713   3.512   2.332   0.013
10272SOL     OW31714   0.848   0.420   5.167
10272SOL    HW131715   0.836   0.519   5.163
10272SOL    HW231716   0.758   0.376   5.168
10273SOL     OW31717   4.026   5.506   2.783
10273SOL    HW131718   3.954   5.442   2.808
10273SOL    HW231719   4.023   5.523   2.684
10274SOL     OW31720   6.962   4.817   4.642
10274SOL    HW131721   6.910   4.865   4.712
10274SOL    HW231722   6.901   4.794   4.566
10275SOL     OW31723   0.907   6.676   1.816
10275SOL    HW131724   0.984   6.709   1.870
10275SOL    HW231725   0.887   6.581   1.840
10276SOL     OW31726   5.868   5.193   5.212
10276SOL    HW131727   5.951   5.245   5.237
10276SOL    HW231728   5.867   5.107   5.262
10277SOL     OW31729   2.182   5.550   4.195
10277SOL    HW131730   2.118   5.509   4.260
10277SOL    HW231731   2.205   5.483   4.124
10278SOL     OW31732   6.633   0.636   4.558
10278SOL    HW131733   6.639   0.729   4.595
10278SOL    HW231734   6.681   0.631   4.471
10279SOL     OW31735   2.760   5.507   4.406
10279SOL    HW131736   2.712   5.525   4.492
10279SOL    HW231737   2.807   5.589   4.375
10280SOL     OW31738   1.244   4.392   1.345
10280SOL    HW131739   1.208   4.386   1.251
10280SOL    HW231740   1.343   4.376   1.344
10281SOL     OW31741   6.000   1.236   2.693
10281SOL    HW131742   6.025   1.324   2.733
10281SOL    HW231743   6.081   1.177   2.690
10282SOL     OW31744   6.288   4.041   4.110
10282SOL    HW131745   6.227   3.982   4.164
10282SOL    HW231746   6.234   4.096   4.047
10283SOL     OW31747   0.832   3.631   0.878
10283SOL    HW131748   0.900   3.698   0.905
10283SOL    HW231749   0.786   3.595   0.959
10284SOL     OW31750   5.330   3.211   5.324
10284SOL    HW131751   5.372   3.170   5.244
10284SOL    HW231752   5.236   3.238   5.302
10285SOL     OW31753   5.086   0.969   1.182
10285SOL    HW131754   5.077   1.062   1.145
10285SOL    HW231755   5.138   0.972   1.267
10286SOL     OW31756   3.389   1.828   3.870
10286SOL    HW131757   3.307   1.772   3.877
10286SOL    HW231758   3.369   1.912   3.821
10287SOL     OW31759   2.529   6.282   1.059
10287SOL    HW131760   2.607   6.325   1.013
10287SOL    HW231761   2.445   6.330   1.034
10288SOL     OW31762   5.253   6.012   2.762
10288SOL    HW131763   5.276   6.065   2.681
10288SOL    HW231764   5.263   6.069   2.843
10289SOL     OW31765   3.113   0.796   2.149
10289SOL    HW131766   3.141   0.702   2.130
10289SOL    HW231767   3.039   0.822   2.086
10290SOL     OW31768   2.993   3.441   1.655
10290SOL    HW131769   2.955   3.393   1.576
10290SOL    HW231770   2.930   3.432   1.732
10291SOL     OW31771   3.313   0.953   3.737
10291SOL    HW131772   3.309   0.987   3.643
10291SOL    HW231773   3.305   1.030   3.800
10292SOL     OW31774   1.627   0.504   5.080
10292SOL    HW131775   1.690   0.567   5.035
10292SOL    HW231776   1.555   0.477   5.017
10293SOL     OW31777   1.590   5.174   3.766
10293SOL    HW131778   1.521   5.246   3.767
10293SOL    HW231779   1.563   5.100   3.828
10294SOL     OW31780   5.950   3.500   2.501
10294SOL    HW131781   5.873   3.478   2.560
10294SOL    HW231782   5.938   3.456   2.411
10295SOL     OW31783   5.733   5.179   6.222
10295SOL    HW131784   5.738   5.097   6.165
10295SOL    HW231785   5.652   5.174   6.280
10296SOL     OW31786   4.586   2.854   0.226
10296SOL    HW131787   4.497   2.816   0.251
10296SOL    HW231788   4.614   2.920   0.297
10297SOL     OW31789   2.206   6.575   6.462
10297SOL    HW131790   2.183   6.650   6.400
10297SOL    HW231791   2.148   6.496   6.442
10298SOL     OW31792   3.495   5.040   2.010
10298SOL    HW131793   3.481   5.046   2.109
10298SOL    HW231794   3.523   4.948   1.986
10299SOL     OW31795   4.754   5.352   2.176
10299SOL    HW131796   4.772   5.439   2.222
10299SOL    HW231797   4.808   5.280   2.220
10300SOL     OW31798   1.555   4.693   3.451
10300SOL    HW131799   1.563   4.747   3.366
10300SOL    HW231800   1.466   4.648   3.454
10301SOL     OW31801   5.788   2.039   3.894
10301SOL    HW131802   5.718   2.042   3.965
10301SOL    HW231803   5.797   1.945   3.860
10302SOL     OW31804   0.872   5.603   3.795
10302SOL    HW131805   0.816   5.631   3.873
10302SOL    HW231806   0.829   5.637   3.711
10303SOL     OW31807   1.966   6.033   2.483
10303SOL    HW131808   2.039   6.078   2.432
10303SOL    HW231809   1.928   5.958   2.429
10304SOL     OW31810   5.148   0.522   2.355
10304SOL    HW131811   5.114   0.428   2.360
10304SOL    HW231812   5.089   0.576   2.294
10305SOL     OW31813   0.345   4.834   6.792
10305SOL    HW131814   0.324   4.883   6.877
10305SOL    HW231815   0.355   4.736   6.813
10306SOL     OW31816   4.206   6.488   7.018
10306SOL    HW131817   4.107   6.503   7.020
10306SOL    HW231818   4.228   6.401   0.040
10307SOL     OW31819   2.285   2.337   4.484
10307SOL    HW131820   2.234   2.413   4.445
10307SOL    HW231821   2.241   2.307   4.569
10308SOL     OW31822   2.421   5.043   4.675
10308SOL    HW131823   2.448   4.995   4.758
10308SOL    HW231824   2.446   4.989   4.595
10309SOL     OW31825   5.925   1.443   4.553
10309SOL    HW131826   5.993   1.410   4.488
10309SOL    HW231827   5.969   1.458   4.642
10310SOL     OW31828   4.114   2.928   1.778
10310SOL    HW131829   4.165   2.858   1.727
10310SOL    HW231830   4.128   2.914   1.876
10311SOL     OW31831   0.593   5.993   1.147
10311SOL    HW131832   0.662   5.935   1.191
10311SOL    HW231833   0.573   6.072   1.205
10312SOL     OW31834   2.432   6.385   1.469
10312SOL    HW131835   2.351   6.379   1.412
10312SOL    HW231836   2.427   6.468   1.525
10313SOL     OW31837   4.274   0.139   1.408
10313SOL    HW131838   4.339   0.073   1.369
10313SOL    HW231839   4.191   0.141   1.353
10314SOL     OW31840   6.861   0.416   2.250
10314SOL    HW131841   6.934   0.403   2.317
10314SOL    HW231842   6.901   0.427   2.159
10315SOL     OW31843   6.294   5.614   4.125
10315SOL    HW131844   6.250   5.688   4.073
10315SOL    HW231845   6.251   5.527   4.100
10316SOL     OW31846   6.564   2.381   5.021
10316SOL    HW131847   6.595   2.349   4.932
10316SOL    HW231848   6.482   2.331   5.049
10317SOL     OW31849   3.659   5.809   5.533
10317SOL    HW131850   3.568   5.850   5.532
10317SOL    HW231851   3.654   5.715   5.566
10318SOL     OW31852   5.094   5.977   6.398
10318SOL    HW131853   5.048   5.889   6.397
10318SOL    HW231854   5.076   6.024   6.484
10319SOL     OW31855   1.975   2.754   5.650
10319SOL    HW131856   1.932   2.695   5.581
10319SOL    HW231857   1.921   2.753   5.734
10320SOL     OW31858   0.764   0.802   2.122
10320SOL    HW131859   0.741   0.877   2.060
10320SOL    HW231860   0.772   0.717   2.070
10321SOL     OW31861   4.635   0.698   3.470
10321SOL    HW131862   4.543   0.734   3.484
10321SOL    HW231863   4.687   0.761   3.413
10322SOL     OW31864   6.772   5.888   6.161
10322SOL    HW131865   6.817   5.939   6.088
10322SOL    HW231866   6.755   5.794   6.132
10323SOL     OW31867   6.160   3.216   6.031
10323SOL    HW131868   6.127   3.124   6.053
10323SOL    HW231869   6.118   3.281   6.094
10324SOL     OW31870   2.956   3.242   3.196
10324SOL    HW131871   2.973   3.340   3.184
10324SOL    HW231872   2.982   3.193   3.113
10325SOL     OW31873   6.668   3.807   3.083
10325SOL    HW131874   6.703   3.880   3.142
10325SOL    HW231875   6.628   3.734   3.139
10326SOL     OW31876   3.834   3.674   0.267
10326SOL    HW131877   3.831   3.772   0.247
10326SOL    HW231878   3.926   3.648   0.296
10327SOL     OW31879   2.541   1.710   1.602
10327SOL    HW131880   2.590   1.648   1.541
10327SOL    HW231881   2.599   1.787   1.625
10328SOL     OW31882   5.954   3.013   0.930
10328SOL    HW131883   5.906   2.995   1.016
10328SOL    HW231884   5.931   3.104   0.898
10329SOL     OW31885   3.500   0.625   4.258
10329SOL    HW131886   3.458   0.701   4.209
10329SOL    HW231887   3.597   0.618   4.232
10330SOL     OW31888   3.867   5.670   1.806
10330SOL    HW131889   3.966   5.681   1.796
10330SOL    HW231890   3.841   5.577   1.781
10331SOL     OW31891   6.374   0.694   4.006
10331SOL    HW131892   6.412   0.706   4.098
10331SOL    HW231893   6.442   0.721   3.938
10332SOL     OW31894   5.787   1.461   0.367
10332SOL    HW131895   5.840   1.493   0.445
10332SOL    HW231896   5.824   1.373   0.335
10333SOL     OW31897   6.667   4.638   4.159
10333SOL    HW131898   6.739   4.696   4.123
10333SOL    HW231899   6.696   4.542   4.159
10334SOL     OW31900   2.518   5.894   4.105
10334SOL    HW131901   2.550   5.849   4.188
10334SOL    HW231902   2.421   5.874   4.092
10335SOL     OW31903   2.790   4.872   6.861
10335SOL    HW131904   2.837   4.785   6.878
10335SOL    HW231905   2.702   4.854   6.818
10336SOL     OW31906   5.390   0.079   2.932
10336SOL    HW131907   5.370   0.105   2.838
10336SOL    HW231908   5.463   0.138   2.968
10337SOL     OW31909   6.646   6.350   6.049
10337SOL    HW131910   6.650   6.448   6.070
10337SOL    HW231911   6.652   6.298   6.134
10338SOL     OW31912   2.894   6.041   2.223
10338SOL    HW131913   2.850   6.054   2.134
10338SOL    HW231914   2.993   6.053   2.213
10339SOL     OW31915   2.856   5.447   0.120
10339SOL    HW131916   2.937   5.475   0.170
10339SOL    HW231917   2.790   5.407   0.184
10340SOL     OW31918   1.475   5.373   0.590
10340SOL    HW131919   1.411   5.300   0.567
10340SOL    HW231920   1.568   5.338   0.583
10341SOL     OW31921   2.166   3.530   1.693
10341SOL    HW131922   2.195   3.515   1.788
10341SOL    HW231923   2.215   3.608   1.655
10342SOL     OW31924   1.749   6.056   5.814
10342SOL    HW131925   1.848   6.052   5.798
10342SOL    HW231926   1.703   6.088   5.731
10343SOL     OW31927   2.166   4.079   0.622
10343SOL    HW131928   2.239   4.058   0.686
10343SOL    HW231929   2.200   4.068   0.528
10344SOL     OW31930   4.209   3.381   1.561
10344SOL    HW131931   4.165   3.352   1.646
10344SOL    HW231932   4.254   3.469   1.575
10345SOL     OW31933   1.521   0.868   5.995
10345SOL    HW131934   1.586   0.879   6.070
10345SOL    HW231935   1.507   0.770   5.977
10346SOL     OW31936   6.145   1.206   1.100
10346SOL    HW131937   6.125   1.178   1.006
10346SOL    HW231938   6.104   1.139   1.163
10347SOL     OW31939   5.291   2.490   2.579
10347SOL    HW131940   5.332   2.513   2.491
10347SOL    HW231941   5.210   2.434   2.565
10348SOL     OW31942   6.587   1.797   6.883
10348SOL    HW131943   6.665   1.739   6.909
10348SOL    HW231944   6.519   1.796   6.956
10349SOL     OW31945   6.558   1.504   0.312
10349SOL    HW131946   6.625   1.440   0.349
10349SOL    HW231947   6.485   1.518   0.380
10350SOL     OW31948   2.446   6.447   5.215
10350SOL    HW131949   2.491   6.454   5.304
10350SOL    HW231950   2.355   6.488   5.220
10351SOL     OW31951   5.853   5.290   6.435
10351SOL    HW131952   5.851   5.235   6.351
10351SOL    HW231953   5.799   5.244   6.505
10352SOL     OW31954   5.542   1.566   6.735
10352SOL    HW131955   5.554   1.644   6.673
10352SOL    HW231956   5.571   1.483   6.688
10353SOL     OW31957   6.317   2.372   4.389
10353SOL    HW131958   6.251   2.446   4.379
10353SOL    HW231959   6.356   2.351   4.299
10354SOL     OW31960   0.109   2.137   1.698
10354SOL    HW131961   0.047   2.190   1.641
10354SOL    HW231962   0.071   2.045   1.713
10355SOL     OW31963   1.566   0.425   0.945
10355SOL    HW131964   1.610   0.409   1.034
10355SOL    HW231965   1.627   0.480   0.887
10356SOL     OW31966   6.906   3.456   5.592
10356SOL    HW131967   6.877   3.379   5.536
10356SOL    HW231968   7.001   3.442   5.621
10357SOL     OW31969   3.383   2.574   6.250
10357SOL    HW131970   3.424   2.636   6.184
10357SOL    HW231971   3.448   2.502   6.274
10358SOL     OW31972   0.418   2.941   3.806
10358SOL    HW131973   0.386   2.849   3.781
10358SOL    HW231974   0.340   3.003   3.815
10359SOL     OW31975   5.128   1.502   1.757
10359SOL    HW131976   5.137   1.586   1.703
10359SOL    HW231977   5.032   1.474   1.760
10360SOL     OW31978   5.137   5.804   1.768
10360SOL    HW131979   5.102   5.858   1.691
10360SOL    HW231980   5.096   5.837   1.853
10361SOL     OW31981   2.425   1.137   2.774
10361SOL    HW131982   2.341   1.084   2.789
10361SOL    HW231983   2.443   1.143   2.676
10362SOL     OW31984   0.653   5.142   3.088
10362SOL    HW131985   0.718   5.105   3.021
10362SOL    HW231986   0.600   5.068   3.128
10363SOL     OW31987   4.964   2.955   1.364
10363SOL    HW131988   5.042   2.973   1.424
10363SOL    HW231989   4.909   3.038   1.355
10364SOL     OW31990   4.504   4.205   1.408
10364SOL    HW131991   4.517   4.152   1.325
10364SOL    HW231992   4.415   4.250   1.405
10365SOL     OW31993   5.692   4.550   6.970
10365SOL    HW131994   5.781   4.520   6.937
10365SOL    HW231995   5.622   4.484   6.943
10366SOL     OW31996   3.064   6.935   3.672
10366SOL    HW131997   2.982   6.918   3.726
10366SOL    HW231998   3.114   6.849   3.659
10367SOL     OW31999   0.031   1.543   1.569
10367SOL    HW132000   6.971   1.514   1.617
10367SOL    HW232001   0.092   1.464   1.556
10368SOL     OW32002   1.876   1.400   2.560
10368SOL    HW132003   1.832   1.349   2.486
10368SOL    HW232004   1.813   1.408   2.637
10369SOL     OW32005   3.282   6.963   5.817
10369SOL    HW132006   3.327   6.883   5.778
10369SOL    HW232007   3.330   0.024   5.787
10370SOL     OW32008   6.944   0.786   5.064
10370SOL    HW132009   7.010   0.753   4.996
10370SOL    HW232010   6.854   0.797   5.021
10371SOL     OW32011   2.020   6.747   4.667
10371SOL    HW132012   1.938   6.716   4.618
10371SOL    HW232013   2.037   6.685   4.744
10372SOL     OW32014   2.341   1.238   0.050
10372SOL    HW132015   2.417   1.288   0.008
10372SOL    HW232016   2.359   1.140   0.044
10373SOL     OW32017   1.734   6.753   4.954
10373SOL    HW132018   1.685   6.707   4.880
10373SOL    HW232019   1.678   6.752   5.037
10374SOL     OW32020   3.249   0.682   3.709
10374SOL    HW132021   3.321   0.617   3.731
10374SOL    HW232022   3.280   0.775   3.730
10375SOL     OW32023   2.422   2.513   6.155
10375SOL    HW132024   2.476   2.462   6.088
10375SOL    HW232025   2.334   2.539   6.114
10376SOL     OW32026   1.135   5.830   4.033
10376SOL    HW132027   1.087   5.904   4.078
10376SOL    HW232028   1.104   5.742   4.070
10377SOL     OW32029   0.121   0.561   2.132
10377SOL    HW132030   0.148   0.646   2.088
10377SOL    HW232031   0.095   0.579   2.227
10378SOL     OW32032   5.966   5.826   5.830
10378SOL    HW132033   5.987   5.787   5.919
10378SOL    HW232034   5.867   5.821   5.813
10379SOL     OW32035   3.046   5.957   4.179
10379SOL    HW132036   3.066   6.013   4.259
10379SOL    HW232037   2.953   5.974   4.148
10380SOL     OW32038   0.761   2.496   4.661
10380SOL    HW132039   0.838   2.558   4.677
10380SOL    HW232040   0.735   2.452   4.747
10381SOL     OW32041   4.303   3.970   1.165
10381SOL    HW132042   4.217   4.001   1.206
10381SOL    HW232043   4.300   3.870   1.154
10382SOL     OW32044   2.346   5.261   1.571
10382SOL    HW132045   2.313   5.346   1.528
10382SOL    HW232046   2.382   5.282   1.661
10383SOL     OW32047   1.299   3.918   0.389
10383SOL    HW132048   1.323   3.924   0.486
10383SOL    HW232049   1.230   3.987   0.367
10384SOL     OW32050   6.710   0.042   1.007
10384SOL    HW132051   6.752   6.982   1.045
10384SOL    HW232052   6.621   0.057   1.049
10385SOL     OW32053   3.982   6.154   6.422
10385SOL    HW132054   4.039   6.077   6.395
10385SOL    HW232055   3.903   6.121   6.473
10386SOL     OW32056   6.863   1.037   5.612
10386SOL    HW132057   6.830   1.094   5.536
10386SOL    HW232058   6.959   1.014   5.597
10387SOL     OW32059   4.295   1.755   2.979
10387SOL    HW132060   4.388   1.765   3.016
10387SOL    HW232061   4.245   1.688   3.034
10388SOL     OW32062   2.254   5.586   2.134
10388SOL    HW132063   2.256   5.662   2.199
10388SOL    HW232064   2.185   5.603   2.064
10389SOL     OW32065   6.413   5.230   0.640
10389SOL    HW132066   6.432   5.267   0.731
10389SOL    HW232067   6.360   5.146   0.649
10390SOL     OW32068   1.847   3.804   0.725
10390SOL    HW132069   1.791   3.779   0.804
10390SOL    HW232070   1.904   3.883   0.748
10391SOL     OW32071   0.375   6.121   3.318
10391SOL    HW132072   0.402   6.193   3.254
10391SOL    HW232073   0.427   6.130   3.403
10392SOL     OW32074   6.679   4.708   5.556
10392SOL    HW132075   6.673   4.623   5.608
10392SOL    HW232076   6.602   4.767   5.579
10393SOL     OW32077   2.551   2.527   3.440
10393SOL    HW132078   2.504   2.452   3.487
10393SOL    HW232079   2.609   2.489   3.367
10394SOL     OW32080   2.425   5.390   5.497
10394SOL    HW132081   2.349   5.456   5.496
10394SOL    HW232082   2.482   5.404   5.416
10395SOL     OW32083   0.595   0.696   1.634
10395SOL    HW132084   0.501   0.729   1.632
10395SOL    HW232085   0.648   0.743   1.563
10396SOL     OW32086   3.619   1.242   3.612
10396SOL    HW132087   3.643   1.313   3.546
10396SOL    HW232088   3.523   1.252   3.638
10397SOL     OW32089   2.844   1.399   4.715
10397SOL    HW132090   2.932   1.414   4.670
10397SOL    HW232091   2.850   1.320   4.775
10398SOL     OW32092   5.892   2.196   0.673
10398SOL    HW132093   5.870   2.292   0.661
10398SOL    HW232094   5.820   2.140   0.633
10399SOL     OW32095   4.865   2.051   3.678
10399SOL    HW132096   4.954   2.007   3.683
10399SOL    HW232097   4.866   2.124   3.609
10400SOL     OW32098   4.272   5.850   0.286
10400SOL    HW132099   4.239   5.913   0.356
10400SOL    HW232100   4.200   5.832   0.220
10401SOL     OW32101   0.414   6.714   1.792
10401SOL    HW132102   0.435   6.810   1.812
10401SOL    HW232103   0.464   6.655   1.856
10402SOL     OW32104   0.047   1.240   5.564
10402SOL    HW132105   0.040   1.190   5.477
10402SOL    HW232106   7.018   1.325   5.558
10403SOL     OW32107   4.059   1.901   3.169
10403SOL    HW132108   4.153   1.880   3.143
10403SOL    HW232109   4.058   1.976   3.235
10404SOL     OW32110   6.662   6.302   4.374
10404SOL    HW132111   6.728   6.265   4.309
10404SOL    HW232112   6.705   6.375   4.428
10405SOL     OW32113   1.038   5.889   5.082
10405SOL    HW132114   1.086   5.829   5.145
10405SOL    HW232115   1.088   5.975   5.073
10406SOL     OW32116   2.159   3.156   5.151
10406SOL    HW132117   2.225   3.098   5.104
10406SOL    HW232118   2.184   3.164   5.247
10407SOL     OW32119   2.829   0.045   6.323
10407SOL    HW132120   2.802   0.133   6.286
10407SOL    HW232121   2.747   7.014   6.346
10408SOL     OW32122   4.621   0.061   1.499
10408SOL    HW132123   4.585   0.053   1.406
10408SOL    HW232124   4.708   0.012   1.505
10409SOL     OW32125   6.949   4.386   1.131
10409SOL    HW132126   0.007   4.445   1.128
10409SOL    HW232127   6.868   4.440   1.109
10410SOL     OW32128   5.115   2.414   1.901
10410SOL    HW132129   5.017   2.398   1.888
10410SOL    HW232130   5.128   2.497   1.954
10411SOL     OW32131   3.274   6.149   3.519
10411SOL    HW132132   3.284   6.117   3.424
10411SOL    HW232133   3.216   6.231   3.520
10412SOL     OW32134   0.528   1.123   1.072
10412SOL    HW132135   0.476   1.173   1.003
10412SOL    HW232136   0.594   1.184   1.116
10413SOL     OW32137   6.132   2.831   1.731
10413SOL    HW132138   6.192   2.791   1.801
10413SOL    HW232139   6.166   2.922   1.707
10414SOL     OW32140   3.640   4.698   6.179
10414SOL    HW132141   3.704   4.762   6.137
10414SOL    HW232142   3.560   4.688   6.121
10415SOL     OW32143   1.768   4.499   4.266
10415SOL    HW132144   1.863   4.531   4.276
10415SOL    HW232145   1.706   4.577   4.276
10416SOL     OW32146   5.669   6.951   5.365
10416SOL    HW132147   5.723   6.898   5.431
10416SOL    HW232148   5.620   6.889   5.305
10417SOL     OW32149   4.089   4.837   3.788
10417SOL    HW132150   4.026   4.908   3.820
10417SOL    HW232151   4.122   4.785   3.867
10418SOL     OW32152   6.547   4.691   5.945
10418SOL    HW132153   6.535   4.787   5.919
10418SOL    HW232154   6.595   4.643   5.871
10419SOL     OW32155   3.317   6.635   6.021
10419SOL    HW132156   3.354   6.706   5.962
10419SOL    HW232157   3.218   6.630   6.008
10420SOL     OW32158   0.461   3.690   4.048
10420SOL    HW132159   0.459   3.742   3.963
10420SOL    HW232160   0.369   3.688   4.088
10421SOL     OW32161   0.812   3.573   3.666
10421SOL    HW132162   0.848   3.484   3.695
10421SOL    HW232163   0.867   3.646   3.706
10422SOL     OW32164   6.051   3.323   5.383
10422SOL    HW132165   6.045   3.370   5.471
10422SOL    HW232166   5.959   3.298   5.353
10423SOL     OW32167   5.793   4.778   5.707
10423SOL    HW132168   5.851   4.728   5.772
10423SOL    HW232169   5.829   4.871   5.695
10424SOL     OW32170   3.655   3.128   0.919
10424SOL    HW132171   3.704   3.178   0.990
10424SOL    HW232172   3.681   3.164   0.829
10425SOL     OW32173   1.067   6.523   2.408
10425SOL    HW132174   0.995   6.453   2.409
10425SOL    HW232175   1.026   6.612   2.390
10426SOL     OW32176   5.612   4.819   0.050
10426SOL    HW132177   5.517   4.848   0.063
10426SOL    HW232178   5.613   4.730   0.004
10427SOL     OW32179   4.022   1.298   0.345
10427SOL    HW132180   4.083   1.311   0.266
10427SOL    HW232181   3.930   1.277   0.312
10428SOL     OW32182   3.123   0.841   4.179
10428SOL    HW132183   3.175   0.759   4.153
10428SOL    HW232184   3.087   0.885   4.096
10429SOL     OW32185   6.974   4.276   2.379
10429SOL    HW132186   6.982   4.182   2.412
10429SOL    HW232187   0.028   4.330   2.415
10430SOL     OW32188   4.712   6.940   5.086
10430SOL    HW132189   4.650   7.004   5.132
10430SOL    HW232190   4.661   6.884   5.022
10431SOL     OW32191   2.516   6.299   4.474
10431SOL    HW132192   2.600   6.347   4.448
10431SOL    HW232193   2.507   6.215   4.420
10432SOL     OW32194   6.072   0.126   4.590
10432SOL    HW132195   5.986   0.085   4.620
10432SOL    HW232196   6.136   0.128   4.667
10433SOL     OW32197   0.757   5.965   2.847
10433SOL    HW132198   0.693   5.913   2.790
10433SOL    HW232199   0.708   6.009   2.922
10434SOL     OW32200   3.941   6.155   2.822
10434SOL    HW132201   3.894   6.139   2.735
10434SOL    HW232202   4.034   6.119   2.817
10435SOL     OW32203   0.992   1.641   5.624
10435SOL    HW132204   1.023   1.701   5.551
10435SOL    HW232205   1.070   1.593   5.664
10436SOL     OW32206   6.089   4.747   5.441
10436SOL    HW132207   6.178   4.714   5.409
10436SOL    HW232208   6.022   4.672   5.435
10437SOL     OW32209   4.739   4.282   6.068
10437SOL    HW132210   4.742   4.371   6.112
10437SOL    HW232211   4.721   4.211   6.137
10438SOL     OW32212   0.489   6.274   6.706
10438SOL    HW132213   0.557   6.201   6.707
10438SOL    HW232214   0.529   6.357   6.743
10439SOL     OW32215   4.248   1.278   4.774
10439SOL    HW132216   4.162   1.291   4.825
10439SOL    HW232217   4.247   1.336   4.693
10440SOL     OW32218   0.319   6.783   0.845
10440SOL    HW132219   0.403   6.831   0.871
10440SOL    HW232220   0.312   6.780   0.745
10441SOL     OW32221   4.252   1.546   1.527
10441SOL    HW132222   4.275   1.630   1.576
10441SOL    HW232223   4.257   1.468   1.590
10442SOL     OW32224   4.435   6.565   6.861
10442SOL    HW132225   4.387   6.536   6.944
10442SOL    HW232226   4.405   6.509   6.784
10443SOL     OW32227   4.922   3.381   3.899
10443SOL    HW132228   5.018   3.358   3.915
10443SOL    HW232229   4.899   3.465   3.948
10444SOL     OW32230   4.346   5.868   3.083
10444SOL    HW132231   4.437   5.840   3.114
10444SOL    HW232232   4.277   5.836   3.147
10445SOL     OW32233   0.375   4.420   4.221
10445SOL    HW132234   0.354   4.334   4.268
10445SOL    HW232235   0.419   4.483   4.285
10446SOL     OW32236   2.286   3.370   6.296
10446SOL    HW132237   2.255   3.440   6.360
10446SOL    HW232238   2.356   3.409   6.236
10447SOL     OW32239   0.345   0.773   2.827
10447SOL    HW132240   0.285   0.694   2.816
10447SOL    HW232241   0.332   0.812   2.919
10448SOL     OW32242   4.618   0.839   2.770
10448SOL    HW132243   4.647   0.748   2.800
10448SOL    HW232244   4.679   0.908   2.809
10449SOL     OW32245   1.574   4.921   5.978
10449SOL    HW132246   1.651   4.963   5.931
10449SOL    HW232247   1.551   4.835   5.933
10450SOL     OW32248   0.135   1.287   0.616
10450SOL    HW132249   0.130   1.283   0.716
10450SOL    HW232250   0.229   1.271   0.587
10451SOL     OW32251   2.126   5.724   2.600
10451SOL    HW132252   2.179   5.702   2.681
10451SOL    HW232253   2.151   5.663   2.525
10452SOL     OW32254   6.569   3.284   1.922
10452SOL    HW132255   6.663   3.291   1.890
10452SOL    HW232256   6.539   3.189   1.916
10453SOL     OW32257   5.061   6.867   1.220
10453SOL    HW132258   5.082   6.939   1.287
10453SOL    HW232259   5.049   6.909   1.130
10454SOL     OW32260   5.127   2.969   0.334
10454SOL    HW132261   5.077   2.991   0.250
10454SOL    HW232262   5.217   3.012   0.331
10455SOL     OW32263   6.384   6.646   3.667
10455SOL    HW132264   6.456   6.577   3.660
10455SOL    HW232265   6.296   6.601   3.682
10456SOL     OW32266   1.732   5.292   0.586
10456SOL    HW132267   1.765   5.211   0.537
10456SOL    HW232268   1.763   5.375   0.539
10457SOL     OW32269   3.480   2.830   1.264
10457SOL    HW132270   3.495   2.928   1.282
10457SOL    HW232271   3.561   2.778   1.290
10458SOL     OW32272   6.330   0.458   6.371
10458SOL    HW132273   6.268   0.463   6.294
10458SOL    HW232274   6.408   0.518   6.356
10459SOL     OW32275   4.356   6.248   1.927
10459SOL    HW132276   4.441   6.200   1.907
10459SOL    HW232277   4.316   6.283   1.842
10460SOL     OW32278   0.544   3.981   2.284
10460SOL    HW132279   0.483   4.057   2.305
10460SOL    HW232280   0.493   3.895   2.293
10461SOL     OW32281   6.299   5.152   5.162
10461SOL    HW132282   6.311   5.134   5.260
10461SOL    HW232283   6.236   5.228   5.150
10462SOL     OW32284   4.958   1.282   3.235
10462SOL    HW132285   5.009   1.230   3.167
10462SOL    HW232286   4.938   1.223   3.314
10463SOL     OW32287   4.651   3.241   5.947
10463SOL    HW132288   4.663   3.311   6.018
10463SOL    HW232289   4.581   3.176   5.976
10464SOL     OW32290   6.775   6.609   1.346
10464SOL    HW132291   6.849   6.667   1.378
10464SOL    HW232292   6.693   6.664   1.329
10465SOL     OW32293   6.119   6.139   0.554
10465SOL    HW132294   6.171   6.058   0.581
10465SOL    HW232295   6.169   6.222   0.580
10466SOL     OW32296   4.988   5.285   5.672
10466SOL    HW132297   4.936   5.227   5.609
10466SOL    HW232298   5.082   5.253   5.676
10467SOL     OW32299   2.650   1.270   7.017
10467SOL    HW132300   2.643   1.271   0.094
10467SOL    HW232301   2.698   1.187   6.988
10468SOL     OW32302   4.179   5.258   3.006
10468SOL    HW132303   4.155   5.289   3.097
10468SOL    HW232304   4.206   5.162   3.009
10469SOL     OW32305   4.346   4.617   5.531
10469SOL    HW132306   4.344   4.521   5.560
10469SOL    HW232307   4.312   4.675   5.605
10470SOL     OW32308   2.404   2.765   3.342
10470SOL    HW132309   2.401   2.823   3.423
10470SOL    HW232310   2.456   2.682   3.362
10471SOL     OW32311   3.400   1.243   0.935
10471SOL    HW132312   3.394   1.332   0.890
10471SOL    HW232313   3.399   1.256   1.034
10472SOL     OW32314   3.397   5.618   0.570
10472SOL    HW132315   3.472   5.616   0.504
10472SOL    HW232316   3.431   5.648   0.659
10473SOL     OW32317   6.589   6.927   0.251
10473SOL    HW132318   6.611   6.965   0.161
10473SOL    HW232319   6.664   6.869   0.282
10474SOL     OW32320   3.466   2.074   4.282
10474SOL    HW132321   3.378   2.048   4.322
10474SOL    HW232322   3.452   2.112   4.191
10475SOL     OW32323   4.690   6.842   1.309
10475SOL    HW132324   4.731   6.882   1.391
10475SOL    HW232325   4.726   6.751   1.294
10476SOL     OW32326   6.766   6.212   0.078
10476SOL    HW132327   6.780   6.238   0.174
10476SOL    HW232328   6.847   6.234   0.025
10477SOL     OW32329   6.948   0.973   4.549
10477SOL    HW132330   6.879   0.909   4.516
10477SOL    HW232331   6.911   1.066   4.547
10478SOL     OW32332   6.431   0.770   0.968
10478SOL    HW132333   6.436   0.670   0.968
10478SOL    HW232334   6.336   0.799   0.964
10479SOL     OW32335   0.155   2.288   2.499
10479SOL    HW132336   0.139   2.386   2.503
10479SOL    HW232337   0.078   2.243   2.454
10480SOL     OW32338   6.802   0.232   1.777
10480SOL    HW132339   6.713   0.255   1.737
10480SOL    HW232340   6.788   0.190   1.867
10481SOL     OW32341   2.833   6.890   4.359
10481SOL    HW132342   2.753   6.830   4.354
10481SOL    HW232343   2.811   6.971   4.412
10482SOL     OW32344   6.217   4.849   4.181
10482SOL    HW132345   6.235   4.823   4.086
10482SOL    HW232346   6.121   4.871   4.193
10483SOL     OW32347   6.580   4.693   0.148
10483SOL    HW132348   6.537   4.635   0.217
10483SOL    HW232349   6.514   4.714   0.075
10484SOL     OW32350   6.290   1.741   1.951
10484SOL    HW132351   6.318   1.741   2.047
10484SOL    HW232352   6.205   1.690   1.940
10485SOL     OW32353   3.069   4.056   0.808
10485SOL    HW132354   2.982   4.013   0.782
10485SOL    HW232355   3.054   4.113   0.889
10486SOL     OW32356   0.059   0.509   0.430
10486SOL    HW132357   0.109   0.505   0.516
10486SOL    HW232358   0.103   0.449   0.363
10487SOL     OW32359   4.955   2.099   1.834
10487SOL    HW132360   4.899   2.142   1.762
10487SOL    HW232361   4.934   2.141   1.922
10488SOL     OW32362   3.104   1.462   5.460
10488SOL    HW132363   3.052   1.545   5.439
10488SOL    HW232364   3.084   1.434   5.554
10489SOL     OW32365   0.018   7.015   4.818
10489SOL    HW132366   0.092   0.038   4.867
10489SOL    HW232367   7.002   0.054   4.749
10490SOL     OW32368   5.592   1.980   0.774
10490SOL    HW132369   5.634   2.013   0.689
10490SOL    HW232370   5.525   1.909   0.753
10491SOL     OW32371   2.640   2.386   5.976
10491SOL    HW132372   2.734   2.416   5.986
10491SOL    HW232373   2.631   2.330   5.894
10492SOL     OW32374   5.552   5.833   1.108
10492SOL    HW132375   5.631   5.883   1.072
10492SOL    HW232376   5.539   5.855   1.204
10493SOL     OW32377   3.521   0.222   1.583
10493SOL    HW132378   3.436   0.169   1.590
10493SOL    HW232379   3.509   0.310   1.629
10494SOL     OW32380   6.104   4.323   5.516
10494SOL    HW132381   6.120   4.295   5.610
10494SOL    HW232382   6.026   4.272   5.479
10495SOL     OW32383   1.127   6.302   1.215
10495SOL    HW132384   1.074   6.260   1.289
10495SOL    HW232385   1.173   6.230   1.163
10496SOL     OW32386   6.431   3.549   6.670
10496SOL    HW132387   6.378   3.540   6.754
10496SOL    HW232388   6.386   3.613   6.608
10497SOL     OW32389   1.801   0.229   2.302
10497SOL    HW132390   1.732   0.265   2.365
10497SOL    HW232391   1.787   0.269   2.211
10498SOL     OW32392   5.172   5.505   0.495
10498SOL    HW132393   5.078   5.539   0.503
10498SOL    HW232394   5.224   5.565   0.434
10499SOL     OW32395   4.186   6.886   2.222
10499SOL    HW132396   4.116   6.956   2.205
10499SOL    HW232397   4.269   6.911   2.173
10500SOL     OW32398   6.383   1.404   5.839
10500SOL    HW132399   6.355   1.497   5.816
10500SOL    HW232400   6.431   1.363   5.761
10501SOL     OW32401   2.463   5.752   2.301
10501SOL    HW132402   2.551   5.767   2.346
10501SOL    HW232403   2.460   5.660   2.264
10502SOL     OW32404   2.648   1.729   1.990
10502SOL    HW132405   2.665   1.765   1.898
10502SOL    HW232406   2.556   1.690   1.995
10503SOL     OW32407   4.880   2.756   0.909
10503SOL    HW132408   4.879   2.683   0.976
10503SOL    HW232409   4.966   2.752   0.856
10504SOL     OW32410   1.333   2.453   5.872
10504SOL    HW132411   1.345   2.446   5.773
10504SOL    HW232412   1.422   2.448   5.917
10505SOL     OW32413   5.311   5.224   0.581
10505SOL    HW132414   5.382   5.193   0.517
10505SOL    HW232415   5.273   5.311   0.548
10506SOL     OW32416   0.427   3.812   0.351
10506SOL    HW132417   0.457   3.749   0.280
10506SOL    HW232418   0.385   3.761   0.426
10507SOL     OW32419   1.631   6.488   0.849
10507SOL    HW132420   1.723   6.466   0.882
10507SOL    HW232421   1.634   6.575   0.799
10508SOL     OW32422   6.425   5.627   4.383
10508SOL    HW132423   6.480   5.710   4.392
10508SOL    HW232424   6.368   5.634   4.301
10509SOL     OW32425   6.958   5.446   4.949
10509SOL    HW132426   6.935   5.522   4.887
10509SOL    HW232427   6.891   5.372   4.936
10510SOL     OW32428   4.907   5.738   6.783
10510SOL    HW132429   4.959   5.657   6.757
10510SOL    HW232430   4.961   5.793   6.847
10511SOL     OW32431   3.050   1.143   2.159
10511SOL    HW132432   3.091   1.121   2.247
10511SOL    HW232433   3.075   1.237   2.133
10512SOL     OW32434   4.458   0.829   6.338
10512SOL    HW132435   4.503   0.859   6.254
10512SOL    HW232436   4.472   0.730   6.350
10513SOL     OW32437   5.966   2.515   4.563
10513SOL    HW132438   5.903   2.441   4.585
10513SOL    HW232439   6.060   2.480   4.560
10514SOL     OW32440   0.671   3.045   1.599
10514SOL    HW132441   0.572   3.059   1.605
10514SOL    HW232442   0.704   3.007   1.686
10515SOL     OW32443   0.531   3.342   3.734
10515SOL    HW132444   0.614   3.395   3.716
10515SOL    HW232445   0.495   3.306   3.648
10516SOL     OW32446   4.216   1.576   0.552
10516SOL    HW132447   4.223   1.560   0.453
10516SOL    HW232448   4.159   1.506   0.594
10517SOL     OW32449   0.717   3.245   1.407
10517SOL    HW132450   0.725   3.171   1.473
10517SOL    HW232451   0.686   3.328   1.454
10518SOL     OW32452   6.917   5.745   0.409
10518SOL    HW132453   6.847   5.817   0.405
10518SOL    HW232454   6.880   5.661   0.371
10519SOL     OW32455   3.378   3.665   0.777
10519SOL    HW132456   3.346   3.570   0.773
10519SOL    HW232457   3.407   3.694   0.686
10520SOL     OW32458   0.417   2.138   6.113
10520SOL    HW132459   0.462   2.184   6.036
10520SOL    HW232460   0.465   2.053   6.134
10521SOL     OW32461   6.387   5.548   1.522
10521SOL    HW132462   6.446   5.522   1.599
10521SOL    HW232463   6.393   5.647   1.506
10522SOL     OW32464   0.481   0.358   4.878
10522SOL    HW132465   0.520   0.395   4.794
10522SOL    HW232466   0.441   0.432   4.932
10523SOL     OW32467   0.759   4.507   3.042
10523SOL    HW132468   0.820   4.574   3.002
10523SOL    HW232469   0.740   4.434   2.976
10524SOL     OW32470   0.565   0.018   3.632
10524SOL    HW132471   0.561   6.963   3.569
10524SOL    HW232472   0.522   7.015   3.719
10525SOL     OW32473   4.748   0.570   5.875
10525SOL    HW132474   4.732   0.552   5.778
10525SOL    HW232475   4.686   0.642   5.906
10526SOL     OW32476   1.508   6.856   3.188
10526SOL    HW132477   1.411   6.849   3.210
10526SOL    HW232478   1.551   6.766   3.198
10527SOL     OW32479   0.734   1.386   5.286
10527SOL    HW132480   0.790   1.303   5.294
10527SOL    HW232481   0.637   1.361   5.285
10528SOL     OW32482   1.479   3.269   6.178
10528SOL    HW132483   1.543   3.294   6.250
10528SOL    HW232484   1.420   3.195   6.210
10529SOL     OW32485   2.751   6.514   4.126
10529SOL    HW132486   2.731   6.497   4.222
10529SOL    HW232487   2.830   6.460   4.097
10530SOL     OW32488   1.504   6.942   6.421
10530SOL    HW132489   1.518   6.989   6.334
10530SOL    HW232490   1.519   7.006   6.497
10531SOL     OW32491   1.734   2.919   4.705
10531SOL    HW132492   1.829   2.933   4.680
10531SOL    HW232493   1.711   2.822   4.698
10532SOL     OW32494   1.087   6.876   6.104
10532SOL    HW132495   1.016   6.871   6.035
10532SOL    HW232496   1.070   6.955   6.164
10533SOL     OW32497   3.043   6.758   3.385
10533SOL    HW132498   3.111   6.765   3.458
10533SOL    HW232499   3.088   6.728   3.300
10534SOL     OW32500   6.462   5.619   1.786
10534SOL    HW132501   6.375   5.619   1.837
10534SOL    HW232502   6.479   5.710   1.750
10535SOL     OW32503   1.257   2.016   1.664
10535SOL    HW132504   1.296   2.103   1.633
10535SOL    HW232505   1.160   2.014   1.642
10536SOL     OW32506   3.840   1.141   4.026
10536SOL    HW132507   3.754   1.102   4.059
10536SOL    HW232508   3.843   1.136   3.926
10537SOL     OW32509   4.334   5.935   3.976
10537SOL    HW132510   4.356   5.937   3.878
10537SOL    HW232511   4.248   5.983   3.992
10538SOL     OW32512   5.622   3.297   0.653
10538SOL    HW132513   5.542   3.331   0.604
10538SOL    HW232514   5.696   3.364   0.646
10539SOL     OW32515   0.912   4.784   6.889
10539SOL    HW132516   0.857   4.843   6.831
10539SOL    HW232517   0.851   4.724   6.941
10540SOL     OW32518   1.407   2.782   6.078
10540SOL    HW132519   1.435   2.752   5.986
10540SOL    HW232520   1.378   2.702   6.131
10541SOL     OW32521   3.379   3.658   1.891
10541SOL    HW132522   3.307   3.611   1.840
10541SOL    HW232523   3.449   3.689   1.828
10542SOL     OW32524   0.303   0.751   5.406
10542SOL    HW132525   0.240   0.711   5.472
10542SOL    HW232526   0.379   0.794   5.455
10543SOL     OW32527   0.222   1.727   4.965
10543SOL    HW132528   0.266   1.814   4.941
10543SOL    HW232529   0.275   1.682   5.038
10544SOL     OW32530   2.520   6.703   2.050
10544SOL    HW132531   2.595   6.640   2.069
10544SOL    HW232532   2.457   6.661   1.984
10545SOL     OW32533   0.215   1.954   1.320
10545SOL    HW132534   0.132   1.898   1.315
10545SOL    HW232535   0.243   1.980   1.227
10546SOL     OW32536   1.390   0.257   0.844
10546SOL    HW132537   1.386   0.170   0.895
10546SOL    HW232538   1.446   0.322   0.895
10547SOL     OW32539   5.085   3.106   3.014
10547SOL    HW132540   5.161   3.058   3.057
10547SOL    HW232541   5.086   3.088   2.915
10548SOL     OW32542   6.071   4.489   4.173
10548SOL    HW132543   6.062   4.529   4.264
10548SOL    HW232544   6.010   4.410   4.166
10549SOL     OW32545   0.888   0.387   1.944
10549SOL    HW132546   0.816   0.330   1.903
10549SOL    HW232547   0.933   0.440   1.873
10550SOL     OW32548   4.402   6.970   3.867
10550SOL    HW132549   4.398   6.941   3.772
10550SOL    HW232550   4.489   6.941   3.907
10551SOL     OW32551   1.526   2.577   0.176
10551SOL    HW132552   1.564   2.485   0.190
10551SOL    HW232553   1.590   2.632   0.123
10552SOL     OW32554   2.416   0.809   5.689
10552SOL    HW132555   2.428   0.823   5.591
10552SOL    HW232556   2.349   0.874   5.725
10553SOL     OW32557   0.432   4.426   1.451
10553SOL    HW132558   0.335   4.451   1.441
10553SOL    HW232559   0.467   4.462   1.538
10554SOL     OW32560   5.959   4.806   0.929
10554SOL    HW132561   5.889   4.818   0.859
10554SOL    HW232562   5.963   4.887   0.988
10555SOL     OW32563   2.085   2.509   0.100
10555SOL    HW132564   2.097   2.554   0.189
10555SOL    HW232565   1.989   2.509   0.075
10556SOL     OW32566   1.866   1.769   5.133
10556SOL    HW132567   1.869   1.866   5.106
10556SOL    HW232568   1.770   1.742   5.144
10557SOL     OW32569   1.721   3.067   3.329
10557SOL    HW132570   1.649   3.085   3.263
10557SOL    HW232571   1.807   3.105   3.296
10558SOL     OW32572   4.156   0.084   4.554
10558SOL    HW132573   4.069   0.128   4.576
10558SOL    HW232574   4.144   0.021   4.478
10559SOL     OW32575   5.079   0.787   1.660
10559SOL    HW132576   5.083   0.815   1.564
10559SOL    HW232577   5.156   0.728   1.682
10560SOL     OW32578   4.550   6.758   2.355
10560SOL    HW132579   4.623   6.759   2.424
10560SOL    HW232580   4.574   6.819   2.280
10561SOL     OW32581   3.761   4.386   1.707
10561SOL    HW132582   3.666   4.387   1.741
10561SOL    HW232583   3.821   4.425   1.777
10562SOL     OW32584   3.871   5.534   6.866
10562SOL    HW132585   3.829   5.536   6.775
10562SOL    HW232586   3.922   5.449   6.877
10563SOL     OW32587   0.084   1.269   3.325
10563SOL    HW132588   0.157   1.202   3.340
10563SOL    HW232589   0.120   1.361   3.340
10564SOL     OW32590   6.052   6.043   2.969
10564SOL    HW132591   6.062   6.142   2.960
10564SOL    HW232592   6.141   6.000   2.959
10565SOL     OW32593   0.875   6.539   5.736
10565SOL    HW132594   0.963   6.575   5.766
10565SOL    HW232595   0.848   6.463   5.795
10566SOL     OW32596   3.352   1.609   6.803
10566SOL    HW132597   3.321   1.695   6.842
10566SOL    HW232598   3.450   1.614   6.784
10567SOL     OW32599   2.562   2.086   4.978
10567SOL    HW132600   2.630   2.119   5.045
10567SOL    HW232601   2.606   2.074   4.889
10568SOL     OW32602   6.823   3.116   1.534
10568SOL    HW132603   6.878   3.153   1.609
10568SOL    HW232604   6.731   3.097   1.567
10569SOL     OW32605   6.142   1.247   2.404
10569SOL    HW132606   6.111   1.287   2.318
10569SOL    HW232607   6.090   1.287   2.480
10570SOL     OW32608   1.063   4.590   2.878
10570SOL    HW132609   1.127   4.643   2.822
10570SOL    HW232610   1.033   4.645   2.955
10571SOL     OW32611   6.881   4.447   5.063
10571SOL    HW132612   6.875   4.544   5.040
10571SOL    HW232613   6.897   4.394   4.980
10572SOL     OW32614   6.402   4.018   3.292
10572SOL    HW132615   6.306   4.046   3.290
10572SOL    HW232616   6.437   4.027   3.386
10573SOL     OW32617   5.700   0.626   5.029
10573SOL    HW132618   5.766   0.624   5.104
10573SOL    HW232619   5.609   0.645   5.065
10574SOL     OW32620   1.273   1.566   4.120
10574SOL    HW132621   1.274   1.474   4.161
10574SOL    HW232622   1.183   1.606   4.131
10575SOL     OW32623   0.079   1.019   3.728
10575SOL    HW132624   0.102   1.057   3.818
10575SOL    HW232625   0.017   1.083   3.681
10576SOL     OW32626   6.979   5.827   5.253
10576SOL    HW132627   6.963   5.779   5.338
10576SOL    HW232628   6.913   5.901   5.243
10577SOL     OW32629   2.019   4.642   0.302
10577SOL    HW132630   1.963   4.641   0.219
10577SOL    HW232631   2.016   4.733   0.344
10578SOL     OW32632   4.578   1.737   2.836
10578SOL    HW132633   4.495   1.775   2.795
10578SOL    HW232634   4.581   1.761   2.934
10579SOL     OW32635   4.566   2.973   1.469
10579SOL    HW132636   4.476   2.982   1.427
10579SOL    HW232637   4.587   3.056   1.520
10580SOL     OW32638   6.598   0.531   6.599
10580SOL    HW132639   6.568   0.625   6.610
10580SOL    HW232640   6.600   0.508   6.501
10581SOL     OW32641   5.748   6.874   3.039
10581SOL    HW132642   5.671   6.846   3.097
10581SOL    HW232643   5.713   6.907   2.951
10582SOL     OW32644   4.754   4.598   6.001
10582SOL    HW132645   4.847   4.619   5.974
10582SOL    HW232646   4.698   4.581   5.920
10583SOL     OW32647   3.567   1.336   4.004
10583SOL    HW132648   3.492   1.383   3.957
10583SOL    HW232649   3.593   1.388   4.086
10584SOL     OW32650   6.610   0.295   0.403
10584SOL    HW132651   6.547   0.355   0.355
10584SOL    HW232652   6.704   0.316   0.375
10585SOL     OW32653   2.739   1.880   5.243
10585SOL    HW132654   2.761   1.976   5.226
10585SOL    HW232655   2.800   1.844   5.315
10586SOL     OW32656   6.215   4.915   4.906
10586SOL    HW132657   6.196   4.914   5.004
10586SOL    HW232658   6.289   4.850   4.886
10587SOL     OW32659   6.473   4.775   6.903
10587SOL    HW132660   6.502   4.844   6.837
10587SOL    HW232661   6.382   4.741   6.878
10588SOL     OW32662   1.476   3.294   4.601
10588SOL    HW132663   1.576   3.291   4.612
10588SOL    HW232664   1.438   3.205   4.626
10589SOL     OW32665   6.333   1.487   4.755
10589SOL    HW132666   6.409   1.442   4.802
10589SOL    HW232667   6.355   1.497   4.658
10590SOL     OW32668   0.601   0.319   1.037
10590SOL    HW132669   0.647   0.248   0.984
10590SOL    HW232670   0.646   0.329   1.126
10591SOL     OW32671   2.012   2.025   6.825
10591SOL    HW132672   1.948   2.099   6.808
10591SOL    HW232673   2.101   2.063   6.850
10592SOL     OW32674   6.051   3.753   2.610
10592SOL    HW132675   6.015   3.667   2.575
10592SOL    HW232676   6.151   3.747   2.616
10593SOL     OW32677   2.023   6.358   0.411
10593SOL    HW132678   1.965   6.439   0.423
10593SOL    HW232679   2.022   6.329   0.315
10594SOL     OW32680   4.955   0.861   3.081
10594SOL    HW132681   5.023   0.820   3.143
10594SOL    HW232682   4.928   0.794   3.013
10595SOL     OW32683   5.205   6.418   0.186
10595SOL    HW132684   5.217   6.511   0.220
10595SOL    HW232685   5.135   6.417   0.114
10596SOL     OW32686   4.737   0.945   0.293
10596SOL    HW132687   4.745   0.872   0.225
10596SOL    HW232688   4.642   0.956   0.320
10597SOL     OW32689   3.115   1.127   5.604
10597SOL    HW132690   3.165   1.206   5.639
10597SOL    HW232691   3.058   1.155   5.527
10598SOL     OW32692   3.596   2.872   0.254
10598SOL    HW132693   3.635   2.858   0.163
10598SOL    HW232694   3.614   2.966   0.284
10599SOL     OW32695   5.204   3.499   6.165
10599SOL    HW132696   5.179   3.456   6.079
10599SOL    HW232697   5.191   3.435   6.240
10600SOL     OW32698   3.404   2.517   0.573
10600SOL    HW132699   3.367   2.578   0.644
10600SOL    HW232700   3.392   2.560   0.483
10601SOL     OW32701   1.725   4.642   5.330
10601SOL    HW132702   1.648   4.702   5.353
10601SOL    HW232703   1.693   4.547   5.329
10602SOL     OW32704   2.219   0.941   1.896
10602SOL    HW132705   2.162   0.890   1.831
10602SOL    HW232706   2.310   0.900   1.899
10603SOL     OW32707   3.776   0.413   3.342
10603SOL    HW132708   3.810   0.447   3.254
10603SOL    HW232709   3.851   0.375   3.396
10604SOL     OW32710   6.256   5.988   5.242
10604SOL    HW132711   6.292   5.895   5.251
10604SOL    HW232712   6.308   6.037   5.173
10605SOL     OW32713   2.206   6.548   6.752
10605SOL    HW132714   2.280   6.585   6.808
10605SOL    HW232715   2.217   6.577   6.657
10606SOL     OW32716   0.403   0.442   1.598
10606SOL    HW132717   0.498   0.416   1.609
10606SOL    HW232718   0.382   0.453   1.501
10607SOL     OW32719   4.407   5.034   5.641
10607SOL    HW132720   4.370   4.986   5.721
10607SOL    HW232721   4.473   5.103   5.672
10608SOL     OW32722   6.136   3.092   5.159
10608SOL    HW132723   6.160   3.083   5.063
10608SOL    HW232724   6.037   3.098   5.168
10609SOL     OW32725   2.642   6.591   6.726
10609SOL    HW132726   2.586   6.599   6.809
10609SOL    HW232727   2.647   6.495   6.699
10610SOL     OW32728   0.789   2.362   4.427
10610SOL    HW132729   0.873   2.319   4.461
10610SOL    HW232730   0.756   2.429   4.493
10611SOL     OW32731   2.214   3.992   6.919
10611SOL    HW132732   2.161   3.929   6.862
10611SOL    HW232733   2.216   4.082   6.876
10612SOL     OW32734   3.477   1.727   4.873
10612SOL    HW132735   3.448   1.729   4.777
10612SOL    HW232736   3.519   1.638   4.892
10613SOL     OW32737   5.341   5.681   5.388
10613SOL    HW132738   5.258   5.705   5.337
10613SOL    HW232739   5.393   5.614   5.335
10614SOL     OW32740   5.035   1.941   5.008
10614SOL    HW132741   5.052   1.968   5.103
10614SOL    HW232742   4.961   1.997   4.971
10615SOL     OW32743   4.428   0.496   5.527
10615SOL    HW132744   4.433   0.495   5.427
10615SOL    HW232745   4.334   0.513   5.557
10616SOL     OW32746   2.051   6.829   0.226
10616SOL    HW132747   2.088   6.921   0.212
10616SOL    HW232748   2.049   6.808   0.323
10617SOL     OW32749   3.063   3.960   1.499
10617SOL    HW132750   3.057   3.974   1.400
10617SOL    HW232751   3.069   3.862   1.518
10618SOL     OW32752   1.039   3.437   5.780
10618SOL    HW132753   1.113   3.481   5.731
10618SOL    HW232754   1.006   3.497   5.852
10619SOL     OW32755   0.365   3.076   2.563
10619SOL    HW132756   0.349   2.983   2.530
10619SOL    HW232757   0.379   3.137   2.485
10620SOL     OW32758   1.200   6.138   5.114
10620SOL    HW132759   1.230   6.136   5.019
10620SOL    HW232760   1.130   6.209   5.126
10621SOL     OW32761   0.639   4.980   1.837
10621SOL    HW132762   0.709   4.916   1.868
10621SOL    HW232763   0.684   5.061   1.798
10622SOL     OW32764   5.129   1.848   2.069
10622SOL    HW132765   5.211   1.903   2.089
10622SOL    HW232766   5.085   1.883   1.986
10623SOL     OW32767   0.333   4.774   5.593
10623SOL    HW132768   0.342   4.685   5.636
10623SOL    HW232769   0.276   4.833   5.650
10624SOL     OW32770   1.439   2.495   4.717
10624SOL    HW132771   1.363   2.541   4.763
10624SOL    HW232772   1.506   2.466   4.785
10625SOL     OW32773   0.720   4.626   0.940
10625SOL    HW132774   0.774   4.668   0.867
10625SOL    HW232775   0.729   4.681   1.023
10626SOL     OW32776   2.703   2.874   0.688
10626SOL    HW132777   2.695   2.815   0.768
10626SOL    HW232778   2.655   2.832   0.611
10627SOL     OW32779   4.754   0.288   0.668
10627SOL    HW132780   4.833   0.239   0.706
10627SOL    HW232781   4.760   0.384   0.693
10628SOL     OW32782   4.730   6.337   0.028
10628SOL    HW132783   4.670   6.357   0.105
10628SOL    HW232784   4.752   6.423   7.002
10629SOL     OW32785   2.444   4.903   4.919
10629SOL    HW132786   2.453   4.939   5.012
10629SOL    HW232787   2.498   4.819   4.911
10630SOL     OW32788   5.900   1.350   4.097
10630SOL    HW132789   5.811   1.308   4.080
10630SOL    HW232790   5.912   1.363   4.195
10631SOL     OW32791   3.171   5.221   5.420
10631SOL    HW132792   3.152   5.248   5.325
10631SOL    HW232793   3.094   5.167   5.454
10632SOL     OW32794   5.360   1.060   3.515
10632SOL    HW132795   5.375   1.137   3.577
10632SOL    HW232796   5.448   1.022   3.488
10633SOL     OW32797   2.203   2.358   0.630
10633SOL    HW132798   2.105   2.375   0.622
10633SOL    HW232799   2.220   2.260   0.617
10634SOL     OW32800   3.465   4.257   0.315
10634SOL    HW132801   3.465   4.297   0.406
10634SOL    HW232802   3.456   4.158   0.322
10635SOL     OW32803   1.781   3.398   0.643
10635SOL    HW132804   1.691   3.374   0.680
10635SOL    HW232805   1.853   3.354   0.697
10636SOL     OW32806   0.699   2.280   1.214
10636SOL    HW132807   0.710   2.210   1.285
10636SOL    HW232808   0.763   2.263   1.139
10637SOL     OW32809   2.084   4.433   5.935
10637SOL    HW132810   2.024   4.395   6.005
10637SOL    HW232811   2.123   4.359   5.881
10638SOL     OW32812   6.194   5.670   2.661
10638SOL    HW132813   6.197   5.576   2.694
10638SOL    HW232814   6.234   5.675   2.570
10639SOL     OW32815   1.082   3.216   3.116
10639SOL    HW132816   1.150   3.162   3.166
10639SOL    HW232817   1.074   3.307   3.158
10640SOL     OW32818   3.856   0.210   4.866
10640SOL    HW132819   3.931   0.249   4.919
10640SOL    HW232820   3.784   0.278   4.856
10641SOL     OW32821   2.463   2.213   2.076
10641SOL    HW132822   2.563   2.218   2.083
10641SOL    HW232823   2.435   2.248   1.987
10642SOL     OW32824   6.238   2.626   1.597
10642SOL    HW132825   6.326   2.645   1.552
10642SOL    HW232826   6.197   2.712   1.628
10643SOL     OW32827   1.908   5.488   5.181
10643SOL    HW132828   1.835   5.431   5.219
10643SOL    HW232829   1.956   5.438   5.109
10644SOL     OW32830   5.896   2.782   2.567
10644SOL    HW132831   5.955   2.861   2.548
10644SOL    HW232832   5.830   2.806   2.638
10645SOL     OW32833   1.871   2.787   5.064
10645SOL    HW132834   1.780   2.747   5.053
10645SOL    HW232835   1.940   2.717   5.046
10646SOL     OW32836   0.777   0.298   6.818
10646SOL    HW132837   0.857   0.331   6.767
10646SOL    HW232838   0.757   0.361   6.893
10647SOL     OW32839   2.861   5.328   4.773
10647SOL    HW132840   2.908   5.244   4.745
10647SOL    HW232841   2.812   5.312   4.858
10648SOL     OW32842   5.940   3.977   5.944
10648SOL    HW132843   5.851   3.944   5.912
10648SOL    HW232844   5.938   3.987   6.043
10649SOL     OW32845   0.168   4.444   2.445
10649SOL    HW132846   0.235   4.498   2.393
10649SOL    HW232847   0.142   4.494   2.527
10650SOL     OW32848   0.664   0.360   3.900
10650SOL    HW132849   0.695   0.299   3.827
10650SOL    HW232850   0.667   0.313   3.988
10651SOL     OW32851   5.611   6.659   0.193
10651SOL    HW132852   5.593   6.581   0.253
10651SOL    HW232853   5.548   6.657   0.115
10652SOL     OW32854   3.614   6.986   5.524
10652SOL    HW132855   3.622   0.057   5.489
10652SOL    HW232856   3.706   6.947   5.537
10653SOL     OW32857   4.117   4.959   3.014
10653SOL    HW132858   4.170   4.883   2.976
10653SOL    HW232859   4.024   4.927   3.034
10654SOL     OW32860   5.554   1.035   0.708
10654SOL    HW132861   5.648   1.061   0.729
10654SOL    HW232862   5.497   1.048   0.788
10655SOL     OW32863   2.398   5.605   1.078
10655SOL    HW132864   2.308   5.592   1.036
10655SOL    HW232865   2.463   5.540   1.038
10656SOL     OW32866   6.904   2.235   2.622
10656SOL    HW132867   6.945   2.154   2.579
10656SOL    HW232868   6.811   2.212   2.653
10657SOL     OW32869   6.349   0.254   5.794
10657SOL    HW132870   6.383   0.177   5.739
10657SOL    HW232871   6.326   0.222   5.886
10658SOL     OW32872   6.240   5.162   4.741
10658SOL    HW132873   6.218   5.077   4.787
10658SOL    HW232874   6.174   5.180   4.669
10659SOL     OW32875   0.414   5.311   1.276
10659SOL    HW132876   0.378   5.363   1.198
10659SOL    HW232877   0.399   5.214   1.261
10660SOL     OW32878   5.030   4.286   6.479
10660SOL    HW132879   4.994   4.256   6.568
10660SOL    HW232880   5.068   4.208   6.430
10661SOL     OW32881   1.295   6.320   1.580
10661SOL    HW132882   1.374   6.362   1.536
10661SOL    HW232883   1.265   6.376   1.656
10662SOL     OW32884   5.419   6.492   2.960
10662SOL    HW132885   5.414   6.573   2.903
10662SOL    HW232886   5.444   6.518   3.053
10663SOL     OW32887   0.542   1.782   2.061
10663SOL    HW132888   0.498   1.872   2.067
10663SOL    HW232889   0.640   1.793   2.048
10664SOL     OW32890   6.735   4.123   4.953
10664SOL    HW132891   6.750   4.193   4.882
10664SOL    HW232892   6.819   4.109   5.005
10665SOL     OW32893   0.870   1.533   0.644
10665SOL    HW132894   0.825   1.446   0.624
10665SOL    HW232895   0.805   1.608   0.633
10666SOL     OW32896   3.522   4.273   1.787
10666SOL    HW132897   3.509   4.247   1.882
10666SOL    HW232898   3.478   4.206   1.727
10667SOL     OW32899   3.852   3.032   5.723
10667SOL    HW132900   3.828   3.013   5.628
10667SOL    HW232901   3.910   2.958   5.757
10668SOL     OW32902   2.617   0.387   5.030
10668SOL    HW132903   2.537   0.440   5.002
10668SOL    HW232904   2.697   0.446   5.032
10669SOL     OW32905   5.551   6.712   0.868
10669SOL    HW132906   5.550   6.669   0.958
10669SOL    HW232907   5.501   6.656   0.803
10670SOL     OW32908   5.212   4.095   4.866
10670SOL    HW132909   5.156   4.178   4.865
10670SOL    HW232910   5.180   4.034   4.939
10671SOL     OW32911   2.873   2.288   3.164
10671SOL    HW132912   2.887   2.298   3.066
10671SOL    HW232913   2.799   2.347   3.194
10672SOL     OW32914   6.510   2.795   0.847
10672SOL    HW132915   6.567   2.761   0.772
10672SOL    HW232916   6.414   2.773   0.829
10673SOL     OW32917   1.261   1.443   6.219
10673SOL    HW132918   1.176   1.398   6.191
10673SOL    HW232919   1.277   1.522   6.160
10674SOL     OW32920   3.505   4.134   2.037
10674SOL    HW132921   3.439   4.060   2.031
10674SOL    HW232922   3.476   4.199   2.107
10675SOL     OW32923   1.717   6.740   6.510
10675SOL    HW132924   1.706   6.642   6.525
10675SOL    HW232925   1.629   6.779   6.481
10676SOL     OW32926   6.634   6.126   6.248
10676SOL    HW132927   6.659   6.033   6.223
10676SOL    HW232928   6.716   6.184   6.249
10677SOL     OW32929   1.265   0.937   2.282
10677SOL    HW132930   1.266   0.945   2.381
10677SOL    HW232931   1.251   0.841   2.256
10678SOL     OW32932   3.640   5.906   4.102
10678SOL    HW132933   3.551   5.939   4.133
10678SOL    HW232934   3.707   5.917   4.174
10679SOL     OW32935   4.441   6.008   6.277
10679SOL    HW132936   4.499   5.990   6.197
10679SOL    HW232937   4.444   6.105   6.299
10680SOL     OW32938   2.933   1.857   2.756
10680SOL    HW132939   3.010   1.887   2.700
10680SOL    HW232940   2.847   1.884   2.711
10681SOL     OW32941   0.795   3.441   0.219
10681SOL    HW132942   0.806   3.541   0.214
10681SOL    HW232943   0.756   3.416   0.308
10682SOL     OW32944   1.945   1.120   4.748
10682SOL    HW132945   1.921   1.066   4.668
10682SOL    HW232946   1.979   1.210   4.719
10683SOL     OW32947   3.462   1.940   3.456
10683SOL    HW132948   3.385   1.898   3.505
10683SOL    HW232949   3.539   1.877   3.455
10684SOL     OW32950   5.181   4.174   0.884
10684SOL    HW132951   5.173   4.075   0.874
10684SOL    HW232952   5.090   4.215   0.878
10685SOL     OW32953   0.542   5.497   2.610
10685SOL    HW132954   0.495   5.512   2.522
10685SOL    HW232955   0.517   5.407   2.645
10686SOL     OW32956   1.202   5.015   6.279
10686SOL    HW132957   1.282   5.000   6.337
10686SOL    HW232958   1.230   5.064   6.196
10687SOL     OW32959   6.948   5.168   1.769
10687SOL    HW132960   6.855   5.156   1.803
10687SOL    HW232961   7.011   5.111   1.822
10688SOL     OW32962   6.155   4.566   3.002
10688SOL    HW132963   6.173   4.479   2.955
10688SOL    HW232964   6.078   4.555   3.065
10689SOL     OW32965   0.591   6.151   3.489
10689SOL    HW132966   0.601   6.077   3.555
10689SOL    HW232967   0.626   6.236   3.530
10690SOL     OW32968   0.446   6.298   3.115
10690SOL    HW132969   0.505   6.366   3.157
10690SOL    HW232970   0.436   6.318   3.018
10691SOL     OW32971   0.280   2.176   2.186
10691SOL    HW132972   0.252   2.110   2.255
10691SOL    HW232973   0.363   2.144   2.140
10692SOL     OW32974   2.800   5.732   3.225
10692SOL    HW132975   2.751   5.819   3.223
10692SOL    HW232976   2.771   5.676   3.147
10693SOL     OW32977   2.377   0.183   0.047
10693SOL    HW132978   2.476   0.170   0.033
10693SOL    HW232979   2.347   0.264   7.018
10694SOL     OW32980   5.163   6.492   1.853
10694SOL    HW132981   5.093   6.427   1.823
10694SOL    HW232982   5.119   6.578   1.879
10695SOL     OW32983   5.147   2.194   3.085
10695SOL    HW132984   5.067   2.214   3.027
10695SOL    HW232985   5.214   2.143   3.032
10696SOL     OW32986   6.983   3.572   3.881
10696SOL    HW132987   6.929   3.582   3.964
10696SOL    HW232988   6.943   3.627   3.808
10697SOL     OW32989   0.358   6.337   4.488
10697SOL    HW132990   0.320   6.426   4.461
10697SOL    HW232991   0.290   6.265   4.471
10698SOL     OW32992   4.226   5.766   5.034
10698SOL    HW132993   4.171   5.848   5.052
10698SOL    HW232994   4.304   5.790   4.976
10699SOL     OW32995   3.897   3.000   1.964
10699SOL    HW132996   3.904   3.002   1.865
10699SOL    HW232997   3.814   2.952   1.991
10700SOL     OW32998   0.034   6.711   1.360
10700SOL    HW132999   0.095   6.692   1.283
10700SOL    HW233000   0.047   6.641   1.431
10701SOL     OW33001   3.263   5.763   0.190
10701SOL    HW133002   3.339   5.707   0.156
10701SOL    HW233003   3.236   5.828   0.119
10702SOL     OW33004   5.910   3.086   1.911
10702SOL    HW133005   5.825   3.121   1.950
10702SOL    HW233006   5.939   3.145   1.836
10703SOL     OW33007   3.375   4.031   5.221
10703SOL    HW133008   3.369   4.130   5.233
10703SOL    HW233009   3.398   4.010   5.126
10704SOL     OW33010   6.637   5.317   1.615
10704SOL    HW133011   6.626   5.262   1.698
10704SOL    HW233012   6.617   5.260   1.535
10705SOL     OW33013   6.218   4.396   1.848
10705SOL    HW133014   6.179   4.483   1.880
10705SOL    HW233015   6.176   4.320   1.898
10706SOL     OW33016   4.785   0.014   2.471
10706SOL    HW133017   4.857   0.059   2.418
10706SOL    HW233018   4.705   0.001   2.413
10707SOL     OW33019   0.375   6.381   3.651
10707SOL    HW133020   0.470   6.380   3.620
10707SOL    HW233021   0.337   6.288   3.647
10708SOL     OW33022   4.211   0.915   2.550
10708SOL    HW133023   4.309   0.922   2.570
10708SOL    HW233024   4.198   0.866   2.464
10709SOL     OW33025   5.994   6.795   5.416
10709SOL    HW133026   6.080   6.777   5.464
10709SOL    HW233027   5.919   6.802   5.482
10710SOL     OW33028   0.312   6.673   4.924
10710SOL    HW133029   0.387   6.612   4.947
10710SOL    HW233030   0.231   6.648   4.976
10711SOL     OW33031   1.842   5.607   3.576
10711SOL    HW133032   1.837   5.615   3.476
10711SOL    HW233033   1.846   5.698   3.616
10712SOL     OW33034   2.431   0.863   1.337
10712SOL    HW133035   2.404   0.777   1.294
10712SOL    HW233036   2.357   0.893   1.398
10713SOL     OW33037   1.008   3.831   1.438
10713SOL    HW133038   0.908   3.837   1.429
10713SOL    HW233039   1.049   3.822   1.347
10714SOL     OW33040   6.180   3.765   5.051
10714SOL    HW133041   6.271   3.801   5.070
10714SOL    HW233042   6.188   3.674   5.011
10715SOL     OW33043   4.830   6.906   2.963
10715SOL    HW133044   4.844   6.980   3.030
10715SOL    HW233045   4.821   6.945   2.872
10716SOL     OW33046   5.889   2.761   4.716
10716SOL    HW133047   5.904   2.676   4.665
10716SOL    HW233048   5.799   2.798   4.693
10717SOL     OW33049   1.161   2.582   0.959
10717SOL    HW133050   1.188   2.493   0.922
10717SOL    HW233051   1.080   2.570   1.017
10718SOL     OW33052   0.864   2.939   6.338
10718SOL    HW133053   0.778   2.906   6.300
10718SOL    HW233054   0.928   2.862   6.347
10719SOL     OW33055   5.175   5.423   0.089
10719SOL    HW133056   5.246   5.385   0.031
10719SOL    HW233057   5.089   5.373   0.075
10720SOL     OW33058   6.320   3.295   5.524
10720SOL    HW133059   6.405   3.314   5.476
10720SOL    HW233060   6.264   3.378   5.528
10721SOL     OW33061   6.374   4.279   5.496
10721SOL    HW133062   6.405   4.213   5.426
10721SOL    HW233063   6.275   4.287   5.492
10722SOL     OW33064   0.317   3.706   0.564
10722SOL    HW133065   0.323   3.611   0.595
10722SOL    HW233066   0.337   3.767   0.640
10723SOL     OW33067   0.378   3.958   6.313
10723SOL    HW133068   0.429   3.984   6.231
10723SOL    HW233069   0.423   3.879   6.356
10724SOL     OW33070   4.612   0.968   7.001
10724SOL    HW133071   4.650   0.908   6.931
10724SOL    HW233072   4.677   1.041   7.022
10725SOL     OW33073   0.270   4.929   4.128
10725SOL    HW133074   0.249   4.998   4.197
10725SOL    HW233075   0.369   4.921   4.118
10726SOL     OW33076   5.353   6.235   5.715
10726SOL    HW133077   5.414   6.271   5.645
10726SOL    HW233078   5.282   6.302   5.735
10727SOL     OW33079   0.537   5.206   4.302
10727SOL    HW133080   0.528   5.262   4.385
10727SOL    HW233081   0.535   5.109   4.328
10728SOL     OW33082   6.024   6.288   1.672
10728SOL    HW133083   6.033   6.197   1.632
10728SOL    HW233084   6.114   6.333   1.675
10729SOL     OW33085   5.805   0.948   2.935
10729SOL    HW133086   5.829   0.999   3.017
10729SOL    HW233087   5.872   0.876   2.918
10730SOL     OW33088   2.347   0.221   1.110
10730SOL    HW133089   2.294   0.285   1.166
10730SOL    HW233090   2.319   0.231   1.014
10731SOL     OW33091   2.737   5.732   0.205
10731SOL    HW133092   2.819   5.775   0.243
10731SOL    HW233093   2.744   5.633   0.215
10732SOL     OW33094   5.003   5.502   2.514
10732SOL    HW133095   4.973   5.559   2.438
10732SOL    HW233096   4.992   5.551   2.600
10733SOL     OW33097   5.214   2.010   6.729
10733SOL    HW133098   5.287   1.955   6.770
10733SOL    HW233099   5.252   2.097   6.699
10734SOL     OW33100   1.469   0.309   0.108
10734SOL    HW133101   1.443   0.368   0.032
10734SOL    HW233102   1.473   0.364   0.192
10735SOL     OW33103   1.565   4.522   3.201
10735SOL    HW133104   1.622   4.506   3.281
10735SOL    HW233105   1.621   4.523   3.118
10736SOL     OW33106   0.490   0.550   3.124
10736SOL    HW133107   0.481   0.648   3.144
10736SOL    HW233108   0.399   0.508   3.125
10737SOL     OW33109   1.448   1.767   0.512
10737SOL    HW133110   1.377   1.814   0.564
10737SOL    HW233111   1.450   1.803   0.419
10738SOL     OW33112   2.226   0.447   2.700
10738SOL    HW133113   2.214   0.364   2.755
10738SOL    HW233114   2.305   0.436   2.640
10739SOL     OW33115   0.175   1.324   1.573
10739SOL    HW133116   0.197   1.319   1.476
10739SOL    HW233117   0.159   1.232   1.609
10740SOL     OW33118   1.658   4.315   5.505
10740SOL    HW133119   1.653   4.272   5.596
10740SOL    HW233120   1.692   4.408   5.514
10741SOL     OW33121   0.259   0.426   2.990
10741SOL    HW133122   0.229   0.455   3.081
10741SOL    HW233123   0.263   0.326   2.986
10742SOL     OW33124   6.034   0.230   1.896
10742SOL    HW133125   6.132   0.213   1.903
10742SOL    HW233126   6.007   0.237   1.800
10743SOL     OW33127   2.398   1.969   4.075
10743SOL    HW133128   2.354   2.024   4.147
10743SOL    HW233129   2.421   2.027   3.998
10744SOL     OW33130   2.893   1.333   2.515
10744SOL    HW133131   2.911   1.349   2.612
10744SOL    HW233132   2.914   1.416   2.464
10745SOL     OW33133   1.015   4.947   0.711
10745SOL    HW133134   0.996   5.016   0.781
10745SOL    HW233135   1.110   4.918   0.717
10746SOL     OW33136   1.942   3.731   1.427
10746SOL    HW133137   1.961   3.640   1.463
10746SOL    HW233138   1.916   3.792   1.502
10747SOL     OW33139   4.483   0.872   3.277
10747SOL    HW133140   4.420   0.835   3.345
10747SOL    HW233141   4.431   0.911   3.201
10748SOL     OW33142   3.743   0.343   1.030
10748SOL    HW133143   3.710   0.339   1.124
10748SOL    HW233144   3.771   0.436   1.008
10749SOL     OW33145   0.011   4.653   3.758
10749SOL    HW133146   6.957   4.587   3.763
10749SOL    HW233147   0.011   4.710   3.840
10750SOL     OW33148   4.102   5.836   4.260
10750SOL    HW133149   4.133   5.806   4.170
10750SOL    HW233150   4.180   5.842   4.322
10751SOL     OW33151   0.788   3.871   5.499
10751SOL    HW133152   0.784   3.894   5.402
10751SOL    HW233153   0.865   3.920   5.541
10752SOL     OW33154   6.354   3.564   6.190
10752SOL    HW133155   6.425   3.632   6.171
10752SOL    HW233156   6.366   3.527   6.282
10753SOL     OW33157   5.349   0.628   4.027
10753SOL    HW133158   5.436   0.596   3.989
10753SOL    HW233159   5.348   0.728   4.027
10754SOL     OW33160   1.587   2.250   3.728
10754SOL    HW133161   1.530   2.215   3.654
10754SOL    HW233162   1.532   2.312   3.785
10755SOL     OW33163   0.692   2.246   0.483
10755SOL    HW133164   0.685   2.171   0.418
10755SOL    HW233165   0.757   2.222   0.555
10756SOL     OW33166   6.606   4.391   7.010
10756SOL    HW133167   6.645   4.340   6.934
10756SOL    HW233168   6.635   4.486   7.005
10757SOL     OW33169   1.099   3.425   0.398
10757SOL    HW133170   1.127   3.421   0.302
10757SOL    HW233171   1.064   3.516   0.419
10758SOL     OW33172   1.177   6.766   5.376
10758SOL    HW133173   1.109   6.704   5.337
10758SOL    HW233174   1.137   6.857   5.386
10759SOL     OW33175   1.853   3.142   0.040
10759SOL    HW133176   1.767   3.104   0.004
10759SOL    HW233177   1.832   3.219   0.100
10760SOL     OW33178   6.866   0.724   0.534
10760SOL    HW133179   6.935   0.654   0.520
10760SOL    HW233180   6.911   0.812   0.553
10761SOL     OW33181   0.771   2.089   6.287
10761SOL    HW133182   0.717   2.156   6.338
10761SOL    HW233183   0.709   2.024   6.242
10762SOL     OW33184   3.824   1.727   4.957
10762SOL    HW133185   3.823   1.722   5.057
10762SOL    HW233186   3.803   1.637   4.919
10763SOL     OW33187   4.453   6.347   1.237
10763SOL    HW133188   4.472   6.373   1.332
10763SOL    HW233189   4.536   6.356   1.182
10764SOL     OW33190   5.869   1.655   5.575
10764SOL    HW133191   5.788   1.650   5.516
10764SOL    HW233192   5.846   1.707   5.657
10765SOL     OW33193   5.459   3.072   1.408
10765SOL    HW133194   5.403   3.145   1.446
10765SOL    HW233195   5.408   3.024   1.337
10766SOL     OW33196   3.230   3.195   1.059
10766SOL    HW133197   3.275   3.280   1.034
10766SOL    HW233198   3.199   3.200   1.155
10767SOL     OW33199   1.227   0.592   6.559
10767SOL    HW133200   1.288   0.591   6.638
10767SOL    HW233201   1.161   0.666   6.568
10768SOL     OW33202   4.357   5.820   1.333
10768SOL    HW133203   4.311   5.827   1.244
10768SOL    HW233204   4.456   5.819   1.319
10769SOL     OW33205   1.853   5.134   4.926
10769SOL    HW133206   1.913   5.057   4.949
10769SOL    HW233207   1.787   5.148   5.000
10770SOL     OW33208   5.462   7.018   4.955
10770SOL    HW133209   5.544   0.051   4.973
10770SOL    HW233210   5.387   0.029   5.012
10771SOL     OW33211   4.559   0.954   4.451
10771SOL    HW133212   4.643   1.007   4.465
10771SOL    HW233213   4.581   0.856   4.455
10772SOL     OW33214   6.212   6.448   4.161
10772SOL    HW133215   6.294   6.390   4.164
10772SOL    HW233216   6.148   6.418   4.233
10773SOL     OW33217   6.296   5.146   5.955
10773SOL    HW133218   6.305   5.246   5.950
10773SOL    HW233219   6.314   5.115   6.048
10774SOL     OW33220   1.577   1.664   6.270
10774SOL    HW133221   1.625   1.724   6.205
10774SOL    HW233222   1.624   1.666   6.358
10775SOL     OW33223   0.698   3.353   0.473
10775SOL    HW133224   0.749   3.281   0.520
10775SOL    HW233225   0.700   3.436   0.528
10776SOL     OW33226   1.656   6.236   0.061
10776SOL    HW133227   1.606   6.269   7.003
10776SOL    HW233228   1.597   6.177   0.115
10777SOL     OW33229   4.272   6.524   4.227
10777SOL    HW133230   4.248   6.572   4.143
10777SOL    HW233231   4.266   6.586   4.304
10778SOL     OW33232   5.459   6.232   5.030
10778SOL    HW133233   5.475   6.204   5.124
10778SOL    HW233234   5.411   6.159   4.981
10779SOL     OW33235   6.337   5.113   2.929
10779SOL    HW133236   6.414   5.055   2.905
10779SOL    HW233237   6.338   5.131   3.027
10780SOL     OW33238   1.314   0.134   3.599
10780SOL    HW133239   1.366   0.144   3.684
10780SOL    HW233240   1.323   0.040   3.566
10781SOL     OW33241   3.914   1.695   3.107
10781SOL    HW133242   3.816   1.717   3.098
10781SOL    HW233243   3.961   1.771   3.152
10782SOL     OW33244   6.514   1.620   3.710
10782SOL    HW133245   6.427   1.571   3.710
10782SOL    HW233246   6.501   1.711   3.670
10783SOL     OW33247   1.341   3.441   3.146
10783SOL    HW133248   1.323   3.400   3.236
10783SOL    HW233249   1.429   3.488   3.148
10784SOL     OW33250   2.668   0.201   2.908
10784SOL    HW133251   2.639   0.111   2.940
10784SOL    HW233252   2.745   0.191   2.845
10785SOL     OW33253   0.867   4.733   0.706
10785SOL    HW133254   0.807   4.749   0.628
10785SOL    HW233255   0.939   4.803   0.708
10786SOL     OW33256   4.746   4.372   2.592
10786SOL    HW133257   4.810   4.330   2.527
10786SOL    HW233258   4.695   4.445   2.546
10787SOL     OW33259   3.224   2.010   4.443
10787SOL    HW133260   3.181   1.933   4.396
10787SOL    HW233261   3.157   2.083   4.454
10788SOL     OW33262   2.252   4.565   6.826
10788SOL    HW133263   2.241   4.636   6.895
10788SOL    HW233264   2.179   4.573   6.758
10789SOL     OW33265   5.652   2.892   0.429
10789SOL    HW133266   5.587   2.908   0.355
10789SOL    HW233267   5.717   2.968   0.434
10790SOL     OW33268   1.289   0.475   3.332
10790SOL    HW133269   1.248   0.399   3.383
10790SOL    HW233270   1.243   0.560   3.359
10791SOL     OW33271   0.043   0.432   1.082
10791SOL    HW133272   0.137   0.398   1.073
10791SOL    HW233273   0.036   0.522   1.041
10792SOL     OW33274   3.764   3.230   1.798
10792SOL    HW133275   3.793   3.190   1.711
10792SOL    HW233276   3.775   3.330   1.794
10793SOL     OW33277   5.491   2.651   4.566
10793SOL    HW133278   5.550   2.573   4.544
10793SOL    HW233279   5.491   2.715   4.490
10794SOL     OW33280   3.015   3.835   3.473
10794SOL    HW133281   2.920   3.844   3.505
10794SOL    HW233282   3.037   3.739   3.460
10795SOL     OW33283   6.793   3.231   3.967
10795SOL    HW133284   6.754   3.308   4.019
10795SOL    HW233285   6.857   3.267   3.899
10796SOL     OW33286   4.949   6.623   0.090
10796SOL    HW133287   4.929   6.715   0.124
10796SOL    HW233288   4.872   6.589   0.037
10797SOL     OW33289   3.985   2.319   1.181
10797SOL    HW133290   3.904   2.374   1.167
10797SOL    HW233291   4.048   2.366   1.244
10798SOL     OW33292   2.282   6.404   1.003
10798SOL    HW133293   2.229   6.322   0.981
10798SOL    HW233294   2.221   6.483   1.007
10799SOL     OW33295   3.719   0.818   2.375
10799SOL    HW133296   3.761   0.900   2.335
10799SOL    HW233297   3.631   0.842   2.415
10800SOL     OW33298   0.732   0.096   0.007
10800SOL    HW133299   0.655   0.127   0.064
10800SOL    HW233300   0.754   0.166   6.962
10801SOL     OW33301   0.869   6.747   5.559
10801SOL    HW133302   0.845   6.830   5.610
10801SOL    HW233303   0.868   6.668   5.621
10802SOL     OW33304   1.767   2.975   3.570
10802SOL    HW133305   1.704   2.995   3.646
10802SOL    HW233306   1.738   3.026   3.489
10803SOL     OW33307   4.203   4.376   5.635
10803SOL    HW133308   4.194   4.319   5.554
10803SOL    HW233309   4.239   4.321   5.711
10804SOL     OW33310   6.377   3.837   1.749
10804SOL    HW133311   6.375   3.741   1.778
10804SOL    HW233312   6.307   3.852   1.679
10805SOL     OW33313   3.695   0.045   6.717
10805SOL    HW133314   3.716   0.040   6.619
10805SOL    HW233315   3.780   0.048   6.769
10806SOL     OW33316   5.035   4.496   6.301
10806SOL    HW133317   5.005   4.421   6.360
10806SOL    HW233318   5.120   4.470   6.256
10807SOL     OW33319   1.332   6.541   3.331
10807SOL    HW133320   1.241   6.514   3.364
10807SOL    HW233321   1.362   6.478   3.260
10808SOL     OW33322   6.600   3.812   6.586
10808SOL    HW133323   6.641   3.728   6.621
10808SOL    HW233324   6.638   3.832   6.496
10809SOL     OW33325   2.693   5.803   3.681
10809SOL    HW133326   2.704   5.779   3.777
10809SOL    HW233327   2.734   5.893   3.664
10810SOL     OW33328   2.068   0.330   4.737
10810SOL    HW133329   1.976   0.366   4.746
10810SOL    HW233330   2.109   0.319   4.828
10811SOL     OW33331   4.626   4.801   5.639
10811SOL    HW133332   4.642   4.807   5.541
10811SOL    HW233333   4.588   4.887   5.672
10812SOL     OW33334   1.077   3.690   1.648
10812SOL    HW133335   1.100   3.758   1.718
10812SOL    HW233336   1.090   3.729   1.557
10813SOL     OW33337   2.267   5.829   6.827
10813SOL    HW133338   2.265   5.730   6.843
10813SOL    HW233339   2.185   5.856   6.776
10814SOL     OW33340   1.642   6.221   6.596
10814SOL    HW133341   1.737   6.225   6.627
10814SOL    HW233342   1.628   6.138   6.542
10815SOL     OW33343   4.875   4.542   2.796
10815SOL    HW133344   4.914   4.618   2.745
10815SOL    HW233345   4.821   4.485   2.735
10816SOL     OW33346   1.789   1.934   1.778
10816SOL    HW133347   1.831   1.963   1.692
10816SOL    HW233348   1.852   1.873   1.827
10817SOL     OW33349   5.510   6.907   2.287
10817SOL    HW133350   5.581   6.930   2.220
10817SOL    HW233351   5.554   6.878   2.372
10818SOL     OW33352   4.604   4.581   5.366
10818SOL    HW133353   4.514   4.593   5.409
10818SOL    HW233354   4.666   4.537   5.431
10819SOL     OW33355   6.789   4.081   0.188
10819SOL    HW133356   6.801   4.154   0.120
10819SOL    HW233357   6.732   4.008   0.149
10820SOL     OW33358   5.944   5.717   3.758
10820SOL    HW133359   5.919   5.620   3.751
10820SOL    HW233360   5.873   5.766   3.809
10821SOL     OW33361   5.813   6.188   2.066
10821SOL    HW133362   5.838   6.137   2.148
10821SOL    HW233363   5.719   6.222   2.075
10822SOL     OW33364   1.214   3.004   3.220
10822SOL    HW133365   1.123   2.980   3.187
10822SOL    HW233366   1.215   3.002   3.320
10823SOL     OW33367   1.707   5.372   2.133
10823SOL    HW133368   1.718   5.395   2.230
10823SOL    HW233369   1.733   5.452   2.077
10824SOL     OW33370   5.710   0.749   4.107
10824SOL    HW133371   5.635   0.750   4.173
10824SOL    HW233372   5.687   0.689   4.031
10825SOL     OW33373   3.400   0.113   6.428
10825SOL    HW133374   3.488   0.070   6.411
10825SOL    HW233375   3.339   0.095   6.351
10826SOL     OW33376   0.376   3.080   3.113
10826SOL    HW133377   0.365   3.008   3.181
10826SOL    HW233378   0.423   3.158   3.154
10827SOL     OW33379   6.019   3.948   4.263
10827SOL    HW133380   6.048   3.928   4.356
10827SOL    HW233381   5.924   3.977   4.262
10828SOL     OW33382   1.255   4.914   1.938
10828SOL    HW133383   1.245   4.815   1.949
10828SOL    HW233384   1.336   4.945   1.989
10829SOL     OW33385   3.387   2.417   0.913
10829SOL    HW133386   3.307   2.475   0.895
10829SOL    HW233387   3.424   2.437   1.003
10830SOL     OW33388   5.088   1.345   3.723
10830SOL    HW133389   5.167   1.394   3.758
10830SOL    HW233390   5.034   1.405   3.663
10831SOL     OW33391   4.228   5.738   1.975
10831SOL    HW133392   4.231   5.803   2.051
10831SOL    HW233393   4.306   5.676   1.982
10832SOL     OW33394   0.464   2.611   0.686
10832SOL    HW133395   0.442   2.561   0.602
10832SOL    HW233396   0.488   2.705   0.662
10833SOL     OW33397   1.799   1.844   2.660
10833SOL    HW133398   1.730   1.911   2.634
10833SOL    HW233399   1.778   1.756   2.617
10834SOL     OW33400   1.811   2.101   6.120
10834SOL    HW133401   1.796   2.128   6.215
10834SOL    HW233402   1.742   2.034   6.093
10835SOL     OW33403   6.387   2.106   0.423
10835SOL    HW133404   6.424   2.014   0.411
10835SOL    HW233405   6.436   2.153   0.496
10836SOL     OW33406   6.980   1.520   4.945
10836SOL    HW133407   7.002   1.594   5.008
10836SOL    HW233408   6.968   1.556   4.853
10837SOL     OW33409   6.728   4.911   0.467
10837SOL    HW133410   6.646   4.854   0.481
10837SOL    HW233411   6.751   4.957   0.553
10838SOL     OW33412   5.695   6.481   4.732
10838SOL    HW133413   5.783   6.494   4.686
10838SOL    HW233414   5.628   6.545   4.694
10839SOL     OW33415   3.342   2.991   0.870
10839SOL    HW133416   3.428   3.038   0.848
10839SOL    HW233417   3.290   3.047   0.934
10840SOL     OW33418   3.779   5.647   1.326
10840SOL    HW133419   3.710   5.719   1.326
10840SOL    HW233420   3.760   5.582   1.400
10841SOL     OW33421   3.801   6.249   0.543
10841SOL    HW133422   3.740   6.301   0.483
10841SOL    HW233423   3.842   6.174   0.492
10842SOL     OW33424   5.017   3.248   1.245
10842SOL    HW133425   4.944   3.190   1.210
10842SOL    HW233426   5.056   3.301   1.170
10843SOL     OW33427   0.593   1.999   1.609
10843SOL    HW133428   0.529   1.923   1.610
10843SOL    HW233429   0.546   2.083   1.633
10844SOL     OW33430   0.387   6.973   4.344
10844SOL    HW133431   0.323   6.932   4.408
10844SOL    HW233432   0.337   0.005   4.276
10845SOL     OW33433   3.647   0.505   6.156
10845SOL    HW133434   3.556   0.489   6.194
10845SOL    HW233435   3.639   0.541   6.063
10846SOL     OW33436   4.392   2.921   0.842
10846SOL    HW133437   4.375   3.020   0.836
10846SOL    HW233438   4.480   2.906   0.888
10847SOL     OW33439   3.800   3.491   6.536
10847SOL    HW133440   3.704   3.517   6.531
10847SOL    HW233441   3.828   3.451   6.448
10848SOL     OW33442   2.644   2.317   0.146
10848SOL    HW133443   2.724   2.374   0.165
10848SOL    HW233444   2.668   2.221   0.156
10849SOL     OW33445   2.501   4.624   3.032
10849SOL    HW133446   2.466   4.716   3.015
10849SOL    HW233447   2.565   4.598   2.960
10850SOL     OW33448   3.578   5.664   0.358
10850SOL    HW133449   3.577   5.711   0.270
10850SOL    HW233450   3.654   5.599   0.360
10851SOL     OW33451   2.811   3.211   6.925
10851SOL    HW133452   2.745   3.153   6.971
10851SOL    HW233453   2.895   3.216   6.979
10852SOL     OW33454   0.769   6.626   6.544
10852SOL    HW133455   0.807   6.679   6.469
10852SOL    HW233456   0.688   6.672   6.580
10853SOL     OW33457   3.581   2.240   5.765
10853SOL    HW133458   3.587   2.252   5.864
10853SOL    HW233459   3.530   2.317   5.726
10854SOL     OW33460   5.075   0.164   5.464
10854SOL    HW133461   5.007   0.096   5.491
10854SOL    HW233462   5.141   0.123   5.401
10855SOL     OW33463   2.842   6.661   1.911
10855SOL    HW133464   2.841   6.757   1.937
10855SOL    HW233465   2.882   6.607   1.984
10856SOL     OW33466   6.110   1.576   2.298
10856SOL    HW133467   6.110   1.498   2.236
10856SOL    HW233468   6.016   1.593   2.330
10857SOL     OW33469   6.026   2.979   3.081
10857SOL    HW133470   6.101   3.004   3.142
10857SOL    HW233471   6.034   3.030   2.996
10858SOL     OW33472   0.712   2.475   6.516
10858SOL    HW133473   0.747   2.528   6.439
10858SOL    HW233474   0.721   2.529   6.600
10859SOL     OW33475   2.060   3.498   4.031
10859SOL    HW133476   2.092   3.403   4.026
10859SOL    HW233477   2.091   3.548   3.950
10860SOL     OW33478   6.506   0.701   5.692
10860SOL    HW133479   6.567   0.750   5.630
10860SOL    HW233480   6.534   0.718   5.787
10861SOL     OW33481   3.723   2.979   3.040
10861SOL    HW133482   3.642   2.948   3.090
10861SOL    HW233483   3.792   3.011   3.105
10862SOL     OW33484   2.830   2.088   6.709
10862SOL    HW133485   2.852   2.185   6.718
10862SOL    HW233486   2.897   2.044   6.649
10863SOL     OW33487   3.887   0.841   2.790
10863SOL    HW133488   3.883   0.763   2.728
10863SOL    HW233489   3.797   0.885   2.794
10864SOL     OW33490   3.293   5.080   0.750
10864SOL    HW133491   3.307   5.051   0.845
10864SOL    HW233492   3.306   5.179   0.744
10865SOL     OW33493   6.251   1.720   3.345
10865SOL    HW133494   6.167   1.772   3.359
10865SOL    HW233495   6.330   1.782   3.351
10866SOL     OW33496   4.404   5.127   0.680
10866SOL    HW133497   4.453   5.204   0.720
10866SOL    HW233498   4.434   5.115   0.585
10867SOL     OW33499   3.445   3.998   0.352
10867SOL    HW133500   3.370   3.988   0.418
10867SOL    HW233501   3.452   3.915   0.297
10868SOL     OW33502   2.307   2.067   3.713
10868SOL    HW133503   2.263   2.000   3.652
10868SOL    HW233504   2.237   2.112   3.768
10869NA      NA33505   0.376   2.270   6.334
10870NA      NA33506   4.509   4.582   5.153
10871NA      NA33507   2.248   4.275   2.202
10872NA      NA33508   4.925   4.141   3.540
10873NA      NA33509   4.258   2.306   5.201
10874NA      NA33510   3.210   4.523   1.549
10875NA      NA33511   0.361   4.683   0.089
10876NA      NA33512   3.570   3.753   2.747
10877NA      NA33513   5.338   5.203   0.808
10878NA      NA33514   3.321   0.151   5.369
10879NA      NA33515   5.931   5.865   0.903
10880NA      NA33516   1.982   0.766   5.048
10881NA      NA33517   4.133   4.936   1.880
10882NA      NA33518   3.701   2.958   1.536
   7.02236   7.02236   7.02236
