Generated by trjconv : CNT in water t= 173.00000
33518
    1C        C    1   2.838   2.767   4.749
    1C        C    2   2.895   2.718   4.869
    1C        C    3   2.836   2.769   4.985
    1C        C    4   2.843   2.770   4.260
    1C        C    5   2.895   2.724   4.383
    1C        C    6   2.840   2.769   4.505
    1C        C    7   3.010   2.644   4.625
    1C        C    8   2.890   2.719   4.627
    1C        C    9   3.077   2.612   4.745
    1C        C   10   3.012   2.639   4.867
    1C        C   11   3.180   2.495   4.977
    1C        C   12   3.059   2.565   4.977
    1C        C   13   2.843   2.767   3.771
    1C        C   14   2.899   2.725   3.894
    1C        C   15   2.847   2.773   4.016
    1C        C   16   3.018   2.649   4.139
    1C        C   17   2.898   2.725   4.138
    1C        C   18   3.079   2.621   4.263
    1C        C   19   3.015   2.649   4.386
    1C        C   20   3.209   2.557   4.503
    1C        C   21   3.077   2.608   4.506
    1C        C   22   3.277   2.541   4.626
    1C        C   23   3.207   2.555   4.748
    1C        C   24   3.412   2.488   4.866
    1C        C   25   3.270   2.507   4.866
    1C        C   26   3.488   2.475   4.982
    1C        C   27   2.848   2.769   3.280
    1C        C   28   2.904   2.728   3.403
    1C        C   29   2.849   2.769   3.527
    1C        C   30   3.018   2.644   3.648
    1C        C   31   2.901   2.723   3.650
    1C        C   32   3.078   2.611   3.772
    1C        C   33   3.018   2.648   3.894
    1C        C   34   3.209   2.559   4.016
    1C        C   35   3.077   2.609   4.017
    1C        C   36   3.277   2.547   4.139
    1C        C   37   3.212   2.574   4.262
    1C        C   38   3.419   2.517   4.380
    1C        C   39   3.280   2.545   4.382
    1C        C   40   3.487   2.505   4.503
    1C        C   41   3.416   2.516   4.625
    1C        C   42   3.629   2.489   4.747
    1C        C   43   3.487   2.494   4.745
    1C        C   44   3.704   2.493   4.866
    1C        C   45   3.627   2.478   4.982
    1C        C   46   2.836   2.751   2.793
    1C        C   47   2.894   2.713   2.916
    1C        C   48   2.843   2.764   3.038
    1C        C   49   3.017   2.640   3.160
    1C        C   50   2.900   2.719   3.159
    1C        C   51   3.081   2.610   3.282
    1C        C   52   3.018   2.645   3.404
    1C        C   53   3.209   2.553   3.527
    1C        C   54   3.079   2.609   3.526
    1C        C   55   3.276   2.531   3.650
    1C        C   56   3.206   2.550   3.771
    1C        C   57   3.415   2.512   3.893
    1C        C   58   3.275   2.535   3.893
    1C        C   59   3.485   2.505   4.015
    1C        C   60   3.415   2.519   4.137
    1C        C   61   3.630   2.504   4.261
    1C        C   62   3.489   2.513   4.258
    1C        C   63   3.703   2.509   4.382
    1C        C   64   3.628   2.505   4.502
    1C        C   65   3.833   2.546   4.623
    1C        C   66   3.697   2.506   4.625
    1C        C   67   3.905   2.565   4.743
    1C        C   68   3.841   2.529   4.863
    1C        C   69   4.051   2.586   4.977
    1C        C   70   3.922   2.531   4.977
    1C        C   71   2.823   2.734   2.306
    1C        C   72   2.879   2.687   2.427
    1C        C   73   2.829   2.740   2.549
    1C        C   74   3.008   2.627   2.672
    1C        C   75   2.886   2.699   2.671
    1C        C   76   3.073   2.597   2.794
    1C        C   77   3.014   2.638   2.915
    1C        C   78   3.208   2.552   3.039
    1C        C   79   3.078   2.606   3.037
    1C        C   80   3.278   2.534   3.161
    1C        C   81   3.211   2.554   3.283
    1C        C   82   3.416   2.505   3.404
    1C        C   83   3.277   2.530   3.406
    1C        C   84   3.486   2.499   3.527
    1C        C   85   3.416   2.510   3.649
    1C        C   86   3.627   2.502   3.773
    1C        C   87   3.486   2.504   3.771
    1C        C   88   3.696   2.514   3.895
    1C        C   89   3.626   2.507   4.018
    1C        C   90   3.837   2.547   4.138
    1C        C   91   3.700   2.514   4.138
    1C        C   92   3.906   2.572   4.259
    1C        C   93   3.839   2.548   4.381
    1C        C   94   4.032   2.631   4.500
    1C        C   95   3.905   2.569   4.504
    1C        C   96   4.091   2.673   4.621
    1C        C   97   4.032   2.628   4.742
    1C        C   98   4.192   2.768   4.865
    1C        C   99   4.096   2.662   4.864
    1C        C  100   4.215   2.842   4.982
    1C        C  101   2.824   2.733   2.068
    1C        C  102   2.990   2.592   2.189
    1C        C  103   2.875   2.677   2.186
    1C        C  104   3.061   2.572   2.311
    1C        C  105   3.000   2.615   2.431
    1C        C  106   3.202   2.540   2.552
    1C        C  107   3.071   2.593   2.551
    1C        C  108   3.270   2.519   2.674
    1C        C  109   3.201   2.536   2.796
    1C        C  110   3.411   2.496   2.916
    1C        C  111   3.272   2.520   2.917
    1C        C  112   3.486   2.495   3.036
    1C        C  113   3.417   2.510   3.158
    1C        C  114   3.627   2.499   3.281
    1C        C  115   3.486   2.499   3.281
    1C        C  116   3.696   2.514   3.404
    1C        C  117   3.627   2.506   3.527
    1C        C  118   3.834   2.542   3.647
    1C        C  119   3.697   2.508   3.650
    1C        C  120   3.899   2.571   3.769
    1C        C  121   3.833   2.550   3.892
    1C        C  122   4.025   2.638   4.012
    1C        C  123   3.899   2.574   4.014
    1C        C  124   4.087   2.675   4.134
    1C        C  125   4.031   2.638   4.258
    1C        C  126   4.206   2.757   4.378
    1C        C  127   4.093   2.671   4.380
    1C        C  128   4.248   2.815   4.499
    1C        C  129   4.199   2.764   4.621
    1C        C  130   4.324   2.937   4.741
    1C        C  131   4.245   2.819   4.743
    1C        C  132   4.353   3.002   4.862
    1C        C  133   4.284   2.962   4.977
    1C        C  134   3.176   2.473   2.080
    1C        C  135   3.041   2.511   2.082
    1C        C  136   3.259   2.478   2.193
    1C        C  137   3.193   2.520   2.311
    1C        C  138   3.405   2.482   2.431
    1C        C  139   3.266   2.507   2.431
    1C        C  140   3.481   2.481   2.550
    1C        C  141   3.410   2.499   2.671
    1C        C  142   3.622   2.495   2.793
    1C        C  143   3.481   2.490   2.793
    1C        C  144   3.695   2.502   2.913
    1C        C  145   3.627   2.492   3.037
    1C        C  146   3.834   2.538   3.156
    1C        C  147   3.697   2.504   3.159
    1C        C  148   3.900   2.562   3.278
    1C        C  149   3.834   2.543   3.402
    1C        C  150   4.027   2.629   3.523
    1C        C  151   3.901   2.566   3.524
    1C        C  152   4.087   2.665   3.645
    1C        C  153   4.024   2.636   3.768
    1C        C  154   4.194   2.765   3.889
    1C        C  155   4.081   2.681   3.890
    1C        C  156   4.251   2.807   4.011
    1C        C  157   4.199   2.762   4.134
    1C        C  158   4.343   2.918   4.251
    1C        C  159   4.258   2.805   4.256
    1C        C  160   4.376   2.982   4.372
    1C        C  161   4.330   2.931   4.495
    1C        C  162   4.431   3.116   4.617
    1C        C  163   4.366   2.991   4.617
    1C        C  164   4.462   3.183   4.737
    1C        C  165   4.427   3.122   4.860
    1C        C  166   4.510   3.319   4.970
    1C        C  167   4.481   3.183   4.974
    1C        C  168   3.477   2.433   2.077
    1C        C  169   3.400   2.465   2.189
    1C        C  170   3.617   2.470   2.309
    1C        C  171   3.475   2.469   2.309
    1C        C  172   3.692   2.487   2.427
    1C        C  173   3.622   2.483   2.549
    1C        C  174   3.827   2.541   2.666
    1C        C  175   3.693   2.498   2.671
    1C        C  176   3.896   2.559   2.788
    1C        C  177   3.833   2.531   2.911
    1C        C  178   4.029   2.617   3.032
    1C        C  179   3.902   2.555   3.033
    1C        C  180   4.087   2.659   3.154
    1C        C  181   4.028   2.622   3.278
    1C        C  182   4.196   2.752   3.397
    1C        C  183   4.089   2.659   3.400
    1C        C  184   4.246   2.804   3.518
    1C        C  185   4.199   2.752   3.641
    1C        C  186   4.335   2.915   3.764
    1C        C  187   4.246   2.805   3.764
    1C        C  188   4.374   2.976   3.885
    1C        C  189   4.338   2.918   4.009
    1C        C  190   4.441   3.107   4.127
    1C        C  191   4.382   2.978   4.129
    1C        C  192   4.461   3.174   4.250
    1C        C  193   4.437   3.110   4.373
    1C        C  194   4.507   3.313   4.491
    1C        C  195   4.464   3.178   4.494
    1C        C  196   4.518   3.385   4.611
    1C        C  197   4.511   3.317   4.734
    1C        C  198   4.561   3.532   4.850
    1C        C  199   4.535   3.391   4.853
    1C        C  200   4.586   3.617   4.963
    1C        C  201   3.616   2.418   2.077
    1C        C  202   3.828   2.511   2.182
    1C        C  203   3.693   2.462   2.189
    1C        C  204   3.898   2.541   2.302
    1C        C  205   3.829   2.521   2.424
    1C        C  206   4.024   2.614   2.542
    1C        C  207   3.898   2.550   2.544
    1C        C  208   4.082   2.657   2.664
    1C        C  209   4.022   2.623   2.787
    1C        C  210   4.197   2.744   2.909
    1C        C  211   4.085   2.657   2.909
    1C        C  212   4.251   2.792   3.030
    1C        C  213   4.198   2.746   3.153
    1C        C  214   4.339   2.906   3.273
    1C        C  215   4.247   2.799   3.274
    1C        C  216   4.375   2.969   3.395
    1C        C  217   4.332   2.915   3.518
    1C        C  218   4.435   3.100   3.639
    1C        C  219   4.371   2.974   3.641
    1C        C  220   4.462   3.167   3.761
    1C        C  221   4.438   3.102   3.884
    1C        C  222   4.503   3.307   4.003
    1C        C  223   4.468   3.170   4.004
    1C        C  224   4.520   3.376   4.126
    1C        C  225   4.504   3.309   4.249
    1C        C  226   4.526   3.523   4.368
    1C        C  227   4.521   3.382   4.369
    1C        C  228   4.518   3.597   4.488
    1C        C  229   4.527   3.526   4.610
    1C        C  230   4.504   3.740   4.727
    1C        C  231   4.541   3.602   4.728
    1C        C  232   4.493   3.816   4.845
    1C        C  233   4.541   3.749   4.958
    1C        C  234   4.016   2.609   2.062
    1C        C  235   3.891   2.548   2.063
    1C        C  236   4.085   2.645   2.178
    1C        C  237   4.023   2.607   2.299
    1C        C  238   4.201   2.730   2.420
    1C        C  239   4.086   2.646   2.419
    1C        C  240   4.253   2.781   2.541
    1C        C  241   4.195   2.741   2.664
    1C        C  242   4.334   2.901   2.785
    1C        C  243   4.248   2.789   2.785
    1C        C  244   4.378   2.959   2.906
    1C        C  245   4.339   2.902   3.030
    1C        C  246   4.434   3.094   3.146
    1C        C  247   4.377   2.965   3.150
    1C        C  248   4.456   3.159   3.270
    1C        C  249   4.430   3.099   3.395
    1C        C  250   4.489   3.304   3.513
    1C        C  251   4.459   3.166   3.517
    1C        C  252   4.506   3.371   3.636
    1C        C  253   4.503   3.302   3.759
    1C        C  254   4.522   3.515   3.881
    1C        C  255   4.518   3.374   3.880
    1C        C  256   4.518   3.587   4.002
    1C        C  257   4.523   3.517   4.125
    1C        C  258   4.492   3.730   4.242
    1C        C  259   4.521   3.592   4.245
    1C        C  260   4.471   3.803   4.362
    1C        C  261   4.488   3.735   4.485
    1C        C  262   4.423   3.938   4.603
    1C        C  263   4.468   3.804   4.606
    1C        C  264   4.398   4.006   4.725
    1C        C  265   4.438   3.946   4.847
    1C        C  266   4.328   4.134   4.959
    1C        C  267   4.397   4.014   4.962
    1C        C  268   4.261   2.776   2.062
    1C        C  269   4.194   2.735   2.178
    1C        C  270   4.341   2.892   2.300
    1C        C  271   4.251   2.781   2.298
    1C        C  272   4.380   2.954   2.421
    1C        C  273   4.337   2.894   2.542
    1C        C  274   4.437   3.084   2.661
    1C        C  275   4.375   2.957   2.662
    1C        C  276   4.465   3.152   2.782
    1C        C  277   4.443   3.084   2.904
    1C        C  278   4.499   3.294   3.025
    1C        C  279   4.465   3.157   3.023
    1C        C  280   4.506   3.365   3.147
    1C        C  281   4.496   3.294   3.269
    1C        C  282   4.513   3.511   3.390
    1C        C  283   4.503   3.370   3.388
    1C        C  284   4.517   3.580   3.513
    1C        C  285   4.519   3.512   3.636
    1C        C  286   4.492   3.723   3.752
    1C        C  287   4.516   3.584   3.757
    1C        C  288   4.476   3.792   3.874
    1C        C  289   4.494   3.726   3.998
    1C        C  290   4.424   3.928   4.117
    1C        C  291   4.478   3.797   4.119
    1C        C  292   4.393   3.997   4.236
    1C        C  293   4.421   3.935   4.360
    1C        C  294   4.327   4.126   4.478
    1C        C  295   4.398   4.004   4.481
    1C        C  296   4.286   4.186   4.599
    1C        C  297   4.325   4.127   4.722
    1C        C  298   4.197   4.309   4.838
    1C        C  299   4.286   4.196   4.840
    1C        C  300   4.173   4.401   4.944
    1C        C  301   4.342   2.889   2.063
    1C        C  302   4.466   3.070   2.180
    1C        C  303   4.393   2.946   2.180
    1C        C  304   4.475   3.147   2.298
    1C        C  305   4.445   3.079   2.418
    1C        C  306   4.503   3.285   2.537
    1C        C  307   4.467   3.149   2.539
    1C        C  308   4.516   3.358   2.658
    1C        C  309   4.500   3.289   2.780
    1C        C  310   4.523   3.501   2.899
    1C        C  311   4.512   3.360   2.902
    1C        C  312   4.517   3.573   3.020
    1C        C  313   4.513   3.506   3.144
    1C        C  314   4.483   3.717   3.264
    1C        C  315   4.508   3.578   3.266
    1C        C  316   4.471   3.787   3.386
    1C        C  317   4.493   3.719   3.508
    1C        C  318   4.421   3.921   3.626
    1C        C  319   4.473   3.790   3.629
    1C        C  320   4.390   3.984   3.748
    1C        C  321   4.420   3.922   3.871
    1C        C  322   4.322   4.111   3.989
    1C        C  323   4.392   3.988   3.993
    1C        C  324   4.281   4.171   4.110
    1C        C  325   4.324   4.120   4.234
    1C        C  326   4.188   4.285   4.353
    1C        C  327   4.282   4.180   4.355
    1C        C  328   4.136   4.335   4.475
    1C        C  329   4.193   4.292   4.597
    1C        C  330   4.024   4.431   4.711
    1C        C  331   4.144   4.354   4.714
    1C        C  332   3.970   4.488   4.828
    1C        C  333   4.056   4.477   4.939
    1C        C  334   4.557   3.265   2.065
    1C        C  335   4.533   3.127   2.066
    1C        C  336   4.539   3.350   2.175
    1C        C  337   4.510   3.285   2.297
    1C        C  338   4.528   3.499   2.412
    1C        C  339   4.518   3.358   2.417
    1C        C  340   4.526   3.570   2.534
    1C        C  341   4.523   3.499   2.656
    1C        C  342   4.493   3.710   2.774
    1C        C  343   4.521   3.572   2.777
    1C        C  344   4.476   3.781   2.895
    1C        C  345   4.493   3.713   3.018
    1C        C  346   4.423   3.915   3.137
    1C        C  347   4.472   3.783   3.139
    1C        C  348   4.391   3.981   3.258
    1C        C  349   4.418   3.918   3.382
    1C        C  350   4.318   4.105   3.504
    1C        C  351   4.391   3.985   3.504
    1C        C  352   4.271   4.162   3.624
    1C        C  353   4.315   4.104   3.745
    1C        C  354   4.174   4.262   3.867
    1C        C  355   4.278   4.166   3.867
    1C        C  356   4.121   4.312   3.988
    1C        C  357   4.181   4.271   4.109
    1C        C  358   4.013   4.402   4.228
    1C        C  359   4.131   4.325   4.230
    1C        C  360   3.951   4.441   4.349
    1C        C  361   4.019   4.413   4.470
    1C        C  362   3.826   4.510   4.591
    1C        C  363   3.956   4.454   4.590
    1C        C  364   3.760   4.544   4.711
    1C        C  365   3.838   4.538   4.829
    1C        C  366   3.631   4.595   4.948
    1C        C  367   3.767   4.568   4.946
    1C        C  368   4.507   3.564   2.052
    1C        C  369   4.525   3.491   2.170
    1C        C  370   4.504   3.707   2.286
    1C        C  371   4.524   3.568   2.288
    1C        C  372   4.484   3.777   2.407
    1C        C  373   4.500   3.709   2.530
    1C        C  374   4.425   3.909   2.649
    1C        C  375   4.476   3.777   2.651
    1C        C  376   4.394   3.975   2.770
    1C        C  377   4.425   3.913   2.893
    1C        C  378   4.315   4.095   3.013
    1C        C  379   4.396   3.979   3.014
    1C        C  380   4.270   4.151   3.134
    1C        C  381   4.317   4.101   3.258
    1C        C  382   4.176   4.260   3.377
    1C        C  383   4.274   4.158   3.380
    1C        C  384   4.123   4.312   3.498
    1C        C  385   4.172   4.263   3.621
    1C        C  386   4.004   4.389   3.741
    1C        C  387   4.122   4.310   3.745
    1C        C  388   3.943   4.426   3.862
    1C        C  389   4.006   4.393   3.984
    1C        C  390   3.820   4.492   4.109
    1C        C  391   3.949   4.436   4.107
    1C        C  392   3.749   4.516   4.230
    1C        C  393   3.823   4.500   4.349
    1C        C  394   3.618   4.560   4.473
    1C        C  395   3.755   4.527   4.470
    1C        C  396   3.546   4.571   4.594
    1C        C  397   3.620   4.563   4.714
    1C        C  398   3.410   4.554   4.840
    1C        C  399   3.549   4.576   4.836
    1C        C  400   3.342   4.517   4.957
    1C        C  401   4.503   3.703   2.051
    1C        C  402   4.453   3.917   2.168
    1C        C  403   4.492   3.781   2.167
    1C        C  404   4.411   3.979   2.288
    1C        C  405   4.434   3.909   2.408
    1C        C  406   4.324   4.095   2.525
    1C        C  407   4.403   3.978   2.528
    1C        C  408   4.276   4.149   2.646
    1C        C  409   4.315   4.092   2.770
    1C        C  410   4.175   4.253   2.889
    1C        C  411   4.271   4.150   2.890
    1C        C  412   4.122   4.299   3.011
    1C        C  413   4.170   4.251   3.136
    1C        C  414   3.998   4.378   3.250
    1C        C  415   4.116   4.301   3.256
    1C        C  416   3.940   4.415   3.374
    1C        C  417   4.003   4.385   3.497
    1C        C  418   3.812   4.480   3.619
    1C        C  419   3.941   4.421   3.619
    1C        C  420   3.746   4.504   3.742
    1C        C  421   3.813   4.483   3.864
    1C        C  422   3.610   4.533   3.987
    1C        C  423   3.749   4.504   3.988
    1C        C  424   3.540   4.548   4.109
    1C        C  425   3.611   4.547   4.231
    1C        C  426   3.401   4.561   4.360
    1C        C  427   3.542   4.561   4.353
    1C        C  428   3.330   4.552   4.481
    1C        C  429   3.405   4.560   4.600
    1C        C  430   3.195   4.519   4.726
    1C        C  431   3.333   4.550   4.722
    1C        C  432   3.124   4.493   4.847
    1C        C  433   3.206   4.490   4.960
    1C        C  434   4.384   4.118   2.053
    1C        C  435   4.453   3.997   2.052
    1C        C  436   4.300   4.160   2.161
    1C        C  437   4.337   4.100   2.284
    1C        C  438   4.184   4.253   2.400
    1C        C  439   4.287   4.156   2.404
    1C        C  440   4.125   4.297   2.521
    1C        C  441   4.175   4.248   2.643
    1C        C  442   4.004   4.375   2.764
    1C        C  443   4.121   4.296   2.765
    1C        C  444   3.943   4.410   2.887
    1C        C  445   4.003   4.375   3.010
    1C        C  446   3.808   4.472   3.128
    1C        C  447   3.938   4.416   3.128
    1C        C  448   3.744   4.491   3.252
    1C        C  449   3.811   4.473   3.375
    1C        C  450   3.606   4.526   3.499
    1C        C  451   3.744   4.497   3.496
    1C        C  452   3.538   4.543   3.622
    1C        C  453   3.609   4.536   3.744
    1C        C  454   3.397   4.546   3.867
    1C        C  455   3.538   4.539   3.866
    1C        C  456   3.327   4.540   3.990
    1C        C  457   3.399   4.542   4.111
    1C        C  458   3.198   4.505   4.237
    1C        C  459   3.335   4.541   4.237
    1C        C  460   3.130   4.486   4.359
    1C        C  461   3.193   4.518   4.482
    1C        C  462   2.998   4.438   4.604
    1C        C  463   3.126   4.498   4.604
    1C        C  464   2.932   4.403   4.723
    1C        C  465   2.989   4.445   4.846
    1C        C  466   2.796   4.339   4.959
    1C        C  467   2.903   4.430   4.959
    1C        C  468   4.123   4.285   2.041
    1C        C  469   4.186   4.246   2.160
    1C        C  470   4.007   4.376   2.278
    1C        C  471   4.125   4.297   2.279
    1C        C  472   3.941   4.403   2.400
    1C        C  473   4.005   4.371   2.522
    1C        C  474   3.815   4.471   2.642
    1C        C  475   3.941   4.408   2.642
    1C        C  476   3.749   4.496   2.765
    1C        C  477   3.813   4.466   2.887
    1C        C  478   3.602   4.520   3.008
    1C        C  479   3.741   4.494   3.005
    1C        C  480   3.535   4.526   3.132
    1C        C  481   3.606   4.520   3.254
    1C        C  482   3.395   4.543   3.376
    1C        C  483   3.536   4.538   3.376
    1C        C  484   3.325   4.540   3.499
    1C        C  485   3.397   4.545   3.620
    1C        C  486   3.190   4.508   3.746
    1C        C  487   3.328   4.538   3.743
    1C        C  488   3.126   4.485   3.870
    1C        C  489   3.191   4.505   3.993
    1C        C  490   2.999   4.421   4.116
    1C        C  491   3.127   4.481   4.117
    1C        C  492   2.941   4.385   4.239
    1C        C  493   3.004   4.422   4.360
    1C        C  494   2.833   4.300   4.483
    1C        C  495   2.941   4.391   4.483
    1C        C  496   2.773   4.257   4.604
    1C        C  497   2.819   4.316   4.724
    1C        C  498   2.666   4.165   4.846
    1C        C  499   2.750   4.278   4.842
    1C        C  500   2.595   4.116   4.956
    1C        C  501   4.004   4.357   2.041
    1C        C  502   3.816   4.470   2.156
    1C        C  503   3.942   4.407   2.156
    1C        C  504   3.745   4.485   2.278
    1C        C  505   3.810   4.455   2.400
    1C        C  506   3.605   4.513   2.521
    1C        C  507   3.744   4.485   2.521
    1C        C  508   3.535   4.519   2.643
    1C        C  509   3.609   4.516   2.763
    1C        C  510   3.395   4.532   2.885
    1C        C  511   3.536   4.528   2.884
    1C        C  512   3.323   4.527   3.007
    1C        C  513   3.394   4.536   3.128
    1C        C  514   3.190   4.498   3.256
    1C        C  515   3.327   4.534   3.253
    1C        C  516   3.120   4.479   3.378
    1C        C  517   3.186   4.511   3.498
    1C        C  518   3.004   4.414   3.626
    1C        C  519   3.124   4.488   3.623
    1C        C  520   2.945   4.375   3.748
    1C        C  521   3.003   4.416   3.871
    1C        C  522   2.838   4.285   3.995
    1C        C  523   2.943   4.379   3.993
    1C        C  524   2.789   4.237   4.119
    1C        C  525   2.834   4.293   4.241
    1C        C  526   2.696   4.133   4.365
    1C        C  527   2.782   4.245   4.364
    1C        C  528   2.654   4.077   4.488
    1C        C  529   2.689   4.144   4.607
    1C        C  530   2.586   3.959   4.734
    1C        C  531   2.643   4.089   4.729
    1C        C  532   2.541   3.902   4.856
    1C        C  533   2.520   3.997   4.961
    1C        C  534   3.617   4.557   2.037
    1C        C  535   3.749   4.513   2.041
    1C        C  536   3.538   4.537   2.155
    1C        C  537   3.606   4.511   2.277
    1C        C  538   3.393   4.520   2.401
    1C        C  539   3.534   4.519   2.399
    1C        C  540   3.321   4.513   2.522
    1C        C  541   3.394   4.520   2.643
    1C        C  542   3.184   4.488   2.766
    1C        C  543   3.322   4.517   2.765
    1C        C  544   3.118   4.469   2.890
    1C        C  545   3.186   4.492   3.012
    1C        C  546   2.998   4.402   3.135
    1C        C  547   3.122   4.469   3.136
    1C        C  548   2.941   4.367   3.260
    1C        C  549   2.996   4.412   3.382
    1C        C  550   2.832   4.284   3.506
    1C        C  551   2.939   4.377   3.506
    1C        C  552   2.785   4.232   3.629
    1C        C  553   2.836   4.285   3.749
    1C        C  554   2.706   4.121   3.877
    1C        C  555   2.788   4.236   3.872
    1C        C  556   2.669   4.061   3.999
    1C        C  557   2.707   4.122   4.121
    1C        C  558   2.604   3.940   4.246
    1C        C  559   2.665   4.067   4.244
    1C        C  560   2.576   3.877   4.370
    1C        C  561   2.597   3.948   4.490
    1C        C  562   2.534   3.750   4.617
    1C        C  563   2.566   3.887   4.614
    1C        C  564   2.519   3.681   4.740
    1C        C  565   2.525   3.760   4.858
    1C        C  566   2.527   3.547   4.977
    1C        C  567   2.526   3.686   4.977
    1C        C  568   3.326   4.478   2.043
    1C        C  569   3.397   4.513   2.158
    1C        C  570   3.186   4.476   2.280
    1C        C  571   3.323   4.514   2.279
    1C        C  572   3.113   4.466   2.401
    1C        C  573   3.182   4.486   2.522
    1C        C  574   2.988   4.405   2.647
    1C        C  575   3.116   4.465   2.645
    1C        C  576   2.929   4.366   2.769
    1C        C  577   2.995   4.400   2.889
    1C        C  578   2.829   4.273   3.017
    1C        C  579   2.938   4.363   3.013
    1C        C  580   2.781   4.224   3.140
    1C        C  581   2.832   4.277   3.261
    1C        C  582   2.700   4.116   3.386
    1C        C  583   2.785   4.229   3.385
    1C        C  584   2.668   4.053   3.509
    1C        C  585   2.702   4.117   3.630
    1C        C  586   2.600   3.936   3.756
    1C        C  587   2.665   4.062   3.755
    1C        C  588   2.579   3.870   3.879
    1C        C  589   2.602   3.937   4.001
    1C        C  590   2.545   3.736   4.126
    1C        C  591   2.575   3.874   4.125
    1C        C  592   2.527   3.671   4.250
    1C        C  593   2.535   3.742   4.372
    1C        C  594   2.515   3.535   4.500
    1C        C  595   2.525   3.676   4.497
    1C        C  596   2.519   3.462   4.621
    1C        C  597   2.515   3.539   4.739
    1C        C  598   2.526   3.328   4.861
    1C        C  599   2.523   3.469   4.861
    1C        C  600   2.524   3.248   4.976
    1C        C  601   3.195   4.434   2.045
    1C        C  602   2.982   4.388   2.160
    1C        C  603   3.118   4.434   2.162
    1C        C  604   2.922   4.362   2.286
    1C        C  605   2.986   4.404   2.404
    1C        C  606   2.819   4.273   2.528
    1C        C  607   2.925   4.367   2.526
    1C        C  608   2.770   4.223   2.651
    1C        C  609   2.820   4.276   2.772
    1C        C  610   2.693   4.110   2.896
    1C        C  611   2.778   4.223   2.896
    1C        C  612   2.660   4.049   3.019
    1C        C  613   2.698   4.110   3.141
    1C        C  614   2.604   3.924   3.267
    1C        C  615   2.662   4.054   3.266
    1C        C  616   2.575   3.863   3.391
    1C        C  617   2.603   3.928   3.513
    1C        C  618   2.536   3.730   3.638
    1C        C  619   2.573   3.866   3.636
    1C        C  620   2.527   3.661   3.761
    1C        C  621   2.543   3.733   3.881
    1C        C  622   2.510   3.526   4.007
    1C        C  623   2.528   3.666   4.005
    1C        C  624   2.513   3.458   4.131
    1C        C  625   2.518   3.530   4.253
    1C        C  626   2.538   3.324   4.380
    1C        C  627   2.520   3.464   4.378
    1C        C  628   2.553   3.250   4.500
    1C        C  629   2.538   3.322   4.621
    1C        C  630   2.594   3.118   4.745
    1C        C  631   2.550   3.253   4.743
    1C        C  632   2.613   3.050   4.868
    1C        C  633   2.564   3.114   4.986
    1C        C  634   2.783   4.301   2.053
    1C        C  635   2.891   4.391   2.050
    1C        C  636   2.748   4.231   2.169
    1C        C  637   2.811   4.273   2.287
    1C        C  638   2.677   4.110   2.409
    1C        C  639   2.760   4.224   2.409
    1C        C  640   2.640   4.050   2.532
    1C        C  641   2.682   4.113   2.652
    1C        C  642   2.592   3.922   2.775
    1C        C  643   2.650   4.051   2.774
    1C        C  644   2.567   3.859   2.899
    1C        C  645   2.596   3.923   3.022
    1C        C  646   2.535   3.723   3.149
    1C        C  647   2.573   3.859   3.146
    1C        C  648   2.521   3.654   3.271
    1C        C  649   2.538   3.726   3.391
    1C        C  650   2.516   3.519   3.518
    1C        C  651   2.526   3.660   3.515
    1C        C  652   2.520   3.449   3.641
    1C        C  653   2.517   3.520   3.763
    1C        C  654   2.533   3.313   3.891
    1C        C  655   2.511   3.452   3.887
    1C        C  656   2.546   3.247   4.015
    1C        C  657   2.532   3.318   4.136
    1C        C  658   2.607   3.122   4.260
    1C        C  659   2.560   3.255   4.259
    1C        C  660   2.629   3.052   4.381
    1C        C  661   2.597   3.116   4.503
    1C        C  662   2.708   2.936   4.625
    1C        C  663   2.627   3.051   4.625
    1C        C  664   2.747   2.877   4.747
    1C        C  665   2.695   2.932   4.868
    1C        C  666   2.736   2.866   4.984
    1C        C  667   2.677   4.026   2.052
    1C        C  668   2.680   4.107   2.166
    1C        C  669   2.595   3.911   2.289
    1C        C  670   2.647   4.044   2.288
    1C        C  671   2.569   3.847   2.412
    1C        C  672   2.588   3.919   2.533
    1C        C  673   2.525   3.718   2.659
    1C        C  674   2.562   3.854   2.655
    1C        C  675   2.518   3.649   2.782
    1C        C  676   2.533   3.722   2.902
    1C        C  677   2.514   3.514   3.029
    1C        C  678   2.525   3.654   3.026
    1C        C  679   2.513   3.442   3.151
    1C        C  680   2.513   3.513   3.273
    1C        C  681   2.530   3.306   3.401
    1C        C  682   2.511   3.446   3.397
    1C        C  683   2.549   3.240   3.524
    1C        C  684   2.534   3.309   3.646
    1C        C  685   2.601   3.111   3.772
    1C        C  686   2.551   3.242   3.770
    1C        C  687   2.634   3.052   3.897
    1C        C  688   2.599   3.116   4.018
    1C        C  689   2.704   2.931   4.137
    1C        C  690   2.630   3.051   4.140
    1C        C  691   2.752   2.878   4.259
    1C        C  692   2.709   2.935   4.381
    1C        C  693   2.747   2.876   4.503
    1C        C  694   2.628   3.895   2.057
    1C        C  695   2.531   3.701   2.176
    1C        C  696   2.574   3.836   2.172
    1C        C  697   2.514   3.633   2.299
    1C        C  698   2.533   3.711   2.415
    1C        C  699   2.497   3.504   2.541
    1C        C  700   2.513   3.645   2.538
    1C        C  701   2.511   3.436   2.664
    1C        C  702   2.507   3.508   2.785
    1C        C  703   2.526   3.299   2.909
    1C        C  704   2.511   3.439   2.909
    1C        C  705   2.542   3.233   3.033
    1C        C  706   2.531   3.302   3.155
    1C        C  707   2.596   3.103   3.280
    1C        C  708   2.546   3.235   3.279
    1C        C  709   2.631   3.046   3.404
    1C        C  710   2.596   3.107   3.527
    1C        C  711   2.705   2.927   3.649
    1C        C  712   2.627   3.045   3.650
    1C        C  713   2.751   2.874   3.772
    1C        C  714   2.711   2.934   3.893
    1C        C  715   2.747   2.873   4.016
    1C        C  716   2.452   3.497   2.060
    1C        C  717   2.493   3.631   2.061
    1C        C  718   2.465   3.421   2.181
    1C        C  719   2.485   3.494   2.301
    1C        C  720   2.512   3.286   2.424
    1C        C  721   2.488   3.426   2.424
    1C        C  722   2.534   3.221   2.547
    1C        C  723   2.524   3.295   2.667
    1C        C  724   2.594   3.095   2.794
    1C        C  725   2.542   3.226   2.789
    1C        C  726   2.621   3.033   2.917
    1C        C  727   2.587   3.099   3.037
    1C        C  728   2.697   2.917   3.161
    1C        C  729   2.619   3.034   3.159
    1C        C  730   2.747   2.868   3.284
    1C        C  731   2.708   2.927   3.406
    1C        C  732   2.752   2.871   3.528
    1C        C  733   2.484   3.194   2.077
    1C        C  734   2.490   3.280   2.187
    1C        C  735   2.569   3.075   2.307
    1C        C  736   2.520   3.209   2.306
    1C        C  737   2.614   3.021   2.429
    1C        C  738   2.589   3.091   2.549
    1C        C  739   2.696   2.908   2.671
    1C        C  740   2.626   3.031   2.672
    1C        C  741   2.737   2.852   2.793
    1C        C  742   2.696   2.913   2.914
    1C        C  743   2.744   2.865   3.038
    1C        C  744   2.543   3.068   2.071
    1C        C  745   2.684   2.897   2.186
    1C        C  746   2.596   3.008   2.186
    1C        C  747   2.730   2.841   2.307
    1C        C  748   2.691   2.902   2.428
    1C        C  749   2.736   2.846   2.550
    1C        C  750   2.741   2.844   2.070
    1C        C  751   3.663   2.307   1.991
    1C        O  752   3.637   2.188   2.027
    1C        O  753   3.678   2.324   1.853
    1C        C  754   4.637   3.050   1.995
    1C        O  755   4.658   3.060   1.871
    1C        O  756   4.721   2.958   2.059
    1C        C  757   4.465   4.221   1.984
    1C        O  758   4.492   4.330   2.042
    1C        O  759   4.518   4.210   1.855
    1C        C  760   3.580   4.640   1.920
    1C        O  761   3.597   4.765   1.921
    1C        O  762   3.561   4.587   1.792
    1C        C  763   2.875   4.514   1.970
    1C        O  764   2.835   4.513   1.850
    1C        O  765   2.841   4.640   2.021
    1C        C  766   2.353   3.461   1.955
    1C        O  767   2.378   3.453   1.832
    1C        O  768   2.219   3.482   1.987
    1C        C  769   4.683   3.580   5.069
    1C        O  770   4.639   3.546   5.182
    1C        O  771   4.808   3.538   5.024
    1C        C  772   4.269   4.484   5.021
    1C        O  773   4.265   4.516   5.143
    1C        O  774   4.369   4.565   4.966
    1C        C  775   4.154   2.533   5.068
    1C        O  776   4.199   2.416   5.051
    1C        O  777   4.163   2.575   5.202
    1C        C  778   2.891   4.544   5.053
    1C        O  779   2.815   4.644   5.036
    1C        O  780   2.901   4.524   5.191
    1C        C  781   2.492   3.045   5.095
    1C        O  782   2.388   2.979   5.067
    1C        O  783   2.492   3.102   5.221
    1C        C  784   2.392   4.018   5.032
    1C        O  785   2.277   4.012   4.982
    1C        O  786   2.366   4.000   5.168
    1C        C  787   2.946   2.447   1.988
    1C        O  788   2.970   2.434   1.865
    1C        O  789   2.868   2.343   2.036
    1C        C  790   3.187   2.374   5.062
    1C        O  791   3.135   2.266   5.024
    1C        O  792   3.152   2.377   5.198
    1C        H  793   4.274   3.033   5.056
    1C        H  794   4.227   2.788   5.073
    1C        H  795   4.502   3.124   5.060
    1C        H  796   4.560   3.349   5.060
    1C        H  797   4.548   3.805   5.049
    1C        H  798   4.448   3.998   5.055
    1C        H  799   4.261   4.151   5.041
    1C        H  800   4.026   4.525   5.030
    1C        H  801   3.823   4.606   5.028
    1C        H  802   3.590   4.642   5.035
    1C        H  803   3.397   4.498   5.047
    1C        H  804   3.164   4.462   5.055
    1C        H  805   3.872   2.537   5.072
    1C        H  806   3.676   2.418   5.056
    1C        H  807   3.012   2.579   5.072
    1C        H  808   3.440   2.432   5.068
    1C        H  809   2.863   2.730   5.081
    1C        H  810   2.670   2.863   5.069
    1C        H  811   2.464   3.282   5.059
    1C        H  812   2.566   3.493   5.061
    1C        H  813   2.523   3.738   5.071
    1C        H  814   2.578   4.181   5.040
    1C        H  815   2.783   4.294   5.055
    1C        H  816   2.710   2.893   1.980
    1C        H  817   2.879   2.716   1.977
    1C        H  818   3.216   2.460   1.982
    1C        H  819   3.422   2.380   2.002
    1C        H  820   3.847   2.519   1.969
    1C        H  821   4.046   2.658   1.971
    1C        H  822   4.293   2.697   1.997
    1C        H  823   4.367   2.937   1.970
    1C        H  824   4.577   3.313   1.972
    1C        H  825   4.507   3.515   1.957
    1C        H  826   4.546   3.748   1.963
    1C        H  827   3.811   4.553   1.963
    1C        H  828   3.982   4.399   1.945
    1C        H  829   4.180   4.298   1.952
    1C        H  830   4.534   3.988   1.983
    1C        H  831   2.677   3.828   1.990
    1C        H  832   2.679   4.076   1.957
    1C        H  833   2.705   4.311   1.980
    1C        H  834   3.375   4.463   1.949
    1C        H  835   3.145   4.443   1.951
    1C        H  836   2.504   3.001   1.998
    1C        H  837   2.400   3.198   2.011
    1C        H  838   2.515   3.675   1.966
    2V3OU   H29  839   2.796   3.547   1.756
    2V3OU   C27  840   2.783   3.508   1.860
    2V3OU   H27  841   2.719   3.574   1.923
    2V3OU   H28  842   2.729   3.410   1.847
    2V3OU   O11  843   2.909   3.470   1.917
    2V3OU   C15  844   2.920   3.396   2.033
    2V3OU   C13  845   3.050   3.373   2.083
    2V3OU   C14  846   3.075   3.269   2.174
    2V3OU   C16  847   2.974   3.186   2.220
    2V3OU    H6  848   2.994   3.107   2.293
    2V3OU   C12  849   3.215   3.228   2.202
    2V3OU    O2  850   3.237   3.129   2.274
    2V3OU   C10  851   3.330   3.309   2.159
    2V3OU    C8  852   3.460   3.269   2.186
    2V3OU   O10  853   3.489   3.155   2.254
    2V3OU   H26  854   3.405   3.107   2.260
    2V3OU    C6  855   3.568   3.350   2.138
    2V3OU    C5  856   3.539   3.467   2.068
    2V3OU    C4  857   3.705   3.291   2.140
    2V3OU    H4  858   3.727   3.223   2.228
    2V3OU    H5  859   3.707   3.224   2.049
    2V3OU    C2  860   3.818   3.393   2.133
    2V3OU    O6  861   3.805   3.469   2.254
    2V3OU   H21  862   3.772   3.554   2.222
    2V3OU    C3  863   3.781   3.493   2.023
    2V3OU    H2  864   3.859   3.573   2.013
    2V3OU    H3  865   3.780   3.435   1.927
    2V3OU   C25  866   3.958   3.332   2.119
    2V3OU    O7  867   4.005   3.296   2.011
    2V3OU   C26  868   4.034   3.296   2.246
    2V3OU   H22  869   4.074   3.381   2.306
    2V3OU   H23  870   4.116   3.224   2.220
    2V3OU    O8  871   3.960   3.211   2.331
    2V3OU   H24  872   3.930   3.264   2.407
    2V3OU    C1  873   3.647   3.564   2.033
    2V3OU    H1  874   3.626   3.619   1.936
    2V3OU    O3  875   3.663   3.656   2.142
    2V3OU   C19  876   3.620   3.792   2.134
    2V3OU    H9  877   3.524   3.812   2.077
    2V3OU    O4  878   3.721   3.855   2.058
    2V3OU   C20  879   3.850   3.877   2.116
    2V3OU   H10  880   3.899   3.776   2.120
    2V3OU   C24  881   3.611   3.855   2.273
    2V3OU   H16  882   3.538   3.793   2.332
    2V3OU   H17  883   3.568   3.957   2.257
    2V3OU   C23  884   3.745   3.878   2.344
    2V3OU   H15  885   3.792   3.775   2.359
    2V3OU    N1  886   3.734   3.952   2.468
    2V3OU   H19  887   3.803   3.932   2.538
    2V3OU   H20  888   3.644   3.927   2.503
    2V3OU   C21  889   3.848   3.949   2.251
    2V3OU   H11  890   3.950   3.927   2.293
    2V3OU    O5  891   3.829   4.090   2.253
    2V3OU   H18  892   3.782   4.111   2.335
    2V3OU   C22  893   3.917   3.956   2.004
    2V3OU   H12  894   3.862   4.052   1.988
    2V3OU   H13  895   3.906   3.899   1.908
    2V3OU   H14  896   4.026   3.966   2.026
    2V3OU   C11  897   3.157   3.473   2.069
    2V3OU    O1  898   3.133   3.590   2.032
    2V3OU    C9  899   3.296   3.427   2.088
    2V3OU    C7  900   3.403   3.505   2.045
    2V3OU    O9  901   3.387   3.619   1.968
    2V3OU   H25  902   3.291   3.629   1.962
    2V3OU   C17  903   2.816   3.312   2.078
    2V3OU    H7  904   2.714   3.342   2.055
    2V3OU   C18  905   2.847   3.214   2.171
    2V3OU    H8  906   2.768   3.153   2.219
    3SOL     OW  907   2.736   4.396   0.940
    3SOL    HW1  908   2.737   4.319   1.004
    3SOL    HW2  909   2.668   4.463   0.971
    4SOL     OW  910   6.189   5.503   1.803
    4SOL    HW1  911   6.107   5.473   1.851
    4SOL    HW2  912   6.176   5.490   1.704
    5SOL     OW  913   3.429   1.283   3.036
    5SOL    HW1  914   3.496   1.212   3.055
    5SOL    HW2  915   3.422   1.344   3.115
    6SOL     OW  916   4.794   1.518   1.748
    6SOL    HW1  917   4.719   1.488   1.690
    6SOL    HW2  918   4.861   1.568   1.693
    7SOL     OW  919   6.111   3.493   2.449
    7SOL    HW1  920   6.072   3.420   2.394
    7SOL    HW2  921   6.210   3.491   2.442
    8SOL     OW  922   2.863   6.830   5.618
    8SOL    HW1  923   2.805   6.785   5.685
    8SOL    HW2  924   2.957   6.795   5.625
    9SOL     OW  925   0.052   5.089   5.777
    9SOL    HW1  926   0.021   5.040   5.858
    9SOL    HW2  927   6.999   5.140   5.737
   10SOL     OW  928   1.086   4.706   5.828
   10SOL    HW1  929   1.111   4.609   5.820
   10SOL    HW2  930   1.049   4.723   5.919
   11SOL     OW  931   2.884   0.379   0.096
   11SOL    HW1  932   2.980   0.360   0.079
   11SOL    HW2  933   2.875   0.460   0.154
   12SOL     OW  934   4.176   6.183   3.880
   12SOL    HW1  935   4.220   6.258   3.930
   12SOL    HW2  936   4.124   6.221   3.804
   13SOL     OW  937   3.117   5.596   4.254
   13SOL    HW1  938   3.214   5.584   4.234
   13SOL    HW2  939   3.102   5.581   4.352
   14SOL     OW  940   4.820   5.437   6.397
   14SOL    HW1  941   4.789   5.469   6.487
   14SOL    HW2  942   4.745   5.390   6.351
   15SOL     OW  943   0.911   4.917   0.682
   15SOL    HW1  944   0.904   4.885   0.588
   15SOL    HW2  945   0.822   4.910   0.727
   16SOL     OW  946   5.726   2.995   5.480
   16SOL    HW1  947   5.681   3.076   5.441
   16SOL    HW2  948   5.659   2.921   5.488
   17SOL     OW  949   5.368   5.944   5.076
   17SOL    HW1  950   5.279   5.919   5.115
   17SOL    HW2  951   5.440   5.911   5.137
   18SOL     OW  952   3.192   1.168   6.626
   18SOL    HW1  953   3.175   1.074   6.596
   18SOL    HW2  954   3.130   1.190   6.702
   19SOL     OW  955   0.168   0.087   3.183
   19SOL    HW1  956   0.111   0.147   3.127
   19SOL    HW2  957   0.188   0.132   3.270
   20SOL     OW  958   4.606   1.614   4.275
   20SOL    HW1  959   4.620   1.587   4.371
   20SOL    HW2  960   4.671   1.687   4.252
   21SOL     OW  961   3.171   2.111   2.202
   21SOL    HW1  962   3.106   2.135   2.129
   21SOL    HW2  963   3.262   2.100   2.163
   22SOL     OW  964   2.524   7.008   0.424
   22SOL    HW1  965   2.467   6.978   0.347
   22SOL    HW2  966   2.475   6.995   0.510
   23SOL     OW  967   4.569   6.710   3.503
   23SOL    HW1  968   4.490   6.765   3.531
   23SOL    HW2  969   4.638   6.712   3.576
   24SOL     OW  970   5.117   1.137   3.157
   24SOL    HW1  971   5.043   1.203   3.152
   24SOL    HW2  972   5.204   1.183   3.139
   25SOL     OW  973   3.624   6.658   5.712
   25SOL    HW1  974   3.532   6.696   5.709
   25SOL    HW2  975   3.690   6.732   5.722
   26SOL     OW  976   6.404   0.887   0.402
   26SOL    HW1  977   6.462   0.904   0.322
   26SOL    HW2  978   6.362   0.797   0.394
   27SOL     OW  979   0.272   1.281   1.740
   27SOL    HW1  980   0.346   1.306   1.802
   27SOL    HW2  981   0.199   1.349   1.745
   28SOL     OW  982   3.814   1.268   0.226
   28SOL    HW1  983   3.786   1.256   0.131
   28SOL    HW2  984   3.733   1.284   0.283
   29SOL     OW  985   5.956   2.813   1.932
   29SOL    HW1  986   5.931   2.839   2.025
   29SOL    HW2  987   5.876   2.778   1.884
   30SOL     OW  988   3.971   0.725   5.078
   30SOL    HW1  989   4.050   0.691   5.028
   30SOL    HW2  990   3.965   0.824   5.068
   31SOL     OW  991   0.550   1.737   5.957
   31SOL    HW1  992   0.609   1.709   6.033
   31SOL    HW2  993   0.599   1.722   5.871
   32SOL     OW  994   6.666   1.219   3.073
   32SOL    HW1  995   6.611   1.153   3.022
   32SOL    HW2  996   6.761   1.212   3.045
   33SOL     OW  997   2.324   3.483   0.072
   33SOL    HW1  998   2.242   3.453   0.023
   33SOL    HW2  999   2.323   3.447   0.165
   34SOL     OW 1000   1.923   1.605   3.853
   34SOL    HW1 1001   1.959   1.684   3.903
   34SOL    HW2 1002   1.914   1.628   3.756
   35SOL     OW 1003   3.561   1.843   0.066
   35SOL    HW1 1004   3.607   1.882   7.010
   35SOL    HW2 1005   3.462   1.853   0.055
   36SOL     OW 1006   0.004   1.015   6.208
   36SOL    HW1 1007   0.102   1.034   6.219
   36SOL    HW2 1008   7.015   0.944   6.138
   37SOL     OW 1009   1.545   0.555   0.607
   37SOL    HW1 1010   1.462   0.499   0.600
   37SOL    HW2 1011   1.622   0.497   0.636
   38SOL     OW 1012   0.376   4.547   2.204
   38SOL    HW1 1013   0.323   4.604   2.141
   38SOL    HW2 1014   0.469   4.584   2.211
   39SOL     OW 1015   6.904   5.086   6.602
   39SOL    HW1 1016   6.843   5.163   6.582
   39SOL    HW2 1017   6.980   5.087   6.536
   40SOL     OW 1018   5.744   2.467   1.288
   40SOL    HW1 1019   5.777   2.381   1.250
   40SOL    HW2 1020   5.648   2.458   1.315
   41SOL     OW 1021   0.543   6.486   4.169
   41SOL    HW1 1022   0.531   6.536   4.083
   41SOL    HW2 1023   0.466   6.504   4.230
   42SOL     OW 1024   2.230   5.562   6.183
   42SOL    HW1 1025   2.232   5.583   6.086
   42SOL    HW2 1026   2.235   5.464   6.197
   43SOL     OW 1027   5.503   6.348   5.449
   43SOL    HW1 1028   5.414   6.385   5.475
   43SOL    HW2 1029   5.493   6.289   5.369
   44SOL     OW 1030   5.828   2.238   6.092
   44SOL    HW1 1031   5.849   2.274   6.183
   44SOL    HW2 1032   5.914   2.217   6.044
   45SOL     OW 1033   3.469   0.178   3.490
   45SOL    HW1 1034   3.496   0.095   3.539
   45SOL    HW2 1035   3.393   0.157   3.428
   46SOL     OW 1036   1.265   3.536   4.320
   46SOL    HW1 1037   1.222   3.484   4.394
   46SOL    HW2 1038   1.194   3.577   4.262
   47SOL     OW 1039   4.817   4.451   2.297
   47SOL    HW1 1040   4.905   4.408   2.315
   47SOL    HW2 1041   4.763   4.454   2.382
   48SOL     OW 1042   0.055   2.766   5.568
   48SOL    HW1 1043   0.083   2.742   5.661
   48SOL    HW2 1044   6.992   2.815   5.570
   49SOL     OW 1045   4.714   4.075   1.750
   49SOL    HW1 1046   4.638   4.123   1.794
   49SOL    HW2 1047   4.723   3.984   1.791
   50SOL     OW 1048   6.403   2.644   6.023
   50SOL    HW1 1049   6.487   2.591   6.032
   50SOL    HW2 1050   6.376   2.648   5.927
   51SOL     OW 1051   2.911   6.202   2.306
   51SOL    HW1 1052   2.915   6.137   2.383
   51SOL    HW2 1053   2.972   6.279   2.325
   52SOL     OW 1054   5.167   2.582   3.344
   52SOL    HW1 1055   5.138   2.516   3.414
   52SOL    HW2 1056   5.265   2.597   3.350
   53SOL     OW 1057   4.106   0.430   4.616
   53SOL    HW1 1058   4.138   0.396   4.527
   53SOL    HW2 1059   4.045   0.508   4.602
   54SOL     OW 1060   3.789   4.725   0.721
   54SOL    HW1 1061   3.863   4.687   0.665
   54SOL    HW2 1062   3.825   4.757   0.808
   55SOL     OW 1063   3.738   1.458   6.404
   55SOL    HW1 1064   3.744   1.550   6.443
   55SOL    HW2 1065   3.709   1.464   6.308
   56SOL     OW 1066   0.674   0.329   1.120
   56SOL    HW1 1067   0.647   0.377   1.037
   56SOL    HW2 1068   0.592   0.305   1.172
   57SOL     OW 1069   5.835   0.389   0.711
   57SOL    HW1 1070   5.819   0.479   0.751
   57SOL    HW2 1071   5.919   0.391   0.657
   58SOL     OW 1072   6.408   6.695   5.439
   58SOL    HW1 1073   6.448   6.706   5.530
   58SOL    HW2 1074   6.457   6.753   5.373
   59SOL     OW 1075   1.784   1.336   6.234
   59SOL    HW1 1076   1.880   1.326   6.262
   59SOL    HW2 1077   1.734   1.253   6.258
   60SOL     OW 1078   5.965   1.148   6.312
   60SOL    HW1 1079   6.014   1.233   6.327
   60SOL    HW2 1080   5.982   1.115   6.220
   61SOL     OW 1081   5.113   1.888   4.910
   61SOL    HW1 1082   5.039   1.869   4.975
   61SOL    HW2 1083   5.199   1.849   4.944
   62SOL     OW 1084   0.166   0.696   3.705
   62SOL    HW1 1085   0.248   0.708   3.761
   62SOL    HW2 1086   0.189   0.642   3.624
   63SOL     OW 1087   6.263   1.452   3.809
   63SOL    HW1 1088   6.175   1.496   3.792
   63SOL    HW2 1089   6.328   1.520   3.843
   64SOL     OW 1090   0.258   3.846   6.532
   64SOL    HW1 1091   0.205   3.855   6.448
   64SOL    HW2 1092   0.351   3.880   6.517
   65SOL     OW 1093   0.011   4.484   5.465
   65SOL    HW1 1094   6.982   4.403   5.439
   65SOL    HW2 1095   7.023   4.555   5.396
   66SOL     OW 1096   3.754   0.748   6.645
   66SOL    HW1 1097   3.666   0.701   6.650
   66SOL    HW2 1098   3.767   0.786   6.554
   67SOL     OW 1099   5.296   4.374   5.405
   67SOL    HW1 1100   5.277   4.472   5.398
   67SOL    HW2 1101   5.345   4.344   5.322
   68SOL     OW 1102   5.659   0.657   6.723
   68SOL    HW1 1103   5.691   0.699   6.808
   68SOL    HW2 1104   5.686   0.714   6.646
   69SOL     OW 1105   0.747   3.293   6.854
   69SOL    HW1 1106   0.818   3.265   6.789
   69SOL    HW2 1107   0.778   3.272   6.947
   70SOL     OW 1108   6.066   4.770   3.427
   70SOL    HW1 1109   6.005   4.721   3.489
   70SOL    HW2 1110   6.130   4.705   3.385
   71SOL     OW 1111   4.199   1.728   2.466
   71SOL    HW1 1112   4.192   1.659   2.538
   71SOL    HW2 1113   4.108   1.758   2.439
   72SOL     OW 1114   3.168   5.988   5.308
   72SOL    HW1 1115   3.203   6.068   5.357
   72SOL    HW2 1116   3.229   5.967   5.232
   73SOL     OW 1117   4.049   1.133   0.919
   73SOL    HW1 1118   4.020   1.040   0.945
   73SOL    HW2 1119   4.036   1.194   0.996
   74SOL     OW 1120   4.619   6.209   5.936
   74SOL    HW1 1121   4.566   6.136   5.893
   74SOL    HW2 1122   4.710   6.175   5.960
   75SOL     OW 1123   4.349   0.471   6.693
   75SOL    HW1 1124   4.326   0.387   6.643
   75SOL    HW2 1125   4.278   0.490   6.761
   76SOL     OW 1126   2.427   2.557   1.610
   76SOL    HW1 1127   2.420   2.473   1.557
   76SOL    HW2 1128   2.388   2.633   1.557
   77SOL     OW 1129   5.735   6.135   4.221
   77SOL    HW1 1130   5.747   6.067   4.294
   77SOL    HW2 1131   5.701   6.090   4.139
   78SOL     OW 1132   5.829   0.891   5.884
   78SOL    HW1 1133   5.913   0.851   5.921
   78SOL    HW2 1134   5.832   0.991   5.896
   79SOL     OW 1135   3.307   6.771   0.536
   79SOL    HW1 1136   3.350   6.804   0.452
   79SOL    HW2 1137   3.217   6.813   0.546
   80SOL     OW 1138   5.562   1.845   4.361
   80SOL    HW1 1139   5.494   1.839   4.434
   80SOL    HW2 1140   5.516   1.842   4.272
   81SOL     OW 1141   2.102   0.441   3.114
   81SOL    HW1 1142   2.130   0.346   3.096
   81SOL    HW2 1143   2.183   0.500   3.114
   82SOL     OW 1144   6.310   5.174   0.614
   82SOL    HW1 1145   6.293   5.271   0.636
   82SOL    HW2 1146   6.304   5.161   0.516
   83SOL     OW 1147   7.013   0.553   0.669
   83SOL    HW1 1148   0.021   0.458   0.679
   83SOL    HW2 1149   7.020   0.580   0.573
   84SOL     OW 1150   5.177   3.391   3.614
   84SOL    HW1 1151   5.153   3.481   3.649
   84SOL    HW2 1152   5.205   3.399   3.518
   85SOL     OW 1153   2.109   1.974   5.118
   85SOL    HW1 1154   2.099   1.920   5.034
   85SOL    HW2 1155   2.021   2.017   5.141
   86SOL     OW 1156   0.363   0.645   5.708
   86SOL    HW1 1157   0.401   0.712   5.771
   86SOL    HW2 1158   0.422   0.564   5.706
   87SOL     OW 1159   5.117   3.460   0.661
   87SOL    HW1 1160   5.188   3.527   0.683
   87SOL    HW2 1161   5.052   3.501   0.597
   88SOL     OW 1162   3.596   1.794   6.138
   88SOL    HW1 1163   3.659   1.794   6.060
   88SOL    HW2 1164   3.561   1.887   6.152
   89SOL     OW 1165   0.885   2.510   5.726
   89SOL    HW1 1166   0.970   2.555   5.699
   89SOL    HW2 1167   0.845   2.558   5.804
   90SOL     OW 1168   4.168   6.327   3.128
   90SOL    HW1 1169   4.230   6.403   3.150
   90SOL    HW2 1170   4.075   6.363   3.116
   91SOL     OW 1171   4.804   4.269   4.786
   91SOL    HW1 1172   4.879   4.332   4.805
   91SOL    HW2 1173   4.765   4.289   4.696
   92SOL     OW 1174   3.091   3.800   0.427
   92SOL    HW1 1175   3.047   3.821   0.515
   92SOL    HW2 1176   3.114   3.885   0.380
   93SOL     OW 1177   2.317   3.522   6.604
   93SOL    HW1 1178   2.317   3.531   6.504
   93SOL    HW2 1179   2.369   3.441   6.630
   94SOL     OW 1180   2.452   6.176   6.014
   94SOL    HW1 1181   2.506   6.179   6.098
   94SOL    HW2 1182   2.402   6.090   6.009
   95SOL     OW 1183   0.871   0.907   3.259
   95SOL    HW1 1184   0.812   0.897   3.179
   95SOL    HW2 1185   0.967   0.900   3.231
   96SOL     OW 1186   4.122   0.356   5.180
   96SOL    HW1 1187   4.050   0.291   5.156
   96SOL    HW2 1188   4.082   0.431   5.233
   97SOL     OW 1189   1.262   3.543   6.172
   97SOL    HW1 1190   1.265   3.627   6.227
   97SOL    HW2 1191   1.293   3.563   6.079
   98SOL     OW 1192   6.155   3.785   0.268
   98SOL    HW1 1193   6.087   3.839   0.319
   98SOL    HW2 1194   6.184   3.836   0.187
   99SOL     OW 1195   4.564   3.537   1.336
   99SOL    HW1 1196   4.602   3.449   1.363
   99SOL    HW2 1197   4.638   3.600   1.312
  100SOL     OW 1198   6.952   0.251   5.415
  100SOL    HW1 1199   6.955   0.201   5.501
  100SOL    HW2 1200   6.870   0.225   5.364
  101SOL     OW 1201   1.632   5.791   2.431
  101SOL    HW1 1202   1.685   5.826   2.508
  101SOL    HW2 1203   1.646   5.849   2.350
  102SOL     OW 1204   4.065   0.366   2.371
  102SOL    HW1 1205   4.161   0.369   2.400
  102SOL    HW2 1206   4.007   0.353   2.451
  103SOL     OW 1207   3.153   1.098   2.232
  103SOL    HW1 1208   3.161   1.105   2.331
  103SOL    HW2 1209   3.244   1.106   2.190
  104SOL     OW 1210   0.307   5.427   2.303
  104SOL    HW1 1211   0.385   5.375   2.269
  104SOL    HW2 1212   0.279   5.494   2.234
  105SOL     OW 1213   6.712   2.845   6.324
  105SOL    HW1 1214   6.757   2.766   6.283
  105SOL    HW2 1215   6.627   2.864   6.275
  106SOL     OW 1216   3.819   6.160   4.554
  106SOL    HW1 1217   3.828   6.157   4.654
  106SOL    HW2 1218   3.722   6.159   4.530
  107SOL     OW 1219   1.600   1.244   1.849
  107SOL    HW1 1220   1.610   1.334   1.892
  107SOL    HW2 1221   1.627   1.173   1.914
  108SOL     OW 1222   3.852   5.151   5.322
  108SOL    HW1 1223   3.892   5.137   5.231
  108SOL    HW2 1224   3.842   5.062   5.367
  109SOL     OW 1225   0.614   0.804   1.538
  109SOL    HW1 1226   0.655   0.782   1.449
  109SOL    HW2 1227   0.581   0.899   1.537
  110SOL     OW 1228   3.806   5.981   5.453
  110SOL    HW1 1229   3.713   6.004   5.478
  110SOL    HW2 1230   3.853   5.940   5.531
  111SOL     OW 1231   3.443   0.628   4.952
  111SOL    HW1 1232   3.506   0.694   4.993
  111SOL    HW2 1233   3.385   0.674   4.885
  112SOL     OW 1234   5.593   6.600   6.358
  112SOL    HW1 1235   5.687   6.623   6.333
  112SOL    HW2 1236   5.529   6.663   6.313
  113SOL     OW 1237   5.829   4.929   3.414
  113SOL    HW1 1238   5.918   4.893   3.384
  113SOL    HW2 1239   5.831   5.029   3.411
  114SOL     OW 1240   0.907   0.084   1.264
  114SOL    HW1 1241   0.952   0.022   1.199
  114SOL    HW2 1242   0.808   0.072   1.259
  115SOL     OW 1243   3.746   1.545   3.052
  115SOL    HW1 1244   3.708   1.630   3.087
  115SOL    HW2 1245   3.739   1.473   3.121
  116SOL     OW 1246   6.064   5.144   1.837
  116SOL    HW1 1247   6.090   5.213   1.905
  116SOL    HW2 1248   6.067   5.053   1.879
  117SOL     OW 1249   1.494   1.508   0.117
  117SOL    HW1 1250   1.465   1.494   0.023
  117SOL    HW2 1251   1.520   1.421   0.158
  118SOL     OW 1252   1.299   1.622   3.152
  118SOL    HW1 1253   1.351   1.671   3.222
  118SOL    HW2 1254   1.210   1.667   3.141
  119SOL     OW 1255   0.891   1.703   6.377
  119SOL    HW1 1256   0.892   1.704   6.477
  119SOL    HW2 1257   0.962   1.764   6.342
  120SOL     OW 1258   6.365   6.654   0.297
  120SOL    HW1 1259   6.282   6.611   0.332
  120SOL    HW2 1260   6.368   6.749   0.328
  121SOL     OW 1261   2.275   3.551   6.310
  121SOL    HW1 1262   2.325   3.471   6.278
  121SOL    HW2 1263   2.178   3.541   6.288
  122SOL     OW 1264   1.617   4.498   6.881
  122SOL    HW1 1265   1.712   4.512   6.852
  122SOL    HW2 1266   1.583   4.411   6.844
  123SOL     OW 1267   0.073   1.466   1.755
  123SOL    HW1 1268   0.118   1.541   1.803
  123SOL    HW2 1269   7.000   1.461   1.783
  124SOL     OW 1270   5.067   3.053   0.767
  124SOL    HW1 1271   5.051   3.126   0.701
  124SOL    HW2 1272   5.075   3.092   0.859
  125SOL     OW 1273   2.882   1.166   2.344
  125SOL    HW1 1274   2.882   1.184   2.246
  125SOL    HW2 1275   2.916   1.246   2.393
  126SOL     OW 1276   2.516   3.745   1.293
  126SOL    HW1 1277   2.552   3.662   1.337
  126SOL    HW2 1278   2.580   3.820   1.309
  127SOL     OW 1279   0.208   5.349   6.001
  127SOL    HW1 1280   0.198   5.315   6.094
  127SOL    HW2 1281   0.137   5.416   5.981
  128SOL     OW 1282   4.598   2.335   1.251
  128SOL    HW1 1283   4.547   2.316   1.167
  128SOL    HW2 1284   4.647   2.253   1.279
  129SOL     OW 1285   3.456   2.825   5.878
  129SOL    HW1 1286   3.362   2.793   5.864
  129SOL    HW2 1287   3.472   2.843   5.975
  130SOL     OW 1288   0.671   0.754   3.934
  130SOL    HW1 1289   0.610   0.813   3.987
  130SOL    HW2 1290   0.762   0.796   3.929
  131SOL     OW 1291   5.127   2.146   3.517
  131SOL    HW1 1292   5.098   2.054   3.542
  131SOL    HW2 1293   5.078   2.176   3.435
  132SOL     OW 1294   2.547   2.745   0.744
  132SOL    HW1 1295   2.530   2.646   0.744
  132SOL    HW2 1296   2.511   2.784   0.829
  133SOL     OW 1297   4.875   6.749   4.002
  133SOL    HW1 1298   4.776   6.738   4.003
  133SOL    HW2 1299   4.901   6.827   4.060
  134SOL     OW 1300   6.039   1.637   2.212
  134SOL    HW1 1301   6.040   1.737   2.206
  134SOL    HW2 1302   6.112   1.599   2.154
  135SOL     OW 1303   5.728   3.845   3.006
  135SOL    HW1 1304   5.651   3.868   2.947
  135SOL    HW2 1305   5.733   3.745   3.016
  136SOL     OW 1306   3.068   3.995   6.581
  136SOL    HW1 1307   3.011   4.054   6.524
  136SOL    HW2 1308   3.164   4.015   6.564
  137SOL     OW 1309   5.231   1.483   4.780
  137SOL    HW1 1310   5.198   1.390   4.766
  137SOL    HW2 1311   5.293   1.485   4.859
  138SOL     OW 1312   0.490   4.735   3.245
  138SOL    HW1 1313   0.460   4.666   3.311
  138SOL    HW2 1314   0.450   4.716   3.156
  139SOL     OW 1315   2.285   6.586   4.933
  139SOL    HW1 1316   2.196   6.630   4.949
  139SOL    HW2 1317   2.340   6.591   5.016
  140SOL     OW 1318   0.675   5.453   3.523
  140SOL    HW1 1319   0.588   5.496   3.548
  140SOL    HW2 1320   0.683   5.450   3.424
  141SOL     OW 1321   5.972   3.295   4.806
  141SOL    HW1 1322   5.907   3.307   4.731
  141SOL    HW2 1323   6.059   3.337   4.782
  142SOL     OW 1324   2.000   4.129   0.683
  142SOL    HW1 1325   2.002   4.177   0.771
  142SOL    HW2 1326   1.937   4.051   0.689
  143SOL     OW 1327   5.439   4.484   1.722
  143SOL    HW1 1328   5.355   4.499   1.774
  143SOL    HW2 1329   5.425   4.515   1.627
  144SOL     OW 1330   1.642   6.148   6.747
  144SOL    HW1 1331   1.652   6.054   6.779
  144SOL    HW2 1332   1.635   6.149   6.647
  145SOL     OW 1333   0.205   5.238   0.136
  145SOL    HW1 1334   0.133   5.210   0.072
  145SOL    HW2 1335   0.262   5.307   0.093
  146SOL     OW 1336   5.239   0.675   6.538
  146SOL    HW1 1337   5.291   0.626   6.609
  146SOL    HW2 1338   5.212   0.610   6.467
  147SOL     OW 1339   5.936   4.000   6.395
  147SOL    HW1 1340   5.881   3.993   6.312
  147SOL    HW2 1341   5.904   4.077   6.450
  148SOL     OW 1342   7.017   5.615   6.387
  148SOL    HW1 1343   0.050   5.543   6.427
  148SOL    HW2 1344   0.050   5.697   6.373
  149SOL     OW 1345   3.030   1.956   4.739
  149SOL    HW1 1346   2.965   1.945   4.664
  149SOL    HW2 1347   3.020   2.047   4.778
  150SOL     OW 1348   5.984   5.546   6.642
  150SOL    HW1 1349   6.038   5.596   6.575
  150SOL    HW2 1350   5.893   5.587   6.649
  151SOL     OW 1351   3.652   2.573   1.147
  151SOL    HW1 1352   3.697   2.547   1.232
  151SOL    HW2 1353   3.554   2.558   1.156
  152SOL     OW 1354   1.374   1.321   3.132
  152SOL    HW1 1355   1.337   1.411   3.109
  152SOL    HW2 1356   1.357   1.301   3.228
  153SOL     OW 1357   2.959   0.599   1.823
  153SOL    HW1 1358   2.861   0.597   1.802
  153SOL    HW2 1359   3.009   0.542   1.758
  154SOL     OW 1360   0.466   1.849   3.014
  154SOL    HW1 1361   0.398   1.823   2.945
  154SOL    HW2 1362   0.419   1.874   3.099
  155SOL     OW 1363   6.414   1.655   3.427
  155SOL    HW1 1364   6.328   1.606   3.442
  155SOL    HW2 1365   6.404   1.715   3.347
  156SOL     OW 1366   7.012   2.200   0.476
  156SOL    HW1 1367   0.043   2.166   0.400
  156SOL    HW2 1368   0.024   2.162   0.562
  157SOL     OW 1369   6.262   3.431   1.566
  157SOL    HW1 1370   6.359   3.436   1.591
  157SOL    HW2 1371   6.217   3.516   1.591
  158SOL     OW 1372   2.352   5.993   2.213
  158SOL    HW1 1373   2.386   6.079   2.251
  158SOL    HW2 1374   2.428   5.928   2.205
  159SOL     OW 1375   4.437   4.674   1.993
  159SOL    HW1 1376   4.498   4.596   1.980
  159SOL    HW2 1377   4.450   4.712   2.085
  160SOL     OW 1378   6.518   5.580   0.283
  160SOL    HW1 1379   6.511   5.655   0.217
  160SOL    HW2 1380   6.615   5.556   0.295
  161SOL     OW 1381   2.133   5.827   4.772
  161SOL    HW1 1382   2.166   5.733   4.761
  161SOL    HW2 1383   2.056   5.842   4.710
  162SOL     OW 1384   3.910   6.928   6.929
  162SOL    HW1 1385   3.851   6.991   6.879
  162SOL    HW2 1386   3.897   6.835   6.894
  163SOL     OW 1387   5.483   6.038   0.847
  163SOL    HW1 1388   5.498   6.131   0.881
  163SOL    HW2 1389   5.571   5.997   0.824
  164SOL     OW 1390   6.466   4.741   0.161
  164SOL    HW1 1391   6.471   4.757   0.062
  164SOL    HW2 1392   6.485   4.827   0.209
  165SOL     OW 1393   5.427   2.671   1.768
  165SOL    HW1 1394   5.342   2.722   1.752
  165SOL    HW2 1395   5.407   2.591   1.824
  166SOL     OW 1396   6.674   4.951   3.942
  166SOL    HW1 1397   6.602   4.884   3.961
  166SOL    HW2 1398   6.634   5.030   3.895
  167SOL     OW 1399   5.729   2.592   6.749
  167SOL    HW1 1400   5.736   2.493   6.748
  167SOL    HW2 1401   5.805   2.631   6.802
  168SOL     OW 1402   2.055   3.346   1.346
  168SOL    HW1 1403   2.102   3.309   1.266
  168SOL    HW2 1404   2.110   3.420   1.384
  169SOL     OW 1405   4.340   0.539   1.724
  169SOL    HW1 1406   4.362   0.573   1.815
  169SOL    HW2 1407   4.241   0.531   1.714
  170SOL     OW 1408   0.891   0.891   3.529
  170SOL    HW1 1409   0.868   0.890   3.432
  170SOL    HW2 1410   0.989   0.910   3.540
  171SOL     OW 1411   3.756   4.612   0.285
  171SOL    HW1 1412   3.686   4.542   0.276
  171SOL    HW2 1413   3.843   4.577   0.251
  172SOL     OW 1414   6.065   1.700   4.202
  172SOL    HW1 1415   5.966   1.698   4.220
  172SOL    HW2 1416   6.094   1.613   4.162
  173SOL     OW 1417   6.773   2.157   4.521
  173SOL    HW1 1418   6.823   2.074   4.543
  173SOL    HW2 1419   6.678   2.148   4.549
  174SOL     OW 1420   3.428   5.571   4.579
  174SOL    HW1 1421   3.491   5.646   4.563
  174SOL    HW2 1422   3.479   5.489   4.606
  175SOL     OW 1423   2.486   0.084   2.146
  175SOL    HW1 1424   2.405   0.143   2.139
  175SOL    HW2 1425   2.459   7.020   2.186
  176SOL     OW 1426   1.201   4.395   1.144
  176SOL    HW1 1427   1.297   4.368   1.142
  176SOL    HW2 1428   1.183   4.451   1.225
  177SOL     OW 1429   5.876   2.981   2.753
  177SOL    HW1 1430   5.909   2.887   2.742
  177SOL    HW2 1431   5.893   3.032   2.669
  178SOL     OW 1432   3.187   2.936   6.058
  178SOL    HW1 1433   3.134   2.883   5.992
  178SOL    HW2 1434   3.198   3.029   6.025
  179SOL     OW 1435   2.584   1.423   6.225
  179SOL    HW1 1436   2.571   1.398   6.129
  179SOL    HW2 1437   2.679   1.450   6.240
  180SOL     OW 1438   1.589   7.012   6.752
  180SOL    HW1 1439   1.678   6.968   6.744
  180SOL    HW2 1440   1.525   6.969   6.688
  181SOL     OW 1441   3.259   2.093   6.093
  181SOL    HW1 1442   3.187   2.035   6.054
  181SOL    HW2 1443   3.279   2.168   6.029
  182SOL     OW 1444   3.678   1.499   3.881
  182SOL    HW1 1445   3.584   1.476   3.904
  182SOL    HW2 1446   3.741   1.444   3.936
  183SOL     OW 1447   3.476   2.042   3.201
  183SOL    HW1 1448   3.474   1.997   3.112
  183SOL    HW2 1449   3.414   1.995   3.263
  184SOL     OW 1450   2.004   6.248   4.228
  184SOL    HW1 1451   1.983   6.286   4.138
  184SOL    HW2 1452   1.954   6.298   4.298
  185SOL     OW 1453   0.464   1.733   6.312
  185SOL    HW1 1454   0.444   1.642   6.348
  185SOL    HW2 1455   0.414   1.801   6.366
  186SOL     OW 1456   5.857   1.110   4.031
  186SOL    HW1 1457   5.890   1.021   3.999
  186SOL    HW2 1458   5.887   1.181   3.967
  187SOL     OW 1459   4.621   0.440   3.067
  187SOL    HW1 1460   4.623   0.350   3.109
  187SOL    HW2 1461   4.546   0.493   3.106
  188SOL     OW 1462   6.953   1.994   2.386
  188SOL    HW1 1463   6.980   1.940   2.306
  188SOL    HW2 1464   6.866   1.960   2.420
  189SOL     OW 1465   2.269   5.051   1.885
  189SOL    HW1 1466   2.321   4.970   1.858
  189SOL    HW2 1467   2.322   5.103   1.952
  190SOL     OW 1468   4.426   1.419   4.135
  190SOL    HW1 1469   4.342   1.457   4.096
  190SOL    HW2 1470   4.473   1.489   4.189
  191SOL     OW 1471   5.419   5.871   6.667
  191SOL    HW1 1472   5.496   5.809   6.653
  191SOL    HW2 1473   5.346   5.824   6.716
  192SOL     OW 1474   0.351   5.708   1.674
  192SOL    HW1 1475   0.444   5.743   1.659
  192SOL    HW2 1476   0.332   5.706   1.773
  193SOL     OW 1477   4.710   2.967   5.641
  193SOL    HW1 1478   4.634   3.029   5.620
  193SOL    HW2 1479   4.674   2.873   5.647
  194SOL     OW 1480   3.906   0.716   2.434
  194SOL    HW1 1481   3.867   0.800   2.472
  194SOL    HW2 1482   3.848   0.683   2.360
  195SOL     OW 1483   1.707   7.002   4.963
  195SOL    HW1 1484   1.792   6.974   4.918
  195SOL    HW2 1485   1.728   0.030   5.046
  196SOL     OW 1486   2.393   1.240   6.507
  196SOL    HW1 1487   2.350   1.250   6.597
  196SOL    HW2 1488   2.348   1.299   6.441
  197SOL     OW 1489   2.346   0.269   0.826
  197SOL    HW1 1490   2.358   0.369   0.826
  197SOL    HW2 1491   2.324   0.238   0.733
  198SOL     OW 1492   4.662   0.689   3.000
  198SOL    HW1 1493   4.628   0.596   3.017
  198SOL    HW2 1494   4.752   0.700   3.042
  199SOL     OW 1495   1.033   2.169   4.234
  199SOL    HW1 1496   1.105   2.186   4.302
  199SOL    HW2 1497   1.067   2.109   4.163
  200SOL     OW 1498   1.294   3.716   0.505
  200SOL    HW1 1499   1.300   3.749   0.599
  200SOL    HW2 1500   1.294   3.793   0.441
  201SOL     OW 1501   0.391   6.413   5.731
  201SOL    HW1 1502   0.344   6.337   5.775
  201SOL    HW2 1503   0.480   6.427   5.773
  202SOL     OW 1504   3.483   1.780   6.556
  202SOL    HW1 1505   3.517   1.864   6.599
  202SOL    HW2 1506   3.397   1.798   6.510
  203SOL     OW 1507   6.223   2.121   5.250
  203SOL    HW1 1508   6.194   2.033   5.211
  203SOL    HW2 1509   6.285   2.105   5.326
  204SOL     OW 1510   0.781   0.193   4.599
  204SOL    HW1 1511   0.862   0.184   4.657
  204SOL    HW2 1512   0.809   0.220   4.507
  205SOL     OW 1513   1.190   2.598   2.942
  205SOL    HW1 1514   1.149   2.666   3.002
  205SOL    HW2 1515   1.201   2.512   2.992
  206SOL     OW 1516   0.686   3.880   1.187
  206SOL    HW1 1517   0.784   3.879   1.169
  206SOL    HW2 1518   0.666   3.945   1.260
  207SOL     OW 1519   5.471   1.021   4.218
  207SOL    HW1 1520   5.502   1.068   4.135
  207SOL    HW2 1521   5.457   1.089   4.291
  208SOL     OW 1522   0.217   4.446   5.846
  208SOL    HW1 1523   0.301   4.500   5.854
  208SOL    HW2 1524   0.215   4.400   5.757
  209SOL     OW 1525   0.273   5.117   3.328
  209SOL    HW1 1526   0.343   5.178   3.363
  209SOL    HW2 1527   0.251   5.142   3.234
  210SOL     OW 1528   4.500   2.159   0.221
  210SOL    HW1 1529   4.562   2.208   0.281
  210SOL    HW2 1530   4.490   2.065   0.252
  211SOL     OW 1531   1.244   6.082   1.692
  211SOL    HW1 1532   1.190   6.074   1.608
  211SOL    HW2 1533   1.214   6.164   1.742
  212SOL     OW 1534   1.622   3.242   2.593
  212SOL    HW1 1535   1.546   3.180   2.572
  212SOL    HW2 1536   1.587   3.322   2.642
  213SOL     OW 1537   2.608   6.525   1.004
  213SOL    HW1 1538   2.638   6.453   1.066
  213SOL    HW2 1539   2.615   6.494   0.910
  214SOL     OW 1540   3.451   5.751   3.123
  214SOL    HW1 1541   3.416   5.713   3.209
  214SOL    HW2 1542   3.374   5.769   3.061
  215SOL     OW 1543   2.867   3.596   0.763
  215SOL    HW1 1544   2.931   3.672   0.762
  215SOL    HW2 1545   2.902   3.523   0.821
  216SOL     OW 1546   0.276   5.981   3.136
  216SOL    HW1 1547   0.274   6.045   3.059
  216SOL    HW2 1548   0.186   5.979   3.180
  217SOL     OW 1549   1.528   2.801   4.795
  217SOL    HW1 1550   1.579   2.735   4.739
  217SOL    HW2 1551   1.469   2.751   4.859
  218SOL     OW 1552   1.044   2.438   4.575
  218SOL    HW1 1553   0.969   2.389   4.529
  218SOL    HW2 1554   1.034   2.536   4.560
  219SOL     OW 1555   4.140   6.793   0.284
  219SOL    HW1 1556   4.078   6.802   0.362
  219SOL    HW2 1557   4.136   6.699   0.249
  220SOL     OW 1558   2.821   6.781   1.547
  220SOL    HW1 1559   2.752   6.772   1.475
  220SOL    HW2 1560   2.787   6.842   1.619
  221SOL     OW 1561   5.557   4.244   0.931
  221SOL    HW1 1562   5.638   4.288   0.892
  221SOL    HW2 1563   5.518   4.304   1.001
  222SOL     OW 1564   1.313   5.184   5.738
  222SOL    HW1 1565   1.256   5.110   5.774
  222SOL    HW2 1566   1.376   5.148   5.669
  223SOL     OW 1567   6.999   3.161   5.831
  223SOL    HW1 1568   6.969   3.204   5.917
  223SOL    HW2 1569   0.075   3.149   5.833
  224SOL     OW 1570   3.076   1.638   6.284
  224SOL    HW1 1571   3.038   1.629   6.376
  224SOL    HW2 1572   3.036   1.718   6.239
  225SOL     OW 1573   4.330   4.186   6.421
  225SOL    HW1 1574   4.244   4.161   6.466
  225SOL    HW2 1575   4.360   4.276   6.454
  226SOL     OW 1576   0.329   1.597   5.887
  226SOL    HW1 1577   0.346   1.498   5.884
  226SOL    HW2 1578   0.410   1.643   5.922
  227SOL     OW 1579   1.046   3.614   2.172
  227SOL    HW1 1580   1.145   3.613   2.164
  227SOL    HW2 1581   1.010   3.699   2.131
  228SOL     OW 1582   2.229   0.193   2.486
  228SOL    HW1 1583   2.154   0.259   2.478
  228SOL    HW2 1584   2.297   0.227   2.550
  229SOL     OW 1585   5.897   5.668   6.347
  229SOL    HW1 1586   5.798   5.659   6.337
  229SOL    HW2 1587   5.919   5.752   6.395
  230SOL     OW 1588   4.189   5.751   4.139
  230SOL    HW1 1589   4.090   5.744   4.150
  230SOL    HW2 1590   4.210   5.827   4.077
  231SOL     OW 1591   6.194   0.912   6.637
  231SOL    HW1 1592   6.225   0.862   6.718
  231SOL    HW2 1593   6.129   0.856   6.586
  232SOL     OW 1594   0.065   3.380   7.007
  232SOL    HW1 1595   6.993   3.359   6.987
  232SOL    HW2 1596   0.094   3.459   6.953
  233SOL     OW 1597   3.679   1.124   2.831
  233SOL    HW1 1598   3.696   1.222   2.829
  233SOL    HW2 1599   3.591   1.106   2.875
  234SOL     OW 1600   5.199   1.091   6.393
  234SOL    HW1 1601   5.254   1.100   6.476
  234SOL    HW2 1602   5.225   1.008   6.345
  235SOL     OW 1603   4.811   2.905   2.321
  235SOL    HW1 1604   4.864   2.828   2.287
  235SOL    HW2 1605   4.777   2.959   2.244
  236SOL     OW 1606   5.195   3.176   6.886
  236SOL    HW1 1607   5.154   3.149   6.799
  236SOL    HW2 1608   5.295   3.170   6.880
  237SOL     OW 1609   0.249   4.339   2.329
  237SOL    HW1 1610   0.154   4.315   2.311
  237SOL    HW2 1611   0.273   4.422   2.279
  238SOL     OW 1612   5.903   1.778   0.332
  238SOL    HW1 1613   5.852   1.757   0.249
  238SOL    HW2 1614   5.944   1.695   0.369
  239SOL     OW 1615   0.643   4.126   6.653
  239SOL    HW1 1616   0.732   4.083   6.670
  239SOL    HW2 1617   0.586   4.117   6.735
  240SOL     OW 1618   0.598   2.692   3.359
  240SOL    HW1 1619   0.540   2.654   3.431
  240SOL    HW2 1620   0.622   2.620   3.294
  241SOL     OW 1621   2.943   2.204   4.866
  241SOL    HW1 1622   2.892   2.285   4.838
  241SOL    HW2 1623   3.018   2.231   4.926
  242SOL     OW 1624   3.452   3.842   4.309
  242SOL    HW1 1625   3.478   3.937   4.323
  242SOL    HW2 1626   3.444   3.824   4.211
  243SOL     OW 1627   4.735   0.758   0.181
  243SOL    HW1 1628   4.745   0.697   0.260
  243SOL    HW2 1629   4.826   0.785   0.148
  244SOL     OW 1630   6.337   3.898   5.821
  244SOL    HW1 1631   6.299   3.812   5.855
  244SOL    HW2 1632   6.344   3.894   5.721
  245SOL     OW 1633   4.792   1.805   4.261
  245SOL    HW1 1634   4.807   1.836   4.167
  245SOL    HW2 1635   4.740   1.874   4.311
  246SOL     OW 1636   4.457   2.050   3.366
  246SOL    HW1 1637   4.365   2.049   3.403
  246SOL    HW2 1638   4.512   1.977   3.407
  247SOL     OW 1639   2.569   2.075   0.747
  247SOL    HW1 1640   2.531   2.146   0.688
  247SOL    HW2 1641   2.666   2.093   0.763
  248SOL     OW 1642   3.400   1.284   2.765
  248SOL    HW1 1643   3.398   1.278   2.865
  248SOL    HW2 1644   3.347   1.364   2.735
  249SOL     OW 1645   5.452   0.067   5.246
  249SOL    HW1 1646   5.541   0.103   5.273
  249SOL    HW2 1647   5.463   6.998   5.212
  250SOL     OW 1648   4.934   3.272   0.315
  250SOL    HW1 1649   4.879   3.352   0.291
  250SOL    HW2 1650   4.926   3.202   0.244
  251SOL     OW 1651   4.505   3.354   5.340
  251SOL    HW1 1652   4.408   3.376   5.340
  251SOL    HW2 1653   4.553   3.416   5.277
  252SOL     OW 1654   6.957   6.492   5.090
  252SOL    HW1 1655   6.984   6.490   4.994
  252SOL    HW2 1656   6.965   6.586   5.125
  253SOL     OW 1657   3.157   5.312   6.163
  253SOL    HW1 1658   3.190   5.272   6.078
  253SOL    HW2 1659   3.197   5.264   6.241
  254SOL     OW 1660   6.438   2.376   4.085
  254SOL    HW1 1661   6.449   2.278   4.068
  254SOL    HW2 1662   6.370   2.391   4.156
  255SOL     OW 1663   2.283   5.194   5.407
  255SOL    HW1 1664   2.336   5.195   5.322
  255SOL    HW2 1665   2.188   5.170   5.387
  256SOL     OW 1666   5.678   4.291   5.882
  256SOL    HW1 1667   5.750   4.318   5.818
  256SOL    HW2 1668   5.589   4.313   5.842
  257SOL     OW 1669   4.988   0.681   3.550
  257SOL    HW1 1670   4.966   0.606   3.487
  257SOL    HW2 1671   4.979   0.768   3.503
  258SOL     OW 1672   2.002   4.833   5.125
  258SOL    HW1 1673   2.101   4.826   5.114
  258SOL    HW2 1674   1.964   4.742   5.145
  259SOL     OW 1675   6.510   1.422   2.929
  259SOL    HW1 1676   6.428   1.444   2.982
  259SOL    HW2 1677   6.559   1.347   2.974
  260SOL     OW 1678   4.010   6.501   2.626
  260SOL    HW1 1679   3.979   6.485   2.720
  260SOL    HW2 1680   4.068   6.425   2.597
  261SOL     OW 1681   6.007   3.508   0.581
  261SOL    HW1 1682   6.024   3.513   0.483
  261SOL    HW2 1683   5.959   3.423   0.603
  262SOL     OW 1684   0.911   3.799   6.986
  262SOL    HW1 1685   0.877   3.826   6.896
  262SOL    HW2 1686   0.854   3.840   0.033
  263SOL     OW 1687   2.304   0.673   4.897
  263SOL    HW1 1688   2.284   0.613   4.820
  263SOL    HW2 1689   2.222   0.724   4.922
  264SOL     OW 1690   6.048   3.226   6.473
  264SOL    HW1 1691   6.102   3.180   6.403
  264SOL    HW2 1692   6.053   3.324   6.460
  265SOL     OW 1693   5.606   6.432   2.816
  265SOL    HW1 1694   5.696   6.467   2.787
  265SOL    HW2 1695   5.541   6.507   2.821
  266SOL     OW 1696   3.708   2.714   5.763
  266SOL    HW1 1697   3.764   2.792   5.735
  266SOL    HW2 1698   3.643   2.743   5.833
  267SOL     OW 1699   0.779   1.559   6.001
  267SOL    HW1 1700   0.873   1.541   5.970
  267SOL    HW2 1701   0.781   1.617   6.082
  268SOL     OW 1702   3.433   1.294   6.340
  268SOL    HW1 1703   3.396   1.234   6.268
  268SOL    HW2 1704   3.406   1.388   6.322
  269SOL     OW 1705   1.565   3.713   1.248
  269SOL    HW1 1706   1.500   3.639   1.228
  269SOL    HW2 1707   1.645   3.676   1.294
  270SOL     OW 1708   1.385   6.022   0.635
  270SOL    HW1 1709   1.375   6.091   0.562
  270SOL    HW2 1710   1.382   6.068   0.724
  271SOL     OW 1711   6.832   1.412   6.526
  271SOL    HW1 1712   6.804   1.321   6.498
  271SOL    HW2 1713   6.765   1.450   6.590
  272SOL     OW 1714   3.573   6.087   4.079
  272SOL    HW1 1715   3.666   6.064   4.108
  272SOL    HW2 1716   3.516   6.006   4.082
  273SOL     OW 1717   2.729   4.677   4.328
  273SOL    HW1 1718   2.657   4.621   4.368
  273SOL    HW2 1719   2.689   4.744   4.265
  274SOL     OW 1720   4.025   1.628   3.042
  274SOL    HW1 1721   4.002   1.653   2.947
  274SOL    HW2 1722   3.954   1.570   3.080
  275SOL     OW 1723   6.590   5.345   3.760
  275SOL    HW1 1724   6.570   5.249   3.743
  275SOL    HW2 1725   6.664   5.352   3.827
  276SOL     OW 1726   6.893   6.436   2.338
  276SOL    HW1 1727   6.969   6.371   2.342
  276SOL    HW2 1728   6.862   6.456   2.431
  277SOL     OW 1729   1.045   3.861   0.412
  277SOL    HW1 1730   1.087   3.804   0.341
  277SOL    HW2 1731   1.098   3.946   0.422
  278SOL     OW 1732   0.408   4.382   1.851
  278SOL    HW1 1733   0.471   4.376   1.773
  278SOL    HW2 1734   0.325   4.430   1.822
  279SOL     OW 1735   5.596   3.140   4.342
  279SOL    HW1 1736   5.520   3.204   4.336
  279SOL    HW2 1737   5.663   3.161   4.270
  280SOL     OW 1738   2.653   5.952   3.186
  280SOL    HW1 1739   2.750   5.940   3.163
  280SOL    HW2 1740   2.615   6.028   3.134
  281SOL     OW 1741   2.566   4.549   1.853
  281SOL    HW1 1742   2.663   4.527   1.864
  281SOL    HW2 1743   2.520   4.473   1.808
  282SOL     OW 1744   3.364   1.316   5.497
  282SOL    HW1 1745   3.419   1.392   5.531
  282SOL    HW2 1746   3.423   1.253   5.445
  283SOL     OW 1747   5.717   2.580   6.420
  283SOL    HW1 1748   5.664   2.564   6.503
  283SOL    HW2 1749   5.812   2.555   6.436
  284SOL     OW 1750   1.649   4.027   3.714
  284SOL    HW1 1751   1.556   4.004   3.744
  284SOL    HW2 1752   1.654   4.124   3.693
  285SOL     OW 1753   5.771   5.128   4.280
  285SOL    HW1 1754   5.852   5.094   4.232
  285SOL    HW2 1755   5.704   5.054   4.289
  286SOL     OW 1756   3.279   4.895   6.390
  286SOL    HW1 1757   3.295   4.930   6.298
  286SOL    HW2 1758   3.358   4.842   6.420
  287SOL     OW 1759   0.862   3.486   1.316
  287SOL    HW1 1760   0.801   3.532   1.252
  287SOL    HW2 1761   0.940   3.448   1.267
  288SOL     OW 1762   3.118   1.441   7.023
  288SOL    HW1 1763   3.111   1.425   0.098
  288SOL    HW2 1764   3.214   1.439   6.995
  289SOL     OW 1765   2.170   4.267   5.991
  289SOL    HW1 1766   2.172   4.282   5.892
  289SOL    HW2 1767   2.105   4.330   6.033
  290SOL     OW 1768   6.551   1.782   4.716
  290SOL    HW1 1769   6.581   1.847   4.785
  290SOL    HW2 1770   6.563   1.689   4.751
  291SOL     OW 1771   1.332   2.291   4.859
  291SOL    HW1 1772   1.351   2.376   4.810
  291SOL    HW2 1773   1.407   2.227   4.843
  292SOL     OW 1774   1.601   2.192   3.269
  292SOL    HW1 1775   1.617   2.097   3.245
  292SOL    HW2 1776   1.503   2.213   3.260
  293SOL     OW 1777   4.087   5.940   3.017
  293SOL    HW1 1778   4.022   5.915   3.089
  293SOL    HW2 1779   4.116   5.859   2.968
  294SOL     OW 1780   0.414   6.225   6.728
  294SOL    HW1 1781   0.507   6.194   6.747
  294SOL    HW2 1782   0.349   6.157   6.764
  295SOL     OW 1783   3.745   1.015   3.769
  295SOL    HW1 1784   3.773   1.111   3.768
  295SOL    HW2 1785   3.810   0.962   3.825
  296SOL     OW 1786   3.873   1.889   2.967
  296SOL    HW1 1787   3.819   1.866   2.887
  296SOL    HW2 1788   3.958   1.836   2.967
  297SOL     OW 1789   2.683   4.633   3.883
  297SOL    HW1 1790   2.678   4.616   3.981
  297SOL    HW2 1791   2.594   4.617   3.841
  298SOL     OW 1792   3.633   5.514   2.242
  298SOL    HW1 1793   3.570   5.588   2.218
  298SOL    HW2 1794   3.596   5.427   2.210
  299SOL     OW 1795   5.639   3.431   6.334
  299SOL    HW1 1796   5.698   3.383   6.269
  299SOL    HW2 1797   5.572   3.367   6.372
  300SOL     OW 1798   6.103   1.030   2.523
  300SOL    HW1 1799   6.013   1.030   2.565
  300SOL    HW2 1800   6.164   0.971   2.575
  301SOL     OW 1801   4.834   3.378   1.343
  301SOL    HW1 1802   4.797   3.289   1.369
  301SOL    HW2 1803   4.880   3.419   1.422
  302SOL     OW 1804   1.414   0.401   3.083
  302SOL    HW1 1805   1.438   0.411   2.986
  302SOL    HW2 1806   1.319   0.370   3.090
  303SOL     OW 1807   5.962   0.699   2.404
  303SOL    HW1 1808   6.000   0.700   2.496
  303SOL    HW2 1809   5.925   0.789   2.382
  304SOL     OW 1810   2.099   0.220   3.362
  304SOL    HW1 1811   2.036   0.282   3.314
  304SOL    HW2 1812   2.121   0.259   3.452
  305SOL     OW 1813   0.231   3.544   0.216
  305SOL    HW1 1814   0.311   3.549   0.276
  305SOL    HW2 1815   0.259   3.503   0.129
  306SOL     OW 1816   1.724   0.602   3.658
  306SOL    HW1 1817   1.817   0.636   3.674
  306SOL    HW2 1818   1.722   0.545   3.576
  307SOL     OW 1819   4.841   6.818   0.635
  307SOL    HW1 1820   4.746   6.836   0.658
  307SOL    HW2 1821   4.898   6.832   0.716
  308SOL     OW 1822   6.514   3.588   5.081
  308SOL    HW1 1823   6.467   3.671   5.051
  308SOL    HW2 1824   6.451   3.532   5.136
  309SOL     OW 1825   4.320   3.823   6.095
  309SOL    HW1 1826   4.293   3.788   6.185
  309SOL    HW2 1827   4.348   3.747   6.036
  310SOL     OW 1828   6.449   6.541   5.878
  310SOL    HW1 1829   6.470   6.505   5.787
  310SOL    HW2 1830   6.522   6.514   5.941
  311SOL     OW 1831   6.573   4.997   1.641
  311SOL    HW1 1832   6.489   5.050   1.648
  311SOL    HW2 1833   6.618   5.015   1.554
  312SOL     OW 1834   4.646   2.423   5.798
  312SOL    HW1 1835   4.643   2.370   5.712
  312SOL    HW2 1836   4.599   2.372   5.870
  313SOL     OW 1837   2.816   4.383   1.628
  313SOL    HW1 1838   2.824   4.440   1.710
  313SOL    HW2 1839   2.893   4.319   1.625
  314SOL     OW 1840   3.244   5.904   0.475
  314SOL    HW1 1841   3.244   5.953   0.563
  314SOL    HW2 1842   3.245   5.806   0.491
  315SOL     OW 1843   1.252   2.554   3.366
  315SOL    HW1 1844   1.246   2.504   3.452
  315SOL    HW2 1845   1.160   2.577   3.334
  316SOL     OW 1846   2.092   2.297   4.448
  316SOL    HW1 1847   2.064   2.204   4.426
  316SOL    HW2 1848   2.138   2.338   4.370
  317SOL     OW 1849   0.987   1.425   0.314
  317SOL    HW1 1850   1.059   1.373   0.268
  317SOL    HW2 1851   0.907   1.433   0.254
  318SOL     OW 1852   1.202   5.023   0.750
  318SOL    HW1 1853   1.105   4.999   0.761
  318SOL    HW2 1854   1.225   5.020   0.653
  319SOL     OW 1855   0.329   0.301   2.372
  319SOL    HW1 1856   0.313   0.211   2.413
  319SOL    HW2 1857   0.288   0.371   2.430
  320SOL     OW 1858   5.126   2.604   6.666
  320SOL    HW1 1859   5.094   2.616   6.760
  320SOL    HW2 1860   5.184   2.523   6.661
  321SOL     OW 1861   2.619   1.215   2.433
  321SOL    HW1 1862   2.711   1.203   2.395
  321SOL    HW2 1863   2.551   1.194   2.363
  322SOL     OW 1864   3.137   3.576   4.356
  322SOL    HW1 1865   3.130   3.675   4.363
  322SOL    HW2 1866   3.051   3.534   4.384
  323SOL     OW 1867   0.485   4.067   6.856
  323SOL    HW1 1868   0.409   4.095   6.915
  323SOL    HW2 1869   0.513   3.974   6.879
  324SOL     OW 1870   1.380   3.046   4.013
  324SOL    HW1 1871   1.320   3.126   4.009
  324SOL    HW2 1872   1.420   3.030   3.923
  325SOL     OW 1873   1.889   2.981   1.262
  325SOL    HW1 1874   1.815   2.927   1.301
  325SOL    HW2 1875   1.974   2.927   1.263
  326SOL     OW 1876   1.632   5.888   6.839
  326SOL    HW1 1877   1.586   5.900   6.927
  326SOL    HW2 1878   1.726   5.856   6.855
  327SOL     OW 1879   0.994   5.447   3.792
  327SOL    HW1 1880   0.905   5.402   3.797
  327SOL    HW2 1881   0.993   5.514   3.718
  328SOL     OW 1882   3.333   4.918   2.967
  328SOL    HW1 1883   3.328   4.891   3.063
  328SOL    HW2 1884   3.405   4.985   2.954
  329SOL     OW 1885   3.681   4.083   4.100
  329SOL    HW1 1886   3.761   4.033   4.134
  329SOL    HW2 1887   3.687   4.091   4.001
  330SOL     OW 1888   3.367   6.009   2.024
  330SOL    HW1 1889   3.285   5.976   2.071
  330SOL    HW2 1890   3.343   6.087   1.967
  331SOL     OW 1891   4.915   4.901   6.833
  331SOL    HW1 1892   4.829   4.939   6.868
  331SOL    HW2 1893   4.915   4.905   6.733
  332SOL     OW 1894   3.214   1.987   4.150
  332SOL    HW1 1895   3.148   2.053   4.113
  332SOL    HW2 1896   3.259   1.939   4.075
  333SOL     OW 1897   3.831   6.921   0.246
  333SOL    HW1 1898   3.925   6.938   0.215
  333SOL    HW2 1899   3.788   7.008   0.270
  334SOL     OW 1900   2.771   6.901   1.223
  334SOL    HW1 1901   2.742   6.809   1.248
  334SOL    HW2 1902   2.857   6.897   1.172
  335SOL     OW 1903   3.191   6.471   4.042
  335SOL    HW1 1904   3.091   6.478   4.041
  335SOL    HW2 1905   3.217   6.375   4.029
  336SOL     OW 1906   2.319   0.767   3.689
  336SOL    HW1 1907   2.372   0.762   3.605
  336SOL    HW2 1908   2.237   0.823   3.674
  337SOL     OW 1909   0.116   3.645   1.129
  337SOL    HW1 1910   0.204   3.601   1.111
  337SOL    HW2 1911   0.058   3.583   1.181
  338SOL     OW 1912   2.786   2.881   1.282
  338SOL    HW1 1913   2.754   2.870   1.188
  338SOL    HW2 1914   2.844   2.804   1.307
  339SOL     OW 1915   3.925   6.960   3.731
  339SOL    HW1 1916   3.918   6.998   3.639
  339SOL    HW2 1917   4.019   6.928   3.747
  340SOL     OW 1918   5.340   4.306   4.600
  340SOL    HW1 1919   5.430   4.276   4.567
  340SOL    HW2 1920   5.345   4.327   4.697
  341SOL     OW 1921   6.189   6.632   3.817
  341SOL    HW1 1922   6.216   6.726   3.838
  341SOL    HW2 1923   6.105   6.609   3.866
  342SOL     OW 1924   5.643   4.233   0.157
  342SOL    HW1 1925   5.668   4.297   0.230
  342SOL    HW2 1926   5.658   4.139   0.188
  343SOL     OW 1927   2.822   5.727   1.430
  343SOL    HW1 1928   2.892   5.771   1.374
  343SOL    HW2 1929   2.746   5.698   1.371
  344SOL     OW 1930   2.245   5.304   1.505
  344SOL    HW1 1931   2.232   5.208   1.479
  344SOL    HW2 1932   2.177   5.329   1.574
  345SOL     OW 1933   6.856   0.664   5.690
  345SOL    HW1 1934   6.847   0.621   5.600
  345SOL    HW2 1935   6.797   0.617   5.756
  346SOL     OW 1936   2.105   0.027   2.086
  346SOL    HW1 1937   2.016   7.010   2.066
  346SOL    HW2 1938   2.095   0.126   2.099
  347SOL     OW 1939   5.117   0.521   6.350
  347SOL    HW1 1940   5.133   0.457   6.275
  347SOL    HW2 1941   5.042   0.582   6.326
  348SOL     OW 1942   4.506   4.752   1.582
  348SOL    HW1 1943   4.506   4.741   1.483
  348SOL    HW2 1944   4.597   4.730   1.618
  349SOL     OW 1945   0.177   4.676   2.071
  349SOL    HW1 1946   0.222   4.748   2.017
  349SOL    HW2 1947   0.092   4.711   2.110
  350SOL     OW 1948   3.696   3.621   1.665
  350SOL    HW1 1949   3.623   3.552   1.673
  350SOL    HW2 1950   3.655   3.712   1.669
  351SOL     OW 1951   2.615   2.472   0.494
  351SOL    HW1 1952   2.533   2.462   0.550
  351SOL    HW2 1953   2.652   2.564   0.505
  352SOL     OW 1954   3.787   0.030   4.774
  352SOL    HW1 1955   3.863   0.041   4.838
  352SOL    HW2 1956   3.816   0.058   4.682
  353SOL     OW 1957   2.643   0.173   0.724
  353SOL    HW1 1958   2.571   0.234   0.692
  353SOL    HW2 1959   2.606   0.112   0.794
  354SOL     OW 1960   4.252   2.623   0.276
  354SOL    HW1 1961   4.260   2.667   0.365
  354SOL    HW2 1962   4.333   2.567   0.259
  355SOL     OW 1963   6.558   3.016   2.536
  355SOL    HW1 1964   6.622   3.086   2.503
  355SOL    HW2 1965   6.508   2.977   2.458
  356SOL     OW 1966   3.983   5.429   4.558
  356SOL    HW1 1967   3.886   5.406   4.568
  356SOL    HW2 1968   3.992   5.508   4.498
  357SOL     OW 1969   6.830   6.762   5.154
  357SOL    HW1 1970   6.891   6.781   5.231
  357SOL    HW2 1971   6.759   6.697   5.183
  358SOL     OW 1972   6.397   0.237   1.334
  358SOL    HW1 1973   6.336   0.270   1.261
  358SOL    HW2 1974   6.357   0.157   1.378
  359SOL     OW 1975   1.580   2.585   2.339
  359SOL    HW1 1976   1.564   2.618   2.432
  359SOL    HW2 1977   1.556   2.488   2.333
  360SOL     OW 1978   2.700   6.233   6.488
  360SOL    HW1 1979   2.786   6.226   6.438
  360SOL    HW2 1980   2.699   6.165   6.561
  361SOL     OW 1981   5.633   5.405   2.609
  361SOL    HW1 1982   5.723   5.445   2.592
  361SOL    HW2 1983   5.583   5.463   2.674
  362SOL     OW 1984   3.565   3.787   0.584
  362SOL    HW1 1985   3.616   3.805   0.500
  362SOL    HW2 1986   3.471   3.761   0.561
  363SOL     OW 1987   3.509   5.140   3.757
  363SOL    HW1 1988   3.440   5.087   3.806
  363SOL    HW2 1989   3.544   5.212   3.818
  364SOL     OW 1990   0.326   5.474   4.823
  364SOL    HW1 1991   0.237   5.428   4.820
  364SOL    HW2 1992   0.362   5.482   4.730
  365SOL     OW 1993   4.411   6.569   2.963
  365SOL    HW1 1994   4.499   6.611   2.987
  365SOL    HW2 1995   4.427   6.486   2.910
  366SOL     OW 1996   5.337   1.084   0.168
  366SOL    HW1 1997   5.424   1.107   0.125
  366SOL    HW2 1998   5.352   1.058   0.263
  367SOL     OW 1999   5.150   2.760   0.997
  367SOL    HW1 2000   5.150   2.741   0.899
  367SOL    HW2 2001   5.063   2.730   1.036
  368SOL     OW 2002   1.457   4.531   5.011
  368SOL    HW1 2003   1.549   4.571   5.016
  368SOL    HW2 2004   1.463   4.433   5.027
  369SOL     OW 2005   6.600   4.337   1.822
  369SOL    HW1 2006   6.675   4.391   1.860
  369SOL    HW2 2007   6.637   4.260   1.771
  370SOL     OW 2008   2.565   1.170   5.250
  370SOL    HW1 2009   2.638   1.205   5.191
  370SOL    HW2 2010   2.545   1.075   5.225
  371SOL     OW 2011   2.283   3.829   6.261
  371SOL    HW1 2012   2.297   3.735   6.293
  371SOL    HW2 2013   2.205   3.831   6.199
  372SOL     OW 2014   0.144   0.358   5.068
  372SOL    HW1 2015   0.182   0.278   5.113
  372SOL    HW2 2016   0.044   0.354   5.071
  373SOL     OW 2017   0.162   6.737   5.760
  373SOL    HW1 2018   0.119   6.653   5.792
  373SOL    HW2 2019   0.254   6.745   5.800
  374SOL     OW 2020   4.216   0.111   2.346
  374SOL    HW1 2021   4.144   0.174   2.374
  374SOL    HW2 2022   4.299   0.128   2.400
  375SOL     OW 2023   6.848   4.651   3.841
  375SOL    HW1 2024   6.826   4.584   3.770
  375SOL    HW2 2025   6.824   4.743   3.808
  376SOL     OW 2026   1.587   3.226   3.919
  376SOL    HW1 2027   1.571   3.148   3.859
  376SOL    HW2 2028   1.523   3.300   3.896
  377SOL     OW 2029   5.947   2.713   2.658
  377SOL    HW1 2030   6.046   2.716   2.670
  377SOL    HW2 2031   5.925   2.680   2.567
  378SOL     OW 2032   3.839   2.936   5.671
  378SOL    HW1 2033   3.807   2.995   5.597
  378SOL    HW2 2034   3.928   2.969   5.704
  379SOL     OW 2035   5.875   3.407   1.589
  379SOL    HW1 2036   5.827   3.327   1.552
  379SOL    HW2 2037   5.951   3.376   1.645
  380SOL     OW 2038   2.229   1.682   1.867
  380SOL    HW1 2039   2.248   1.735   1.784
  380SOL    HW2 2040   2.253   1.586   1.852
  381SOL     OW 2041   2.207   4.690   1.632
  381SOL    HW1 2042   2.294   4.698   1.680
  381SOL    HW2 2043   2.187   4.594   1.614
  382SOL     OW 2044   3.755   5.669   6.814
  382SOL    HW1 2045   3.821   5.684   6.741
  382SOL    HW2 2046   3.792   5.705   6.900
  383SOL     OW 2047   6.483   2.855   6.179
  383SOL    HW1 2048   6.408   2.892   6.233
  383SOL    HW2 2049   6.448   2.785   6.117
  384SOL     OW 2050   1.190   4.350   4.990
  384SOL    HW1 2051   1.278   4.349   5.037
  384SOL    HW2 2052   1.204   4.365   4.892
  385SOL     OW 2053   4.865   6.644   0.105
  385SOL    HW1 2054   4.883   6.722   0.164
  385SOL    HW2 2055   4.770   6.646   0.074
  386SOL     OW 2056   4.195   6.729   5.312
  386SOL    HW1 2057   4.114   6.674   5.290
  386SOL    HW2 2058   4.219   6.714   5.408
  387SOL     OW 2059   0.192   6.702   3.773
  387SOL    HW1 2060   0.245   6.626   3.811
  387SOL    HW2 2061   0.154   6.756   3.849
  388SOL     OW 2062   0.039   2.213   5.006
  388SOL    HW1 2063   0.049   2.146   5.080
  388SOL    HW2 2064   0.123   2.268   5.000
  389SOL     OW 2065   4.284   4.161   1.703
  389SOL    HW1 2066   4.199   4.149   1.754
  389SOL    HW2 2067   4.359   4.181   1.766
  390SOL     OW 2068   3.419   1.157   0.569
  390SOL    HW1 2069   3.509   1.194   0.548
  390SOL    HW2 2070   3.407   1.069   0.522
  391SOL     OW 2071   2.557   4.196   5.773
  391SOL    HW1 2072   2.613   4.250   5.835
  391SOL    HW2 2073   2.609   4.171   5.692
  392SOL     OW 2074   1.545   3.324   2.093
  392SOL    HW1 2075   1.588   3.326   2.003
  392SOL    HW2 2076   1.615   3.321   2.164
  393SOL     OW 2077   1.143   4.272   0.906
  393SOL    HW1 2078   1.053   4.229   0.895
  393SOL    HW2 2079   1.149   4.312   0.997
  394SOL     OW 2080   0.095   3.270   0.263
  394SOL    HW1 2081   0.188   3.234   0.272
  394SOL    HW2 2082   0.082   3.308   0.172
  395SOL     OW 2083   5.444   4.123   2.301
  395SOL    HW1 2084   5.513   4.071   2.349
  395SOL    HW2 2085   5.488   4.181   2.232
  396SOL     OW 2086   2.566   2.090   2.168
  396SOL    HW1 2087   2.649   2.134   2.202
  396SOL    HW2 2088   2.560   2.104   2.069
  397SOL     OW 2089   4.767   1.412   5.757
  397SOL    HW1 2090   4.756   1.509   5.779
  397SOL    HW2 2091   4.679   1.374   5.729
  398SOL     OW 2092   1.205   0.065   4.391
  398SOL    HW1 2093   1.226   0.153   4.347
  398SOL    HW2 2094   1.231   7.014   4.330
  399SOL     OW 2095   6.026   6.121   3.904
  399SOL    HW1 2096   5.944   6.130   3.847
  399SOL    HW2 2097   6.017   6.180   3.984
  400SOL     OW 2098   6.358   0.185   4.684
  400SOL    HW1 2099   6.264   0.219   4.678
  400SOL    HW2 2100   6.380   0.135   4.600
  401SOL     OW 2101   6.580   1.103   5.834
  401SOL    HW1 2102   6.636   1.052   5.769
  401SOL    HW2 2103   6.597   1.067   5.926
  402SOL     OW 2104   6.081   0.612   2.660
  402SOL    HW1 2105   6.126   0.523   2.652
  402SOL    HW2 2106   5.995   0.602   2.710
  403SOL     OW 2107   2.750   0.300   5.930
  403SOL    HW1 2108   2.720   0.205   5.938
  403SOL    HW2 2109   2.824   0.317   5.995
  404SOL     OW 2110   3.672   6.428   5.548
  404SOL    HW1 2111   3.683   6.512   5.601
  404SOL    HW2 2112   3.762   6.388   5.531
  405SOL     OW 2113   1.678   3.744   3.330
  405SOL    HW1 2114   1.704   3.656   3.367
  405SOL    HW2 2115   1.694   3.816   3.398
  406SOL     OW 2116   0.909   5.113   4.967
  406SOL    HW1 2117   0.813   5.084   4.971
  406SOL    HW2 2118   0.943   5.103   4.874
  407SOL     OW 2119   1.625   3.666   3.722
  407SOL    HW1 2120   1.537   3.650   3.678
  407SOL    HW2 2121   1.613   3.665   3.821
  408SOL     OW 2122   3.718   1.852   2.745
  408SOL    HW1 2123   3.679   1.924   2.687
  408SOL    HW2 2124   3.697   1.763   2.705
  409SOL     OW 2125   0.703   3.843   1.818
  409SOL    HW1 2126   0.637   3.769   1.820
  409SOL    HW2 2127   0.691   3.902   1.898
  410SOL     OW 2128   1.865   2.347   1.141
  410SOL    HW1 2129   1.806   2.332   1.221
  410SOL    HW2 2130   1.950   2.390   1.171
  411SOL     OW 2131   0.269   2.295   1.819
  411SOL    HW1 2132   0.346   2.233   1.806
  411SOL    HW2 2133   0.246   2.299   1.917
  412SOL     OW 2134   2.794   4.705   3.036
  412SOL    HW1 2135   2.833   4.759   2.962
  412SOL    HW2 2136   2.726   4.641   2.999
  413SOL     OW 2137   3.613   5.056   2.329
  413SOL    HW1 2138   3.636   4.986   2.260
  413SOL    HW2 2139   3.532   5.026   2.379
  414SOL     OW 2140   2.891   6.923   3.990
  414SOL    HW1 2141   2.945   7.004   3.970
  414SOL    HW2 2142   2.904   6.895   4.085
  415SOL     OW 2143   6.682   1.328   0.047
  415SOL    HW1 2144   6.728   1.247   0.080
  415SOL    HW2 2145   6.717   1.409   0.095
  416SOL     OW 2146   5.125   3.766   4.953
  416SOL    HW1 2147   5.085   3.675   4.936
  416SOL    HW2 2148   5.080   3.833   4.894
  417SOL     OW 2149   2.585   2.067   6.913
  417SOL    HW1 2150   2.685   2.066   6.904
  417SOL    HW2 2151   2.560   2.042   7.006
  418SOL     OW 2152   3.436   0.002   4.350
  418SOL    HW1 2153   3.480   0.047   4.273
  418SOL    HW2 2154   3.401   0.071   4.414
  419SOL     OW 2155   0.168   6.914   1.643
  419SOL    HW1 2156   0.204   7.006   1.629
  419SOL    HW2 2157   0.177   6.889   1.739
  420SOL     OW 2158   5.360   0.886   6.793
  420SOL    HW1 2159   5.416   0.873   6.874
  420SOL    HW2 2160   5.337   0.797   6.753
  421SOL     OW 2161   5.069   4.196   4.593
  421SOL    HW1 2162   5.038   4.150   4.510
  421SOL    HW2 2163   5.163   4.227   4.581
  422SOL     OW 2164   4.772   2.124   1.290
  422SOL    HW1 2165   4.739   2.033   1.262
  422SOL    HW2 2166   4.869   2.117   1.314
  423SOL     OW 2167   3.055   1.038   6.229
  423SOL    HW1 2168   3.064   0.941   6.207
  423SOL    HW2 2169   3.053   1.092   6.144
  424SOL     OW 2170   1.381   4.841   2.886
  424SOL    HW1 2171   1.456   4.903   2.862
  424SOL    HW2 2172   1.363   4.845   2.984
  425SOL     OW 2173   4.693   1.250   4.852
  425SOL    HW1 2174   4.689   1.257   4.753
  425SOL    HW2 2175   4.767   1.188   4.879
  426SOL     OW 2176   2.494   2.304   4.967
  426SOL    HW1 2177   2.536   2.393   4.949
  426SOL    HW2 2178   2.565   2.233   4.966
  427SOL     OW 2179   4.565   1.451   3.580
  427SOL    HW1 2180   4.630   1.458   3.504
  427SOL    HW2 2181   4.614   1.444   3.666
  428SOL     OW 2182   3.173   1.064   5.123
  428SOL    HW1 2183   3.100   1.060   5.054
  428SOL    HW2 2184   3.160   1.143   5.182
  429SOL     OW 2185   1.055   6.116   3.962
  429SOL    HW1 2186   0.972   6.072   3.928
  429SOL    HW2 2187   1.135   6.065   3.931
  430SOL     OW 2188   2.012   6.994   4.176
  430SOL    HW1 2189   1.923   6.981   4.133
  430SOL    HW2 2190   2.061   0.045   4.130
  431SOL     OW 2191   3.364   2.068   1.223
  431SOL    HW1 2192   3.429   2.048   1.297
  431SOL    HW2 2193   3.319   2.155   1.241
  432SOL     OW 2194   4.642   2.063   1.525
  432SOL    HW1 2195   4.555   2.108   1.507
  432SOL    HW2 2196   4.706   2.082   1.451
  433SOL     OW 2197   2.848   6.503   6.554
  433SOL    HW1 2198   2.840   6.552   6.467
  433SOL    HW2 2199   2.896   6.560   6.620
  434SOL     OW 2200   3.715   6.538   3.575
  434SOL    HW1 2201   3.666   6.472   3.631
  434SOL    HW2 2202   3.796   6.494   3.534
  435SOL     OW 2203   3.441   1.710   5.784
  435SOL    HW1 2204   3.524   1.674   5.827
  435SOL    HW2 2205   3.454   1.807   5.763
  436SOL     OW 2206   3.611   6.108   3.447
  436SOL    HW1 2207   3.666   6.031   3.480
  436SOL    HW2 2208   3.669   6.174   3.401
  437SOL     OW 2209   6.784   0.517   4.251
  437SOL    HW1 2210   6.772   0.444   4.184
  437SOL    HW2 2211   6.713   0.586   4.238
  438SOL     OW 2212   1.092   5.057   3.027
  438SOL    HW1 2213   0.999   5.082   3.000
  438SOL    HW2 2214   1.099   5.057   3.127
  439SOL     OW 2215   5.979   0.257   2.572
  439SOL    HW1 2216   5.930   0.290   2.492
  439SOL    HW2 2217   6.008   0.163   2.557
  440SOL     OW 2218   4.179   0.478   0.108
  440SOL    HW1 2219   4.174   0.564   0.158
  440SOL    HW2 2220   4.266   0.433   0.128
  441SOL     OW 2221   6.169   4.783   2.825
  441SOL    HW1 2222   6.133   4.702   2.777
  441SOL    HW2 2223   6.194   4.758   2.918
  442SOL     OW 2224   4.913   3.970   5.603
  442SOL    HW1 2225   4.941   3.965   5.699
  442SOL    HW2 2226   4.830   4.024   5.595
  443SOL     OW 2227   5.135   4.195   3.281
  443SOL    HW1 2228   5.125   4.156   3.189
  443SOL    HW2 2229   5.229   4.229   3.291
  444SOL     OW 2230   4.160   1.010   1.178
  444SOL    HW1 2231   4.204   0.924   1.205
  444SOL    HW2 2232   4.227   1.083   1.176
  445SOL     OW 2233   2.534   5.728   2.880
  445SOL    HW1 2234   2.600   5.771   2.942
  445SOL    HW2 2235   2.444   5.769   2.893
  446SOL     OW 2236   5.524   5.665   2.719
  446SOL    HW1 2237   5.595   5.729   2.689
  446SOL    HW2 2238   5.482   5.700   2.803
  447SOL     OW 2239   5.863   4.270   6.503
  447SOL    HW1 2240   5.959   4.248   6.518
  447SOL    HW2 2241   5.855   4.365   6.472
  448SOL     OW 2242   3.375   1.472   2.307
  448SOL    HW1 2243   3.279   1.447   2.289
  448SOL    HW2 2244   3.396   1.457   2.403
  449SOL     OW 2245   1.658   2.646   3.927
  449SOL    HW1 2246   1.610   2.609   3.848
  449SOL    HW2 2247   1.592   2.678   3.994
  450SOL     OW 2248   0.684   4.682   2.996
  450SOL    HW1 2249   0.600   4.724   2.962
  450SOL    HW2 2250   0.686   4.688   3.096
  451SOL     OW 2251   0.698   2.022   3.563
  451SOL    HW1 2252   0.776   2.003   3.623
  451SOL    HW2 2253   0.729   2.073   3.483
  452SOL     OW 2254   3.956   6.690   3.060
  452SOL    HW1 2255   4.040   6.740   3.040
  452SOL    HW2 2256   3.950   6.610   2.999
  453SOL     OW 2257   4.060   0.014   0.123
  453SOL    HW1 2258   4.145   6.985   0.125
  453SOL    HW2 2259   4.003   7.004   0.048
  454SOL     OW 2260   0.078   4.629   6.301
  454SOL    HW1 2261   0.133   4.707   6.271
  454SOL    HW2 2262   0.099   4.608   6.396
  455SOL     OW 2263   6.706   4.266   5.584
  455SOL    HW1 2264   6.746   4.342   5.635
  455SOL    HW2 2265   6.675   4.196   5.649
  456SOL     OW 2266   2.317   1.203   2.954
  456SOL    HW1 2267   2.263   1.241   2.878
  456SOL    HW2 2268   2.373   1.276   2.994
  457SOL     OW 2269   2.119   6.013   6.325
  457SOL    HW1 2270   2.134   6.012   6.226
  457SOL    HW2 2271   2.032   5.968   6.346
  458SOL     OW 2272   2.405   1.292   3.248
  458SOL    HW1 2273   2.360   1.239   3.320
  458SOL    HW2 2274   2.502   1.266   3.244
  459SOL     OW 2275   2.180   6.918   5.142
  459SOL    HW1 2276   2.274   6.923   5.108
  459SOL    HW2 2277   2.142   7.010   5.148
  460SOL     OW 2278   1.188   1.625   5.258
  460SOL    HW1 2279   1.275   1.580   5.272
  460SOL    HW2 2280   1.202   1.707   5.201
  461SOL     OW 2281   0.386   4.851   5.399
  461SOL    HW1 2282   0.458   4.833   5.466
  461SOL    HW2 2283   0.300   4.868   5.447
  462SOL     OW 2284   3.720   3.560   4.436
  462SOL    HW1 2285   3.733   3.525   4.528
  462SOL    HW2 2286   3.634   3.525   4.399
  463SOL     OW 2287   6.346   6.226   2.316
  463SOL    HW1 2288   6.377   6.292   2.248
  463SOL    HW2 2289   6.393   6.139   2.303
  464SOL     OW 2290   3.326   6.162   6.135
  464SOL    HW1 2291   3.267   6.084   6.113
  464SOL    HW2 2292   3.416   6.128   6.163
  465SOL     OW 2293   0.988   2.120   0.793
  465SOL    HW1 2294   1.069   2.077   0.752
  465SOL    HW2 2295   0.910   2.108   0.731
  466SOL     OW 2296   3.505   6.282   4.978
  466SOL    HW1 2297   3.532   6.187   4.959
  466SOL    HW2 2298   3.522   6.303   5.074
  467SOL     OW 2299   6.913   1.652   2.901
  467SOL    HW1 2300   6.860   1.586   2.848
  467SOL    HW2 2301   6.886   1.744   2.876
  468SOL     OW 2302   3.981   0.690   6.239
  468SOL    HW1 2303   4.061   0.679   6.179
  468SOL    HW2 2304   3.986   0.623   6.313
  469SOL     OW 2305   2.760   4.330   5.939
  469SOL    HW1 2306   2.827   4.379   5.883
  469SOL    HW2 2307   2.783   4.233   5.941
  470SOL     OW 2308   2.275   5.519   3.328
  470SOL    HW1 2309   2.354   5.502   3.270
  470SOL    HW2 2310   2.214   5.439   3.325
  471SOL     OW 2311   2.675   2.247   4.006
  471SOL    HW1 2312   2.723   2.166   3.974
  471SOL    HW2 2313   2.628   2.290   3.929
  472SOL     OW 2314   6.597   4.518   6.045
  472SOL    HW1 2315   6.642   4.467   5.972
  472SOL    HW2 2316   6.534   4.458   6.094
  473SOL     OW 2317   0.075   2.367   2.666
  473SOL    HW1 2318   0.032   2.379   2.755
  473SOL    HW2 2319   0.010   2.388   2.594
  474SOL     OW 2320   6.368   6.377   4.790
  474SOL    HW1 2321   6.385   6.344   4.697
  474SOL    HW2 2322   6.455   6.404   4.831
  475SOL     OW 2323   6.034   1.501   0.331
  475SOL    HW1 2324   6.131   1.520   0.312
  475SOL    HW2 2325   6.005   1.422   0.277
  476SOL     OW 2326   0.727   4.053   2.011
  476SOL    HW1 2327   0.811   4.078   2.060
  476SOL    HW2 2328   0.664   4.130   2.011
  477SOL     OW 2329   1.852   5.539   3.482
  477SOL    HW1 2330   1.945   5.507   3.502
  477SOL    HW2 2331   1.836   5.534   3.383
  478SOL     OW 2332   4.439   5.619   3.071
  478SOL    HW1 2333   4.416   5.716   3.070
  478SOL    HW2 2334   4.407   5.576   2.986
  479SOL     OW 2335   3.950   3.059   3.466
  479SOL    HW1 2336   4.017   3.066   3.392
  479SOL    HW2 2337   3.989   3.097   3.550
  480SOL     OW 2338   1.118   6.968   2.648
  480SOL    HW1 2339   1.022   6.942   2.637
  480SOL    HW2 2340   1.159   6.913   2.721
  481SOL     OW 2341   0.877   6.325   0.357
  481SOL    HW1 2342   0.903   6.334   0.261
  481SOL    HW2 2343   0.792   6.375   0.374
  482SOL     OW 2344   5.273   4.554   2.180
  482SOL    HW1 2345   5.228   4.510   2.258
  482SOL    HW2 2346   5.372   4.553   2.193
  483SOL     OW 2347   6.059   2.441   3.359
  483SOL    HW1 2348   6.091   2.350   3.384
  483SOL    HW2 2349   6.137   2.496   3.329
  484SOL     OW 2350   2.275   4.365   4.416
  484SOL    HW1 2351   2.282   4.362   4.516
  484SOL    HW2 2352   2.225   4.285   4.384
  485SOL     OW 2353   5.590   3.309   2.968
  485SOL    HW1 2354   5.615   3.222   2.925
  485SOL    HW2 2355   5.492   3.309   2.987
  486SOL     OW 2356   6.487   6.385   5.622
  486SOL    HW1 2357   6.521   6.292   5.632
  486SOL    HW2 2358   6.392   6.382   5.590
  487SOL     OW 2359   0.151   6.368   4.163
  487SOL    HW1 2360   0.065   6.318   4.153
  487SOL    HW2 2361   0.199   6.336   4.245
  488SOL     OW 2362   1.857   6.723   3.442
  488SOL    HW1 2363   1.871   6.679   3.353
  488SOL    HW2 2364   1.805   6.808   3.429
  489SOL     OW 2365   6.980   5.779   4.719
  489SOL    HW1 2366   6.960   5.734   4.806
  489SOL    HW2 2367   0.035   5.840   4.729
  490SOL     OW 2368   1.394   4.934   6.086
  490SOL    HW1 2369   1.418   4.914   5.990
  490SOL    HW2 2370   1.352   5.024   6.092
  491SOL     OW 2371   0.512   2.774   0.949
  491SOL    HW1 2372   0.478   2.682   0.930
  491SOL    HW2 2373   0.449   2.842   0.911
  492SOL     OW 2374   1.572   1.553   5.537
  492SOL    HW1 2375   1.484   1.561   5.583
  492SOL    HW2 2376   1.599   1.457   5.533
  493SOL     OW 2377   2.314   6.174   4.906
  493SOL    HW1 2378   2.298   6.076   4.911
  493SOL    HW2 2379   2.351   6.198   4.817
  494SOL     OW 2380   2.267   0.269   5.153
  494SOL    HW1 2381   2.268   0.237   5.058
  494SOL    HW2 2382   2.226   0.360   5.157
  495SOL     OW 2383   4.214   6.090   5.581
  495SOL    HW1 2384   4.244   5.995   5.592
  495SOL    HW2 2385   4.163   6.118   5.662
  496SOL     OW 2386   5.720   2.342   2.618
  496SOL    HW1 2387   5.698   2.297   2.705
  496SOL    HW2 2388   5.764   2.276   2.557
  497SOL     OW 2389   3.454   1.202   6.693
  497SOL    HW1 2390   3.486   1.130   6.755
  497SOL    HW2 2391   3.358   1.187   6.671
  498SOL     OW 2392   0.651   5.624   1.959
  498SOL    HW1 2393   0.690   5.683   2.029
  498SOL    HW2 2394   0.712   5.622   1.880
  499SOL     OW 2395   3.679   5.271   0.114
  499SOL    HW1 2396   3.652   5.323   0.033
  499SOL    HW2 2397   3.615   5.195   0.128
  500SOL     OW 2398   5.702   2.096   6.551
  500SOL    HW1 2399   5.697   2.184   6.599
  500SOL    HW2 2400   5.712   2.022   6.617
  501SOL     OW 2401   0.925   6.415   2.915
  501SOL    HW1 2402   0.999   6.377   2.860
  501SOL    HW2 2403   0.963   6.464   2.993
  502SOL     OW 2404   2.057   4.156   6.656
  502SOL    HW1 2405   2.069   4.100   6.737
  502SOL    HW2 2406   2.112   4.118   6.581
  503SOL     OW 2407   3.484   4.754   6.497
  503SOL    HW1 2408   3.509   4.666   6.537
  503SOL    HW2 2409   3.494   4.826   6.565
  504SOL     OW 2410   6.414   6.201   1.899
  504SOL    HW1 2411   6.453   6.261   1.969
  504SOL    HW2 2412   6.328   6.162   1.934
  505SOL     OW 2413   5.251   6.441   5.519
  505SOL    HW1 2414   5.196   6.485   5.591
  505SOL    HW2 2415   5.246   6.495   5.435
  506SOL     OW 2416   2.928   6.036   3.129
  506SOL    HW1 2417   2.898   5.976   3.055
  506SOL    HW2 2418   3.028   6.043   3.126
  507SOL     OW 2419   4.150   1.214   1.878
  507SOL    HW1 2420   4.213   1.177   1.946
  507SOL    HW2 2421   4.122   1.306   1.904
  508SOL     OW 2422   0.532   4.539   4.637
  508SOL    HW1 2423   0.450   4.588   4.667
  508SOL    HW2 2424   0.583   4.507   4.717
  509SOL     OW 2425   4.311   0.721   6.323
  509SOL    HW1 2426   4.339   0.795   6.262
  509SOL    HW2 2427   4.375   0.715   6.400
  510SOL     OW 2428   6.403   4.854   5.914
  510SOL    HW1 2429   6.400   4.787   5.988
  510SOL    HW2 2430   6.479   4.918   5.930
  511SOL     OW 2431   1.357   1.561   0.668
  511SOL    HW1 2432   1.268   1.569   0.624
  511SOL    HW2 2433   1.360   1.619   0.749
  512SOL     OW 2434   5.479   2.249   0.169
  512SOL    HW1 2435   5.553   2.261   0.104
  512SOL    HW2 2436   5.421   2.330   0.169
  513SOL     OW 2437   5.795   0.600   2.840
  513SOL    HW1 2438   5.792   0.685   2.788
  513SOL    HW2 2439   5.736   0.609   2.921
  514SOL     OW 2440   0.044   6.889   3.925
  514SOL    HW1 2441   7.017   6.975   3.912
  514SOL    HW2 2442   7.010   6.825   3.975
  515SOL     OW 2443   3.405   0.254   6.706
  515SOL    HW1 2444   3.478   0.192   6.677
  515SOL    HW2 2445   3.431   0.299   6.792
  516SOL     OW 2446   2.948   4.743   1.324
  516SOL    HW1 2447   3.009   4.804   1.373
  516SOL    HW2 2448   2.929   4.663   1.380
  517SOL     OW 2449   2.931   5.128   2.548
  517SOL    HW1 2450   2.986   5.195   2.598
  517SOL    HW2 2451   2.949   5.036   2.584
  518SOL     OW 2452   2.131   3.045   3.677
  518SOL    HW1 2453   2.160   3.028   3.583
  518SOL    HW2 2454   2.183   2.985   3.739
  519SOL     OW 2455   6.901   6.399   3.340
  519SOL    HW1 2456   6.979   6.390   3.402
  519SOL    HW2 2457   6.861   6.309   3.322
  520SOL     OW 2458   0.948   2.908   7.012
  520SOL    HW1 2459   0.929   2.890   6.916
  520SOL    HW2 2460   0.973   2.823   0.035
  521SOL     OW 2461   4.943   5.035   4.764
  521SOL    HW1 2462   4.933   5.014   4.861
  521SOL    HW2 2463   4.944   4.950   4.711
  522SOL     OW 2464   4.435   3.576   1.077
  522SOL    HW1 2465   4.471   3.542   1.164
  522SOL    HW2 2466   4.509   3.575   1.009
  523SOL     OW 2467   0.245   5.958   1.565
  523SOL    HW1 2468   0.266   5.879   1.623
  523SOL    HW2 2469   0.161   6.001   1.597
  524SOL     OW 2470   0.419   2.498   2.376
  524SOL    HW1 2471   0.418   2.584   2.426
  524SOL    HW2 2472   0.373   2.510   2.288
  525SOL     OW 2473   1.136   3.329   6.870
  525SOL    HW1 2474   1.120   3.427   6.872
  525SOL    HW2 2475   1.232   3.310   6.890
  526SOL     OW 2476   3.527   0.372   4.967
  526SOL    HW1 2477   3.513   0.471   4.961
  526SOL    HW2 2478   3.440   0.325   4.956
  527SOL     OW 2479   1.260   2.331   6.684
  527SOL    HW1 2480   1.289   2.282   6.601
  527SOL    HW2 2481   1.301   2.422   6.685
  528SOL     OW 2482   0.028   3.439   4.266
  528SOL    HW1 2483   0.026   3.475   4.359
  528SOL    HW2 2484   0.082   3.355   4.263
  529SOL     OW 2485   2.508   6.649   5.586
  529SOL    HW1 2486   2.488   6.745   5.566
  529SOL    HW2 2487   2.434   6.610   5.641
  530SOL     OW 2488   3.715   3.166   1.665
  530SOL    HW1 2489   3.678   3.215   1.587
  530SOL    HW2 2490   3.813   3.185   1.674
  531SOL     OW 2491   2.573   0.876   2.171
  531SOL    HW1 2492   2.623   0.913   2.250
  531SOL    HW2 2493   2.624   0.897   2.087
  532SOL     OW 2494   2.688   2.890   6.999
  532SOL    HW1 2495   2.664   2.846   6.912
  532SOL    HW2 2496   2.648   2.837   0.051
  533SOL     OW 2497   4.080   0.261   3.532
  533SOL    HW1 2498   4.120   0.309   3.610
  533SOL    HW2 2499   4.148   0.254   3.459
  534SOL     OW 2500   0.944   5.293   0.931
  534SOL    HW1 2501   1.006   5.345   0.989
  534SOL    HW2 2502   0.940   5.334   0.840
  535SOL     OW 2503   5.348   3.953   3.092
  535SOL    HW1 2504   5.267   3.914   3.135
  535SOL    HW2 2505   5.345   4.052   3.099
  536SOL     OW 2506   6.455   5.996   2.751
  536SOL    HW1 2507   6.380   5.930   2.755
  536SOL    HW2 2508   6.461   6.046   2.837
  537SOL     OW 2509   3.250   0.209   3.923
  537SOL    HW1 2510   3.246   0.286   3.860
  537SOL    HW2 2511   3.158   0.187   3.955
  538SOL     OW 2512   2.468   4.953   5.802
  538SOL    HW1 2513   2.449   4.859   5.831
  538SOL    HW2 2514   2.395   4.984   5.742
  539SOL     OW 2515   1.303   5.566   0.605
  539SOL    HW1 2516   1.214   5.533   0.573
  539SOL    HW2 2517   1.372   5.495   0.587
  540SOL     OW 2518   1.629   0.423   3.828
  540SOL    HW1 2519   1.678   0.482   3.764
  540SOL    HW2 2520   1.668   0.432   3.919
  541SOL     OW 2521   4.248   6.419   4.118
  541SOL    HW1 2522   4.257   6.519   4.125
  541SOL    HW2 2523   4.290   6.376   4.198
  542SOL     OW 2524   3.036   5.954   6.330
  542SOL    HW1 2525   3.052   5.955   6.232
  542SOL    HW2 2526   2.940   5.932   6.348
  543SOL     OW 2527   6.140   3.035   4.294
  543SOL    HW1 2528   6.044   3.039   4.265
  543SOL    HW2 2529   6.194   3.101   4.241
  544SOL     OW 2530   0.029   4.728   0.298
  544SOL    HW1 2531   0.050   4.804   0.360
  544SOL    HW2 2532   6.953   4.720   0.289
  545SOL     OW 2533   5.227   1.609   1.016
  545SOL    HW1 2534   5.141   1.656   1.037
  545SOL    HW2 2535   5.246   1.615   0.918
  546SOL     OW 2536   0.445   4.130   2.309
  546SOL    HW1 2537   0.497   4.120   2.394
  546SOL    HW2 2538   0.353   4.166   2.330
  547SOL     OW 2539   3.595   1.821   0.343
  547SOL    HW1 2540   3.589   1.835   0.244
  547SOL    HW2 2541   3.506   1.792   0.379
  548SOL     OW 2542   3.862   3.171   0.358
  548SOL    HW1 2543   3.903   3.243   0.414
  548SOL    HW2 2544   3.775   3.203   0.322
  549SOL     OW 2545   5.648   2.566   0.540
  549SOL    HW1 2546   5.664   2.654   0.585
  549SOL    HW2 2547   5.557   2.566   0.500
  550SOL     OW 2548   0.203   4.516   3.195
  550SOL    HW1 2549   0.189   4.484   3.289
  550SOL    HW2 2550   0.141   4.593   3.177
  551SOL     OW 2551   6.952   1.088   0.331
  551SOL    HW1 2552   6.882   1.067   0.400
  551SOL    HW2 2553   7.020   1.015   0.330
  552SOL     OW 2554   4.995   5.501   6.047
  552SOL    HW1 2555   5.027   5.431   5.982
  552SOL    HW2 2556   5.049   5.495   6.131
  553SOL     OW 2557   3.280   0.782   4.787
  553SOL    HW1 2558   3.237   0.722   4.720
  553SOL    HW2 2559   3.265   0.878   4.761
  554SOL     OW 2560   5.812   5.938   0.475
  554SOL    HW1 2561   5.844   5.931   0.569
  554SOL    HW2 2562   5.835   5.854   0.426
  555SOL     OW 2563   3.001   5.472   5.419
  555SOL    HW1 2564   2.991   5.571   5.404
  555SOL    HW2 2565   3.046   5.456   5.506
  556SOL     OW 2566   5.158   2.247   3.817
  556SOL    HW1 2567   5.133   2.344   3.827
  556SOL    HW2 2568   5.182   2.229   3.722
  557SOL     OW 2569   0.218   4.912   5.608
  557SOL    HW1 2570   0.136   4.969   5.613
  557SOL    HW2 2571   0.232   4.865   5.695
  558SOL     OW 2572   3.882   3.656   3.217
  558SOL    HW1 2573   3.871   3.587   3.145
  558SOL    HW2 2574   3.881   3.611   3.306
  559SOL     OW 2575   6.591   6.144   5.575
  559SOL    HW1 2576   6.641   6.066   5.613
  559SOL    HW2 2577   6.540   6.115   5.494
  560SOL     OW 2578   6.881   3.215   3.636
  560SOL    HW1 2579   6.857   3.153   3.711
  560SOL    HW2 2580   6.800   3.265   3.606
  561SOL     OW 2581   0.084   3.359   6.571
  561SOL    HW1 2582   0.158   3.325   6.513
  561SOL    HW2 2583   0.109   3.450   6.606
  562SOL     OW 2584   5.071   6.578   5.684
  562SOL    HW1 2585   5.008   6.621   5.619
  562SOL    HW2 2586   5.018   6.524   5.750
  563SOL     OW 2587   1.349   1.699   4.331
  563SOL    HW1 2588   1.412   1.733   4.401
  563SOL    HW2 2589   1.286   1.633   4.372
  564SOL     OW 2590   0.279   1.118   6.272
  564SOL    HW1 2591   0.278   1.136   6.370
  564SOL    HW2 2592   0.247   1.199   6.223
  565SOL     OW 2593   3.182   3.028   3.840
  565SOL    HW1 2594   3.210   2.980   3.923
  565SOL    HW2 2595   3.097   3.077   3.857
  566SOL     OW 2596   3.046   5.471   3.000
  566SOL    HW1 2597   2.960   5.421   2.988
  566SOL    HW2 2598   3.100   5.465   2.916
  567SOL     OW 2599   2.464   2.480   0.726
  567SOL    HW1 2600   2.478   2.409   0.795
  567SOL    HW2 2601   2.366   2.497   0.715
  568SOL     OW 2602   5.614   6.759   0.592
  568SOL    HW1 2603   5.594   6.788   0.685
  568SOL    HW2 2604   5.694   6.809   0.558
  569SOL     OW 2605   0.291   2.269   7.019
  569SOL    HW1 2606   0.326   2.363   7.020
  569SOL    HW2 2607   0.331   2.219   6.943
  570SOL     OW 2608   2.919   0.393   6.148
  570SOL    HW1 2609   2.944   0.475   6.096
  570SOL    HW2 2610   2.985   0.379   6.222
  571SOL     OW 2611   2.720   5.112   3.545
  571SOL    HW1 2612   2.684   5.044   3.480
  571SOL    HW2 2613   2.786   5.171   3.499
  572SOL     OW 2614   1.539   5.856   4.636
  572SOL    HW1 2615   1.565   5.952   4.633
  572SOL    HW2 2616   1.574   5.809   4.556
  573SOL     OW 2617   6.481   1.988   5.690
  573SOL    HW1 2618   6.497   1.893   5.715
  573SOL    HW2 2619   6.523   2.049   5.757
  574SOL     OW 2620   3.326   1.194   4.902
  574SOL    HW1 2621   3.407   1.242   4.937
  574SOL    HW2 2622   3.282   1.144   4.977
  575SOL     OW 2623   3.933   2.855   0.929
  575SOL    HW1 2624   3.898   2.763   0.945
  575SOL    HW2 2625   3.964   2.863   0.834
  576SOL     OW 2626   2.249   2.808   2.740
  576SOL    HW1 2627   2.177   2.835   2.676
  576SOL    HW2 2628   2.331   2.780   2.689
  577SOL     OW 2629   0.590   0.780   2.199
  577SOL    HW1 2630   0.683   0.793   2.166
  577SOL    HW2 2631   0.564   0.684   2.191
  578SOL     OW 2632   1.535   5.466   0.260
  578SOL    HW1 2633   1.632   5.487   0.254
  578SOL    HW2 2634   1.483   5.536   0.211
  579SOL     OW 2635   2.398   4.431   2.644
  579SOL    HW1 2636   2.474   4.474   2.595
  579SOL    HW2 2637   2.319   4.423   2.583
  580SOL     OW 2638   4.425   5.214   5.030
  580SOL    HW1 2639   4.471   5.217   4.941
  580SOL    HW2 2640   4.493   5.200   5.102
  581SOL     OW 2641   0.542   3.198   3.833
  581SOL    HW1 2642   0.479   3.194   3.755
  581SOL    HW2 2643   0.630   3.156   3.806
  582SOL     OW 2644   4.762   5.515   3.506
  582SOL    HW1 2645   4.676   5.524   3.456
  582SOL    HW2 2646   4.823   5.453   3.458
  583SOL     OW 2647   3.043   5.049   5.570
  583SOL    HW1 2648   3.048   4.950   5.582
  583SOL    HW2 2649   2.950   5.080   5.589
  584SOL     OW 2650   3.335   0.206   6.347
  584SOL    HW1 2651   3.345   0.107   6.331
  584SOL    HW2 2652   3.417   0.253   6.314
  585SOL     OW 2653   3.557   6.967   1.236
  585SOL    HW1 2654   3.546   6.892   1.301
  585SOL    HW2 2655   3.468   6.991   1.197
  586SOL     OW 2656   4.331   0.241   1.110
  586SOL    HW1 2657   4.265   0.299   1.157
  586SOL    HW2 2658   4.408   0.296   1.077
  587SOL     OW 2659   5.548   1.888   1.712
  587SOL    HW1 2660   5.610   1.818   1.676
  587SOL    HW2 2661   5.602   1.964   1.748
  588SOL     OW 2662   1.728   5.341   0.858
  588SOL    HW1 2663   1.632   5.333   0.882
  588SOL    HW2 2664   1.780   5.267   0.900
  589SOL     OW 2665   3.167   5.921   1.427
  589SOL    HW1 2666   3.251   5.956   1.385
  589SOL    HW2 2667   3.137   5.839   1.379
  590SOL     OW 2668   5.704   1.611   0.700
  590SOL    HW1 2669   5.648   1.685   0.662
  590SOL    HW2 2670   5.775   1.585   0.634
  591SOL     OW 2671   4.401   6.008   4.250
  591SOL    HW1 2672   4.396   5.975   4.156
  591SOL    HW2 2673   4.496   6.001   4.283
  592SOL     OW 2674   4.865   0.950   3.801
  592SOL    HW1 2675   4.940   0.990   3.748
  592SOL    HW2 2676   4.900   0.915   3.888
  593SOL     OW 2677   4.070   2.166   4.796
  593SOL    HW1 2678   4.106   2.163   4.889
  593SOL    HW2 2679   4.121   2.234   4.742
  594SOL     OW 2680   6.020   2.172   1.173
  594SOL    HW1 2681   6.076   2.241   1.219
  594SOL    HW2 2682   5.927   2.206   1.163
  595SOL     OW 2683   5.166   6.609   3.344
  595SOL    HW1 2684   5.176   6.541   3.417
  595SOL    HW2 2685   5.155   6.700   3.384
  596SOL     OW 2686   0.055   4.687   3.534
  596SOL    HW1 2687   0.093   4.614   3.592
  596SOL    HW2 2688   0.114   4.701   3.455
  597SOL     OW 2689   3.539   6.970   5.690
  597SOL    HW1 2690   3.638   6.953   5.687
  597SOL    HW2 2691   3.515   7.012   5.778
  598SOL     OW 2692   3.007   3.965   4.809
  598SOL    HW1 2693   2.972   3.871   4.812
  598SOL    HW2 2694   3.003   3.999   4.716
  599SOL     OW 2695   1.910   6.048   1.896
  599SOL    HW1 2696   1.997   6.079   1.935
  599SOL    HW2 2697   1.877   5.968   1.947
  600SOL     OW 2698   0.234   3.750   5.630
  600SOL    HW1 2699   0.333   3.744   5.644
  600SOL    HW2 2700   0.187   3.715   5.712
  601SOL     OW 2701   1.783   1.101   5.188
  601SOL    HW1 2702   1.846   1.171   5.154
  601SOL    HW2 2703   1.835   1.019   5.211
  602SOL     OW 2704   3.276   6.676   5.352
  602SOL    HW1 2705   3.190   6.719   5.381
  602SOL    HW2 2706   3.333   6.744   5.305
  603SOL     OW 2707   1.523   1.130   5.792
  603SOL    HW1 2708   1.496   1.134   5.889
  603SOL    HW2 2709   1.551   1.221   5.762
  604SOL     OW 2710   0.035   2.288   1.688
  604SOL    HW1 2711   0.129   2.299   1.720
  604SOL    HW2 2712   0.035   2.249   1.596
  605SOL     OW 2713   0.711   4.847   2.424
  605SOL    HW1 2714   0.786   4.887   2.477
  605SOL    HW2 2715   0.635   4.827   2.486
  606SOL     OW 2716   4.889   6.722   5.544
  606SOL    HW1 2717   4.825   6.688   5.474
  606SOL    HW2 2718   4.840   6.733   5.630
  607SOL     OW 2719   0.939   5.358   5.558
  607SOL    HW1 2720   0.898   5.336   5.469
  607SOL    HW2 2721   0.894   5.304   5.630
  608SOL     OW 2722   4.273   0.023   6.402
  608SOL    HW1 2723   4.321   6.961   6.419
  608SOL    HW2 2724   4.183   0.004   6.362
  609SOL     OW 2725   3.934   2.308   1.778
  609SOL    HW1 2726   3.965   2.403   1.778
  609SOL    HW2 2727   3.836   2.305   1.797
  610SOL     OW 2728   4.652   2.298   0.410
  610SOL    HW1 2729   4.660   2.362   0.487
  610SOL    HW2 2730   4.725   2.317   0.344
  611SOL     OW 2731   4.200   6.850   2.449
  611SOL    HW1 2732   4.240   6.936   2.417
  611SOL    HW2 2733   4.110   6.838   2.407
  612SOL     OW 2734   3.042   4.784   5.613
  612SOL    HW1 2735   3.106   4.717   5.649
  612SOL    HW2 2736   3.025   4.767   5.516
  613SOL     OW 2737   5.668   5.253   4.959
  613SOL    HW1 2738   5.621   5.259   5.047
  613SOL    HW2 2739   5.612   5.295   4.888
  614SOL     OW 2740   4.907   5.227   5.195
  614SOL    HW1 2741   4.890   5.318   5.156
  614SOL    HW2 2742   4.882   5.228   5.292
  615SOL     OW 2743   6.837   4.371   0.646
  615SOL    HW1 2744   6.741   4.399   0.638
  615SOL    HW2 2745   6.846   4.301   0.717
  616SOL     OW 2746   6.538   3.178   3.377
  616SOL    HW1 2747   6.554   3.254   3.314
  616SOL    HW2 2748   6.445   3.183   3.413
  617SOL     OW 2749   1.846   5.233   6.602
  617SOL    HW1 2750   1.870   5.329   6.590
  617SOL    HW2 2751   1.829   5.192   6.512
  618SOL     OW 2752   1.784   1.664   1.787
  618SOL    HW1 2753   1.729   1.635   1.709
  618SOL    HW2 2754   1.794   1.763   1.786
  619SOL     OW 2755   1.740   1.854   0.449
  619SOL    HW1 2756   1.642   1.835   0.438
  619SOL    HW2 2757   1.752   1.949   0.478
  620SOL     OW 2758   4.883   2.100   0.381
  620SOL    HW1 2759   4.973   2.073   0.416
  620SOL    HW2 2760   4.819   2.109   0.457
  621SOL     OW 2761   6.226   5.151   6.460
  621SOL    HW1 2762   6.192   5.178   6.550
  621SOL    HW2 2763   6.307   5.206   6.438
  622SOL     OW 2764   1.614   1.226   0.238
  622SOL    HW1 2765   1.690   1.199   0.179
  622SOL    HW2 2766   1.648   1.242   0.330
  623SOL     OW 2767   0.450   5.536   5.999
  623SOL    HW1 2768   0.364   5.490   5.978
  623SOL    HW2 2769   0.458   5.619   5.945
  624SOL     OW 2770   0.698   2.744   2.398
  624SOL    HW1 2771   0.617   2.733   2.456
  624SOL    HW2 2772   0.671   2.733   2.302
  625SOL     OW 2773   3.306   1.455   1.903
  625SOL    HW1 2774   3.213   1.475   1.934
  625SOL    HW2 2775   3.337   1.527   1.841
  626SOL     OW 2776   2.088   5.877   3.597
  626SOL    HW1 2777   2.089   5.802   3.663
  626SOL    HW2 2778   2.165   5.866   3.534
  627SOL     OW 2779   5.420   0.555   0.490
  627SOL    HW1 2780   5.463   0.618   0.425
  627SOL    HW2 2781   5.321   0.555   0.474
  628SOL     OW 2782   5.025   5.487   4.775
  628SOL    HW1 2783   5.061   5.488   4.682
  628SOL    HW2 2784   5.100   5.481   4.841
  629SOL     OW 2785   0.769   0.381   1.381
  629SOL    HW1 2786   0.752   0.368   1.283
  629SOL    HW2 2787   0.697   0.439   1.419
  630SOL     OW 2788   4.901   1.815   2.216
  630SOL    HW1 2789   4.889   1.732   2.270
  630SOL    HW2 2790   4.998   1.840   2.216
  631SOL     OW 2791   3.041   0.700   5.263
  631SOL    HW1 2792   3.121   0.668   5.213
  631SOL    HW2 2793   2.989   0.764   5.207
  632SOL     OW 2794   2.476   0.901   0.306
  632SOL    HW1 2795   2.432   0.823   0.263
  632SOL    HW2 2796   2.406   0.963   0.341
  633SOL     OW 2797   3.264   5.431   0.637
  633SOL    HW1 2798   3.166   5.432   0.655
  633SOL    HW2 2799   3.307   5.357   0.689
  634SOL     OW 2800   4.029   5.024   1.568
  634SOL    HW1 2801   4.019   4.930   1.600
  634SOL    HW2 2802   3.958   5.081   1.609
  635SOL     OW 2803   3.884   6.863   3.307
  635SOL    HW1 2804   3.804   6.901   3.260
  635SOL    HW2 2805   3.904   6.918   3.388
  636SOL     OW 2806   5.066   5.551   6.317
  636SOL    HW1 2807   4.967   5.545   6.327
  636SOL    HW2 2808   5.110   5.510   6.397
  637SOL     OW 2809   5.133   4.988   1.881
  637SOL    HW1 2810   5.040   4.956   1.899
  637SOL    HW2 2811   5.186   4.914   1.839
  638SOL     OW 2812   5.048   1.298   2.462
  638SOL    HW1 2813   5.032   1.283   2.364
  638SOL    HW2 2814   5.126   1.244   2.492
  639SOL     OW 2815   4.570   4.870   1.852
  639SOL    HW1 2816   4.590   4.823   1.766
  639SOL    HW2 2817   4.516   4.810   1.911
  640SOL     OW 2818   2.254   4.224   5.722
  640SOL    HW1 2819   2.262   4.125   5.709
  640SOL    HW2 2820   2.265   4.270   5.633
  641SOL     OW 2821   0.482   5.297   4.105
  641SOL    HW1 2822   0.536   5.271   4.185
  641SOL    HW2 2823   0.443   5.215   4.063
  642SOL     OW 2824   0.344   4.756   4.731
  642SOL    HW1 2825   0.400   4.795   4.657
  642SOL    HW2 2826   0.252   4.737   4.696
  643SOL     OW 2827   5.910   5.977   4.772
  643SOL    HW1 2828   5.825   5.931   4.798
  643SOL    HW2 2829   5.890   6.046   4.702
  644SOL     OW 2830   1.015   6.013   2.837
  644SOL    HW1 2831   1.035   5.915   2.829
  644SOL    HW2 2832   0.982   6.032   2.930
  645SOL     OW 2833   4.737   2.360   4.608
  645SOL    HW1 2834   4.674   2.437   4.601
  645SOL    HW2 2835   4.831   2.395   4.616
  646SOL     OW 2836   1.950   1.622   3.512
  646SOL    HW1 2837   1.983   1.532   3.483
  646SOL    HW2 2838   2.005   1.693   3.467
  647SOL     OW 2839   6.104   2.953   6.559
  647SOL    HW1 2840   6.149   2.915   6.477
  647SOL    HW2 2841   6.088   3.051   6.546
  648SOL     OW 2842   5.944   4.057   2.713
  648SOL    HW1 2843   5.917   3.992   2.642
  648SOL    HW2 2844   6.018   4.116   2.679
  649SOL     OW 2845   4.031   4.119   0.605
  649SOL    HW1 2846   4.081   4.052   0.550
  649SOL    HW2 2847   4.090   4.153   0.678
  650SOL     OW 2848   4.750   4.419   0.528
  650SOL    HW1 2849   4.784   4.502   0.483
  650SOL    HW2 2850   4.769   4.424   0.626
  651SOL     OW 2851   0.742   6.272   0.834
  651SOL    HW1 2852   0.656   6.221   0.843
  651SOL    HW2 2853   0.798   6.259   0.916
  652SOL     OW 2854   4.828   6.746   3.330
  652SOL    HW1 2855   4.752   6.711   3.385
  652SOL    HW2 2856   4.856   6.835   3.366
  653SOL     OW 2857   3.231   5.515   5.204
  653SOL    HW1 2858   3.319   5.544   5.168
  653SOL    HW2 2859   3.163   5.587   5.189
  654SOL     OW 2860   6.995   5.078   6.166
  654SOL    HW1 2861   6.934   5.148   6.129
  654SOL    HW2 2862   7.010   5.007   6.097
  655SOL     OW 2863   0.542   0.158   1.950
  655SOL    HW1 2864   0.626   0.104   1.943
  655SOL    HW2 2865   0.489   0.149   1.866
  656SOL     OW 2866   1.872   6.155   2.367
  656SOL    HW1 2867   1.958   6.107   2.385
  656SOL    HW2 2868   1.825   6.172   2.453
  657SOL     OW 2869   2.362   1.736   1.340
  657SOL    HW1 2870   2.314   1.702   1.260
  657SOL    HW2 2871   2.422   1.665   1.376
  658SOL     OW 2872   3.369   3.808   0.007
  658SOL    HW1 2873   3.341   3.827   6.937
  658SOL    HW2 2874   3.333   3.879   0.068
  659SOL     OW 2875   2.793   6.608   6.290
  659SOL    HW1 2876   2.744   6.521   6.280
  659SOL    HW2 2877   2.735   6.682   6.257
  660SOL     OW 2878   3.657   5.916   1.947
  660SOL    HW1 2879   3.729   5.878   2.005
  660SOL    HW2 2880   3.569   5.904   1.991
  661SOL     OW 2881   4.370   6.267   3.594
  661SOL    HW1 2882   4.381   6.168   3.603
  661SOL    HW2 2883   4.280   6.287   3.553
  662SOL     OW 2884   3.659   0.896   5.031
  662SOL    HW1 2885   3.745   0.928   5.071
  662SOL    HW2 2886   3.582   0.931   5.084
  663SOL     OW 2887   1.794   4.143   4.921
  663SOL    HW1 2888   1.842   4.057   4.904
  663SOL    HW2 2889   1.725   4.158   4.851
  664SOL     OW 2890   0.377   6.773   5.900
  664SOL    HW1 2891   0.420   6.855   5.938
  664SOL    HW2 2892   0.364   6.706   5.973
  665SOL     OW 2893   3.602   5.350   3.918
  665SOL    HW1 2894   3.508   5.377   3.937
  665SOL    HW2 2895   3.659   5.369   3.998
  666SOL     OW 2896   4.295   0.581   2.069
  666SOL    HW1 2897   4.349   0.659   2.036
  666SOL    HW2 2898   4.342   0.541   2.148
  667SOL     OW 2899   0.872   5.122   1.698
  667SOL    HW1 2900   0.782   5.139   1.737
  667SOL    HW2 2901   0.870   5.142   1.600
  668SOL     OW 2902   5.772   5.321   6.036
  668SOL    HW1 2903   5.830   5.252   5.992
  668SOL    HW2 2904   5.820   5.359   6.115
  669SOL     OW 2905   5.757   1.362   3.233
  669SOL    HW1 2906   5.816   1.439   3.210
  669SOL    HW2 2907   5.743   1.359   3.332
  670SOL     OW 2908   2.122   1.767   2.557
  670SOL    HW1 2909   2.093   1.818   2.638
  670SOL    HW2 2910   2.222   1.762   2.555
  671SOL     OW 2911   3.052   6.075   1.644
  671SOL    HW1 2912   3.125   6.117   1.698
  671SOL    HW2 2913   3.092   6.010   1.579
  672SOL     OW 2914   6.860   5.062   2.132
  672SOL    HW1 2915   6.884   4.965   2.129
  672SOL    HW2 2916   6.943   5.117   2.121
  673SOL     OW 2917   5.393   6.870   1.497
  673SOL    HW1 2918   5.303   6.880   1.538
  673SOL    HW2 2919   5.451   6.948   1.522
  674SOL     OW 2920   0.318   2.065   4.881
  674SOL    HW1 2921   0.316   2.110   4.971
  674SOL    HW2 2922   0.377   1.984   4.886
  675SOL     OW 2923   6.314   2.361   2.091
  675SOL    HW1 2924   6.316   2.449   2.138
  675SOL    HW2 2925   6.311   2.377   1.992
  676SOL     OW 2926   2.498   4.572   4.732
  676SOL    HW1 2927   2.575   4.622   4.693
  676SOL    HW2 2928   2.496   4.587   4.831
  677SOL     OW 2929   5.278   0.789   1.724
  677SOL    HW1 2930   5.369   0.790   1.683
  677SOL    HW2 2931   5.232   0.703   1.701
  678SOL     OW 2932   2.520   4.787   5.010
  678SOL    HW1 2933   2.550   4.739   5.093
  678SOL    HW2 2934   2.588   4.776   4.938
  679SOL     OW 2935   5.223   2.184   5.157
  679SOL    HW1 2936   5.205   2.171   5.059
  679SOL    HW2 2937   5.320   2.204   5.170
  680SOL     OW 2938   5.198   6.267   4.456
  680SOL    HW1 2939   5.150   6.305   4.534
  680SOL    HW2 2940   5.295   6.255   4.478
  681SOL     OW 2941   4.730   5.840   2.435
  681SOL    HW1 2942   4.716   5.936   2.412
  681SOL    HW2 2943   4.814   5.807   2.392
  682SOL     OW 2944   6.828   1.457   1.771
  682SOL    HW1 2945   6.750   1.401   1.796
  682SOL    HW2 2946   6.821   1.546   1.815
  683SOL     OW 2947   4.271   3.151   1.342
  683SOL    HW1 2948   4.196   3.093   1.375
  683SOL    HW2 2949   4.238   3.210   1.269
  684SOL     OW 2950   6.170   0.240   6.627
  684SOL    HW1 2951   6.119   0.170   6.578
  684SOL    HW2 2952   6.262   0.207   6.648
  685SOL     OW 2953   3.062   1.551   3.474
  685SOL    HW1 2954   3.063   1.647   3.502
  685SOL    HW2 2955   3.011   1.497   3.541
  686SOL     OW 2956   4.559   1.212   3.965
  686SOL    HW1 2957   4.470   1.257   3.954
  686SOL    HW2 2958   4.620   1.273   4.017
  687SOL     OW 2959   0.845   1.657   4.724
  687SOL    HW1 2960   0.883   1.679   4.635
  687SOL    HW2 2961   0.745   1.657   4.719
  688SOL     OW 2962   0.057   0.848   5.779
  688SOL    HW1 2963   0.106   0.872   5.696
  688SOL    HW2 2964   7.016   0.774   5.760
  689SOL     OW 2965   1.579   4.189   6.253
  689SOL    HW1 2966   1.519   4.179   6.332
  689SOL    HW2 2967   1.551   4.125   6.181
  690SOL     OW 2968   6.928   3.819   3.535
  690SOL    HW1 2969   7.010   3.826   3.478
  690SOL    HW2 2970   6.865   3.894   3.512
  691SOL     OW 2971   4.289   1.491   0.788
  691SOL    HW1 2972   4.357   1.465   0.719
  691SOL    HW2 2973   4.198   1.491   0.746
  692SOL     OW 2974   3.278   1.545   5.306
  692SOL    HW1 2975   3.305   1.592   5.390
  692SOL    HW2 2976   3.284   1.607   5.228
  693SOL     OW 2977   4.950   6.500   3.759
  693SOL    HW1 2978   4.956   6.457   3.850
  693SOL    HW2 2979   4.927   6.430   3.691
  694SOL     OW 2980   4.245   5.818   4.416
  694SOL    HW1 2981   4.311   5.888   4.389
  694SOL    HW2 2982   4.207   5.774   4.335
  695SOL     OW 2983   3.745   5.787   4.777
  695SOL    HW1 2984   3.685   5.747   4.846
  695SOL    HW2 2985   3.837   5.796   4.815
  696SOL     OW 2986   4.765   4.006   3.615
  696SOL    HW1 2987   4.805   4.089   3.577
  696SOL    HW2 2988   4.668   4.022   3.634
  697SOL     OW 2989   1.324   3.564   2.135
  697SOL    HW1 2990   1.293   3.469   2.136
  697SOL    HW2 2991   1.349   3.590   2.042
  698SOL     OW 2992   4.776   6.654   1.710
  698SOL    HW1 2993   4.723   6.693   1.634
  698SOL    HW2 2994   4.874   6.666   1.691
  699SOL     OW 2995   2.086   3.371   7.023
  699SOL    HW1 2996   2.018   3.330   6.962
  699SOL    HW2 2997   2.072   3.337   0.092
  700SOL     OW 2998   3.166   0.154   2.059
  700SOL    HW1 2999   3.170   0.092   1.981
  700SOL    HW2 3000   3.246   0.214   2.058
  701SOL     OW 3001   6.416   4.763   1.102
  701SOL    HW1 3002   6.392   4.856   1.075
  701SOL    HW2 3003   6.504   4.764   1.149
  702SOL     OW 3004   2.560   0.223   4.366
  702SOL    HW1 3005   2.549   0.263   4.457
  702SOL    HW2 3006   2.564   0.123   4.373
  703SOL     OW 3007   3.100   3.609   5.460
  703SOL    HW1 3008   3.081   3.640   5.553
  703SOL    HW2 3009   3.144   3.519   5.463
  704SOL     OW 3010   2.188   2.623   6.037
  704SOL    HW1 3011   2.153   2.645   6.128
  704SOL    HW2 3012   2.284   2.650   6.031
  705SOL     OW 3013   6.852   5.951   3.456
  705SOL    HW1 3014   6.931   6.005   3.483
  705SOL    HW2 3015   6.881   5.880   3.392
  706SOL     OW 3016   4.277   1.708   5.350
  706SOL    HW1 3017   4.239   1.658   5.273
  706SOL    HW2 3018   4.248   1.664   5.436
  707SOL     OW 3019   3.943   5.694   3.405
  707SOL    HW1 3020   4.026   5.642   3.388
  707SOL    HW2 3021   3.866   5.632   3.415
  708SOL     OW 3022   2.330   1.396   3.680
  708SOL    HW1 3023   2.354   1.399   3.583
  708SOL    HW2 3024   2.404   1.354   3.732
  709SOL     OW 3025   1.563   6.847   1.473
  709SOL    HW1 3026   1.542   6.763   1.424
  709SOL    HW2 3027   1.596   6.825   1.564
  710SOL     OW 3028   4.980   2.412   1.971
  710SOL    HW1 3029   4.901   2.352   1.960
  710SOL    HW2 3030   4.999   2.425   2.069
  711SOL     OW 3031   6.877   3.028   6.151
  711SOL    HW1 3032   6.870   2.949   6.212
  711SOL    HW2 3033   6.946   3.091   6.185
  712SOL     OW 3034   4.953   2.635   1.133
  712SOL    HW1 3035   4.886   2.702   1.101
  712SOL    HW2 3036   4.914   2.582   1.208
  713SOL     OW 3037   4.265   2.776   5.367
  713SOL    HW1 3038   4.276   2.732   5.456
  713SOL    HW2 3039   4.216   2.714   5.305
  714SOL     OW 3040   6.165   5.175   3.780
  714SOL    HW1 3041   6.176   5.264   3.735
  714SOL    HW2 3042   6.124   5.110   3.717
  715SOL     OW 3043   6.615   4.909   5.417
  715SOL    HW1 3044   6.563   4.898   5.501
  715SOL    HW2 3045   6.625   5.006   5.395
  716SOL     OW 3046   2.092   1.182   3.119
  716SOL    HW1 3047   2.177   1.206   3.074
  716SOL    HW2 3048   2.048   1.106   3.070
  717SOL     OW 3049   5.840   4.626   3.983
  717SOL    HW1 3050   5.911   4.560   3.960
  717SOL    HW2 3051   5.818   4.619   4.081
  718SOL     OW 3052   4.969   2.923   4.470
  718SOL    HW1 3053   4.981   3.018   4.497
  718SOL    HW2 3054   4.876   2.893   4.491
  719SOL     OW 3055   6.288   0.146   2.233
  719SOL    HW1 3056   6.279   0.054   2.269
  719SOL    HW2 3057   6.293   0.212   2.308
  720SOL     OW 3058   2.762   0.323   5.670
  720SOL    HW1 3059   2.677   0.290   5.630
  720SOL    HW2 3060   2.757   0.317   5.769
  721SOL     OW 3061   0.600   1.396   2.124
  721SOL    HW1 3062   0.566   1.348   2.043
  721SOL    HW2 3063   0.700   1.399   2.120
  722SOL     OW 3064   3.875   1.025   6.711
  722SOL    HW1 3065   3.816   0.949   6.739
  722SOL    HW2 3066   3.955   1.029   6.770
  723SOL     OW 3067   2.003   6.361   3.524
  723SOL    HW1 3068   2.056   6.360   3.440
  723SOL    HW2 3069   2.021   6.445   3.575
  724SOL     OW 3070   6.933   0.825   3.629
  724SOL    HW1 3071   6.910   0.922   3.639
  724SOL    HW2 3072   0.002   0.809   3.661
  725SOL     OW 3073   1.640   4.706   1.976
  725SOL    HW1 3074   1.576   4.781   1.957
  725SOL    HW2 3075   1.653   4.652   1.893
  726SOL     OW 3076   2.569   5.311   1.061
  726SOL    HW1 3077   2.608   5.219   1.051
  726SOL    HW2 3078   2.518   5.316   1.147
  727SOL     OW 3079   4.475   5.320   6.094
  727SOL    HW1 3080   4.437   5.289   6.007
  727SOL    HW2 3081   4.405   5.369   6.145
  728SOL     OW 3082   0.079   3.315   4.746
  728SOL    HW1 3083   0.095   3.380   4.672
  728SOL    HW2 3084   7.018   3.338   4.794
  729SOL     OW 3085   0.681   2.933   1.098
  729SOL    HW1 3086   0.639   2.930   1.007
  729SOL    HW2 3087   0.677   3.026   1.135
  730SOL     OW 3088   5.474   0.607   3.201
  730SOL    HW1 3089   5.570   0.628   3.180
  730SOL    HW2 3090   5.423   0.693   3.211
  731SOL     OW 3091   4.765   4.617   6.630
  731SOL    HW1 3092   4.713   4.666   6.700
  731SOL    HW2 3093   4.778   4.522   6.658
  732SOL     OW 3094   5.431   1.797   2.230
  732SOL    HW1 3095   5.475   1.870   2.282
  732SOL    HW2 3096   5.345   1.832   2.192
  733SOL     OW 3097   5.646   0.257   4.188
  733SOL    HW1 3098   5.660   0.167   4.229
  733SOL    HW2 3099   5.647   0.327   4.259
  734SOL     OW 3100   6.502   4.502   2.631
  734SOL    HW1 3101   6.490   4.601   2.621
  734SOL    HW2 3102   6.451   4.454   2.560
  735SOL     OW 3103   5.587   0.570   1.840
  735SOL    HW1 3104   5.634   0.587   1.754
  735SOL    HW2 3105   5.596   0.473   1.864
  736SOL     OW 3106   1.207   1.399   3.845
  736SOL    HW1 3107   1.147   1.343   3.788
  736SOL    HW2 3108   1.297   1.354   3.853
  737SOL     OW 3109   6.009   2.182   5.497
  737SOL    HW1 3110   6.100   2.146   5.479
  737SOL    HW2 3111   5.940   2.119   5.462
  738SOL     OW 3112   2.720   3.901   1.393
  738SOL    HW1 3113   2.778   3.875   1.315
  738SOL    HW2 3114   2.755   3.858   1.476
  739SOL     OW 3115   3.718   0.073   5.199
  739SOL    HW1 3116   3.695   0.093   5.104
  739SOL    HW2 3117   3.798   0.126   5.227
  740SOL     OW 3118   5.956   1.919   2.606
  740SOL    HW1 3119   5.931   1.829   2.572
  740SOL    HW2 3120   5.896   1.944   2.682
  741SOL     OW 3121   1.873   1.246   4.751
  741SOL    HW1 3122   1.933   1.312   4.707
  741SOL    HW2 3123   1.860   1.168   4.690
  742SOL     OW 3124   2.442   5.709   1.547
  742SOL    HW1 3125   2.452   5.788   1.607
  742SOL    HW2 3126   2.390   5.638   1.594
  743SOL     OW 3127   0.517   6.405   3.269
  743SOL    HW1 3128   0.426   6.422   3.232
  743SOL    HW2 3129   0.514   6.406   3.369
  744SOL     OW 3130   6.715   0.698   0.527
  744SOL    HW1 3131   6.646   0.757   0.570
  744SOL    HW2 3132   6.803   0.711   0.572
  745SOL     OW 3133   1.958   6.320   5.304
  745SOL    HW1 3134   1.931   6.359   5.216
  745SOL    HW2 3135   2.043   6.362   5.334
  746SOL     OW 3136   5.693   4.057   5.171
  746SOL    HW1 3137   5.730   4.028   5.083
  746SOL    HW2 3138   5.751   4.021   5.244
  747SOL     OW 3139   5.156   5.392   3.803
  747SOL    HW1 3140   5.205   5.386   3.890
  747SOL    HW2 3141   5.067   5.435   3.819
  748SOL     OW 3142   5.275   4.920   2.492
  748SOL    HW1 3143   5.300   5.015   2.471
  748SOL    HW2 3144   5.217   4.884   2.419
  749SOL     OW 3145   5.233   3.378   3.359
  749SOL    HW1 3146   5.294   3.303   3.335
  749SOL    HW2 3147   5.277   3.465   3.336
  750SOL     OW 3148   3.490   0.963   1.452
  750SOL    HW1 3149   3.563   1.022   1.419
  750SOL    HW2 3150   3.509   0.869   1.426
  751SOL     OW 3151   5.098   2.164   0.867
  751SOL    HW1 3152   5.111   2.219   0.785
  751SOL    HW2 3153   5.175   2.179   0.930
  752SOL     OW 3154   3.772   2.401   5.933
  752SOL    HW1 3155   3.686   2.452   5.927
  752SOL    HW2 3156   3.753   2.309   5.969
  753SOL     OW 3157   2.839   3.421   5.289
  753SOL    HW1 3158   2.844   3.493   5.219
  753SOL    HW2 3159   2.748   3.379   5.287
  754SOL     OW 3160   5.152   0.982   7.007
  754SOL    HW1 3161   5.209   1.010   0.061
  754SOL    HW2 3162   5.210   0.944   6.936
  755SOL     OW 3163   3.099   4.460   5.310
  755SOL    HW1 3164   3.163   4.537   5.305
  755SOL    HW2 3165   3.013   4.485   5.264
  756SOL     OW 3166   3.359   5.103   6.870
  756SOL    HW1 3167   3.375   5.103   6.969
  756SOL    HW2 3168   3.391   5.189   6.831
  757SOL     OW 3169   2.035   0.067   2.661
  757SOL    HW1 3170   2.087   0.097   2.581
  757SOL    HW2 3171   1.944   0.107   2.658
  758SOL     OW 3172   3.600   1.256   3.638
  758SOL    HW1 3173   3.578   1.189   3.709
  758SOL    HW2 3174   3.634   1.340   3.680
  759SOL     OW 3175   0.306   2.046   3.185
  759SOL    HW1 3176   0.405   2.058   3.186
  759SOL    HW2 3177   0.273   2.029   3.278
  760SOL     OW 3178   6.312   6.439   3.681
  760SOL    HW1 3179   6.370   6.446   3.600
  760SOL    HW2 3180   6.274   6.529   3.702
  761SOL     OW 3181   5.559   4.600   5.436
  761SOL    HW1 3182   5.518   4.610   5.346
  761SOL    HW2 3183   5.658   4.588   5.427
  762SOL     OW 3184   2.906   6.345   5.580
  762SOL    HW1 3185   2.834   6.385   5.524
  762SOL    HW2 3186   2.869   6.321   5.670
  763SOL     OW 3187   5.348   0.224   6.338
  763SOL    HW1 3188   5.292   0.141   6.345
  763SOL    HW2 3189   5.302   0.290   6.278
  764SOL     OW 3190   5.896   1.257   5.319
  764SOL    HW1 3191   5.942   1.257   5.230
  764SOL    HW2 3192   5.902   1.166   5.359
  765SOL     OW 3193   1.237   6.774   0.534
  765SOL    HW1 3194   1.164   6.706   0.523
  765SOL    HW2 3195   1.324   6.733   0.506
  766SOL     OW 3196   2.670   2.226   5.383
  766SOL    HW1 3197   2.740   2.200   5.317
  766SOL    HW2 3198   2.645   2.146   5.439
  767SOL     OW 3199   6.597   6.656   3.693
  767SOL    HW1 3200   6.598   6.744   3.645
  767SOL    HW2 3201   6.687   6.612   3.684
  768SOL     OW 3202   2.218   6.773   2.982
  768SOL    HW1 3203   2.213   6.851   3.044
  768SOL    HW2 3204   2.200   6.803   2.889
  769SOL     OW 3205   4.039   1.329   5.070
  769SOL    HW1 3206   3.958   1.380   5.098
  769SOL    HW2 3207   4.114   1.392   5.052
  770SOL     OW 3208   1.702   4.670   4.576
  770SOL    HW1 3209   1.776   4.704   4.520
  770SOL    HW2 3210   1.668   4.743   4.636
  771SOL     OW 3211   0.664   5.890   3.324
  771SOL    HW1 3212   0.618   5.978   3.311
  771SOL    HW2 3213   0.737   5.900   3.391
  772SOL     OW 3214   5.701   4.900   6.602
  772SOL    HW1 3215   5.680   4.804   6.625
  772SOL    HW2 3216   5.646   4.927   6.523
  773SOL     OW 3217   1.427   3.746   2.897
  773SOL    HW1 3218   1.335   3.708   2.887
  773SOL    HW2 3219   1.490   3.697   2.835
  774SOL     OW 3220   2.106   1.820   3.331
  774SOL    HW1 3221   2.121   1.893   3.397
  774SOL    HW2 3222   2.189   1.807   3.277
  775SOL     OW 3223   1.914   2.983   4.192
  775SOL    HW1 3224   1.996   3.040   4.187
  775SOL    HW2 3225   1.838   3.038   4.227
  776SOL     OW 3226   6.996   6.365   6.189
  776SOL    HW1 3227   0.040   6.292   6.193
  776SOL    HW2 3228   6.920   6.345   6.251
  777SOL     OW 3229   1.512   3.557   0.521
  777SOL    HW1 3230   1.580   3.598   0.461
  777SOL    HW2 3231   1.431   3.616   0.525
  778SOL     OW 3232   2.801   6.932   1.783
  778SOL    HW1 3233   2.786   7.009   1.721
  778SOL    HW2 3234   2.795   6.964   1.877
  779SOL     OW 3235   0.156   2.729   1.690
  779SOL    HW1 3236   0.226   2.750   1.622
  779SOL    HW2 3237   0.065   2.747   1.652
  780SOL     OW 3238   1.065   2.521   4.243
  780SOL    HW1 3239   1.004   2.449   4.212
  780SOL    HW2 3240   1.018   2.580   4.309
  781SOL     OW 3241   6.718   4.706   6.835
  781SOL    HW1 3242   6.669   4.794   6.836
  781SOL    HW2 3243   6.811   4.721   6.802
  782SOL     OW 3244   2.223   4.353   5.453
  782SOL    HW1 3245   2.161   4.343   5.375
  782SOL    HW2 3246   2.307   4.300   5.436
  783SOL     OW 3247   5.708   5.618   6.653
  783SOL    HW1 3248   5.697   5.717   6.648
  783SOL    HW2 3249   5.628   5.578   6.698
  784SOL     OW 3250   2.518   5.758   2.310
  784SOL    HW1 3251   2.514   5.673   2.258
  784SOL    HW2 3252   2.553   5.739   2.402
  785SOL     OW 3253   0.374   0.287   3.571
  785SOL    HW1 3254   0.362   0.349   3.648
  785SOL    HW2 3255   0.411   0.337   3.493
  786SOL     OW 3256   6.152   0.441   3.331
  786SOL    HW1 3257   6.079   0.441   3.263
  786SOL    HW2 3258   6.207   0.358   3.322
  787SOL     OW 3259   2.388   0.658   0.195
  787SOL    HW1 3260   2.360   0.597   0.269
  787SOL    HW2 3261   2.481   0.634   0.166
  788SOL     OW 3262   3.659   2.897   1.655
  788SOL    HW1 3263   3.736   2.876   1.716
  788SOL    HW2 3264   3.655   2.996   1.640
  789SOL     OW 3265   4.322   5.775   1.749
  789SOL    HW1 3266   4.386   5.851   1.738
  789SOL    HW2 3267   4.242   5.806   1.800
  790SOL     OW 3268   1.261   2.173   1.626
  790SOL    HW1 3269   1.203   2.221   1.561
  790SOL    HW2 3270   1.323   2.112   1.576
  791SOL     OW 3271   2.745   6.028   5.660
  791SOL    HW1 3272   2.744   6.028   5.560
  791SOL    HW2 3273   2.700   6.111   5.693
  792SOL     OW 3274   0.405   1.667   0.963
  792SOL    HW1 3275   0.436   1.754   1.002
  792SOL    HW2 3276   0.484   1.610   0.942
  793SOL     OW 3277   5.133   5.904   4.555
  793SOL    HW1 3278   5.077   5.986   4.565
  793SOL    HW2 3279   5.082   5.825   4.587
  794SOL     OW 3280   3.450   3.379   4.801
  794SOL    HW1 3281   3.542   3.340   4.788
  794SOL    HW2 3282   3.425   3.433   4.720
  795SOL     OW 3283   3.739   0.626   5.608
  795SOL    HW1 3284   3.679   0.704   5.591
  795SOL    HW2 3285   3.764   0.584   5.521
  796SOL     OW 3286   1.747   2.653   6.758
  796SOL    HW1 3287   1.677   2.680   6.825
  796SOL    HW2 3288   1.727   2.697   6.670
  797SOL     OW 3289   4.137   0.122   0.800
  797SOL    HW1 3290   4.105   0.139   0.893
  797SOL    HW2 3291   4.065   0.078   0.747
  798SOL     OW 3292   2.959   6.336   1.547
  798SOL    HW1 3293   3.022   6.268   1.507
  798SOL    HW2 3294   2.907   6.380   1.473
  799SOL     OW 3295   0.206   2.202   6.312
  799SOL    HW1 3296   0.271   2.276   6.326
  799SOL    HW2 3297   0.169   2.172   6.400
  800SOL     OW 3298   6.372   1.255   2.013
  800SOL    HW1 3299   6.349   1.175   1.957
  800SOL    HW2 3300   6.413   1.326   1.956
  801SOL     OW 3301   2.304   5.371   5.651
  801SOL    HW1 3302   2.313   5.309   5.573
  801SOL    HW2 3303   2.224   5.429   5.639
  802SOL     OW 3304   4.799   2.466   6.296
  802SOL    HW1 3305   4.713   2.516   6.282
  802SOL    HW2 3306   4.869   2.503   6.235
  803SOL     OW 3307   2.649   0.029   5.914
  803SOL    HW1 3308   2.568   7.020   5.866
  803SOL    HW2 3309   2.727   6.993   5.893
  804SOL     OW 3310   6.155   6.782   1.246
  804SOL    HW1 3311   6.064   6.790   1.204
  804SOL    HW2 3312   6.144   6.755   1.342
  805SOL     OW 3313   2.288   0.513   3.796
  805SOL    HW1 3314   2.352   0.496   3.872
  805SOL    HW2 3315   2.310   0.602   3.754
  806SOL     OW 3316   0.206   0.196   5.769
  806SOL    HW1 3317   0.171   0.114   5.814
  806SOL    HW2 3318   0.132   0.264   5.760
  807SOL     OW 3319   0.640   6.766   4.331
  807SOL    HW1 3320   0.609   6.759   4.236
  807SOL    HW2 3321   0.700   6.689   4.353
  808SOL     OW 3322   5.974   2.743   0.460
  808SOL    HW1 3323   5.955   2.805   0.384
  808SOL    HW2 3324   5.910   2.666   0.456
  809SOL     OW 3325   0.144   5.702   6.821
  809SOL    HW1 3326   0.178   5.632   6.885
  809SOL    HW2 3327   0.051   5.678   6.792
  810SOL     OW 3328   2.596   3.392   0.774
  810SOL    HW1 3329   2.585   3.473   0.831
  810SOL    HW2 3330   2.513   3.337   0.778
  811SOL     OW 3331   5.582   4.971   4.567
  811SOL    HW1 3332   5.679   4.983   4.590
  811SOL    HW2 3333   5.573   4.951   4.470
  812SOL     OW 3334   0.542   2.060   2.324
  812SOL    HW1 3335   0.499   1.987   2.271
  812SOL    HW2 3336   0.551   2.142   2.267
  813SOL     OW 3337   2.633   0.743   4.153
  813SOL    HW1 3338   2.633   0.651   4.193
  813SOL    HW2 3339   2.539   0.772   4.137
  814SOL     OW 3340   6.831   5.727   2.375
  814SOL    HW1 3341   6.841   5.682   2.463
  814SOL    HW2 3342   6.743   5.701   2.334
  815SOL     OW 3343   4.828   2.726   3.468
  815SOL    HW1 3344   4.775   2.777   3.536
  815SOL    HW2 3345   4.884   2.790   3.415
  816SOL     OW 3346   5.280   3.973   0.470
  816SOL    HW1 3347   5.285   4.020   0.558
  816SOL    HW2 3348   5.329   4.026   0.401
  817SOL     OW 3349   1.392   5.479   0.883
  817SOL    HW1 3350   1.335   5.536   0.824
  817SOL    HW2 3351   1.383   5.383   0.856
  818SOL     OW 3352   5.409   2.714   3.420
  818SOL    HW1 3353   5.488   2.667   3.380
  818SOL    HW2 3354   5.436   2.806   3.448
  819SOL     OW 3355   5.837   2.743   1.190
  819SOL    HW1 3356   5.861   2.786   1.276
  819SOL    HW2 3357   5.797   2.653   1.207
  820SOL     OW 3358   2.718   2.052   4.664
  820SOL    HW1 3359   2.766   2.021   4.582
  820SOL    HW2 3360   2.768   2.130   4.704
  821SOL     OW 3361   5.954   4.914   4.346
  821SOL    HW1 3362   6.039   4.966   4.339
  821SOL    HW2 3363   5.908   4.936   4.433
  822SOL     OW 3364   0.453   4.428   3.193
  822SOL    HW1 3365   0.422   4.356   3.256
  822SOL    HW2 3366   0.374   4.467   3.147
  823SOL     OW 3367   0.468   4.070   5.801
  823SOL    HW1 3368   0.501   3.980   5.774
  823SOL    HW2 3369   0.538   4.139   5.777
  824SOL     OW 3370   5.386   1.452   4.999
  824SOL    HW1 3371   5.462   1.452   5.063
  824SOL    HW2 3372   5.304   1.416   5.044
  825SOL     OW 3373   6.267   6.160   0.926
  825SOL    HW1 3374   6.221   6.233   0.875
  825SOL    HW2 3375   6.366   6.167   0.911
  826SOL     OW 3376   3.714   2.123   6.017
  826SOL    HW1 3377   3.693   2.095   6.111
  826SOL    HW2 3378   3.732   2.043   5.961
  827SOL     OW 3379   3.062   3.991   5.093
  827SOL    HW1 3380   3.056   3.987   4.994
  827SOL    HW2 3381   3.084   3.900   5.129
  828SOL     OW 3382   6.245   5.441   4.649
  828SOL    HW1 3383   6.300   5.458   4.568
  828SOL    HW2 3384   6.213   5.346   4.649
  829SOL     OW 3385   3.734   2.924   2.228
  829SOL    HW1 3386   3.643   2.931   2.187
  829SOL    HW2 3387   3.802   2.960   2.164
  830SOL     OW 3388   5.979   4.911   6.481
  830SOL    HW1 3389   5.901   4.867   6.525
  830SOL    HW2 3390   6.054   4.920   6.548
  831SOL     OW 3391   5.429   6.597   1.769
  831SOL    HW1 3392   5.391   6.690   1.769
  831SOL    HW2 3393   5.489   6.586   1.689
  832SOL     OW 3394   4.167   1.547   4.296
  832SOL    HW1 3395   4.074   1.572   4.271
  832SOL    HW2 3396   4.214   1.510   4.216
  833SOL     OW 3397   1.035   3.768   6.636
  833SOL    HW1 3398   1.037   3.696   6.567
  833SOL    HW2 3399   1.125   3.812   6.641
  834SOL     OW 3400   4.684   3.734   6.743
  834SOL    HW1 3401   4.747   3.737   6.665
  834SOL    HW2 3402   4.591   3.718   6.709
  835SOL     OW 3403   2.168   1.006   4.952
  835SOL    HW1 3404   2.111   0.943   5.004
  835SOL    HW2 3405   2.161   1.097   4.992
  836SOL     OW 3406   3.216   1.583   5.789
  836SOL    HW1 3407   3.302   1.635   5.792
  836SOL    HW2 3408   3.156   1.622   5.719
  837SOL     OW 3409   1.584   0.280   1.424
  837SOL    HW1 3410   1.558   0.190   1.387
  837SOL    HW2 3411   1.683   0.291   1.419
  838SOL     OW 3412   1.839   5.980   4.217
  838SOL    HW1 3413   1.925   6.016   4.182
  838SOL    HW2 3414   1.787   5.939   4.142
  839SOL     OW 3415   2.516   1.264   1.699
  839SOL    HW1 3416   2.611   1.233   1.699
  839SOL    HW2 3417   2.489   1.290   1.607
  840SOL     OW 3418   6.014   5.698   0.121
  840SOL    HW1 3419   6.099   5.747   0.138
  840SOL    HW2 3420   5.965   5.683   0.207
  841SOL     OW 3421   4.284   5.512   5.853
  841SOL    HW1 3422   4.353   5.562   5.800
  841SOL    HW2 3423   4.290   5.415   5.832
  842SOL     OW 3424   3.273   6.815   6.990
  842SOL    HW1 3425   3.209   6.866   6.932
  842SOL    HW2 3426   3.316   6.879   0.030
  843SOL     OW 3427   2.255   2.126   1.905
  843SOL    HW1 3428   2.185   2.059   1.931
  843SOL    HW2 3429   2.213   2.216   1.898
  844SOL     OW 3430   0.386   6.371   1.223
  844SOL    HW1 3431   0.438   6.456   1.235
  844SOL    HW2 3432   0.325   6.358   1.301
  845SOL     OW 3433   4.110   2.224   3.293
  845SOL    HW1 3434   4.025   2.256   3.252
  845SOL    HW2 3435   4.187   2.246   3.233
  846SOL     OW 3436   2.845   1.527   5.818
  846SOL    HW1 3437   2.797   1.457   5.870
  846SOL    HW2 3438   2.779   1.585   5.771
  847SOL     OW 3439   2.235   3.081   1.666
  847SOL    HW1 3440   2.331   3.081   1.692
  847SOL    HW2 3441   2.205   3.175   1.649
  848SOL     OW 3442   6.250   6.714   5.836
  848SOL    HW1 3443   6.168   6.683   5.884
  848SOL    HW2 3444   6.328   6.657   5.861
  849SOL     OW 3445   5.953   3.332   0.004
  849SOL    HW1 3446   6.052   3.342   0.011
  849SOL    HW2 3447   5.925   3.247   0.049
  850SOL     OW 3448   0.000   0.490   4.648
  850SOL    HW1 3449   6.930   0.517   4.668
  850SOL    HW2 3450   0.040   0.552   4.581
  851SOL     OW 3451   6.662   3.348   6.773
  851SOL    HW1 3452   6.705   3.268   6.730
  851SOL    HW2 3453   6.565   3.350   6.749
  852SOL     OW 3454   0.102   4.641   0.925
  852SOL    HW1 3455   0.002   4.631   0.916
  852SOL    HW2 3456   0.140   4.557   0.963
  853SOL     OW 3457   2.493   4.157   6.707
  853SOL    HW1 3458   2.464   4.087   6.771
  853SOL    HW2 3459   2.547   4.116   6.634
  854SOL     OW 3460   6.005   6.619   6.741
  854SOL    HW1 3461   6.004   6.640   6.839
  854SOL    HW2 3462   5.986   6.702   6.689
  855SOL     OW 3463   6.847   0.639   0.093
  855SOL    HW1 3464   6.928   0.580   0.099
  855SOL    HW2 3465   6.804   0.645   0.183
  856SOL     OW 3466   1.632   6.732   6.085
  856SOL    HW1 3467   1.535   6.737   6.062
  856SOL    HW2 3468   1.643   6.694   6.177
  857SOL     OW 3469   0.009   4.666   2.725
  857SOL    HW1 3470   0.018   4.626   2.634
  857SOL    HW2 3471   0.026   4.765   2.720
  858SOL     OW 3472   2.798   3.841   1.102
  858SOL    HW1 3473   2.749   3.850   1.015
  858SOL    HW2 3474   2.874   3.776   1.091
  859SOL     OW 3475   4.637   6.247   5.504
  859SOL    HW1 3476   4.605   6.281   5.416
  859SOL    HW2 3477   4.715   6.303   5.535
  860SOL     OW 3478   5.574   2.951   6.507
  860SOL    HW1 3479   5.659   2.905   6.531
  860SOL    HW2 3480   5.503   2.926   6.574
  861SOL     OW 3481   1.661   5.639   2.982
  861SOL    HW1 3482   1.580   5.669   2.931
  861SOL    HW2 3483   1.743   5.658   2.929
  862SOL     OW 3484   1.872   5.031   3.706
  862SOL    HW1 3485   1.869   5.055   3.803
  862SOL    HW2 3486   1.960   4.988   3.686
  863SOL     OW 3487   6.138   0.884   5.921
  863SOL    HW1 3488   6.160   0.891   5.824
  863SOL    HW2 3489   6.172   0.966   5.969
  864SOL     OW 3490   4.806   0.408   5.321
  864SOL    HW1 3491   4.883   0.471   5.323
  864SOL    HW2 3492   4.739   0.440   5.254
  865SOL     OW 3493   1.998   0.090   5.481
  865SOL    HW1 3494   2.018   0.107   5.577
  865SOL    HW2 3495   2.001   0.176   5.430
  866SOL     OW 3496   3.488   6.653   0.954
  866SOL    HW1 3497   3.564   6.711   0.925
  866SOL    HW2 3498   3.436   6.623   0.873
  867SOL     OW 3499   5.661   2.819   0.647
  867SOL    HW1 3500   5.692   2.898   0.593
  867SOL    HW2 3501   5.655   2.845   0.743
  868SOL     OW 3502   0.213   2.291   2.358
  868SOL    HW1 3503   0.185   2.223   2.426
  868SOL    HW2 3504   0.282   2.351   2.397
  869SOL     OW 3505   6.849   3.463   4.069
  869SOL    HW1 3506   6.876   3.434   4.161
  869SOL    HW2 3507   6.918   3.433   4.003
  870SOL     OW 3508   3.937   4.709   1.245
  870SOL    HW1 3509   3.992   4.654   1.308
  870SOL    HW2 3510   3.871   4.763   1.297
  871SOL     OW 3511   5.038   2.097   4.040
  871SOL    HW1 3512   5.091   2.097   3.956
  871SOL    HW2 3513   5.022   2.192   4.069
  872SOL     OW 3514   0.033   1.828   4.391
  872SOL    HW1 3515   0.044   1.854   4.295
  872SOL    HW2 3516   0.008   1.732   4.397
  873SOL     OW 3517   4.348   6.605   5.495
  873SOL    HW1 3518   4.351   6.509   5.521
  873SOL    HW2 3519   4.426   6.625   5.435
  874SOL     OW 3520   6.134   4.135   6.554
  874SOL    HW1 3521   6.100   4.110   6.645
  874SOL    HW2 3522   6.145   4.052   6.498
  875SOL     OW 3523   5.219   5.962   0.786
  875SOL    HW1 3524   5.163   5.958   0.869
  875SOL    HW2 3525   5.311   5.995   0.809
  876SOL     OW 3526   0.636   5.186   1.801
  876SOL    HW1 3527   0.593   5.254   1.741
  876SOL    HW2 3528   0.632   5.219   1.896
  877SOL     OW 3529   2.904   4.069   6.374
  877SOL    HW1 3530   2.915   4.081   6.276
  877SOL    HW2 3531   2.814   4.031   6.394
  878SOL     OW 3532   4.613   6.803   3.983
  878SOL    HW1 3533   4.564   6.844   4.059
  878SOL    HW2 3534   4.576   6.712   3.963
  879SOL     OW 3535   3.832   0.715   1.340
  879SOL    HW1 3536   3.901   0.657   1.297
  879SOL    HW2 3537   3.854   0.811   1.323
  880SOL     OW 3538   4.136   3.555   3.834
  880SOL    HW1 3539   4.037   3.557   3.848
  880SOL    HW2 3540   4.158   3.598   3.747
  881SOL     OW 3541   4.879   3.175   4.820
  881SOL    HW1 3542   4.835   3.257   4.784
  881SOL    HW2 3543   4.971   3.166   4.781
  882SOL     OW 3544   0.892   2.899   4.309
  882SOL    HW1 3545   0.958   2.933   4.242
  882SOL    HW2 3546   0.804   2.945   4.294
  883SOL     OW 3547   3.690   0.777   1.812
  883SOL    HW1 3548   3.592   0.789   1.797
  883SOL    HW2 3549   3.708   0.766   1.910
  884SOL     OW 3550   5.266   3.425   6.190
  884SOL    HW1 3551   5.250   3.502   6.128
  884SOL    HW2 3552   5.232   3.448   6.281
  885SOL     OW 3553   3.753   1.332   4.766
  885SOL    HW1 3554   3.783   1.243   4.801
  885SOL    HW2 3555   3.831   1.395   4.763
  886SOL     OW 3556   3.502   0.101   0.563
  886SOL    HW1 3557   3.453   0.144   0.487
  886SOL    HW2 3558   3.560   0.168   0.609
  887SOL     OW 3559   3.864   0.044   4.172
  887SOL    HW1 3560   3.820   0.039   4.261
  887SOL    HW2 3561   3.826   0.121   4.121
  888SOL     OW 3562   0.045   6.364   3.032
  888SOL    HW1 3563   0.031   6.292   3.100
  888SOL    HW2 3564   6.982   6.386   2.989
  889SOL     OW 3565   0.198   3.868   0.596
  889SOL    HW1 3566   0.189   3.769   0.580
  889SOL    HW2 3567   0.138   3.917   0.534
  890SOL     OW 3568   1.562   5.604   3.241
  890SOL    HW1 3569   1.585   5.514   3.278
  890SOL    HW2 3570   1.604   5.615   3.151
  891SOL     OW 3571   5.338   5.543   0.378
  891SOL    HW1 3572   5.320   5.566   0.474
  891SOL    HW2 3573   5.254   5.555   0.325
  892SOL     OW 3574   2.262   3.781   5.288
  892SOL    HW1 3575   2.292   3.850   5.223
  892SOL    HW2 3576   2.341   3.727   5.317
  893SOL     OW 3577   1.873   6.752   2.706
  893SOL    HW1 3578   1.917   6.720   2.622
  893SOL    HW2 3579   1.782   6.787   2.685
  894SOL     OW 3580   1.095   3.126   1.789
  894SOL    HW1 3581   1.066   3.111   1.884
  894SOL    HW2 3582   1.027   3.183   1.743
  895SOL     OW 3583   0.366   4.294   3.757
  895SOL    HW1 3584   0.369   4.260   3.851
  895SOL    HW2 3585   0.272   4.297   3.725
  896SOL     OW 3586   5.455   4.769   0.780
  896SOL    HW1 3587   5.415   4.687   0.822
  896SOL    HW2 3588   5.554   4.759   0.777
  897SOL     OW 3589   4.199   1.657   0.100
  897SOL    HW1 3590   4.297   1.668   0.117
  897SOL    HW2 3591   4.178   1.560   0.090
  898SOL     OW 3592   3.141   6.089   2.748
  898SOL    HW1 3593   3.098   6.176   2.723
  898SOL    HW2 3594   3.085   6.044   2.817
  899SOL     OW 3595   0.253   6.299   6.519
  899SOL    HW1 3596   0.299   6.281   6.605
  899SOL    HW2 3597   0.302   6.255   6.444
  900SOL     OW 3598   5.825   6.871   0.500
  900SOL    HW1 3599   5.819   6.969   0.481
  900SOL    HW2 3600   5.901   6.854   0.562
  901SOL     OW 3601   2.096   6.997   3.512
  901SOL    HW1 3602   2.086   0.069   3.484
  901SOL    HW2 3603   2.007   6.952   3.509
  902SOL     OW 3604   0.617   2.474   0.460
  902SOL    HW1 3605   0.637   2.532   0.380
  902SOL    HW2 3606   0.538   2.511   0.508
  903SOL     OW 3607   6.856   2.657   6.894
  903SOL    HW1 3608   6.876   2.750   6.924
  903SOL    HW2 3609   6.757   2.646   6.883
  904SOL     OW 3610   2.660   2.264   2.782
  904SOL    HW1 3611   2.637   2.354   2.747
  904SOL    HW2 3612   2.725   2.219   2.719
  905SOL     OW 3613   5.452   1.863   6.637
  905SOL    HW1 3614   5.384   1.828   6.701
  905SOL    HW2 3615   5.492   1.947   6.674
  906SOL     OW 3616   0.119   2.114   6.062
  906SOL    HW1 3617   0.192   2.047   6.075
  906SOL    HW2 3618   0.101   2.161   6.148
  907SOL     OW 3619   5.358   3.586   0.718
  907SOL    HW1 3620   5.371   3.588   0.619
  907SOL    HW2 3621   5.369   3.492   0.750
  908SOL     OW 3622   2.793   4.707   2.514
  908SOL    HW1 3623   2.849   4.722   2.433
  908SOL    HW2 3624   2.726   4.635   2.495
  909SOL     OW 3625   4.636   5.513   0.833
  909SOL    HW1 3626   4.558   5.454   0.858
  909SOL    HW2 3627   4.707   5.458   0.789
  910SOL     OW 3628   2.636   2.341   1.385
  910SOL    HW1 3629   2.681   2.430   1.393
  910SOL    HW2 3630   2.619   2.304   1.476
  911SOL     OW 3631   0.846   6.023   6.503
  911SOL    HW1 3632   0.914   5.978   6.445
  911SOL    HW2 3633   0.797   5.954   6.556
  912SOL     OW 3634   6.227   1.950   2.971
  912SOL    HW1 3635   6.132   1.951   2.942
  912SOL    HW2 3636   6.269   2.039   2.951
  913SOL     OW 3637   4.436   6.803   3.260
  913SOL    HW1 3638   4.464   6.741   3.333
  913SOL    HW2 3639   4.430   6.896   3.296
  914SOL     OW 3640   2.288   0.095   6.850
  914SOL    HW1 3641   2.261   0.091   6.754
  914SOL    HW2 3642   2.208   0.083   6.908
  915SOL     OW 3643   6.132   4.597   6.516
  915SOL    HW1 3644   6.184   4.536   6.457
  915SOL    HW2 3645   6.078   4.543   6.581
  916SOL     OW 3646   1.548   2.213   2.034
  916SOL    HW1 3647   1.546   2.247   1.940
  916SOL    HW2 3648   1.638   2.175   2.054
  917SOL     OW 3649   0.281   6.144   0.340
  917SOL    HW1 3650   0.332   6.207   0.399
  917SOL    HW2 3651   0.333   6.059   0.331
  918SOL     OW 3652   2.961   0.292   0.478
  918SOL    HW1 3653   2.940   0.195   0.492
  918SOL    HW2 3654   3.028   0.301   0.404
  919SOL     OW 3655   5.642   1.464   3.476
  919SOL    HW1 3656   5.631   1.551   3.524
  919SOL    HW2 3657   5.568   1.452   3.411
  920SOL     OW 3658   2.515   4.068   1.728
  920SOL    HW1 3659   2.510   4.078   1.628
  920SOL    HW2 3660   2.473   4.148   1.771
  921SOL     OW 3661   4.977   6.051   4.161
  921SOL    HW1 3662   4.997   6.138   4.206
  921SOL    HW2 3663   5.049   6.030   4.096
  922SOL     OW 3664   4.025   3.828   4.428
  922SOL    HW1 3665   4.026   3.738   4.384
  922SOL    HW2 3666   4.114   3.846   4.470
  923SOL     OW 3667   2.696   3.146   6.861
  923SOL    HW1 3668   2.677   3.192   6.948
  923SOL    HW2 3669   2.668   3.050   6.868
  924SOL     OW 3670   6.280   3.891   2.045
  924SOL    HW1 3671   6.204   3.909   1.983
  924SOL    HW2 3672   6.259   3.928   2.135
  925SOL     OW 3673   6.808   2.948   0.178
  925SOL    HW1 3674   6.865   2.987   0.251
  925SOL    HW2 3675   6.723   2.913   0.217
  926SOL     OW 3676   6.786   1.031   0.918
  926SOL    HW1 3677   6.723   1.090   0.969
  926SOL    HW2 3678   6.793   0.942   0.964
  927SOL     OW 3679   5.455   3.851   3.753
  927SOL    HW1 3680   5.521   3.879   3.683
  927SOL    HW2 3681   5.504   3.829   3.838
  928SOL     OW 3682   2.717   6.129   0.530
  928SOL    HW1 3683   2.779   6.063   0.488
  928SOL    HW2 3684   2.625   6.090   0.535
  929SOL     OW 3685   6.775   0.395   6.839
  929SOL    HW1 3686   6.685   0.352   6.829
  929SOL    HW2 3687   6.834   0.337   6.895
  930SOL     OW 3688   4.313   5.559   6.637
  930SOL    HW1 3689   4.228   5.592   6.678
  930SOL    HW2 3690   4.293   5.492   6.566
  931SOL     OW 3691   6.507   2.126   4.581
  931SOL    HW1 3692   6.446   2.047   4.578
  931SOL    HW2 3693   6.457   2.206   4.614
  932SOL     OW 3694   2.372   1.784   3.233
  932SOL    HW1 3695   2.430   1.860   3.264
  932SOL    HW2 3696   2.391   1.703   3.290
  933SOL     OW 3697   1.597   5.060   2.934
  933SOL    HW1 3698   1.604   5.035   2.837
  933SOL    HW2 3699   1.648   5.146   2.950
  934SOL     OW 3700   2.285   6.055   5.602
  934SOL    HW1 3701   2.355   5.988   5.625
  934SOL    HW2 3702   2.324   6.124   5.541
  935SOL     OW 3703   4.924   4.037   3.933
  935SOL    HW1 3704   4.855   4.109   3.941
  935SOL    HW2 3705   4.879   3.949   3.920
  936SOL     OW 3706   1.136   0.199   6.532
  936SOL    HW1 3707   1.228   0.226   6.562
  936SOL    HW2 3708   1.125   0.101   6.543
  937SOL     OW 3709   4.960   1.875   5.398
  937SOL    HW1 3710   5.045   1.823   5.409
  937SOL    HW2 3711   4.887   1.831   5.450
  938SOL     OW 3712   6.323   5.467   4.068
  938SOL    HW1 3713   6.252   5.485   4.135
  938SOL    HW2 3714   6.328   5.369   4.049
  939SOL     OW 3715   0.356   6.687   4.236
  939SOL    HW1 3716   0.280   6.741   4.199
  939SOL    HW2 3717   0.425   6.747   4.275
  940SOL     OW 3718   0.666   4.287   0.442
  940SOL    HW1 3719   0.763   4.261   0.438
  940SOL    HW2 3720   0.647   4.357   0.373
  941SOL     OW 3721   4.981   0.593   6.806
  941SOL    HW1 3722   4.994   0.501   6.769
  941SOL    HW2 3723   4.883   0.611   6.816
  942SOL     OW 3724   6.168   6.058   1.433
  942SOL    HW1 3725   6.123   5.971   1.453
  942SOL    HW2 3726   6.246   6.043   1.372
  943SOL     OW 3727   2.156   4.495   2.462
  943SOL    HW1 3728   2.123   4.500   2.556
  943SOL    HW2 3729   2.079   4.482   2.400
  944SOL     OW 3730   0.483   5.029   4.296
  944SOL    HW1 3731   0.389   5.064   4.294
  944SOL    HW2 3732   0.511   5.004   4.203
  945SOL     OW 3733   0.752   4.999   5.494
  945SOL    HW1 3734   0.686   4.936   5.536
  945SOL    HW2 3735   0.827   4.945   5.453
  946SOL     OW 3736   4.795   4.739   4.323
  946SOL    HW1 3737   4.892   4.738   4.296
  946SOL    HW2 3738   4.774   4.826   4.366
  947SOL     OW 3739   3.699   3.188   3.673
  947SOL    HW1 3740   3.649   3.101   3.681
  947SOL    HW2 3741   3.797   3.171   3.681
  948SOL     OW 3742   5.114   0.868   2.583
  948SOL    HW1 3743   5.017   0.893   2.584
  948SOL    HW2 3744   5.151   0.879   2.676
  949SOL     OW 3745   3.197   6.572   0.032
  949SOL    HW1 3746   3.241   6.656   0.001
  949SOL    HW2 3747   3.132   6.541   6.985
  950SOL     OW 3748   5.538   5.979   2.357
  950SOL    HW1 3749   5.523   6.039   2.436
  950SOL    HW2 3750   5.630   5.940   2.363
  951SOL     OW 3751   1.044   0.075   3.692
  951SOL    HW1 3752   1.039   0.123   3.779
  951SOL    HW2 3753   1.131   0.024   3.687
  952SOL     OW 3754   4.072   1.990   2.650
  952SOL    HW1 3755   4.007   1.920   2.622
  952SOL    HW2 3756   4.129   1.956   2.725
  953SOL     OW 3757   5.999   5.829   5.067
  953SOL    HW1 3758   6.009   5.758   4.996
  953SOL    HW2 3759   5.918   5.884   5.046
  954SOL     OW 3760   4.274   6.044   2.156
  954SOL    HW1 3761   4.280   5.944   2.155
  954SOL    HW2 3762   4.202   6.073   2.219
  955SOL     OW 3763   1.867   4.391   0.000
  955SOL    HW1 3764   1.950   4.357   0.044
  955SOL    HW2 3765   1.856   4.488   0.020
  956SOL     OW 3766   0.024   0.865   0.931
  956SOL    HW1 3767   0.003   0.961   0.950
  956SOL    HW2 3768   0.111   0.858   0.883
  957SOL     OW 3769   6.057   1.470   1.959
  957SOL    HW1 3770   6.141   1.502   1.916
  957SOL    HW2 3771   6.077   1.433   2.050
  958SOL     OW 3772   4.998   6.148   2.394
  958SOL    HW1 3773   5.021   6.244   2.374
  958SOL    HW2 3774   4.901   6.133   2.376
  959SOL     OW 3775   3.756   6.702   4.449
  959SOL    HW1 3776   3.715   6.792   4.460
  959SOL    HW2 3777   3.686   6.637   4.419
  960SOL     OW 3778   1.213   0.761   0.811
  960SOL    HW1 3779   1.174   0.734   0.724
  960SOL    HW2 3780   1.311   0.780   0.799
  961SOL     OW 3781   3.722   6.597   3.235
  961SOL    HW1 3782   3.742   6.647   3.320
  961SOL    HW2 3783   3.771   6.639   3.159
  962SOL     OW 3784   5.926   0.730   4.536
  962SOL    HW1 3785   5.934   0.805   4.471
  962SOL    HW2 3786   5.853   0.750   4.602
  963SOL     OW 3787   4.855   1.302   1.092
  963SOL    HW1 3788   4.787   1.357   1.042
  963SOL    HW2 3789   4.945   1.344   1.083
  964SOL     OW 3790   4.580   5.089   5.497
  964SOL    HW1 3791   4.575   5.124   5.590
  964SOL    HW2 3792   4.636   5.152   5.442
  965SOL     OW 3793   6.371   1.845   2.134
  965SOL    HW1 3794   6.410   1.910   2.069
  965SOL    HW2 3795   6.360   1.756   2.089
  966SOL     OW 3796   4.904   2.458   3.184
  966SOL    HW1 3797   4.885   2.484   3.090
  966SOL    HW2 3798   4.876   2.533   3.245
  967SOL     OW 3799   3.025   4.963   6.460
  967SOL    HW1 3800   2.986   4.913   6.538
  967SOL    HW2 3801   3.121   4.938   6.449
  968SOL     OW 3802   3.827   0.039   1.240
  968SOL    HW1 3803   3.731   0.017   1.258
  968SOL    HW2 3804   3.886   7.013   1.303
  969SOL     OW 3805   2.738   5.217   5.613
  969SOL    HW1 3806   2.668   5.276   5.654
  969SOL    HW2 3807   2.724   5.123   5.643
  970SOL     OW 3808   6.139   1.125   6.017
  970SOL    HW1 3809   6.195   1.197   5.977
  970SOL    HW2 3810   6.044   1.137   5.989
  971SOL     OW 3811   6.966   3.065   2.840
  971SOL    HW1 3812   6.967   3.165   2.850
  971SOL    HW2 3813   6.916   3.025   2.917
  972SOL     OW 3814   6.650   2.664   1.309
  972SOL    HW1 3815   6.631   2.709   1.221
  972SOL    HW2 3816   6.646   2.732   1.382
  973SOL     OW 3817   0.254   4.330   6.433
  973SOL    HW1 3818   0.158   4.311   6.413
  973SOL    HW2 3819   0.276   4.295   6.524
  974SOL     OW 3820   0.862   5.243   2.285
  974SOL    HW1 3821   0.803   5.172   2.247
  974SOL    HW2 3822   0.940   5.200   2.332
  975SOL     OW 3823   2.677   6.856   0.774
  975SOL    HW1 3824   2.751   6.890   0.832
  975SOL    HW2 3825   2.697   6.762   0.748
  976SOL     OW 3826   6.173   3.966   1.610
  976SOL    HW1 3827   6.155   3.972   1.708
  976SOL    HW2 3828   6.251   4.024   1.587
  977SOL     OW 3829   0.958   1.287   2.205
  977SOL    HW1 3830   1.053   1.293   2.177
  977SOL    HW2 3831   0.920   1.198   2.179
  978SOL     OW 3832   5.310   1.973   1.075
  978SOL    HW1 3833   5.262   1.930   1.151
  978SOL    HW2 3834   5.319   1.908   1.000
  979SOL     OW 3835   0.021   3.073   6.729
  979SOL    HW1 3836   0.112   3.088   6.690
  979SOL    HW2 3837   6.986   3.151   6.708
  980SOL     OW 3838   3.974   0.949   4.439
  980SOL    HW1 3839   3.997   0.904   4.526
  980SOL    HW2 3840   4.014   1.041   4.437
  981SOL     OW 3841   0.190   0.235   5.336
  981SOL    HW1 3842   0.091   0.225   5.329
  981SOL    HW2 3843   0.235   0.150   5.309
  982SOL     OW 3844   0.462   1.519   5.263
  982SOL    HW1 3845   0.432   1.427   5.241
  982SOL    HW2 3846   0.386   1.571   5.301
  983SOL     OW 3847   6.572   2.920   3.242
  983SOL    HW1 3848   6.475   2.926   3.218
  983SOL    HW2 3849   6.593   2.990   3.310
  984SOL     OW 3850   1.677   2.364   3.058
  984SOL    HW1 3851   1.716   2.303   2.989
  984SOL    HW2 3852   1.649   2.310   3.138
  985SOL     OW 3853   6.365   4.125   4.681
  985SOL    HW1 3854   6.446   4.087   4.726
  985SOL    HW2 3855   6.304   4.051   4.653
  986SOL     OW 3856   4.740   4.688   1.240
  986SOL    HW1 3857   4.821   4.693   1.181
  986SOL    HW2 3858   4.658   4.682   1.183
  987SOL     OW 3859   5.638   6.306   3.247
  987SOL    HW1 3860   5.616   6.376   3.314
  987SOL    HW2 3861   5.554   6.276   3.201
  988SOL     OW 3862   3.282   3.705   2.314
  988SOL    HW1 3863   3.314   3.766   2.386
  988SOL    HW2 3864   3.289   3.751   2.226
  989SOL     OW 3865   6.801   2.086   0.365
  989SOL    HW1 3866   6.882   2.118   0.415
  989SOL    HW2 3867   6.809   2.110   0.269
  990SOL     OW 3868   3.461   0.292   2.972
  990SOL    HW1 3869   3.504   0.381   2.966
  990SOL    HW2 3870   3.389   0.294   3.042
  991SOL     OW 3871   6.586   4.519   3.309
  991SOL    HW1 3872   6.498   4.550   3.345
  991SOL    HW2 3873   6.654   4.592   3.316
  992SOL     OW 3874   0.960   2.895   1.508
  992SOL    HW1 3875   1.037   2.957   1.519
  992SOL    HW2 3876   0.874   2.946   1.514
  993SOL     OW 3877   0.892   4.095   0.939
  993SOL    HW1 3878   0.840   4.024   0.987
  993SOL    HW2 3879   0.864   4.098   0.843
  994SOL     OW 3880   3.771   5.762   1.145
  994SOL    HW1 3881   3.797   5.842   1.091
  994SOL    HW2 3882   3.692   5.717   1.102
  995SOL     OW 3883   4.417   3.505   5.583
  995SOL    HW1 3884   4.451   3.433   5.523
  995SOL    HW2 3885   4.365   3.572   5.529
  996SOL     OW 3886   3.993   5.545   5.240
  996SOL    HW1 3887   4.055   5.482   5.195
  996SOL    HW2 3888   3.924   5.577   5.175
  997SOL     OW 3889   1.014   6.803   3.489
  997SOL    HW1 3890   0.994   6.817   3.586
  997SOL    HW2 3891   0.952   6.859   3.434
  998SOL     OW 3892   6.433   0.480   5.989
  998SOL    HW1 3893   6.425   0.505   6.086
  998SOL    HW2 3894   6.466   0.386   5.982
  999SOL     OW 3895   4.827   3.733   1.696
  999SOL    HW1 3896   4.876   3.680   1.626
  999SOL    HW2 3897   4.893   3.781   1.754
 1000SOL     OW 3898   4.884   1.240   1.562
 1000SOL    HW1 3899   4.902   1.160   1.618
 1000SOL    HW2 3900   4.796   1.280   1.587
 1001SOL     OW 3901   2.881   6.212   2.012
 1001SOL    HW1 3902   2.870   6.211   2.112
 1001SOL    HW2 3903   2.978   6.220   1.989
 1002SOL     OW 3904   5.885   1.912   1.239
 1002SOL    HW1 3905   5.804   1.944   1.288
 1002SOL    HW2 3906   5.954   1.984   1.238
 1003SOL     OW 3907   1.796   6.166   2.623
 1003SOL    HW1 3908   1.781   6.265   2.622
 1003SOL    HW2 3909   1.864   6.143   2.693
 1004SOL     OW 3910   6.194   1.367   2.184
 1004SOL    HW1 3911   6.269   1.328   2.131
 1004SOL    HW2 3912   6.211   1.354   2.281
 1005SOL     OW 3913   1.536   4.890   3.887
 1005SOL    HW1 3914   1.624   4.937   3.887
 1005SOL    HW2 3915   1.484   4.918   3.806
 1006SOL     OW 3916   2.237   3.547   0.414
 1006SOL    HW1 3917   2.223   3.630   0.360
 1006SOL    HW2 3918   2.220   3.466   0.357
 1007SOL     OW 3919   4.717   1.571   6.737
 1007SOL    HW1 3920   4.808   1.600   6.705
 1007SOL    HW2 3921   4.647   1.624   6.691
 1008SOL     OW 3922   0.550   3.903   5.434
 1008SOL    HW1 3923   0.637   3.940   5.402
 1008SOL    HW2 3924   0.496   3.872   5.356
 1009SOL     OW 3925   6.188   5.057   5.140
 1009SOL    HW1 3926   6.275   5.067   5.090
 1009SOL    HW2 3927   6.169   5.140   5.191
 1010SOL     OW 3928   2.531   2.313   1.671
 1010SOL    HW1 3929   2.613   2.282   1.719
 1010SOL    HW2 3930   2.496   2.395   1.715
 1011SOL     OW 3931   0.450   5.549   2.686
 1011SOL    HW1 3932   0.374   5.603   2.721
 1011SOL    HW2 3933   0.495   5.502   2.762
 1012SOL     OW 3934   6.598   6.770   2.662
 1012SOL    HW1 3935   6.629   6.726   2.578
 1012SOL    HW2 3936   6.672   6.772   2.729
 1013SOL     OW 3937   6.718   1.434   6.135
 1013SOL    HW1 3938   6.742   1.504   6.202
 1013SOL    HW2 3939   6.783   1.359   6.140
 1014SOL     OW 3940   0.760   4.349   4.430
 1014SOL    HW1 3941   0.820   4.418   4.471
 1014SOL    HW2 3942   0.748   4.369   4.333
 1015SOL     OW 3943   3.251   0.776   6.504
 1015SOL    HW1 3944   3.335   0.731   6.534
 1015SOL    HW2 3945   3.201   0.717   6.441
 1016SOL     OW 3946   4.725   4.441   1.342
 1016SOL    HW1 3947   4.815   4.403   1.362
 1016SOL    HW2 3948   4.736   4.531   1.298
 1017SOL     OW 3949   3.096   1.548   1.661
 1017SOL    HW1 3950   3.118   1.642   1.635
 1017SOL    HW2 3951   3.172   1.488   1.637
 1018SOL     OW 3952   6.764   4.462   3.664
 1018SOL    HW1 3953   6.742   4.481   3.568
 1018SOL    HW2 3954   6.773   4.363   3.676
 1019SOL     OW 3955   6.631   4.938   0.314
 1019SOL    HW1 3956   6.609   4.903   0.405
 1019SOL    HW2 3957   6.600   5.032   0.306
 1020SOL     OW 3958   6.214   0.771   1.032
 1020SOL    HW1 3959   6.116   0.787   1.026
 1020SOL    HW2 3960   6.250   0.751   0.941
 1021SOL     OW 3961   6.520   5.654   2.497
 1021SOL    HW1 3962   6.461   5.628   2.421
 1021SOL    HW2 3963   6.516   5.584   2.568
 1022SOL     OW 3964   2.777   6.100   6.101
 1022SOL    HW1 3965   2.793   6.194   6.072
 1022SOL    HW2 3966   2.815   6.037   6.034
 1023SOL     OW 3967   6.872   0.516   2.361
 1023SOL    HW1 3968   6.816   0.598   2.349
 1023SOL    HW2 3969   6.956   0.524   2.308
 1024SOL     OW 3970   0.511   1.180   4.057
 1024SOL    HW1 3971   0.502   1.216   3.964
 1024SOL    HW2 3972   0.553   1.249   4.115
 1025SOL     OW 3973   4.543   3.342   0.585
 1025SOL    HW1 3974   4.555   3.256   0.634
 1025SOL    HW2 3975   4.613   3.407   0.616
 1026SOL     OW 3976   3.179   2.296   1.726
 1026SOL    HW1 3977   3.105   2.363   1.735
 1026SOL    HW2 3978   3.144   2.205   1.745
 1027SOL     OW 3979   1.884   6.341   1.846
 1027SOL    HW1 3980   1.923   6.250   1.836
 1027SOL    HW2 3981   1.835   6.347   1.933
 1028SOL     OW 3982   1.551   6.609   3.303
 1028SOL    HW1 3983   1.601   6.690   3.270
 1028SOL    HW2 3984   1.583   6.586   3.395
 1029SOL     OW 3985   1.227   1.682   6.196
 1029SOL    HW1 3986   1.257   1.604   6.251
 1029SOL    HW2 3987   1.247   1.664   6.100
 1030SOL     OW 3988   3.344   3.186   1.599
 1030SOL    HW1 3989   3.427   3.198   1.544
 1030SOL    HW2 3990   3.353   3.106   1.657
 1031SOL     OW 3991   4.100   3.368   1.494
 1031SOL    HW1 3992   4.077   3.313   1.574
 1031SOL    HW2 3993   4.199   3.382   1.491
 1032SOL     OW 3994   2.543   0.897   5.207
 1032SOL    HW1 3995   2.466   0.835   5.218
 1032SOL    HW2 3996   2.612   0.877   5.277
 1033SOL     OW 3997   2.014   6.406   2.271
 1033SOL    HW1 3998   1.996   6.466   2.349
 1033SOL    HW2 3999   1.949   6.330   2.272
 1034SOL     OW 4000   2.312   6.269   4.298
 1034SOL    HW1 4001   2.311   6.334   4.374
 1034SOL    HW2 4002   2.240   6.294   4.233
 1035SOL     OW 4003   0.717   2.149   5.916
 1035SOL    HW1 4004   0.709   2.084   5.841
 1035SOL    HW2 4005   0.650   2.127   5.987
 1036SOL     OW 4006   5.088   0.996   1.737
 1036SOL    HW1 4007   5.185   0.972   1.731
 1036SOL    HW2 4008   5.080   1.089   1.774
 1037SOL     OW 4009   0.915   1.854   2.733
 1037SOL    HW1 4010   0.818   1.873   2.745
 1037SOL    HW2 4011   0.961   1.934   2.695
 1038SOL     OW 4012   1.575   1.392   6.726
 1038SOL    HW1 4013   1.621   1.333   6.792
 1038SOL    HW2 4014   1.594   1.359   6.633
 1039SOL     OW 4015   3.041   3.123   3.434
 1039SOL    HW1 4016   3.018   3.028   3.413
 1039SOL    HW2 4017   3.133   3.127   3.472
 1040SOL     OW 4018   5.219   1.069   3.403
 1040SOL    HW1 4019   5.189   1.102   3.313
 1040SOL    HW2 4020   5.238   1.147   3.462
 1041SOL     OW 4021   6.840   6.546   3.638
 1041SOL    HW1 4022   6.923   6.586   3.599
 1041SOL    HW2 4023   6.863   6.464   3.689
 1042SOL     OW 4024   4.814   5.093   2.949
 1042SOL    HW1 4025   4.872   5.012   2.939
 1042SOL    HW2 4026   4.863   5.163   3.001
 1043SOL     OW 4027   3.722   2.111   3.304
 1043SOL    HW1 4028   3.629   2.092   3.275
 1043SOL    HW2 4029   3.780   2.126   3.223
 1044SOL     OW 4030   5.902   5.922   1.164
 1044SOL    HW1 4031   5.921   6.019   1.147
 1044SOL    HW2 4032   5.871   5.911   1.259
 1045SOL     OW 4033   2.793   7.016   3.018
 1045SOL    HW1 4034   2.845   7.023   3.103
 1045SOL    HW2 4035   2.699   6.989   3.039
 1046SOL     OW 4036   2.613   1.289   0.858
 1046SOL    HW1 4037   2.566   1.207   0.825
 1046SOL    HW2 4038   2.705   1.265   0.888
 1047SOL     OW 4039   3.268   0.256   4.241
 1047SOL    HW1 4040   3.348   0.228   4.187
 1047SOL    HW2 4041   3.256   0.355   4.234
 1048SOL     OW 4042   3.113   5.310   2.679
 1048SOL    HW1 4043   3.206   5.317   2.642
 1048SOL    HW2 4044   3.114   5.255   2.762
 1049SOL     OW 4045   4.732   6.970   3.815
 1049SOL    HW1 4046   4.703   6.935   3.904
 1049SOL    HW2 4047   4.751   0.044   3.822
 1050SOL     OW 4048   4.189   5.309   2.906
 1050SOL    HW1 4049   4.152   5.318   2.998
 1050SOL    HW2 4050   4.255   5.382   2.888
 1051SOL     OW 4051   0.035   5.629   0.274
 1051SOL    HW1 4052   0.113   5.662   0.326
 1051SOL    HW2 4053   0.050   5.533   0.249
 1052SOL     OW 4054   4.587   1.131   5.500
 1052SOL    HW1 4055   4.553   1.037   5.491
 1052SOL    HW2 4056   4.556   1.170   5.587
 1053SOL     OW 4057   6.259   3.840   2.333
 1053SOL    HW1 4058   6.328   3.790   2.280
 1053SOL    HW2 4059   6.248   3.797   2.422
 1054SOL     OW 4060   2.885   3.411   1.040
 1054SOL    HW1 4061   2.901   3.313   1.046
 1054SOL    HW2 4062   2.791   3.431   1.069
 1055SOL     OW 4063   4.956   6.074   6.452
 1055SOL    HW1 4064   5.051   6.069   6.482
 1055SOL    HW2 4065   4.913   6.155   6.491
 1056SOL     OW 4066   1.257   3.741   0.218
 1056SOL    HW1 4067   1.269   3.761   0.121
 1056SOL    HW2 4068   1.336   3.689   0.252
 1057SOL     OW 4069   3.841   1.949   1.958
 1057SOL    HW1 4070   3.934   1.955   1.923
 1057SOL    HW2 4071   3.818   2.032   2.009
 1058SOL     OW 4072   4.256   2.294   3.082
 1058SOL    HW1 4073   4.328   2.354   3.048
 1058SOL    HW2 4074   4.198   2.266   3.005
 1059SOL     OW 4075   2.449   6.825   2.195
 1059SOL    HW1 4076   2.390   6.833   2.275
 1059SOL    HW2 4077   2.539   6.793   2.224
 1060SOL     OW 4078   6.852   4.619   4.139
 1060SOL    HW1 4079   6.871   4.584   4.048
 1060SOL    HW2 4080   6.853   4.719   4.138
 1061SOL     OW 4081   6.546   3.723   6.494
 1061SOL    HW1 4082   6.535   3.640   6.440
 1061SOL    HW2 4083   6.466   3.735   6.553
 1062SOL     OW 4084   3.902   6.236   5.544
 1062SOL    HW1 4085   3.845   6.158   5.517
 1062SOL    HW2 4086   3.988   6.203   5.582
 1063SOL     OW 4087   0.434   6.973   6.488
 1063SOL    HW1 4088   0.448   6.991   6.586
 1063SOL    HW2 4089   0.336   6.972   6.468
 1064SOL     OW 4090   0.554   4.252   2.058
 1064SOL    HW1 4091   0.503   4.321   2.007
 1064SOL    HW2 4092   0.522   4.250   2.153
 1065SOL     OW 4093   3.207   0.828   4.007
 1065SOL    HW1 4094   3.283   0.883   3.970
 1065SOL    HW2 4095   3.192   0.852   4.103
 1066SOL     OW 4096   4.484   6.729   2.326
 1066SOL    HW1 4097   4.420   6.661   2.361
 1066SOL    HW2 4098   4.476   6.813   2.379
 1067SOL     OW 4099   2.833   1.318   6.618
 1067SOL    HW1 4100   2.758   1.374   6.581
 1067SOL    HW2 4101   2.878   1.269   6.543
 1068SOL     OW 4102   5.767   4.128   1.445
 1068SOL    HW1 4103   5.669   4.120   1.428
 1068SOL    HW2 4104   5.789   4.086   1.533
 1069SOL     OW 4105   5.395   5.326   0.986
 1069SOL    HW1 4106   5.419   5.410   1.035
 1069SOL    HW2 4107   5.440   5.326   0.896
 1070SOL     OW 4108   2.408   0.271   2.670
 1070SOL    HW1 4109   2.484   0.285   2.607
 1070SOL    HW2 4110   2.434   0.204   2.740
 1071SOL     OW 4111   0.572   1.631   4.658
 1071SOL    HW1 4112   0.518   1.714   4.641
 1071SOL    HW2 4113   0.514   1.550   4.643
 1072SOL     OW 4114   1.731   0.524   1.659
 1072SOL    HW1 4115   1.793   0.559   1.729
 1072SOL    HW2 4116   1.735   0.424   1.658
 1073SOL     OW 4117   5.992   1.861   3.419
 1073SOL    HW1 4118   6.039   1.930   3.474
 1073SOL    HW2 4119   6.040   1.849   3.332
 1074SOL     OW 4120   2.833   5.245   1.273
 1074SOL    HW1 4121   2.776   5.215   1.349
 1074SOL    HW2 4122   2.787   5.225   1.186
 1075SOL     OW 4123   6.290   1.434   4.476
 1075SOL    HW1 4124   6.208   1.392   4.437
 1075SOL    HW2 4125   6.279   1.443   4.575
 1076SOL     OW 4126   1.790   3.339   5.328
 1076SOL    HW1 4127   1.714   3.275   5.319
 1076SOL    HW2 4128   1.774   3.400   5.405
 1077SOL     OW 4129   6.832   6.642   0.194
 1077SOL    HW1 4130   6.837   6.701   0.113
 1077SOL    HW2 4131   6.883   6.558   0.178
 1078SOL     OW 4132   6.423   7.001   2.777
 1078SOL    HW1 4133   6.359   6.994   2.853
 1078SOL    HW2 4134   6.492   6.929   2.784
 1079SOL     OW 4135   1.748   5.679   1.724
 1079SOL    HW1 4136   1.675   5.723   1.776
 1079SOL    HW2 4137   1.757   5.723   1.634
 1080SOL     OW 4138   2.156   5.557   5.339
 1080SOL    HW1 4139   2.223   5.507   5.284
 1080SOL    HW2 4140   2.169   5.656   5.325
 1081SOL     OW 4141   0.199   5.794   4.037
 1081SOL    HW1 4142   0.145   5.860   3.985
 1081SOL    HW2 4143   0.195   5.817   4.134
 1082SOL     OW 4144   6.210   1.495   6.013
 1082SOL    HW1 4145   6.272   1.419   5.988
 1082SOL    HW2 4146   6.210   1.506   6.112
 1083SOL     OW 4147   4.885   3.589   0.527
 1083SOL    HW1 4148   4.861   3.667   0.585
 1083SOL    HW2 4149   4.882   3.617   0.431
 1084SOL     OW 4150   6.942   6.544   6.545
 1084SOL    HW1 4151   0.007   6.552   6.590
 1084SOL    HW2 4152   6.942   6.596   6.460
 1085SOL     OW 4153   2.142   3.575   3.881
 1085SOL    HW1 4154   2.099   3.634   3.949
 1085SOL    HW2 4155   2.132   3.616   3.790
 1086SOL     OW 4156   6.676   4.889   6.208
 1086SOL    HW1 4157   6.690   4.875   6.306
 1086SOL    HW2 4158   6.583   4.921   6.192
 1087SOL     OW 4159   1.325   1.513   5.682
 1087SOL    HW1 4160   1.237   1.529   5.725
 1087SOL    HW2 4161   1.396   1.504   5.753
 1088SOL     OW 4162   0.098   5.337   3.045
 1088SOL    HW1 4163   0.099   5.361   2.948
 1088SOL    HW2 4164   0.160   5.397   3.096
 1089SOL     OW 4165   0.717   5.711   4.838
 1089SOL    HW1 4166   0.742   5.625   4.794
 1089SOL    HW2 4167   0.632   5.699   4.890
 1090SOL     OW 4168   5.539   1.928   3.349
 1090SOL    HW1 4169   5.487   1.928   3.264
 1090SOL    HW2 4170   5.540   2.020   3.388
 1091SOL     OW 4171   1.922   3.355   3.633
 1091SOL    HW1 4172   1.896   3.306   3.716
 1091SOL    HW2 4173   2.020   3.374   3.635
 1092SOL     OW 4174   0.733   4.676   0.382
 1092SOL    HW1 4175   0.792   4.755   0.398
 1092SOL    HW2 4176   0.667   4.669   0.457
 1093SOL     OW 4177   3.180   0.158   1.403
 1093SOL    HW1 4178   3.278   0.139   1.415
 1093SOL    HW2 4179   3.129   0.072   1.409
 1094SOL     OW 4180   0.868   6.915   2.646
 1094SOL    HW1 4181   0.846   7.011   2.662
 1094SOL    HW2 4182   0.826   6.859   2.717
 1095SOL     OW 4183   0.793   2.711   6.451
 1095SOL    HW1 4184   0.746   2.799   6.447
 1095SOL    HW2 4185   0.848   2.698   6.369
 1096SOL     OW 4186   2.978   4.698   0.874
 1096SOL    HW1 4187   2.952   4.621   0.932
 1096SOL    HW2 4188   2.940   4.782   0.912
 1097SOL     OW 4189   2.037   5.864   3.019
 1097SOL    HW1 4190   1.975   5.866   2.941
 1097SOL    HW2 4191   1.990   5.899   3.100
 1098SOL     OW 4192   5.730   4.320   6.758
 1098SOL    HW1 4193   5.710   4.248   6.825
 1098SOL    HW2 4194   5.764   4.278   6.674
 1099SOL     OW 4195   4.691   1.173   6.499
 1099SOL    HW1 4196   4.623   1.245   6.514
 1099SOL    HW2 4197   4.768   1.187   6.562
 1100SOL     OW 4198   3.329   1.225   4.056
 1100SOL    HW1 4199   3.344   1.133   4.018
 1100SOL    HW2 4200   3.293   1.217   4.149
 1101SOL     OW 4201   5.892   3.486   5.366
 1101SOL    HW1 4202   5.860   3.452   5.454
 1101SOL    HW2 4203   5.966   3.552   5.380
 1102SOL     OW 4204   2.569   1.015   4.493
 1102SOL    HW1 4205   2.537   1.027   4.587
 1102SOL    HW2 4206   2.666   1.038   4.487
 1103SOL     OW 4207   2.537   1.343   0.077
 1103SOL    HW1 4208   2.622   1.386   0.107
 1103SOL    HW2 4209   2.556   1.279   0.003
 1104SOL     OW 4210   1.199   4.403   3.553
 1104SOL    HW1 4211   1.221   4.399   3.651
 1104SOL    HW2 4212   1.137   4.480   3.536
 1105SOL     OW 4213   4.915   2.597   4.703
 1105SOL    HW1 4214   4.909   2.587   4.604
 1105SOL    HW2 4215   4.841   2.656   4.735
 1106SOL     OW 4216   0.309   1.585   0.393
 1106SOL    HW1 4217   0.398   1.555   0.360
 1106SOL    HW2 4218   0.321   1.656   0.462
 1107SOL     OW 4219   0.992   0.648   0.076
 1107SOL    HW1 4220   1.015   0.551   0.079
 1107SOL    HW2 4221   0.977   0.676   7.005
 1108SOL     OW 4222   4.066   6.261   4.469
 1108SOL    HW1 4223   4.079   6.233   4.374
 1108SOL    HW2 4224   3.971   6.245   4.495
 1109SOL     OW 4225   5.761   1.787   3.797
 1109SOL    HW1 4226   5.712   1.777   3.711
 1109SOL    HW2 4227   5.700   1.764   3.873
 1110SOL     OW 4228   3.250   0.914   2.948
 1110SOL    HW1 4229   3.164   0.946   2.987
 1110SOL    HW2 4230   3.234   0.833   2.892
 1111SOL     OW 4231   5.019   4.250   6.163
 1111SOL    HW1 4232   5.025   4.286   6.070
 1111SOL    HW2 4233   4.925   4.223   6.183
 1112SOL     OW 4234   6.530   0.042   3.343
 1112SOL    HW1 4235   6.625   0.015   3.327
 1112SOL    HW2 4236   6.503   0.017   3.436
 1113SOL     OW 4237   6.140   4.368   1.708
 1113SOL    HW1 4238   6.184   4.440   1.654
 1113SOL    HW2 4239   6.057   4.403   1.751
 1114SOL     OW 4240   3.910   2.514   5.722
 1114SOL    HW1 4241   3.877   2.474   5.808
 1114SOL    HW2 4242   3.862   2.600   5.704
 1115SOL     OW 4243   4.303   4.272   5.554
 1115SOL    HW1 4244   4.206   4.248   5.562
 1115SOL    HW2 4245   4.358   4.207   5.605
 1116SOL     OW 4246   5.486   0.270   0.058
 1116SOL    HW1 4247   5.464   0.175   0.079
 1116SOL    HW2 4248   5.514   0.318   0.142
 1117SOL     OW 4249   0.946   2.225   1.430
 1117SOL    HW1 4250   0.850   2.206   1.449
 1117SOL    HW2 4251   0.984   2.150   1.376
 1118SOL     OW 4252   2.261   5.173   0.111
 1118SOL    HW1 4253   2.244   5.074   0.111
 1118SOL    HW2 4254   2.359   5.190   0.120
 1119SOL     OW 4255   4.177   4.667   2.113
 1119SOL    HW1 4256   4.173   4.658   2.213
 1119SOL    HW2 4257   4.261   4.624   2.080
 1120SOL     OW 4258   6.410   5.714   1.151
 1120SOL    HW1 4259   6.352   5.669   1.220
 1120SOL    HW2 4260   6.487   5.655   1.129
 1121SOL     OW 4261   1.037   4.719   4.423
 1121SOL    HW1 4262   1.000   4.804   4.463
 1121SOL    HW2 4263   0.979   4.692   4.346
 1122SOL     OW 4264   6.472   2.734   2.045
 1122SOL    HW1 4265   6.473   2.755   2.143
 1122SOL    HW2 4266   6.378   2.720   2.015
 1123SOL     OW 4267   4.421   2.262   3.677
 1123SOL    HW1 4268   4.520   2.261   3.665
 1123SOL    HW2 4269   4.381   2.182   3.631
 1124SOL     OW 4270   1.208   3.327   5.707
 1124SOL    HW1 4271   1.281   3.318   5.639
 1124SOL    HW2 4272   1.171   3.420   5.703
 1125SOL     OW 4273   1.674   3.098   4.555
 1125SOL    HW1 4274   1.702   3.013   4.601
 1125SOL    HW2 4275   1.742   3.169   4.574
 1126SOL     OW 4276   4.451   5.876   5.262
 1126SOL    HW1 4277   4.488   5.902   5.352
 1126SOL    HW2 4278   4.358   5.911   5.253
 1127SOL     OW 4279   5.420   6.511   4.749
 1127SOL    HW1 4280   5.467   6.495   4.836
 1127SOL    HW2 4281   5.419   6.426   4.696
 1128SOL     OW 4282   5.768   1.607   4.992
 1128SOL    HW1 4283   5.706   1.555   5.050
 1128SOL    HW2 4284   5.723   1.691   4.960
 1129SOL     OW 4285   1.872   6.922   0.407
 1129SOL    HW1 4286   1.873   7.006   0.353
 1129SOL    HW2 4287   1.912   6.940   0.497
 1130SOL     OW 4288   1.930   5.487   1.658
 1130SOL    HW1 4289   2.002   5.492   1.727
 1130SOL    HW2 4290   1.868   5.564   1.670
 1131SOL     OW 4291   1.743   0.734   4.673
 1131SOL    HW1 4292   1.720   0.636   4.671
 1131SOL    HW2 4293   1.823   0.750   4.616
 1132SOL     OW 4294   4.786   0.427   2.535
 1132SOL    HW1 4295   4.821   0.335   2.553
 1132SOL    HW2 4296   4.827   0.492   2.598
 1133SOL     OW 4297   1.314   0.191   6.830
 1133SOL    HW1 4298   1.382   0.211   6.901
 1133SOL    HW2 4299   1.319   0.261   6.759
 1134SOL     OW 4300   5.416   6.780   2.383
 1134SOL    HW1 4301   5.367   6.702   2.345
 1134SOL    HW2 4302   5.509   6.784   2.346
 1135SOL     OW 4303   2.451   6.596   3.742
 1135SOL    HW1 4304   2.534   6.546   3.720
 1135SOL    HW2 4305   2.410   6.558   3.824
 1136SOL     OW 4306   3.443   5.366   3.391
 1136SOL    HW1 4307   3.419   5.275   3.423
 1136SOL    HW2 4308   3.509   5.360   3.317
 1137SOL     OW 4309   1.004   6.241   6.657
 1137SOL    HW1 4310   1.024   6.339   6.666
 1137SOL    HW2 4311   0.905   6.229   6.646
 1138SOL     OW 4312   1.835   2.517   5.203
 1138SOL    HW1 4313   1.907   2.492   5.268
 1138SOL    HW2 4314   1.751   2.469   5.225
 1139SOL     OW 4315   2.558   4.793   4.141
 1139SOL    HW1 4316   2.533   4.857   4.214
 1139SOL    HW2 4317   2.574   4.843   4.056
 1140SOL     OW 4318   2.192   0.649   2.426
 1140SOL    HW1 4319   2.284   0.610   2.420
 1140SOL    HW2 4320   2.198   0.748   2.438
 1141SOL     OW 4321   6.189   5.491   6.436
 1141SOL    HW1 4322   6.192   5.425   6.361
 1141SOL    HW2 4323   6.133   5.455   6.510
 1142SOL     OW 4324   2.504   0.238   3.775
 1142SOL    HW1 4325   2.429   0.174   3.759
 1142SOL    HW2 4326   2.565   0.200   3.845
 1143SOL     OW 4327   1.361   2.681   2.209
 1143SOL    HW1 4328   1.303   2.613   2.164
 1143SOL    HW2 4329   1.444   2.637   2.243
 1144SOL     OW 4330   5.206   4.441   2.434
 1144SOL    HW1 4331   5.167   4.349   2.426
 1144SOL    HW2 4332   5.213   4.466   2.531
 1145SOL     OW 4333   0.995   2.641   0.592
 1145SOL    HW1 4334   1.029   2.649   0.499
 1145SOL    HW2 4335   0.911   2.585   0.592
 1146SOL     OW 4336   0.459   2.178   1.112
 1146SOL    HW1 4337   0.529   2.249   1.117
 1146SOL    HW2 4338   0.409   2.174   1.199
 1147SOL     OW 4339   2.953   6.276   0.595
 1147SOL    HW1 4340   2.875   6.215   0.591
 1147SOL    HW2 4341   2.936   6.356   0.537
 1148SOL     OW 4342   3.969   6.373   1.644
 1148SOL    HW1 4343   3.886   6.349   1.595
 1148SOL    HW2 4344   3.959   6.349   1.741
 1149SOL     OW 4345   6.200   3.119   1.794
 1149SOL    HW1 4346   6.206   3.164   1.705
 1149SOL    HW2 4347   6.236   3.026   1.787
 1150SOL     OW 4348   0.732   4.056   7.020
 1150SOL    HW1 4349   0.690   4.046   0.086
 1150SOL    HW2 4350   0.666   4.030   6.949
 1151SOL     OW 4351   5.768   5.246   4.524
 1151SOL    HW1 4352   5.841   5.198   4.572
 1151SOL    HW2 4353   5.762   5.214   4.430
 1152SOL     OW 4354   4.310   6.476   6.607
 1152SOL    HW1 4355   4.374   6.529   6.552
 1152SOL    HW2 4356   4.220   6.519   6.605
 1153SOL     OW 4357   6.812   6.961   1.185
 1153SOL    HW1 4358   6.713   6.975   1.180
 1153SOL    HW2 4359   6.856   0.023   1.211
 1154SOL     OW 4360   0.737   4.056   1.422
 1154SOL    HW1 4361   0.788   4.140   1.438
 1154SOL    HW2 4362   0.801   3.982   1.403
 1155SOL     OW 4363   2.218   6.447   5.347
 1155SOL    HW1 4364   2.251   6.378   5.283
 1155SOL    HW2 4365   2.250   6.538   5.319
 1156SOL     OW 4366   4.098   1.663   5.087
 1156SOL    HW1 4367   4.138   1.741   5.040
 1156SOL    HW2 4368   4.000   1.657   5.065
 1157SOL     OW 4369   5.427   1.416   5.478
 1157SOL    HW1 4370   5.444   1.318   5.484
 1157SOL    HW2 4371   5.348   1.432   5.418
 1158SOL     OW 4372   6.207   6.211   4.417
 1158SOL    HW1 4373   6.211   6.125   4.469
 1158SOL    HW2 4374   6.204   6.191   4.319
 1159SOL     OW 4375   5.903   6.690   3.308
 1159SOL    HW1 4376   5.971   6.679   3.381
 1159SOL    HW2 4377   5.813   6.664   3.342
 1160SOL     OW 4378   3.849   5.874   1.625
 1160SOL    HW1 4379   3.781   5.940   1.594
 1160SOL    HW2 4380   3.802   5.790   1.654
 1161SOL     OW 4381   6.694   5.888   6.297
 1161SOL    HW1 4382   6.624   5.956   6.275
 1161SOL    HW2 4383   6.695   5.872   6.396
 1162SOL     OW 4384   2.541   2.172   5.946
 1162SOL    HW1 4385   2.463   2.201   5.890
 1162SOL    HW2 4386   2.618   2.150   5.886
 1163SOL     OW 4387   6.205   4.995   1.519
 1163SOL    HW1 4388   6.238   5.062   1.585
 1163SOL    HW2 4389   6.267   4.991   1.440
 1164SOL     OW 4390   5.460   2.461   5.051
 1164SOL    HW1 4391   5.476   2.365   5.073
 1164SOL    HW2 4392   5.371   2.471   5.006
 1165SOL     OW 4393   4.191   6.086   3.264
 1165SOL    HW1 4394   4.172   6.174   3.220
 1165SOL    HW2 4395   4.252   6.032   3.205
 1166SOL     OW 4396   1.775   6.552   6.790
 1166SOL    HW1 4397   1.755   6.646   6.814
 1166SOL    HW2 4398   1.704   6.492   6.828
 1167SOL     OW 4399   4.983   4.270   1.398
 1167SOL    HW1 4400   4.940   4.198   1.343
 1167SOL    HW2 4401   4.948   4.266   1.491
 1168SOL     OW 4402   6.152   2.180   1.899
 1168SOL    HW1 4403   6.129   2.206   1.992
 1168SOL    HW2 4404   6.135   2.082   1.886
 1169SOL     OW 4405   5.760   2.049   5.402
 1169SOL    HW1 4406   5.686   2.063   5.468
 1169SOL    HW2 4407   5.792   1.955   5.407
 1170SOL     OW 4408   4.586   0.031   2.776
 1170SOL    HW1 4409   4.534   7.011   2.849
 1170SOL    HW2 4410   4.662   0.084   2.815
 1171SOL     OW 4411   2.465   0.318   0.413
 1171SOL    HW1 4412   2.544   0.281   0.365
 1171SOL    HW2 4413   2.408   0.243   0.447
 1172SOL     OW 4414   5.273   4.272   1.219
 1172SOL    HW1 4415   5.185   4.232   1.195
 1172SOL    HW2 4416   5.287   4.266   1.318
 1173SOL     OW 4417   2.282   1.413   1.813
 1173SOL    HW1 4418   2.354   1.347   1.792
 1173SOL    HW2 4419   2.205   1.399   1.751
 1174SOL     OW 4420   3.428   3.985   1.868
 1174SOL    HW1 4421   3.470   4.028   1.948
 1174SOL    HW2 4422   3.354   3.924   1.898
 1175SOL     OW 4423   4.803   3.317   5.723
 1175SOL    HW1 4424   4.849   3.351   5.641
 1175SOL    HW2 4425   4.792   3.218   5.717
 1176SOL     OW 4426   4.884   3.509   6.311
 1176SOL    HW1 4427   4.873   3.410   6.320
 1176SOL    HW2 4428   4.925   3.530   6.222
 1177SOL     OW 4429   7.005   4.009   4.817
 1177SOL    HW1 4430   0.076   3.993   4.790
 1177SOL    HW2 4431   7.000   4.088   4.878
 1178SOL     OW 4432   2.659   3.097   0.387
 1178SOL    HW1 4433   2.648   3.197   0.391
 1178SOL    HW2 4434   2.628   3.058   0.474
 1179SOL     OW 4435   2.581   5.482   0.431
 1179SOL    HW1 4436   2.679   5.468   0.419
 1179SOL    HW2 4437   2.552   5.564   0.382
 1180SOL     OW 4438   2.439   5.917   3.342
 1180SOL    HW1 4439   2.436   5.989   3.412
 1180SOL    HW2 4440   2.524   5.924   3.290
 1181SOL     OW 4441   0.521   5.234   5.729
 1181SOL    HW1 4442   0.479   5.274   5.648
 1181SOL    HW2 4443   0.457   5.239   5.806
 1182SOL     OW 4444   3.784   5.410   3.514
 1182SOL    HW1 4445   3.785   5.432   3.612
 1182SOL    HW2 4446   3.817   5.317   3.500
 1183SOL     OW 4447   2.278   4.291   0.501
 1183SOL    HW1 4448   2.339   4.361   0.465
 1183SOL    HW2 4449   2.192   4.292   0.450
 1184SOL     OW 4450   0.188   0.643   4.501
 1184SOL    HW1 4451   0.152   0.728   4.541
 1184SOL    HW2 4452   0.252   0.601   4.565
 1185SOL     OW 4453   0.085   1.493   0.493
 1185SOL    HW1 4454   0.024   1.553   0.442
 1185SOL    HW2 4455   0.176   1.495   0.450
 1186SOL     OW 4456   5.115   5.731   5.662
 1186SOL    HW1 4457   5.128   5.694   5.754
 1186SOL    HW2 4458   5.101   5.657   5.598
 1187SOL     OW 4459   6.423   6.558   6.602
 1187SOL    HW1 4460   6.396   6.612   6.681
 1187SOL    HW2 4461   6.397   6.605   6.518
 1188SOL     OW 4462   3.835   5.949   5.189
 1188SOL    HW1 4463   3.740   5.955   5.158
 1188SOL    HW2 4464   3.839   5.968   5.287
 1189SOL     OW 4465   6.666   2.465   2.787
 1189SOL    HW1 4466   6.618   2.545   2.825
 1189SOL    HW2 4467   6.672   2.473   2.688
 1190SOL     OW 4468   2.810   5.850   4.206
 1190SOL    HW1 4469   2.775   5.885   4.294
 1190SOL    HW2 4470   2.743   5.869   4.134
 1191SOL     OW 4471   4.525   5.019   3.841
 1191SOL    HW1 4472   4.528   4.927   3.879
 1191SOL    HW2 4473   4.499   5.015   3.745
 1192SOL     OW 4474   3.955   5.567   3.114
 1192SOL    HW1 4475   3.959   5.467   3.112
 1192SOL    HW2 4476   3.863   5.597   3.140
 1193SOL     OW 4477   6.617   3.530   4.631
 1193SOL    HW1 4478   6.591   3.498   4.722
 1193SOL    HW2 4479   6.664   3.455   4.583
 1194SOL     OW 4480   5.482   6.886   1.804
 1194SOL    HW1 4481   5.432   6.878   1.891
 1194SOL    HW2 4482   5.580   6.891   1.823
 1195SOL     OW 4483   6.547   4.303   1.407
 1195SOL    HW1 4484   6.612   4.351   1.465
 1195SOL    HW2 4485   6.541   4.348   1.318
 1196SOL     OW 4486   0.016   5.562   2.676
 1196SOL    HW1 4487   0.062   5.604   2.598
 1196SOL    HW2 4488   0.053   5.470   2.692
 1197SOL     OW 4489   4.438   0.690   5.684
 1197SOL    HW1 4490   4.479   0.615   5.737
 1197SOL    HW2 4491   4.377   0.743   5.744
 1198SOL     OW 4492   1.168   2.707   1.865
 1198SOL    HW1 4493   1.167   2.786   1.927
 1198SOL    HW2 4494   1.251   2.709   1.810
 1199SOL     OW 4495   4.163   4.761   1.856
 1199SOL    HW1 4496   4.190   4.689   1.793
 1199SOL    HW2 4497   4.192   4.737   1.949
 1200SOL     OW 4498   3.364   3.561   3.822
 1200SOL    HW1 4499   3.318   3.498   3.759
 1200SOL    HW2 4500   3.454   3.524   3.846
 1201SOL     OW 4501   1.101   0.890   4.669
 1201SOL    HW1 4502   1.108   0.792   4.688
 1201SOL    HW2 4503   1.027   0.929   4.725
 1202SOL     OW 4504   0.669   5.846   6.128
 1202SOL    HW1 4505   0.689   5.878   6.036
 1202SOL    HW2 4506   0.738   5.778   6.155
 1203SOL     OW 4507   5.893   6.454   0.179
 1203SOL    HW1 4508   5.871   6.393   0.104
 1203SOL    HW2 4509   5.808   6.487   0.222
 1204SOL     OW 4510   3.180   6.746   1.414
 1204SOL    HW1 4511   3.239   6.692   1.474
 1204SOL    HW2 4512   3.177   6.703   1.323
 1205SOL     OW 4513   5.503   3.641   1.391
 1205SOL    HW1 4514   5.544   3.555   1.358
 1205SOL    HW2 4515   5.424   3.620   1.448
 1206SOL     OW 4516   3.115   2.740   5.454
 1206SOL    HW1 4517   3.067   2.693   5.527
 1206SOL    HW2 4518   3.108   2.839   5.467
 1207SOL     OW 4519   2.213   6.335   1.619
 1207SOL    HW1 4520   2.276   6.410   1.640
 1207SOL    HW2 4521   2.119   6.370   1.619
 1208SOL     OW 4522   3.114   3.320   0.885
 1208SOL    HW1 4523   3.073   3.296   0.973
 1208SOL    HW2 4524   3.106   3.419   0.870
 1209SOL     OW 4525   4.399   0.941   4.569
 1209SOL    HW1 4526   4.353   0.992   4.642
 1209SOL    HW2 4527   4.338   0.871   4.533
 1210SOL     OW 4528   2.751   0.419   3.354
 1210SOL    HW1 4529   2.706   0.407   3.443
 1210SOL    HW2 4530   2.687   0.458   3.289
 1211SOL     OW 4531   1.203   3.487   1.808
 1211SOL    HW1 4532   1.157   3.406   1.845
 1211SOL    HW2 4533   1.153   3.569   1.836
 1212SOL     OW 4534   6.441   0.155   6.642
 1212SOL    HW1 4535   6.419   0.185   6.549
 1212SOL    HW2 4536   6.469   0.059   6.640
 1213SOL     OW 4537   6.660   2.052   0.610
 1213SOL    HW1 4538   6.653   2.146   0.645
 1213SOL    HW2 4539   6.696   2.054   0.517
 1214SOL     OW 4540   0.424   3.027   0.525
 1214SOL    HW1 4541   0.391   3.085   0.451
 1214SOL    HW2 4542   0.516   2.993   0.502
 1215SOL     OW 4543   1.635   4.322   3.824
 1215SOL    HW1 4544   1.691   4.391   3.778
 1215SOL    HW2 4545   1.690   4.276   3.895
 1216SOL     OW 4546   5.083   0.729   1.416
 1216SOL    HW1 4547   5.086   0.823   1.379
 1216SOL    HW2 4548   5.053   0.667   1.344
 1217SOL     OW 4549   1.238   4.853   0.399
 1217SOL    HW1 4550   1.320   4.823   0.449
 1217SOL    HW2 4551   1.218   4.787   0.327
 1218SOL     OW 4552   2.250   4.329   4.092
 1218SOL    HW1 4553   2.287   4.289   4.008
 1218SOL    HW2 4554   2.282   4.423   4.101
 1219SOL     OW 4555   5.606   5.516   1.646
 1219SOL    HW1 4556   5.641   5.440   1.701
 1219SOL    HW2 4557   5.680   5.556   1.592
 1220SOL     OW 4558   0.820   5.110   2.968
 1220SOL    HW1 4559   0.746   5.101   3.034
 1220SOL    HW2 4560   0.785   5.097   2.876
 1221SOL     OW 4561   5.615   3.811   6.083
 1221SOL    HW1 4562   5.671   3.750   6.027
 1221SOL    HW2 4563   5.548   3.858   6.024
 1222SOL     OW 4564   6.327   6.681   6.359
 1222SOL    HW1 4565   6.348   6.740   6.281
 1222SOL    HW2 4566   6.230   6.660   6.359
 1223SOL     OW 4567   4.088   0.813   0.573
 1223SOL    HW1 4568   4.027   0.884   0.537
 1223SOL    HW2 4569   4.121   0.839   0.663
 1224SOL     OW 4570   2.639   6.391   0.567
 1224SOL    HW1 4571   2.665   6.296   0.549
 1224SOL    HW2 4572   2.541   6.396   0.586
 1225SOL     OW 4573   3.566   4.000   6.566
 1225SOL    HW1 4574   3.564   3.900   6.559
 1225SOL    HW2 4575   3.499   4.039   6.504
 1226SOL     OW 4576   2.376   5.559   0.995
 1226SOL    HW1 4577   2.353   5.631   0.929
 1226SOL    HW2 4578   2.348   5.588   1.086
 1227SOL     OW 4579   6.690   4.017   6.836
 1227SOL    HW1 4580   6.590   4.019   6.833
 1227SOL    HW2 4581   6.720   4.012   6.931
 1228SOL     OW 4582   4.598   2.954   6.989
 1228SOL    HW1 4583   4.577   3.033   0.022
 1228SOL    HW2 4584   4.547   2.875   7.021
 1229SOL     OW 4585   3.427   4.725   6.028
 1229SOL    HW1 4586   3.510   4.760   5.984
 1229SOL    HW2 4587   3.385   4.797   6.083
 1230SOL     OW 4588   4.291   0.027   3.581
 1230SOL    HW1 4589   4.333   0.045   3.493
 1230SOL    HW2 4590   4.238   0.107   3.610
 1231SOL     OW 4591   1.524   3.718   4.340
 1231SOL    HW1 4592   1.538   3.675   4.430
 1231SOL    HW2 4593   1.448   3.674   4.293
 1232SOL     OW 4594   0.703   2.504   6.233
 1232SOL    HW1 4595   0.668   2.525   6.324
 1232SOL    HW2 4596   0.759   2.581   6.201
 1233SOL     OW 4597   0.861   3.301   4.325
 1233SOL    HW1 4598   0.871   3.299   4.226
 1233SOL    HW2 4599   0.880   3.394   4.358
 1234SOL     OW 4600   6.249   4.065   5.035
 1234SOL    HW1 4601   6.189   4.139   5.005
 1234SOL    HW2 4602   6.316   4.101   5.099
 1235SOL     OW 4603   7.005   5.988   2.578
 1235SOL    HW1 4604   0.069   5.941   2.571
 1235SOL    HW2 4605   6.931   5.921   2.570
 1236SOL     OW 4606   4.952   1.327   6.665
 1236SOL    HW1 4607   4.928   1.395   6.596
 1236SOL    HW2 4608   5.048   1.339   6.692
 1237SOL     OW 4609   2.783   5.452   6.141
 1237SOL    HW1 4610   2.736   5.443   6.053
 1237SOL    HW2 4611   2.717   5.438   6.215
 1238SOL     OW 4612   2.039   0.975   0.587
 1238SOL    HW1 4613   2.029   0.944   0.492
 1238SOL    HW2 4614   2.134   1.001   0.604
 1239SOL     OW 4615   0.174   6.560   6.613
 1239SOL    HW1 4616   0.252   6.558   6.675
 1239SOL    HW2 4617   0.171   6.476   6.560
 1240SOL     OW 4618   5.429   5.786   2.157
 1240SOL    HW1 4619   5.494   5.711   2.159
 1240SOL    HW2 4620   5.451   5.852   2.230
 1241SOL     OW 4621   6.550   3.871   4.003
 1241SOL    HW1 4622   6.562   3.955   4.057
 1241SOL    HW2 4623   6.553   3.792   4.064
 1242SOL     OW 4624   1.109   3.708   1.333
 1242SOL    HW1 4625   1.188   3.676   1.280
 1242SOL    HW2 4626   1.096   3.648   1.412
 1243SOL     OW 4627   1.002   6.436   5.339
 1243SOL    HW1 4628   1.057   6.392   5.268
 1243SOL    HW2 4629   0.929   6.489   5.297
 1244SOL     OW 4630   0.134   5.923   3.565
 1244SOL    HW1 4631   0.079   6.006   3.574
 1244SOL    HW2 4632   0.227   5.940   3.598
 1245SOL     OW 4633   4.655   3.891   6.375
 1245SOL    HW1 4634   4.587   3.908   6.447
 1245SOL    HW2 4635   4.610   3.894   6.286
 1246SOL     OW 4636   2.443   6.243   2.245
 1246SOL    HW1 4637   2.366   6.291   2.201
 1246SOL    HW2 4638   2.529   6.279   2.210
 1247SOL     OW 4639   2.757   0.463   6.670
 1247SOL    HW1 4640   2.663   0.491   6.654
 1247SOL    HW2 4641   2.817   0.543   6.665
 1248SOL     OW 4642   2.591   6.969   4.348
 1248SOL    HW1 4643   2.549   6.915   4.276
 1248SOL    HW2 4644   2.660   6.914   4.395
 1249SOL     OW 4645   5.798   2.414   2.152
 1249SOL    HW1 4646   5.774   2.400   2.057
 1249SOL    HW2 4647   5.815   2.325   2.195
 1250SOL     OW 4648   6.993   4.705   4.887
 1250SOL    HW1 4649   6.908   4.661   4.914
 1250SOL    HW2 4650   0.044   4.675   4.947
 1251SOL     OW 4651   3.213   0.031   4.640
 1251SOL    HW1 4652   3.305   0.072   4.641
 1251SOL    HW2 4653   3.169   0.052   4.553
 1252SOL     OW 4654   3.635   3.762   6.249
 1252SOL    HW1 4655   3.652   3.665   6.262
 1252SOL    HW2 4656   3.721   3.809   6.228
 1253SOL     OW 4657   3.417   5.749   1.762
 1253SOL    HW1 4658   3.475   5.796   1.829
 1253SOL    HW2 4659   3.326   5.789   1.763
 1254SOL     OW 4660   6.292   3.244   2.621
 1254SOL    HW1 4661   6.334   3.159   2.651
 1254SOL    HW2 4662   6.282   3.243   2.521
 1255SOL     OW 4663   6.678   1.539   4.391
 1255SOL    HW1 4664   6.768   1.535   4.349
 1255SOL    HW2 4665   6.685   1.577   4.483
 1256SOL     OW 4666   6.949   6.946   2.693
 1256SOL    HW1 4667   6.982   6.906   2.607
 1256SOL    HW2 4668   6.927   6.873   2.757
 1257SOL     OW 4669   6.759   6.636   3.344
 1257SOL    HW1 4670   6.826   6.563   3.354
 1257SOL    HW2 4671   6.772   6.703   3.418
 1258SOL     OW 4672   0.482   5.255   3.448
 1258SOL    HW1 4673   0.511   5.166   3.412
 1258SOL    HW2 4674   0.559   5.298   3.496
 1259SOL     OW 4675   3.503   2.103   4.483
 1259SOL    HW1 4676   3.582   2.135   4.535
 1259SOL    HW2 4677   3.526   2.100   4.386
 1260SOL     OW 4678   0.938   1.897   6.664
 1260SOL    HW1 4679   0.965   1.941   6.749
 1260SOL    HW2 4680   0.850   1.850   6.677
 1261SOL     OW 4681   0.142   5.873   6.384
 1261SOL    HW1 4682   0.229   5.916   6.410
 1261SOL    HW2 4683   0.073   5.944   6.371
 1262SOL     OW 4684   5.702   5.109   2.121
 1262SOL    HW1 4685   5.650   5.144   2.199
 1262SOL    HW2 4686   5.639   5.077   2.050
 1263SOL     OW 4687   0.271   1.151   2.750
 1263SOL    HW1 4688   0.248   1.135   2.654
 1263SOL    HW2 4689   0.233   1.239   2.779
 1264SOL     OW 4690   0.701   3.707   6.622
 1264SOL    HW1 4691   0.711   3.608   6.622
 1264SOL    HW2 4692   0.784   3.750   6.658
 1265SOL     OW 4693   6.643   5.324   4.596
 1265SOL    HW1 4694   6.664   5.226   4.599
 1265SOL    HW2 4695   6.632   5.353   4.501
 1266SOL     OW 4696   0.815   0.539   4.300
 1266SOL    HW1 4697   0.751   0.513   4.229
 1266SOL    HW2 4698   0.772   0.529   4.390
 1267SOL     OW 4699   5.244   0.946   2.142
 1267SOL    HW1 4700   5.179   0.872   2.125
 1267SOL    HW2 4701   5.272   0.986   2.055
 1268SOL     OW 4702   3.486   2.538   5.966
 1268SOL    HW1 4703   3.441   2.597   5.898
 1268SOL    HW2 4704   3.446   2.446   5.961
 1269SOL     OW 4705   5.364   2.777   4.206
 1269SOL    HW1 4706   5.339   2.817   4.118
 1269SOL    HW2 4707   5.418   2.843   4.258
 1270SOL     OW 4708   1.935   4.749   1.987
 1270SOL    HW1 4709   1.979   4.701   1.912
 1270SOL    HW2 4710   1.883   4.683   2.043
 1271SOL     OW 4711   2.880   0.763   1.410
 1271SOL    HW1 4712   2.870   0.828   1.485
 1271SOL    HW2 4713   2.814   0.784   1.338
 1272SOL     OW 4714   6.578   4.305   6.269
 1272SOL    HW1 4715   6.493   4.269   6.306
 1272SOL    HW2 4716   6.602   4.256   6.185
 1273SOL     OW 4717   1.884   3.898   5.188
 1273SOL    HW1 4718   1.961   3.867   5.131
 1273SOL    HW2 4719   1.915   3.910   5.282
 1274SOL     OW 4720   0.340   4.632   1.620
 1274SOL    HW1 4721   0.437   4.618   1.639
 1274SOL    HW2 4722   0.328   4.716   1.567
 1275SOL     OW 4723   2.660   0.078   3.470
 1275SOL    HW1 4724   2.591   0.045   3.406
 1275SOL    HW2 4725   2.620   0.148   3.529
 1276SOL     OW 4726   5.304   4.843   4.756
 1276SOL    HW1 4727   5.359   4.925   4.765
 1276SOL    HW2 4728   5.270   4.836   4.662
 1277SOL     OW 4729   1.383   5.146   0.025
 1277SOL    HW1 4730   1.336   5.063   0.055
 1277SOL    HW2 4731   1.458   5.122   6.987
 1278SOL     OW 4732   1.300   7.002   3.988
 1278SOL    HW1 4733   1.302   0.057   3.926
 1278SOL    HW2 4734   1.324   6.919   3.939
 1279SOL     OW 4735   2.072   3.497   5.942
 1279SOL    HW1 4736   2.153   3.512   5.999
 1279SOL    HW2 4737   2.099   3.455   5.855
 1280SOL     OW 4738   3.315   0.369   3.721
 1280SOL    HW1 4739   3.281   0.323   3.639
 1280SOL    HW2 4740   3.269   0.457   3.733
 1281SOL     OW 4741   3.063   5.931   4.209
 1281SOL    HW1 4742   2.964   5.921   4.203
 1281SOL    HW2 4743   3.102   5.849   4.252
 1282SOL     OW 4744   0.403   2.656   0.593
 1282SOL    HW1 4745   0.438   2.665   0.686
 1282SOL    HW2 4746   0.304   2.665   0.594
 1283SOL     OW 4747   6.682   4.377   5.189
 1283SOL    HW1 4748   6.607   4.381   5.255
 1283SOL    HW2 4749   6.761   4.333   5.230
 1284SOL     OW 4750   3.995   0.458   1.028
 1284SOL    HW1 4751   4.091   0.485   1.035
 1284SOL    HW2 4752   3.955   0.452   1.119
 1285SOL     OW 4753   3.906   1.503   5.781
 1285SOL    HW1 4754   4.000   1.499   5.814
 1285SOL    HW2 4755   3.900   1.569   5.706
 1286SOL     OW 4756   4.791   2.784   0.973
 1286SOL    HW1 4757   4.715   2.718   0.972
 1286SOL    HW2 4758   4.811   2.813   0.879
 1287SOL     OW 4759   5.260   4.633   5.341
 1287SOL    HW1 4760   5.185   4.647   5.276
 1287SOL    HW2 4761   5.272   4.717   5.394
 1288SOL     OW 4762   4.548   4.538   5.841
 1288SOL    HW1 4763   4.525   4.472   5.913
 1288SOL    HW2 4764   4.464   4.564   5.793
 1289SOL     OW 4765   6.469   0.545   2.059
 1289SOL    HW1 4766   6.426   0.500   1.981
 1289SOL    HW2 4767   6.568   0.541   2.049
 1290SOL     OW 4768   1.379   0.384   1.067
 1290SOL    HW1 4769   1.328   0.312   1.115
 1290SOL    HW2 4770   1.356   0.473   1.106
 1291SOL     OW 4771   6.347   4.712   4.568
 1291SOL    HW1 4772   6.354   4.809   4.590
 1291SOL    HW2 4773   6.429   4.682   4.519
 1292SOL     OW 4774   0.459   5.727   2.294
 1292SOL    HW1 4775   0.460   5.629   2.314
 1292SOL    HW2 4776   0.367   5.755   2.269
 1293SOL     OW 4777   2.020   2.176   0.346
 1293SOL    HW1 4778   2.113   2.194   0.379
 1293SOL    HW2 4779   1.992   2.250   0.284
 1294SOL     OW 4780   1.390   4.040   6.437
 1294SOL    HW1 4781   1.469   3.980   6.446
 1294SOL    HW2 4782   1.357   4.066   6.528
 1295SOL     OW 4783   0.177   3.909   1.170
 1295SOL    HW1 4784   0.217   3.932   1.258
 1295SOL    HW2 4785   0.134   3.819   1.175
 1296SOL     OW 4786   4.936   0.136   5.718
 1296SOL    HW1 4787   4.907   0.157   5.624
 1296SOL    HW2 4788   4.859   0.144   5.780
 1297SOL     OW 4789   0.918   6.393   1.536
 1297SOL    HW1 4790   1.002   6.430   1.496
 1297SOL    HW2 4791   0.862   6.353   1.463
 1298SOL     OW 4792   5.124   6.303   3.221
 1298SOL    HW1 4793   5.036   6.343   3.244
 1298SOL    HW2 4794   5.196   6.345   3.277
 1299SOL     OW 4795   2.121   3.181   4.196
 1299SOL    HW1 4796   2.118   3.233   4.111
 1299SOL    HW2 4797   2.179   3.101   4.184
 1300SOL     OW 4798   1.751   3.505   1.377
 1300SOL    HW1 4799   1.753   3.511   1.477
 1300SOL    HW2 4800   1.753   3.409   1.349
 1301SOL     OW 4801   0.823   0.022   1.986
 1301SOL    HW1 4802   0.911   0.016   2.034
 1301SOL    HW2 4803   0.836   0.005   1.889
 1302SOL     OW 4804   5.481   0.319   5.436
 1302SOL    HW1 4805   5.561   0.269   5.403
 1302SOL    HW2 4806   5.512   0.393   5.496
 1303SOL     OW 4807   4.408   0.285   1.563
 1303SOL    HW1 4808   4.376   0.371   1.603
 1303SOL    HW2 4809   4.485   0.304   1.501
 1304SOL     OW 4810   1.619   1.086   1.071
 1304SOL    HW1 4811   1.667   1.073   0.984
 1304SOL    HW2 4812   1.633   1.180   1.102
 1305SOL     OW 4813   5.386   4.473   6.103
 1305SOL    HW1 4814   5.313   4.484   6.171
 1305SOL    HW2 4815   5.441   4.556   6.100
 1306SOL     OW 4816   0.872   5.637   4.383
 1306SOL    HW1 4817   0.843   5.566   4.447
 1306SOL    HW2 4818   0.939   5.697   4.427
 1307SOL     OW 4819   1.824   3.371   3.955
 1307SOL    HW1 4820   1.820   3.420   4.042
 1307SOL    HW2 4821   1.760   3.293   3.958
 1308SOL     OW 4822   6.655   6.467   6.064
 1308SOL    HW1 4823   6.582   6.475   6.131
 1308SOL    HW2 4824   6.686   6.372   6.060
 1309SOL     OW 4825   5.433   4.634   5.681
 1309SOL    HW1 4826   5.352   4.578   5.697
 1309SOL    HW2 4827   5.454   4.634   5.583
 1310SOL     OW 4828   0.663   3.964   3.763
 1310SOL    HW1 4829   0.679   4.057   3.729
 1310SOL    HW2 4830   0.582   3.963   3.822
 1311SOL     OW 4831   6.383   5.763   6.094
 1311SOL    HW1 4832   6.388   5.750   6.193
 1311SOL    HW2 4833   6.289   5.745   6.063
 1312SOL     OW 4834   1.715   0.812   6.618
 1312SOL    HW1 4835   1.812   0.815   6.645
 1312SOL    HW2 4836   1.708   0.787   6.522
 1313SOL     OW 4837   6.854   5.248   2.810
 1313SOL    HW1 4838   6.827   5.165   2.762
 1313SOL    HW2 4839   6.800   5.258   2.893
 1314SOL     OW 4840   2.883   1.813   4.464
 1314SOL    HW1 4841   2.958   1.813   4.397
 1314SOL    HW2 4842   2.805   1.861   4.425
 1315SOL     OW 4843   6.940   0.732   4.021
 1315SOL    HW1 4844   6.999   0.799   4.066
 1315SOL    HW2 4845   6.855   0.777   3.992
 1316SOL     OW 4846   3.878   0.275   5.049
 1316SOL    HW1 4847   3.808   0.322   5.102
 1316SOL    HW2 4848   3.895   0.324   4.964
 1317SOL     OW 4849   2.148   4.717   5.564
 1317SOL    HW1 4850   2.070   4.666   5.527
 1317SOL    HW2 4851   2.230   4.696   5.510
 1318SOL     OW 4852   1.591   2.742   6.543
 1318SOL    HW1 4853   1.589   2.769   6.447
 1318SOL    HW2 4854   1.503   2.703   6.569
 1319SOL     OW 4855   0.252   6.056   6.874
 1319SOL    HW1 4856   0.193   6.134   6.893
 1319SOL    HW2 4857   0.222   5.977   6.927
 1320SOL     OW 4858   3.145   3.100   6.578
 1320SOL    HW1 4859   3.154   3.066   6.484
 1320SOL    HW2 4860   3.048   3.114   6.599
 1321SOL     OW 4861   4.734   2.285   6.695
 1321SOL    HW1 4862   4.819   2.282   6.643
 1321SOL    HW2 4863   4.657   2.269   6.633
 1322SOL     OW 4864   3.519   1.360   4.341
 1322SOL    HW1 4865   3.516   1.260   4.330
 1322SOL    HW2 4866   3.469   1.386   4.424
 1323SOL     OW 4867   3.759   6.362   0.916
 1323SOL    HW1 4868   3.671   6.326   0.885
 1323SOL    HW2 4869   3.820   6.375   0.838
 1324SOL     OW 4870   0.979   3.577   0.231
 1324SOL    HW1 4871   0.999   3.523   0.313
 1324SOL    HW2 4872   1.064   3.604   0.186
 1325SOL     OW 4873   4.161   6.469   5.206
 1325SOL    HW1 4874   4.204   6.546   5.255
 1325SOL    HW2 4875   4.171   6.484   5.108
 1326SOL     OW 4876   4.700   4.213   5.196
 1326SOL    HW1 4877   4.693   4.272   5.116
 1326SOL    HW2 4878   4.716   4.118   5.167
 1327SOL     OW 4879   0.299   6.292   0.966
 1327SOL    HW1 4880   0.362   6.321   0.893
 1327SOL    HW2 4881   0.325   6.336   1.052
 1328SOL     OW 4882   1.412   3.115   6.037
 1328SOL    HW1 4883   1.473   3.115   5.958
 1328SOL    HW2 4884   1.465   3.125   6.121
 1329SOL     OW 4885   0.248   1.781   2.841
 1329SOL    HW1 4886   0.180   1.829   2.897
 1329SOL    HW2 4887   0.259   1.688   2.874
 1330SOL     OW 4888   0.252   2.210   0.859
 1330SOL    HW1 4889   0.332   2.249   0.812
 1330SOL    HW2 4890   0.272   2.203   0.957
 1331SOL     OW 4891   4.508   2.366   2.525
 1331SOL    HW1 4892   4.528   2.446   2.581
 1331SOL    HW2 4893   4.413   2.338   2.539
 1332SOL     OW 4894   2.210   6.721   0.327
 1332SOL    HW1 4895   2.128   6.667   0.346
 1332SOL    HW2 4896   2.244   6.761   0.412
 1333SOL     OW 4897   3.073   3.970   3.149
 1333SOL    HW1 4898   3.123   4.009   3.071
 1333SOL    HW2 4899   3.068   3.871   3.139
 1334SOL     OW 4900   6.793   2.180   3.504
 1334SOL    HW1 4901   6.867   2.173   3.571
 1334SOL    HW2 4902   6.774   2.277   3.486
 1335SOL     OW 4903   1.793   2.252   2.438
 1335SOL    HW1 4904   1.805   2.156   2.410
 1335SOL    HW2 4905   1.745   2.302   2.366
 1336SOL     OW 4906   4.157   1.842   5.602
 1336SOL    HW1 4907   4.142   1.908   5.529
 1336SOL    HW2 4908   4.253   1.814   5.603
 1337SOL     OW 4909   6.714   1.507   2.758
 1337SOL    HW1 4910   6.743   1.423   2.712
 1337SOL    HW2 4911   6.632   1.489   2.812
 1338SOL     OW 4912   6.400   4.458   4.307
 1338SOL    HW1 4913   6.427   4.554   4.315
 1338SOL    HW2 4914   6.461   4.401   4.362
 1339SOL     OW 4915   6.918   0.202   6.975
 1339SOL    HW1 4916   6.850   0.143   7.018
 1339SOL    HW2 4917   7.006   0.190   7.020
 1340SOL     OW 4918   5.323   1.955   2.861
 1340SOL    HW1 4919   5.244   1.899   2.837
 1340SOL    HW2 4920   5.404   1.920   2.815
 1341SOL     OW 4921   4.373   6.331   0.479
 1341SOL    HW1 4922   4.459   6.380   0.464
 1341SOL    HW2 4923   4.336   6.300   0.391
 1342SOL     OW 4924   3.299   5.186   6.418
 1342SOL    HW1 4925   3.392   5.199   6.452
 1342SOL    HW2 4926   3.267   5.095   6.445
 1343SOL     OW 4927   5.847   5.281   3.009
 1343SOL    HW1 4928   5.923   5.223   2.979
 1343SOL    HW2 4929   5.765   5.225   3.022
 1344SOL     OW 4930   0.957   6.317   4.366
 1344SOL    HW1 4931   1.001   6.309   4.277
 1344SOL    HW2 4932   0.859   6.300   4.357
 1345SOL     OW 4933   0.928   4.553   2.227
 1345SOL    HW1 4934   0.969   4.636   2.190
 1345SOL    HW2 4935   0.847   4.576   2.281
 1346SOL     OW 4936   1.815   5.354   6.263
 1346SOL    HW1 4937   1.768   5.276   6.305
 1346SOL    HW2 4938   1.888   5.385   6.323
 1347SOL     OW 4939   1.709   0.049   6.317
 1347SOL    HW1 4940   1.723   6.991   6.374
 1347SOL    HW2 4941   1.621   0.041   6.270
 1348SOL     OW 4942   0.390   6.218   5.141
 1348SOL    HW1 4943   0.371   6.308   5.101
 1348SOL    HW2 4944   0.461   6.172   5.088
 1349SOL     OW 4945   5.659   2.557   4.054
 1349SOL    HW1 4946   5.648   2.460   4.076
 1349SOL    HW2 4947   5.644   2.571   3.956
 1350SOL     OW 4948   4.262   4.813   6.847
 1350SOL    HW1 4949   4.281   4.905   6.811
 1350SOL    HW2 4950   4.164   4.799   6.854
 1351SOL     OW 4951   6.020   2.492   4.146
 1351SOL    HW1 4952   6.022   2.561   4.219
 1351SOL    HW2 4953   6.029   2.401   4.186
 1352SOL     OW 4954   6.848   6.696   2.795
 1352SOL    HW1 4955   6.879   6.638   2.719
 1352SOL    HW2 4956   6.859   6.648   2.881
 1353SOL     OW 4957   1.071   1.888   0.378
 1353SOL    HW1 4958   0.985   1.858   0.336
 1353SOL    HW2 4959   1.076   1.987   0.378
 1354SOL     OW 4960   0.052   3.307   2.491
 1354SOL    HW1 4961   0.070   3.258   2.406
 1354SOL    HW2 4962   6.987   3.278   2.529
 1355SOL     OW 4963   6.200   3.541   4.345
 1355SOL    HW1 4964   6.131   3.470   4.332
 1355SOL    HW2 4965   6.262   3.514   4.418
 1356SOL     OW 4966   3.511   2.872   2.072
 1356SOL    HW1 4967   3.536   2.777   2.050
 1356SOL    HW2 4968   3.448   2.872   2.150
 1357SOL     OW 4969   6.562   4.198   6.031
 1357SOL    HW1 4970   6.650   4.167   5.995
 1357SOL    HW2 4971   6.504   4.119   6.049
 1358SOL     OW 4972   5.875   0.121   0.499
 1358SOL    HW1 4973   5.895   0.196   0.436
 1358SOL    HW2 4974   5.960   0.086   0.538
 1359SOL     OW 4975   6.824   4.740   2.352
 1359SOL    HW1 4976   6.795   4.808   2.419
 1359SOL    HW2 4977   6.753   4.669   2.345
 1360SOL     OW 4978   3.392   3.549   0.123
 1360SOL    HW1 4979   3.489   3.575   0.126
 1360SOL    HW2 4980   3.337   3.629   0.100
 1361SOL     OW 4981   0.094   4.595   5.106
 1361SOL    HW1 4982   0.051   4.641   5.184
 1361SOL    HW2 4983   0.189   4.574   5.129
 1362SOL     OW 4984   3.810   3.695   2.635
 1362SOL    HW1 4985   3.832   3.660   2.726
 1362SOL    HW2 4986   3.738   3.639   2.594
 1363SOL     OW 4987   0.101   5.020   4.166
 1363SOL    HW1 4988   0.125   5.110   4.203
 1363SOL    HW2 4989   0.098   4.953   4.240
 1364SOL     OW 4990   4.477   3.999   0.328
 1364SOL    HW1 4991   4.528   4.085   0.337
 1364SOL    HW2 4992   4.533   3.925   0.364
 1365SOL     OW 4993   0.273   4.463   6.765
 1365SOL    HW1 4994   0.364   4.455   6.807
 1365SOL    HW2 4995   0.245   4.373   6.732
 1366SOL     OW 4996   1.822   6.714   5.822
 1366SOL    HW1 4997   1.901   6.754   5.868
 1366SOL    HW2 4998   1.851   6.668   5.739
 1367SOL     OW 4999   1.756   1.370   2.225
 1367SOL    HW1 5000   1.680   1.425   2.261
 1367SOL    HW2 5001   1.822   1.431   2.180
 1368SOL     OW 5002   5.535   6.805   5.186
 1368SOL    HW1 5003   5.521   6.707   5.178
 1368SOL    HW2 5004   5.614   6.823   5.245
 1369SOL     OW 5005   1.397   6.293   2.983
 1369SOL    HW1 5006   1.465   6.338   3.040
 1369SOL    HW2 5007   1.443   6.230   2.920
 1370SOL     OW 5008   3.489   1.036   1.710
 1370SOL    HW1 5009   3.435   0.972   1.765
 1370SOL    HW2 5010   3.475   1.017   1.613
 1371SOL     OW 5011   4.373   1.316   4.503
 1371SOL    HW1 5012   4.472   1.328   4.513
 1371SOL    HW2 5013   4.330   1.406   4.497
 1372SOL     OW 5014   1.705   2.793   1.027
 1372SOL    HW1 5015   1.717   2.812   1.125
 1372SOL    HW2 5016   1.686   2.695   1.015
 1373SOL     OW 5017   6.751   4.636   0.549
 1373SOL    HW1 5018   6.787   4.567   0.486
 1373SOL    HW2 5019   6.821   4.706   0.564
 1374SOL     OW 5020   4.373   2.276   0.709
 1374SOL    HW1 5021   4.352   2.183   0.737
 1374SOL    HW2 5022   4.292   2.334   0.719
 1375SOL     OW 5023   0.052   5.102   5.398
 1375SOL    HW1 5024   0.141   5.078   5.361
 1375SOL    HW2 5025   7.021   5.148   5.328
 1376SOL     OW 5026   4.616   2.564   3.722
 1376SOL    HW1 5027   4.522   2.592   3.700
 1376SOL    HW2 5028   4.651   2.505   3.650
 1377SOL     OW 5029   0.573   4.576   5.294
 1377SOL    HW1 5030   0.584   4.658   5.350
 1377SOL    HW2 5031   0.642   4.576   5.221
 1378SOL     OW 5032   1.386   2.435   6.071
 1378SOL    HW1 5033   1.465   2.374   6.069
 1378SOL    HW2 5034   1.306   2.387   6.034
 1379SOL     OW 5035   3.208   6.050   3.120
 1379SOL    HW1 5036   3.234   6.144   3.145
 1379SOL    HW2 5037   3.185   5.999   3.203
 1380SOL     OW 5038   6.471   6.763   2.143
 1380SOL    HW1 5039   6.556   6.740   2.190
 1380SOL    HW2 5040   6.490   6.821   2.064
 1381SOL     OW 5041   5.911   3.120   0.227
 1381SOL    HW1 5042   5.832   3.179   0.212
 1381SOL    HW2 5043   5.936   3.121   0.324
 1382SOL     OW 5044   6.078   5.494   5.650
 1382SOL    HW1 5045   6.039   5.532   5.734
 1382SOL    HW2 5046   6.129   5.565   5.602
 1383SOL     OW 5047   0.399   0.746   0.143
 1383SOL    HW1 5048   0.471   0.760   0.211
 1383SOL    HW2 5049   0.313   0.727   0.189
 1384SOL     OW 5050   3.655   1.075   3.406
 1384SOL    HW1 5051   3.679   1.124   3.323
 1384SOL    HW2 5052   3.662   1.137   3.485
 1385SOL     OW 5053   6.324   2.930   3.119
 1385SOL    HW1 5054   6.272   2.905   3.037
 1385SOL    HW2 5055   6.291   2.876   3.196
 1386SOL     OW 5056   2.004   3.005   4.483
 1386SOL    HW1 5057   1.996   2.988   4.385
 1386SOL    HW2 5058   1.950   2.938   4.533
 1387SOL     OW 5059   3.627   0.386   4.690
 1387SOL    HW1 5060   3.604   0.474   4.648
 1387SOL    HW2 5061   3.659   0.401   4.783
 1388SOL     OW 5062   6.501   0.660   4.175
 1388SOL    HW1 5063   6.505   0.667   4.274
 1388SOL    HW2 5064   6.469   0.568   4.149
 1389SOL     OW 5065   6.057   6.892   4.252
 1389SOL    HW1 5066   6.000   6.832   4.196
 1389SOL    HW2 5067   6.042   6.987   4.225
 1390SOL     OW 5068   4.747   1.555   1.444
 1390SOL    HW1 5069   4.655   1.520   1.424
 1390SOL    HW2 5070   4.740   1.651   1.473
 1391SOL     OW 5071   6.670   0.453   4.520
 1391SOL    HW1 5072   6.726   0.474   4.601
 1391SOL    HW2 5073   6.728   0.456   4.438
 1392SOL     OW 5074   4.299   5.948   6.370
 1392SOL    HW1 5075   4.368   5.901   6.314
 1392SOL    HW2 5076   4.238   6.000   6.311
 1393SOL     OW 5077   6.519   1.722   6.375
 1393SOL    HW1 5078   6.562   1.713   6.464
 1393SOL    HW2 5079   6.423   1.696   6.381
 1394SOL     OW 5080   4.142   6.642   3.724
 1394SOL    HW1 5081   4.205   6.655   3.648
 1394SOL    HW2 5082   4.159   6.710   3.795
 1395SOL     OW 5083   1.306   5.207   2.923
 1395SOL    HW1 5084   1.376   5.223   2.992
 1395SOL    HW2 5085   1.238   5.143   2.958
 1396SOL     OW 5086   2.059   1.390   4.611
 1396SOL    HW1 5087   2.013   1.377   4.523
 1396SOL    HW2 5088   2.153   1.418   4.596
 1397SOL     OW 5089   0.496   4.857   4.515
 1397SOL    HW1 5090   0.540   4.785   4.462
 1397SOL    HW2 5091   0.490   4.940   4.459
 1398SOL     OW 5092   0.872   1.659   0.635
 1398SOL    HW1 5093   0.944   1.701   0.580
 1398SOL    HW2 5094   0.874   1.697   0.728
 1399SOL     OW 5095   3.683   0.285   0.666
 1399SOL    HW1 5096   3.728   0.365   0.625
 1399SOL    HW2 5097   3.733   0.258   0.748
 1400SOL     OW 5098   6.166   0.729   4.687
 1400SOL    HW1 5099   6.080   0.712   4.639
 1400SOL    HW2 5100   6.232   0.658   4.665
 1401SOL     OW 5101   5.297   0.694   3.486
 1401SOL    HW1 5102   5.354   0.613   3.475
 1401SOL    HW2 5103   5.201   0.670   3.472
 1402SOL     OW 5104   5.753   3.752   1.494
 1402SOL    HW1 5105   5.661   3.760   1.455
 1402SOL    HW2 5106   5.790   3.661   1.475
 1403SOL     OW 5107   3.807   2.956   7.014
 1403SOL    HW1 5108   3.867   2.997   6.945
 1403SOL    HW2 5109   3.738   3.022   0.018
 1404SOL     OW 5110   4.329   6.970   0.883
 1404SOL    HW1 5111   4.421   7.001   0.905
 1404SOL    HW2 5112   4.277   0.022   0.844
 1405SOL     OW 5113   2.201   3.228   1.110
 1405SOL    HW1 5114   2.205   3.275   1.022
 1405SOL    HW2 5115   2.285   3.245   1.161
 1406SOL     OW 5116   2.421   3.163   0.859
 1406SOL    HW1 5117   2.346   3.229   0.863
 1406SOL    HW2 5118   2.444   3.135   0.952
 1407SOL     OW 5119   0.682   2.944   1.686
 1407SOL    HW1 5120   0.693   2.997   1.601
 1407SOL    HW2 5121   0.669   3.007   1.763
 1408SOL     OW 5122   5.587   5.961   6.410
 1408SOL    HW1 5123   5.523   6.031   6.379
 1408SOL    HW2 5124   5.597   5.966   6.509
 1409SOL     OW 5125   6.936   1.086   5.792
 1409SOL    HW1 5126   6.964   1.161   5.731
 1409SOL    HW2 5127   7.002   1.011   5.785
 1410SOL     OW 5128   3.025   2.559   5.640
 1410SOL    HW1 5129   3.018   2.480   5.579
 1410SOL    HW2 5130   2.960   2.548   5.715
 1411SOL     OW 5131   3.928   5.749   0.035
 1411SOL    HW1 5132   4.025   5.732   0.047
 1411SOL    HW2 5133   3.883   5.755   0.124
 1412SOL     OW 5134   1.460   2.470   0.908
 1412SOL    HW1 5135   1.438   2.423   0.994
 1412SOL    HW2 5136   1.447   2.408   0.831
 1413SOL     OW 5137   1.462   1.529   5.274
 1413SOL    HW1 5138   1.517   1.533   5.357
 1413SOL    HW2 5139   1.502   1.462   5.211
 1414SOL     OW 5140   0.765   3.518   1.984
 1414SOL    HW1 5141   0.677   3.499   2.028
 1414SOL    HW2 5142   0.839   3.490   2.045
 1415SOL     OW 5143   2.609   1.948   3.509
 1415SOL    HW1 5144   2.659   1.872   3.468
 1415SOL    HW2 5145   2.568   2.004   3.436
 1416SOL     OW 5146   4.189   0.059   5.845
 1416SOL    HW1 5147   4.174   0.157   5.831
 1416SOL    HW2 5148   4.103   0.016   5.874
 1417SOL     OW 5149   3.519   2.927   6.159
 1417SOL    HW1 5150   3.475   3.016   6.172
 1417SOL    HW2 5151   3.532   2.883   6.248
 1418SOL     OW 5152   3.649   3.779   0.012
 1418SOL    HW1 5153   3.700   3.852   6.990
 1418SOL    HW2 5154   3.551   3.793   7.021
 1419SOL     OW 5155   1.848   5.227   3.476
 1419SOL    HW1 5156   1.825   5.138   3.515
 1419SOL    HW2 5157   1.816   5.300   3.536
 1420SOL     OW 5158   3.658   5.317   3.177
 1420SOL    HW1 5159   3.736   5.275   3.132
 1420SOL    HW2 5160   3.665   5.417   3.171
 1421SOL     OW 5161   0.884   5.695   6.064
 1421SOL    HW1 5162   0.827   5.613   6.057
 1421SOL    HW2 5163   0.946   5.700   5.986
 1422SOL     OW 5164   2.715   3.522   5.987
 1422SOL    HW1 5165   2.621   3.553   5.977
 1422SOL    HW2 5166   2.777   3.601   5.987
 1423SOL     OW 5167   4.592   0.732   4.706
 1423SOL    HW1 5168   4.520   0.785   4.751
 1423SOL    HW2 5169   4.669   0.793   4.684
 1424SOL     OW 5170   5.797   3.177   6.608
 1424SOL    HW1 5171   5.888   3.209   6.581
 1424SOL    HW2 5172   5.787   3.081   6.583
 1425SOL     OW 5173   3.918   6.706   4.103
 1425SOL    HW1 5174   3.891   6.761   4.182
 1425SOL    HW2 5175   3.862   6.733   4.024
 1426SOL     OW 5176   2.565   1.959   0.170
 1426SOL    HW1 5177   2.610   2.048   0.177
 1426SOL    HW2 5178   2.600   1.898   0.242
 1427SOL     OW 5179   0.902   1.299   3.023
 1427SOL    HW1 5180   0.892   1.387   3.069
 1427SOL    HW2 5181   0.982   1.251   3.060
 1428SOL     OW 5182   6.649   3.385   3.613
 1428SOL    HW1 5183   6.612   3.444   3.542
 1428SOL    HW2 5184   6.659   3.438   3.698
 1429SOL     OW 5185   5.931   1.526   0.584
 1429SOL    HW1 5186   5.980   1.500   0.501
 1429SOL    HW2 5187   5.992   1.520   0.662
 1430SOL     OW 5188   2.142   3.314   3.225
 1430SOL    HW1 5189   2.149   3.226   3.178
 1430SOL    HW2 5190   2.217   3.324   3.290
 1431SOL     OW 5191   2.308   1.412   6.291
 1431SOL    HW1 5192   2.408   1.412   6.301
 1431SOL    HW2 5193   2.270   1.489   6.342
 1432SOL     OW 5194   2.904   1.182   1.111
 1432SOL    HW1 5195   2.994   1.144   1.136
 1432SOL    HW2 5196   2.889   1.267   1.161
 1433SOL     OW 5197   2.918   0.453   4.358
 1433SOL    HW1 5198   2.877   0.417   4.274
 1433SOL    HW2 5199   2.950   0.376   4.414
 1434SOL     OW 5200   6.928   2.902   6.969
 1434SOL    HW1 5201   6.874   2.939   0.022
 1434SOL    HW2 5202   6.928   2.968   6.894
 1435SOL     OW 5203   0.938   0.050   5.062
 1435SOL    HW1 5204   0.892   0.136   5.083
 1435SOL    HW2 5205   0.972   0.053   4.968
 1436SOL     OW 5206   5.697   2.045   0.766
 1436SOL    HW1 5207   5.692   1.995   0.852
 1436SOL    HW2 5208   5.619   2.108   0.759
 1437SOL     OW 5209   4.206   1.353   6.225
 1437SOL    HW1 5210   4.238   1.272   6.177
 1437SOL    HW2 5211   4.145   1.326   6.300
 1438SOL     OW 5212   2.568   0.932   1.594
 1438SOL    HW1 5213   2.490   0.919   1.655
 1438SOL    HW2 5214   2.535   0.943   1.500
 1439SOL     OW 5215   6.627   5.019   6.979
 1439SOL    HW1 5216   6.715   4.986   7.012
 1439SOL    HW2 5217   6.575   4.943   6.939
 1440SOL     OW 5218   3.260   3.134   3.589
 1440SOL    HW1 5219   3.230   3.101   3.678
 1440SOL    HW2 5220   3.324   3.210   3.601
 1441SOL     OW 5221   0.115   2.562   4.498
 1441SOL    HW1 5222   0.017   2.580   4.484
 1441SOL    HW2 5223   0.168   2.606   4.425
 1442SOL     OW 5224   5.002   4.125   0.141
 1442SOL    HW1 5225   4.969   4.158   0.229
 1442SOL    HW2 5226   4.983   4.193   0.071
 1443SOL     OW 5227   0.867   1.638   3.520
 1443SOL    HW1 5228   0.847   1.543   3.494
 1443SOL    HW2 5229   0.942   1.673   3.463
 1444SOL     OW 5230   4.424   0.689   3.672
 1444SOL    HW1 5231   4.358   0.695   3.747
 1444SOL    HW2 5232   4.517   0.686   3.710
 1445SOL     OW 5233   6.655   2.227   1.902
 1445SOL    HW1 5234   6.686   2.297   1.966
 1445SOL    HW2 5235   6.573   2.259   1.855
 1446SOL     OW 5236   4.046   2.205   1.496
 1446SOL    HW1 5237   4.004   2.224   1.585
 1446SOL    HW2 5238   4.095   2.287   1.465
 1447SOL     OW 5239   6.188   1.414   4.721
 1447SOL    HW1 5240   6.096   1.428   4.758
 1447SOL    HW2 5241   6.229   1.333   4.763
 1448SOL     OW 5242   5.472   1.203   6.249
 1448SOL    HW1 5243   5.439   1.160   6.165
 1448SOL    HW2 5244   5.408   1.275   6.276
 1449SOL     OW 5245   5.076   5.917   1.011
 1449SOL    HW1 5246   5.005   5.908   1.080
 1449SOL    HW2 5247   5.143   5.844   1.023
 1450SOL     OW 5248   5.498   3.005   3.106
 1450SOL    HW1 5249   5.561   3.026   3.031
 1450SOL    HW2 5250   5.535   2.932   3.162
 1451SOL     OW 5251   1.853   6.590   2.934
 1451SOL    HW1 5252   1.754   6.573   2.936
 1451SOL    HW2 5253   1.874   6.655   2.861
 1452SOL     OW 5254   4.955   0.660   5.288
 1452SOL    HW1 5255   4.899   0.731   5.331
 1452SOL    HW2 5256   5.043   0.653   5.336
 1453SOL     OW 5257   5.121   4.007   4.787
 1453SOL    HW1 5258   5.077   4.036   4.702
 1453SOL    HW2 5259   5.220   4.005   4.774
 1454SOL     OW 5260   4.999   2.926   2.062
 1454SOL    HW1 5261   5.017   2.842   2.112
 1454SOL    HW2 5262   4.901   2.938   2.050
 1455SOL     OW 5263   1.071   1.087   2.060
 1455SOL    HW1 5264   1.022   1.082   1.972
 1455SOL    HW2 5265   1.098   0.994   2.087
 1456SOL     OW 5266   7.017   6.594   4.234
 1456SOL    HW1 5267   0.051   6.657   4.286
 1456SOL    HW2 5268   0.047   6.513   4.210
 1457SOL     OW 5269   1.957   0.494   4.091
 1457SOL    HW1 5270   2.001   0.431   4.155
 1457SOL    HW2 5271   1.864   0.513   4.122
 1458SOL     OW 5272   5.346   6.366   6.351
 1458SOL    HW1 5273   5.252   6.382   6.380
 1458SOL    HW2 5274   5.365   6.268   6.348
 1459SOL     OW 5275   3.136   6.087   6.997
 1459SOL    HW1 5276   3.070   6.113   6.926
 1459SOL    HW2 5277   3.148   5.988   6.997
 1460SOL     OW 5278   1.559   6.977   0.268
 1460SOL    HW1 5279   1.600   6.924   0.342
 1460SOL    HW2 5280   1.473   7.017   0.299
 1461SOL     OW 5281   5.577   4.512   2.205
 1461SOL    HW1 5282   5.584   4.553   2.296
 1461SOL    HW2 5283   5.606   4.417   2.209
 1462SOL     OW 5284   6.010   0.633   0.359
 1462SOL    HW1 5285   5.935   0.570   0.341
 1462SOL    HW2 5286   6.007   0.664   0.454
 1463SOL     OW 5287   1.093   0.662   5.134
 1463SOL    HW1 5288   1.115   0.682   5.229
 1463SOL    HW2 5289   1.153   0.715   5.074
 1464SOL     OW 5290   6.993   6.435   0.700
 1464SOL    HW1 5291   0.024   6.468   0.624
 1464SOL    HW2 5292   0.023   6.438   0.784
 1465SOL     OW 5293   0.569   0.355   4.694
 1465SOL    HW1 5294   0.661   0.328   4.666
 1465SOL    HW2 5295   0.513   0.274   4.707
 1466SOL     OW 5296   5.919   5.576   3.288
 1466SOL    HW1 5297   5.931   5.566   3.387
 1466SOL    HW2 5298   5.962   5.661   3.258
 1467SOL     OW 5299   0.832   1.153   3.870
 1467SOL    HW1 5300   0.841   1.230   3.933
 1467SOL    HW2 5301   0.766   1.176   3.798
 1468SOL     OW 5302   5.130   5.746   3.678
 1468SOL    HW1 5303   5.205   5.789   3.728
 1468SOL    HW2 5304   5.166   5.674   3.619
 1469SOL     OW 5305   0.736   0.873   2.461
 1469SOL    HW1 5306   0.773   0.864   2.554
 1469SOL    HW2 5307   0.703   0.784   2.429
 1470SOL     OW 5308   1.027   0.935   2.965
 1470SOL    HW1 5309   1.098   0.954   3.033
 1470SOL    HW2 5310   0.937   0.943   3.007
 1471SOL     OW 5311   0.261   0.328   6.876
 1471SOL    HW1 5312   0.243   0.270   6.955
 1471SOL    HW2 5313   0.175   0.359   6.836
 1472SOL     OW 5314   4.959   0.733   6.081
 1472SOL    HW1 5315   4.933   0.780   6.165
 1472SOL    HW2 5316   5.056   0.748   6.063
 1473SOL     OW 5317   5.936   4.800   3.119
 1473SOL    HW1 5318   5.911   4.713   3.076
 1473SOL    HW2 5319   6.004   4.782   3.191
 1474SOL     OW 5320   5.830   5.501   4.230
 1474SOL    HW1 5321   5.804   5.591   4.196
 1474SOL    HW2 5322   5.810   5.496   4.328
 1475SOL     OW 5323   6.759   0.991   2.210
 1475SOL    HW1 5324   6.766   0.913   2.272
 1475SOL    HW2 5325   6.756   0.958   2.115
 1476SOL     OW 5326   0.863   1.716   2.390
 1476SOL    HW1 5327   0.784   1.777   2.398
 1476SOL    HW2 5328   0.946   1.766   2.411
 1477SOL     OW 5329   2.936   6.623   5.197
 1477SOL    HW1 5330   2.990   6.610   5.113
 1477SOL    HW2 5331   2.996   6.653   5.271
 1478SOL     OW 5332   5.723   4.967   1.112
 1478SOL    HW1 5333   5.795   4.911   1.071
 1478SOL    HW2 5334   5.640   4.912   1.122
 1479SOL     OW 5335   2.028   4.451   0.334
 1479SOL    HW1 5336   1.986   4.364   0.361
 1479SOL    HW2 5337   1.963   4.525   0.348
 1480SOL     OW 5338   2.249   1.550   0.413
 1480SOL    HW1 5339   2.206   1.463   0.391
 1480SOL    HW2 5340   2.289   1.546   0.505
 1481SOL     OW 5341   6.104   2.609   5.984
 1481SOL    HW1 5342   6.188   2.561   5.960
 1481SOL    HW2 5343   6.030   2.579   5.924
 1482SOL     OW 5344   5.675   0.775   6.989
 1482SOL    HW1 5345   5.587   0.742   0.001
 1482SOL    HW2 5346   5.681   0.874   7.004
 1483SOL     OW 5347   6.342   2.505   0.285
 1483SOL    HW1 5348   6.369   2.508   0.189
 1483SOL    HW2 5349   6.299   2.592   0.310
 1484SOL     OW 5350   0.036   4.932   2.341
 1484SOL    HW1 5351   6.968   4.966   2.366
 1484SOL    HW2 5352   0.069   4.871   2.412
 1485SOL     OW 5353   5.586   2.624   3.799
 1485SOL    HW1 5354   5.507   2.575   3.762
 1485SOL    HW2 5355   5.563   2.720   3.811
 1486SOL     OW 5356   4.784   2.082   3.013
 1486SOL    HW1 5357   4.729   2.141   3.072
 1486SOL    HW2 5358   4.777   1.988   3.046
 1487SOL     OW 5359   5.824   1.521   5.737
 1487SOL    HW1 5360   5.806   1.612   5.700
 1487SOL    HW2 5361   5.854   1.529   5.832
 1488SOL     OW 5362   4.481   1.201   3.190
 1488SOL    HW1 5363   4.391   1.229   3.156
 1488SOL    HW2 5364   4.474   1.177   3.287
 1489SOL     OW 5365   3.763   4.909   4.937
 1489SOL    HW1 5366   3.674   4.926   4.978
 1489SOL    HW2 5367   3.769   4.957   4.849
 1490SOL     OW 5368   1.112   2.160   0.396
 1490SOL    HW1 5369   1.154   2.173   0.306
 1490SOL    HW2 5370   1.064   2.243   0.423
 1491SOL     OW 5371   6.988   3.380   3.841
 1491SOL    HW1 5372   6.989   3.436   3.758
 1491SOL    HW2 5373   6.949   3.290   3.820
 1492SOL     OW 5374   5.221   1.767   1.542
 1492SOL    HW1 5375   5.135   1.717   1.550
 1492SOL    HW2 5376   5.226   1.837   1.614
 1493SOL     OW 5377   4.598   0.246   5.047
 1493SOL    HW1 5378   4.554   0.221   5.133
 1493SOL    HW2 5379   4.578   0.341   5.025
 1494SOL     OW 5380   4.045   2.257   5.954
 1494SOL    HW1 5381   4.068   2.179   6.013
 1494SOL    HW2 5382   3.971   2.309   5.995
 1495SOL     OW 5383   0.906   3.094   2.954
 1495SOL    HW1 5384   0.950   3.133   3.036
 1495SOL    HW2 5385   0.883   3.168   2.891
 1496SOL     OW 5386   6.806   0.267   2.117
 1496SOL    HW1 5387   6.800   0.343   2.182
 1496SOL    HW2 5388   6.722   0.213   2.123
 1497SOL     OW 5389   6.433   5.065   4.447
 1497SOL    HW1 5390   6.351   5.115   4.419
 1497SOL    HW2 5391   6.510   5.128   4.453
 1498SOL     OW 5392   1.882   4.558   6.721
 1498SOL    HW1 5393   1.892   4.484   6.655
 1498SOL    HW2 5394   1.972   4.589   6.750
 1499SOL     OW 5395   1.187   4.049   4.966
 1499SOL    HW1 5396   1.134   3.971   4.999
 1499SOL    HW2 5397   1.164   4.130   5.021
 1500SOL     OW 5398   5.215   6.788   0.124
 1500SOL    HW1 5399   5.295   6.752   0.077
 1500SOL    HW2 5400   5.152   6.827   0.057
 1501SOL     OW 5401   4.217   0.341   6.433
 1501SOL    HW1 5402   4.237   0.243   6.431
 1501SOL    HW2 5403   4.254   0.384   6.350
 1502SOL     OW 5404   6.309   6.662   0.037
 1502SOL    HW1 5405   6.330   6.651   0.134
 1502SOL    HW2 5406   6.355   6.590   7.008
 1503SOL     OW 5407   3.145   3.109   6.925
 1503SOL    HW1 5408   3.175   3.041   6.991
 1503SOL    HW2 5409   3.045   3.112   6.924
 1504SOL     OW 5410   3.657   6.651   4.872
 1504SOL    HW1 5411   3.718   6.587   4.826
 1504SOL    HW2 5412   3.599   6.696   4.804
 1505SOL     OW 5413   5.635   6.453   5.855
 1505SOL    HW1 5414   5.577   6.387   5.807
 1505SOL    HW2 5415   5.592   6.543   5.853
 1506SOL     OW 5416   0.879   5.775   3.893
 1506SOL    HW1 5417   0.854   5.704   3.959
 1506SOL    HW2 5418   0.880   5.736   3.800
 1507SOL     OW 5419   1.424   1.295   5.494
 1507SOL    HW1 5420   1.383   1.352   5.564
 1507SOL    HW2 5421   1.363   1.289   5.415
 1508SOL     OW 5422   4.400   0.159   0.573
 1508SOL    HW1 5423   4.368   0.243   0.617
 1508SOL    HW2 5424   4.325   0.118   0.521
 1509SOL     OW 5425   4.600   2.927   6.705
 1509SOL    HW1 5426   4.590   2.955   6.800
 1509SOL    HW2 5427   4.563   2.834   6.694
 1510SOL     OW 5428   6.994   1.868   4.089
 1510SOL    HW1 5429   0.060   1.857   4.047
 1510SOL    HW2 5430   6.988   1.959   4.131
 1511SOL     OW 5431   2.932   1.948   0.456
 1511SOL    HW1 5432   2.940   1.956   0.555
 1511SOL    HW2 5433   2.960   2.034   0.414
 1512SOL     OW 5434   0.354   0.786   1.869
 1512SOL    HW1 5435   0.338   0.882   1.844
 1512SOL    HW2 5436   0.355   0.730   1.786
 1513SOL     OW 5437   3.464   0.155   4.085
 1513SOL    HW1 5438   3.395   0.183   4.018
 1513SOL    HW2 5439   3.477   0.056   4.079
 1514SOL     OW 5440   5.651   1.804   4.723
 1514SOL    HW1 5441   5.738   1.754   4.720
 1514SOL    HW2 5442   5.575   1.739   4.712
 1515SOL     OW 5443   0.379   4.410   5.194
 1515SOL    HW1 5444   0.381   4.379   5.098
 1515SOL    HW2 5445   0.438   4.490   5.204
 1516SOL     OW 5446   0.440   1.725   0.617
 1516SOL    HW1 5447   0.438   1.640   0.669
 1516SOL    HW2 5448   0.480   1.797   0.673
 1517SOL     OW 5449   4.666   6.210   3.628
 1517SOL    HW1 5450   4.628   6.169   3.545
 1517SOL    HW2 5451   4.607   6.190   3.706
 1518SOL     OW 5452   6.752   4.109   1.104
 1518SOL    HW1 5453   6.724   4.072   1.192
 1518SOL    HW2 5454   6.851   4.102   1.094
 1519SOL     OW 5455   6.260   4.629   0.945
 1519SOL    HW1 5456   6.179   4.602   0.996
 1519SOL    HW2 5457   6.323   4.678   1.006
 1520SOL     OW 5458   2.145   3.385   2.605
 1520SOL    HW1 5459   2.179   3.300   2.564
 1520SOL    HW2 5460   2.136   3.374   2.704
 1521SOL     OW 5461   1.677   3.273   6.757
 1521SOL    HW1 5462   1.707   3.189   6.802
 1521SOL    HW2 5463   1.746   3.344   6.771
 1522SOL     OW 5464   5.867   1.868   6.435
 1522SOL    HW1 5465   5.777   1.825   6.433
 1522SOL    HW2 5466   5.857   1.965   6.458
 1523SOL     OW 5467   6.274   2.675   1.031
 1523SOL    HW1 5468   6.305   2.708   1.121
 1523SOL    HW2 5469   6.347   2.621   0.989
 1524SOL     OW 5470   0.396   0.955   1.457
 1524SOL    HW1 5471   0.317   0.894   1.455
 1524SOL    HW2 5472   0.389   1.017   1.535
 1525SOL     OW 5473   3.813   1.906   5.870
 1525SOL    HW1 5474   3.799   1.932   5.774
 1525SOL    HW2 5475   3.903   1.864   5.881
 1526SOL     OW 5476   0.313   2.002   1.592
 1526SOL    HW1 5477   0.316   2.023   1.495
 1526SOL    HW2 5478   0.349   2.079   1.645
 1527SOL     OW 5479   3.338   1.962   5.124
 1527SOL    HW1 5480   3.335   2.040   5.187
 1527SOL    HW2 5481   3.340   1.997   5.030
 1528SOL     OW 5482   4.289   6.800   3.495
 1528SOL    HW1 5483   4.267   6.884   3.545
 1528SOL    HW2 5484   4.245   6.802   3.405
 1529SOL     OW 5485   3.734   0.410   6.349
 1529SOL    HW1 5486   3.756   0.434   6.254
 1529SOL    HW2 5487   3.811   0.432   6.408
 1530SOL     OW 5488   2.718   6.749   2.230
 1530SOL    HW1 5489   2.769   6.709   2.306
 1530SOL    HW2 5490   2.758   6.838   2.206
 1531SOL     OW 5491   6.763   6.946   4.132
 1531SOL    HW1 5492   6.775   6.870   4.196
 1531SOL    HW2 5493   6.718   6.912   4.049
 1532SOL     OW 5494   3.325   2.211   5.297
 1532SOL    HW1 5495   3.241   2.262   5.279
 1532SOL    HW2 5496   3.403   2.273   5.292
 1533SOL     OW 5497   6.216   3.636   6.877
 1533SOL    HW1 5498   6.122   3.626   6.844
 1533SOL    HW2 5499   6.232   3.572   6.952
 1534SOL     OW 5500   1.005   6.036   0.785
 1534SOL    HW1 5501   1.058   5.968   0.734
 1534SOL    HW2 5502   0.918   6.053   0.738
 1535SOL     OW 5503   5.244   4.617   4.160
 1535SOL    HW1 5504   5.336   4.615   4.199
 1535SOL    HW2 5505   5.183   4.563   4.218
 1536SOL     OW 5506   2.214   5.885   4.316
 1536SOL    HW1 5507   2.200   5.954   4.387
 1536SOL    HW2 5508   2.194   5.795   4.354
 1537SOL     OW 5509   2.027   5.416   5.101
 1537SOL    HW1 5510   1.938   5.463   5.101
 1537SOL    HW2 5511   2.077   5.438   5.185
 1538SOL     OW 5512   2.715   4.748   0.130
 1538SOL    HW1 5513   2.773   4.824   0.157
 1538SOL    HW2 5514   2.771   4.667   0.115
 1539SOL     OW 5515   3.544   4.713   1.569
 1539SOL    HW1 5516   3.455   4.691   1.531
 1539SOL    HW2 5517   3.556   4.665   1.656
 1540SOL     OW 5518   0.742   0.218   5.229
 1540SOL    HW1 5519   0.680   0.196   5.154
 1540SOL    HW2 5520   0.770   0.314   5.223
 1541SOL     OW 5521   4.458   2.727   1.145
 1541SOL    HW1 5522   4.450   2.820   1.111
 1541SOL    HW2 5523   4.525   2.725   1.220
 1542SOL     OW 5524   0.551   6.281   1.614
 1542SOL    HW1 5525   0.595   6.226   1.686
 1542SOL    HW2 5526   0.592   6.372   1.612
 1543SOL     OW 5527   3.480   3.799   4.031
 1543SOL    HW1 5528   3.465   3.894   4.003
 1543SOL    HW2 5529   3.484   3.741   3.949
 1544SOL     OW 5530   3.529   4.171   2.558
 1544SOL    HW1 5531   3.610   4.113   2.557
 1544SOL    HW2 5532   3.515   4.207   2.650
 1545SOL     OW 5533   6.407   0.544   4.663
 1545SOL    HW1 5534   6.387   0.509   4.572
 1545SOL    HW2 5535   6.498   0.513   4.691
 1546SOL     OW 5536   6.479   6.000   5.791
 1546SOL    HW1 5537   6.501   6.067   5.720
 1546SOL    HW2 5538   6.518   5.911   5.765
 1547SOL     OW 5539   3.141   5.181   2.924
 1547SOL    HW1 5540   3.109   5.180   3.019
 1547SOL    HW2 5541   3.168   5.088   2.897
 1548SOL     OW 5542   4.668   4.392   4.971
 1548SOL    HW1 5543   4.602   4.455   4.931
 1548SOL    HW2 5544   4.702   4.329   4.901
 1549SOL     OW 5545   6.357   2.801   1.283
 1549SOL    HW1 5546   6.410   2.720   1.310
 1549SOL    HW2 5547   6.411   2.883   1.298
 1550SOL     OW 5548   2.018   6.074   4.922
 1550SOL    HW1 5549   2.117   6.079   4.929
 1550SOL    HW2 5550   1.988   5.979   4.933
 1551SOL     OW 5551   1.496   3.142   0.777
 1551SOL    HW1 5552   1.586   3.101   0.791
 1551SOL    HW2 5553   1.495   3.233   0.819
 1552SOL     OW 5554   1.114   0.926   1.351
 1552SOL    HW1 5555   1.083   1.021   1.348
 1552SOL    HW2 5556   1.157   0.901   1.264
 1553SOL     OW 5557   5.719   1.922   6.769
 1553SOL    HW1 5558   5.698   1.824   6.762
 1553SOL    HW2 5559   5.794   1.935   6.833
 1554SOL     OW 5560   4.463   1.862   2.387
 1554SOL    HW1 5561   4.562   1.852   2.387
 1554SOL    HW2 5562   4.429   1.863   2.481
 1555SOL     OW 5563   4.243   1.513   4.917
 1555SOL    HW1 5564   4.342   1.522   4.909
 1555SOL    HW2 5565   4.209   1.577   4.987
 1556SOL     OW 5566   3.818   0.291   0.904
 1556SOL    HW1 5567   3.846   0.225   0.974
 1556SOL    HW2 5568   3.888   0.362   0.896
 1557SOL     OW 5569   1.718   1.865   1.311
 1557SOL    HW1 5570   1.802   1.861   1.257
 1557SOL    HW2 5571   1.639   1.874   1.251
 1558SOL     OW 5572   6.073   3.232   5.389
 1558SOL    HW1 5573   6.077   3.216   5.290
 1558SOL    HW2 5574   5.991   3.284   5.411
 1559SOL     OW 5575   1.238   4.120   2.847
 1559SOL    HW1 5576   1.161   4.180   2.869
 1559SOL    HW2 5577   1.276   4.145   2.758
 1560SOL     OW 5578   3.927   1.362   1.164
 1560SOL    HW1 5579   4.025   1.367   1.145
 1560SOL    HW2 5580   3.912   1.334   1.258
 1561SOL     OW 5581   5.283   6.327   2.241
 1561SOL    HW1 5582   5.372   6.363   2.268
 1561SOL    HW2 5583   5.224   6.322   2.322
 1562SOL     OW 5584   2.808   0.191   1.940
 1562SOL    HW1 5585   2.896   0.239   1.932
 1562SOL    HW2 5586   2.742   0.230   1.876
 1563SOL     OW 5587   3.295   2.132   4.648
 1563SOL    HW1 5588   3.365   2.108   4.581
 1563SOL    HW2 5589   3.205   2.131   4.604
 1564SOL     OW 5590   0.947   2.025   2.221
 1564SOL    HW1 5591   1.029   2.073   2.192
 1564SOL    HW2 5592   0.909   1.974   2.143
 1565SOL     OW 5593   3.700   0.028   3.864
 1565SOL    HW1 5594   3.798   0.037   3.847
 1565SOL    HW2 5595   3.656   0.117   3.852
 1566SOL     OW 5596   4.769   4.430   3.526
 1566SOL    HW1 5597   4.673   4.452   3.508
 1566SOL    HW2 5598   4.798   4.356   3.464
 1567SOL     OW 5599   5.105   5.509   5.529
 1567SOL    HW1 5600   5.166   5.431   5.546
 1567SOL    HW2 5601   5.096   5.524   5.431
 1568SOL     OW 5602   2.206   6.564   2.672
 1568SOL    HW1 5603   2.300   6.552   2.703
 1568SOL    HW2 5604   2.181   6.661   2.681
 1569SOL     OW 5605   2.694   0.173   2.835
 1569SOL    HW1 5606   2.607   0.199   2.875
 1569SOL    HW2 5607   2.749   0.123   2.902
 1570SOL     OW 5608   3.357   0.271   0.118
 1570SOL    HW1 5609   3.435   0.331   0.140
 1570SOL    HW2 5610   3.300   0.316   0.049
 1571SOL     OW 5611   1.246   2.680   3.791
 1571SOL    HW1 5612   1.251   2.616   3.869
 1571SOL    HW2 5613   1.319   2.658   3.726
 1572SOL     OW 5614   1.828   5.179   1.627
 1572SOL    HW1 5615   1.830   5.202   1.530
 1572SOL    HW2 5616   1.920   5.186   1.666
 1573SOL     OW 5617   4.377   5.051   1.446
 1573SOL    HW1 5618   4.363   4.966   1.394
 1573SOL    HW2 5619   4.473   5.058   1.471
 1574SOL     OW 5620   6.334   3.421   2.129
 1574SOL    HW1 5621   6.411   3.478   2.158
 1574SOL    HW2 5622   6.364   3.361   2.054
 1575SOL     OW 5623   0.665   1.256   0.752
 1575SOL    HW1 5624   0.661   1.156   0.751
 1575SOL    HW2 5625   0.760   1.286   0.767
 1576SOL     OW 5626   0.546   6.112   1.875
 1576SOL    HW1 5627   0.624   6.050   1.866
 1576SOL    HW2 5628   0.464   6.059   1.896
 1577SOL     OW 5629   4.027   6.979   6.291
 1577SOL    HW1 5630   4.040   6.880   6.286
 1577SOL    HW2 5631   3.987   7.011   6.206
 1578SOL     OW 5632   4.657   1.118   0.296
 1578SOL    HW1 5633   4.664   1.106   0.197
 1578SOL    HW2 5634   4.613   1.037   0.336
 1579SOL     OW 5635   2.100   2.253   1.654
 1579SOL    HW1 5636   2.057   2.163   1.663
 1579SOL    HW2 5637   2.192   2.243   1.618
 1580SOL     OW 5638   3.244   4.060   2.917
 1580SOL    HW1 5639   3.276   3.975   2.959
 1580SOL    HW2 5640   3.322   4.118   2.895
 1581SOL     OW 5641   0.358   4.218   6.176
 1581SOL    HW1 5642   0.433   4.257   6.229
 1581SOL    HW2 5643   0.278   4.207   6.235
 1582SOL     OW 5644   4.690   6.560   5.946
 1582SOL    HW1 5645   4.729   6.652   5.934
 1582SOL    HW2 5646   4.748   6.507   6.007
 1583SOL     OW 5647   1.043   5.936   5.196
 1583SOL    HW1 5648   1.013   5.887   5.277
 1583SOL    HW2 5649   0.985   5.912   5.118
 1584SOL     OW 5650   0.532   5.299   6.625
 1584SOL    HW1 5651   0.618   5.278   6.579
 1584SOL    HW2 5652   0.516   5.397   6.623
 1585SOL     OW 5653   3.846   0.332   2.916
 1585SOL    HW1 5654   3.834   0.349   3.014
 1585SOL    HW2 5655   3.784   0.261   2.886
 1586SOL     OW 5656   2.949   5.756   4.738
 1586SOL    HW1 5657   2.969   5.692   4.664
 1586SOL    HW2 5658   2.925   5.704   4.820
 1587SOL     OW 5659   1.706   5.901   6.205
 1587SOL    HW1 5660   1.659   5.813   6.202
 1587SOL    HW2 5661   1.757   5.908   6.291
 1588SOL     OW 5662   6.093   0.260   2.002
 1588SOL    HW1 5663   6.131   0.249   2.094
 1588SOL    HW2 5664   5.994   0.276   2.009
 1589SOL     OW 5665   6.625   4.086   2.991
 1589SOL    HW1 5666   6.594   4.158   2.929
 1589SOL    HW2 5667   6.546   4.047   3.039
 1590SOL     OW 5668   6.410   2.186   3.605
 1590SOL    HW1 5669   6.328   2.189   3.662
 1590SOL    HW2 5670   6.465   2.268   3.621
 1591SOL     OW 5671   0.370   5.665   1.241
 1591SOL    HW1 5672   0.290   5.722   1.255
 1591SOL    HW2 5673   0.341   5.570   1.224
 1592SOL     OW 5674   1.393   4.308   6.930
 1592SOL    HW1 5675   1.402   4.247   7.008
 1592SOL    HW2 5676   1.386   4.403   6.962
 1593SOL     OW 5677   0.831   0.083   6.757
 1593SOL    HW1 5678   0.928   0.072   6.737
 1593SOL    HW2 5679   0.793   7.020   6.789
 1594SOL     OW 5680   6.739   0.592   1.984
 1594SOL    HW1 5681   6.791   0.531   1.924
 1594SOL    HW2 5682   6.788   0.604   2.070
 1595SOL     OW 5683   1.340   4.127   6.705
 1595SOL    HW1 5684   1.271   4.119   6.777
 1595SOL    HW2 5685   1.424   4.083   6.734
 1596SOL     OW 5686   5.696   4.271   2.207
 1596SOL    HW1 5687   5.752   4.273   2.124
 1596SOL    HW2 5688   5.752   4.237   2.284
 1597SOL     OW 5689   3.470   5.987   1.056
 1597SOL    HW1 5690   3.505   6.025   0.971
 1597SOL    HW2 5691   3.507   5.895   1.069
 1598SOL     OW 5692   1.664   5.884   0.208
 1598SOL    HW1 5693   1.740   5.945   0.184
 1598SOL    HW2 5694   1.582   5.912   0.159
 1599SOL     OW 5695   3.693   5.401   4.165
 1599SOL    HW1 5696   3.744   5.353   4.236
 1599SOL    HW2 5697   3.702   5.500   4.179
 1600SOL     OW 5698   2.962   0.411   2.826
 1600SOL    HW1 5699   3.056   0.396   2.797
 1600SOL    HW2 5700   2.907   0.441   2.748
 1601SOL     OW 5701   6.499   6.796   4.199
 1601SOL    HW1 5702   6.535   6.796   4.292
 1601SOL    HW2 5703   6.570   6.767   4.135
 1602SOL     OW 5704   4.455   5.233   3.991
 1602SOL    HW1 5705   4.465   5.234   4.091
 1602SOL    HW2 5706   4.499   5.152   3.953
 1603SOL     OW 5707   3.183   6.179   4.275
 1603SOL    HW1 5708   3.105   6.124   4.246
 1603SOL    HW2 5709   3.160   6.230   4.358
 1604SOL     OW 5710   3.966   4.854   2.112
 1604SOL    HW1 5711   3.994   4.787   2.043
 1604SOL    HW2 5712   4.036   4.859   2.183
 1605SOL     OW 5713   4.726   5.142   1.978
 1605SOL    HW1 5714   4.787   5.175   1.905
 1605SOL    HW2 5715   4.691   5.220   2.030
 1606SOL     OW 5716   4.686   6.336   3.947
 1606SOL    HW1 5717   4.706   6.239   3.965
 1606SOL    HW2 5718   4.771   6.388   3.948
 1607SOL     OW 5719   4.488   6.924   2.986
 1607SOL    HW1 5720   4.535   6.836   2.987
 1607SOL    HW2 5721   4.444   6.940   3.075
 1608SOL     OW 5722   6.737   0.783   2.866
 1608SOL    HW1 5723   6.786   0.835   2.797
 1608SOL    HW2 5724   6.783   0.791   2.955
 1609SOL     OW 5725   3.271   6.563   0.789
 1609SOL    HW1 5726   3.197   6.630   0.797
 1609SOL    HW2 5727   3.292   6.548   0.693
 1610SOL     OW 5728   3.824   6.393   6.805
 1610SOL    HW1 5729   3.726   6.375   6.796
 1610SOL    HW2 5730   3.872   6.352   6.728
 1611SOL     OW 5731   1.043   4.172   1.619
 1611SOL    HW1 5732   1.028   4.225   1.535
 1611SOL    HW2 5733   1.039   4.074   1.598
 1612SOL     OW 5734   2.832   5.857   0.881
 1612SOL    HW1 5735   2.899   5.842   0.809
 1612SOL    HW2 5736   2.864   5.816   0.966
 1613SOL     OW 5737   0.760   5.610   2.269
 1613SOL    HW1 5738   0.736   5.610   2.366
 1613SOL    HW2 5739   0.751   5.702   2.233
 1614SOL     OW 5740   5.476   2.739   6.733
 1614SOL    HW1 5741   5.432   2.748   6.822
 1614SOL    HW2 5742   5.567   2.698   6.745
 1615SOL     OW 5743   0.310   5.531   6.499
 1615SOL    HW1 5744   0.352   5.620   6.518
 1615SOL    HW2 5745   0.332   5.504   6.405
 1616SOL     OW 5746   3.190   0.830   5.520
 1616SOL    HW1 5747   3.285   0.809   5.500
 1616SOL    HW2 5748   3.132   0.752   5.497
 1617SOL     OW 5749   4.750   6.692   3.701
 1617SOL    HW1 5750   4.826   6.636   3.733
 1617SOL    HW2 5751   4.763   6.786   3.732
 1618SOL     OW 5752   2.278   6.041   2.839
 1618SOL    HW1 5753   2.318   5.989   2.915
 1618SOL    HW2 5754   2.273   6.138   2.864
 1619SOL     OW 5755   1.119   5.110   6.913
 1619SOL    HW1 5756   1.135   5.089   7.010
 1619SOL    HW2 5757   1.027   5.079   6.887
 1620SOL     OW 5758   3.034   5.089   0.744
 1620SOL    HW1 5759   3.076   5.002   0.769
 1620SOL    HW2 5760   3.085   5.164   0.785
 1621SOL     OW 5761   5.672   6.352   1.140
 1621SOL    HW1 5762   5.593   6.302   1.176
 1621SOL    HW2 5763   5.698   6.313   1.052
 1622SOL     OW 5764   0.949   3.936   5.497
 1622SOL    HW1 5765   0.909   3.955   5.587
 1622SOL    HW2 5766   0.895   3.982   5.427
 1623SOL     OW 5767   0.817   2.343   5.135
 1623SOL    HW1 5768   0.881   2.361   5.209
 1623SOL    HW2 5769   0.860   2.363   5.047
 1624SOL     OW 5770   3.647   1.323   0.494
 1624SOL    HW1 5771   3.687   1.414   0.490
 1624SOL    HW2 5772   3.711   1.259   0.536
 1625SOL     OW 5773   2.125   4.726   0.776
 1625SOL    HW1 5774   2.176   4.811   0.761
 1625SOL    HW2 5775   2.046   4.723   0.714
 1626SOL     OW 5776   3.151   1.781   1.540
 1626SOL    HW1 5777   3.105   1.869   1.532
 1626SOL    HW2 5778   3.250   1.795   1.542
 1627SOL     OW 5779   4.776   2.158   4.373
 1627SOL    HW1 5780   4.744   2.198   4.287
 1627SOL    HW2 5781   4.758   2.220   4.448
 1628SOL     OW 5782   4.704   5.548   6.638
 1628SOL    HW1 5783   4.705   5.475   6.707
 1628SOL    HW2 5784   4.771   5.618   6.663
 1629SOL     OW 5785   3.021   2.085   2.956
 1629SOL    HW1 5786   2.957   2.009   2.952
 1629SOL    HW2 5787   2.994   2.149   3.028
 1630SOL     OW 5788   0.158   4.324   0.258
 1630SOL    HW1 5789   0.065   4.339   0.224
 1630SOL    HW2 5790   0.216   4.400   0.230
 1631SOL     OW 5791   6.830   3.508   1.171
 1631SOL    HW1 5792   6.809   3.599   1.208
 1631SOL    HW2 5793   6.843   3.515   1.073
 1632SOL     OW 5794   5.560   4.714   2.409
 1632SOL    HW1 5795   5.491   4.719   2.481
 1632SOL    HW2 5796   5.597   4.805   2.391
 1633SOL     OW 5797   4.879   3.766   3.989
 1633SOL    HW1 5798   4.863   3.774   4.088
 1633SOL    HW2 5799   4.823   3.691   3.953
 1634SOL     OW 5800   4.492   0.623   4.446
 1634SOL    HW1 5801   4.528   0.640   4.537
 1634SOL    HW2 5802   4.414   0.683   4.429
 1635SOL     OW 5803   3.819   4.413   5.500
 1635SOL    HW1 5804   3.808   4.353   5.579
 1635SOL    HW2 5805   3.877   4.368   5.432
 1636SOL     OW 5806   4.151   5.774   1.347
 1636SOL    HW1 5807   4.094   5.843   1.392
 1636SOL    HW2 5808   4.248   5.795   1.364
 1637SOL     OW 5809   0.260   6.697   2.641
 1637SOL    HW1 5810   0.206   6.673   2.722
 1637SOL    HW2 5811   0.341   6.748   2.669
 1638SOL     OW 5812   6.720   3.384   1.896
 1638SOL    HW1 5813   6.805   3.394   1.845
 1638SOL    HW2 5814   6.653   3.449   1.862
 1639SOL     OW 5815   6.132   4.094   2.260
 1639SOL    HW1 5816   6.162   4.004   2.290
 1639SOL    HW2 5817   6.049   4.120   2.309
 1640SOL     OW 5818   5.821   0.552   1.246
 1640SOL    HW1 5819   5.847   0.526   1.339
 1640SOL    HW2 5820   5.898   0.596   1.201
 1641SOL     OW 5821   7.023   2.614   3.655
 1641SOL    HW1 5822   0.067   2.633   3.726
 1641SOL    HW2 5823   0.046   2.590   3.570
 1642SOL     OW 5824   5.687   2.747   5.869
 1642SOL    HW1 5825   5.728   2.837   5.853
 1642SOL    HW2 5826   5.637   2.748   5.956
 1643SOL     OW 5827   3.499   4.946   5.053
 1643SOL    HW1 5828   3.402   4.950   5.027
 1643SOL    HW2 5829   3.513   4.865   5.111
 1644SOL     OW 5830   5.875   3.289   0.653
 1644SOL    HW1 5831   5.928   3.271   0.736
 1644SOL    HW2 5832   5.872   3.206   0.597
 1645SOL     OW 5833   3.500   0.737   6.218
 1645SOL    HW1 5834   3.465   0.823   6.183
 1645SOL    HW2 5835   3.491   0.666   6.148
 1646SOL     OW 5836   1.091   5.798   0.200
 1646SOL    HW1 5837   1.068   5.807   0.102
 1646SOL    HW2 5838   1.181   5.756   0.209
 1647SOL     OW 5839   6.452   2.917   4.140
 1647SOL    HW1 5840   6.415   2.878   4.056
 1647SOL    HW2 5841   6.455   2.848   4.211
 1648SOL     OW 5842   5.027   6.293   0.708
 1648SOL    HW1 5843   5.084   6.319   0.630
 1648SOL    HW2 5844   4.997   6.198   0.697
 1649SOL     OW 5845   3.026   0.337   3.277
 1649SOL    HW1 5846   2.974   0.351   3.362
 1649SOL    HW2 5847   2.962   0.333   3.200
 1650SOL     OW 5848   2.140   4.815   6.281
 1650SOL    HW1 5849   2.053   4.848   6.244
 1650SOL    HW2 5850   2.127   4.724   6.321
 1651SOL     OW 5851   0.479   2.694   3.758
 1651SOL    HW1 5852   0.513   2.786   3.738
 1651SOL    HW2 5853   0.487   2.638   3.675
 1652SOL     OW 5854   1.302   2.592   1.468
 1652SOL    HW1 5855   1.315   2.661   1.539
 1652SOL    HW2 5856   1.241   2.520   1.503
 1653SOL     OW 5857   0.208   5.615   2.131
 1653SOL    HW1 5858   0.253   5.626   2.043
 1653SOL    HW2 5859   0.137   5.684   2.142
 1654SOL     OW 5860   0.605   2.757   1.405
 1654SOL    HW1 5861   0.625   2.852   1.384
 1654SOL    HW2 5862   0.690   2.707   1.423
 1655SOL     OW 5863   6.520   1.323   4.372
 1655SOL    HW1 5864   6.430   1.348   4.407
 1655SOL    HW2 5865   6.585   1.395   4.394
 1656SOL     OW 5866   2.246   5.557   4.730
 1656SOL    HW1 5867   2.220   5.466   4.763
 1656SOL    HW2 5868   2.343   5.556   4.705
 1657SOL     OW 5869   6.889   0.877   5.242
 1657SOL    HW1 5870   6.864   0.924   5.327
 1657SOL    HW2 5871   6.986   0.854   5.245
 1658SOL     OW 5872   6.944   6.827   0.363
 1658SOL    HW1 5873   6.876   6.833   0.436
 1658SOL    HW2 5874   6.909   6.770   0.289
 1659SOL     OW 5875   4.440   0.060   6.652
 1659SOL    HW1 5876   4.509   0.107   6.598
 1659SOL    HW2 5877   4.366   0.028   6.593
 1660SOL     OW 5878   1.554   6.483   1.848
 1660SOL    HW1 5879   1.557   6.429   1.763
 1660SOL    HW2 5880   1.465   6.526   1.857
 1661SOL     OW 5881   2.931   4.788   2.302
 1661SOL    HW1 5882   2.875   4.856   2.254
 1661SOL    HW2 5883   2.943   4.708   2.245
 1662SOL     OW 5884   6.824   1.893   5.607
 1662SOL    HW1 5885   6.906   1.855   5.564
 1662SOL    HW2 5886   6.812   1.854   5.698
 1663SOL     OW 5887   4.641   5.061   1.639
 1663SOL    HW1 5888   4.655   5.010   1.723
 1663SOL    HW2 5889   4.729   5.088   1.601
 1664SOL     OW 5890   0.610   7.019   5.341
 1664SOL    HW1 5891   0.669   0.068   5.305
 1664SOL    HW2 5892   0.600   0.008   5.440
 1665SOL     OW 5893   1.838   3.711   0.994
 1665SOL    HW1 5894   1.795   3.621   0.989
 1665SOL    HW2 5895   1.884   3.722   1.082
 1666SOL     OW 5896   5.575   0.091   6.632
 1666SOL    HW1 5897   5.639   0.099   6.556
 1666SOL    HW2 5898   5.611   0.139   6.712
 1667SOL     OW 5899   0.508   6.373   0.772
 1667SOL    HW1 5900   0.520   6.473   0.774
 1667SOL    HW2 5901   0.597   6.329   0.758
 1668SOL     OW 5902   5.233   5.055   4.066
 1668SOL    HW1 5903   5.133   5.055   4.053
 1668SOL    HW2 5904   5.278   5.065   3.977
 1669SOL     OW 5905   0.206   4.132   5.850
 1669SOL    HW1 5906   0.302   4.112   5.830
 1669SOL    HW2 5907   0.200   4.191   5.930
 1670SOL     OW 5908   1.685   4.597   5.997
 1670SOL    HW1 5909   1.597   4.554   5.977
 1670SOL    HW2 5910   1.688   4.688   5.957
 1671SOL     OW 5911   4.862   1.730   2.888
 1671SOL    HW1 5912   4.794   1.783   2.937
 1671SOL    HW2 5913   4.922   1.683   2.954
 1672SOL     OW 5914   0.969   3.212   0.017
 1672SOL    HW1 5915   1.022   3.264   6.973
 1672SOL    HW2 5916   0.973   3.114   7.018
 1673SOL     OW 5917   2.092   1.997   4.373
 1673SOL    HW1 5918   2.132   2.020   4.461
 1673SOL    HW2 5919   2.155   2.024   4.300
 1674SOL     OW 5920   5.145   2.657   2.467
 1674SOL    HW1 5921   5.158   2.728   2.397
 1674SOL    HW2 5922   5.067   2.599   2.442
 1675SOL     OW 5923   5.446   0.750   1.312
 1675SOL    HW1 5924   5.523   0.783   1.256
 1675SOL    HW2 5925   5.363   0.750   1.257
 1676SOL     OW 5926   1.822   2.190   2.892
 1676SOL    HW1 5927   1.809   2.115   2.828
 1676SOL    HW2 5928   1.844   2.154   2.983
 1677SOL     OW 5929   3.622   3.750   3.136
 1677SOL    HW1 5930   3.722   3.753   3.139
 1677SOL    HW2 5931   3.592   3.656   3.123
 1678SOL     OW 5932   0.424   6.348   0.484
 1678SOL    HW1 5933   0.441   6.353   0.582
 1678SOL    HW2 5934   0.498   6.394   0.435
 1679SOL     OW 5935   1.593   1.085   5.470
 1679SOL    HW1 5936   1.544   1.170   5.489
 1679SOL    HW2 5937   1.678   1.083   5.522
 1680SOL     OW 5938   5.476   2.920   4.445
 1680SOL    HW1 5939   5.523   2.873   4.520
 1680SOL    HW2 5940   5.537   2.989   4.406
 1681SOL     OW 5941   1.700   5.911   3.825
 1681SOL    HW1 5942   1.742   6.000   3.802
 1681SOL    HW2 5943   1.727   5.843   3.757
 1682SOL     OW 5944   2.943   0.085   5.630
 1682SOL    HW1 5945   2.917   7.017   5.662
 1682SOL    HW2 5946   2.862   0.143   5.624
 1683SOL     OW 5947   5.904   5.130   2.599
 1683SOL    HW1 5948   5.960   5.156   2.520
 1683SOL    HW2 5949   5.813   5.104   2.567
 1684SOL     OW 5950   1.385   4.585   1.728
 1684SOL    HW1 5951   1.438   4.515   1.778
 1684SOL    HW2 5952   1.447   4.635   1.667
 1685SOL     OW 5953   1.370   1.435   6.068
 1685SOL    HW1 5954   1.459   1.405   6.035
 1685SOL    HW2 5955   1.308   1.449   5.990
 1686SOL     OW 5956   5.023   6.069   3.641
 1686SOL    HW1 5957   5.083   6.112   3.709
 1686SOL    HW2 5958   4.991   5.981   3.676
 1687SOL     OW 5959   0.221   3.748   2.193
 1687SOL    HW1 5960   0.316   3.778   2.193
 1687SOL    HW2 5961   0.161   3.828   2.196
 1688SOL     OW 5962   2.035   2.161   3.435
 1688SOL    HW1 5963   2.005   2.164   3.340
 1688SOL    HW2 5964   1.956   2.144   3.494
 1689SOL     OW 5965   6.604   1.305   1.795
 1689SOL    HW1 5966   6.645   1.214   1.787
 1689SOL    HW2 5967   6.546   1.322   1.715
 1690SOL     OW 5968   0.710   3.934   4.080
 1690SOL    HW1 5969   0.735   3.851   4.130
 1690SOL    HW2 5970   0.644   3.911   4.008
 1691SOL     OW 5971   5.016   3.269   4.157
 1691SOL    HW1 5972   5.032   3.360   4.195
 1691SOL    HW2 5973   4.921   3.262   4.126
 1692SOL     OW 5974   5.741   5.327   1.827
 1692SOL    HW1 5975   5.769   5.245   1.779
 1692SOL    HW2 5976   5.658   5.308   1.880
 1693SOL     OW 5977   6.910   1.177   5.123
 1693SOL    HW1 5978   6.858   1.114   5.066
 1693SOL    HW2 5979   6.904   1.269   5.085
 1694SOL     OW 5980   5.880   1.162   4.783
 1694SOL    HW1 5981   5.873   1.260   4.763
 1694SOL    HW2 5982   5.798   1.115   4.751
 1695SOL     OW 5983   3.505   0.648   6.675
 1695SOL    HW1 5984   3.475   0.649   6.771
 1695SOL    HW2 5985   3.454   0.579   6.625
 1696SOL     OW 5986   4.231   5.738   0.355
 1696SOL    HW1 5987   4.151   5.687   0.387
 1696SOL    HW2 5988   4.257   5.806   0.424
 1697SOL     OW 5989   6.035   2.422   0.813
 1697SOL    HW1 5990   6.031   2.518   0.841
 1697SOL    HW2 5991   5.948   2.378   0.836
 1698SOL     OW 5992   3.928   0.873   1.685
 1698SOL    HW1 5993   3.988   0.831   1.754
 1698SOL    HW2 5994   3.832   0.855   1.709
 1699SOL     OW 5995   2.864   1.426   6.275
 1699SOL    HW1 5996   2.920   1.368   6.333
 1699SOL    HW2 5997   2.921   1.496   6.233
 1700SOL     OW 5998   5.729   3.152   3.642
 1700SOL    HW1 5999   5.798   3.110   3.583
 1700SOL    HW2 6000   5.676   3.218   3.589
 1701SOL     OW 6001   6.539   4.637   4.801
 1701SOL    HW1 6002   6.474   4.705   4.766
 1701SOL    HW2 6003   6.552   4.565   4.732
 1702SOL     OW 6004   2.011   1.327   6.373
 1702SOL    HW1 6005   1.988   1.328   6.471
 1702SOL    HW2 6006   2.110   1.339   6.362
 1703SOL     OW 6007   3.353   1.542   6.305
 1703SOL    HW1 6008   3.387   1.605   6.236
 1703SOL    HW2 6009   3.260   1.566   6.331
 1704SOL     OW 6010   2.158   1.300   0.307
 1704SOL    HW1 6011   2.145   1.213   0.259
 1704SOL    HW2 6012   2.104   1.371   0.262
 1705SOL     OW 6013   3.905   1.682   1.808
 1705SOL    HW1 6014   3.851   1.756   1.848
 1705SOL    HW2 6015   3.844   1.607   1.781
 1706SOL     OW 6016   4.302   1.740   0.522
 1706SOL    HW1 6017   4.254   1.653   0.514
 1706SOL    HW2 6018   4.242   1.808   0.565
 1707SOL     OW 6019   4.693   1.813   3.101
 1707SOL    HW1 6020   4.690   1.715   3.121
 1707SOL    HW2 6021   4.640   1.863   3.170
 1708SOL     OW 6022   3.282   5.523   2.067
 1708SOL    HW1 6023   3.263   5.430   2.038
 1708SOL    HW2 6024   3.213   5.553   2.132
 1709SOL     OW 6025   4.975   5.939   0.662
 1709SOL    HW1 6026   4.927   5.884   0.731
 1709SOL    HW2 6027   5.068   5.957   0.694
 1710SOL     OW 6028   4.504   5.277   3.488
 1710SOL    HW1 6029   4.414   5.283   3.445
 1710SOL    HW2 6030   4.501   5.315   3.580
 1711SOL     OW 6031   3.469   6.150   5.795
 1711SOL    HW1 6032   3.535   6.075   5.788
 1711SOL    HW2 6033   3.379   6.113   5.820
 1712SOL     OW 6034   0.191   2.095   4.425
 1712SOL    HW1 6035   0.179   2.187   4.461
 1712SOL    HW2 6036   0.104   2.046   4.430
 1713SOL     OW 6037   3.701   0.830   3.111
 1713SOL    HW1 6038   3.735   0.818   3.205
 1713SOL    HW2 6039   3.774   0.810   3.046
 1714SOL     OW 6040   3.893   2.498   6.899
 1714SOL    HW1 6041   3.937   2.474   6.986
 1714SOL    HW2 6042   3.794   2.486   6.907
 1715SOL     OW 6043   1.527   6.112   2.089
 1715SOL    HW1 6044   1.508   6.072   1.999
 1715SOL    HW2 6045   1.442   6.127   2.138
 1716SOL     OW 6046   4.784   0.565   4.403
 1716SOL    HW1 6047   4.801   0.495   4.333
 1716SOL    HW2 6048   4.688   0.592   4.401
 1717SOL     OW 6049   4.176   6.216   5.291
 1717SOL    HW1 6050   4.207   6.218   5.385
 1717SOL    HW2 6051   4.185   6.307   5.251
 1718SOL     OW 6052   2.379   2.313   2.513
 1718SOL    HW1 6053   2.306   2.366   2.555
 1718SOL    HW2 6054   2.372   2.319   2.413
 1719SOL     OW 6055   0.935   4.471   1.104
 1719SOL    HW1 6056   0.922   4.557   1.055
 1719SOL    HW2 6057   1.032   4.445   1.100
 1720SOL     OW 6058   7.022   2.611   5.829
 1720SOL    HW1 6059   6.939   2.589   5.779
 1720SOL    HW2 6060   7.004   2.685   5.894
 1721SOL     OW 6061   1.149   0.541   2.302
 1721SOL    HW1 6062   1.161   0.478   2.226
 1721SOL    HW2 6063   1.237   0.582   2.326
 1722SOL     OW 6064   3.554   1.995   2.945
 1722SOL    HW1 6065   3.577   2.070   2.884
 1722SOL    HW2 6066   3.602   1.912   2.916
 1723SOL     OW 6067   4.686   2.130   6.961
 1723SOL    HW1 6068   4.605   2.172   7.003
 1723SOL    HW2 6069   4.677   2.134   6.862
 1724SOL     OW 6070   6.353   2.454   1.487
 1724SOL    HW1 6071   6.313   2.458   1.395
 1724SOL    HW2 6072   6.452   2.446   1.480
 1725SOL     OW 6073   2.150   4.589   6.800
 1725SOL    HW1 6074   2.198   4.672   6.825
 1725SOL    HW2 6075   2.216   4.520   6.770
 1726SOL     OW 6076   5.686   4.823   3.599
 1726SOL    HW1 6077   5.706   4.725   3.602
 1726SOL    HW2 6078   5.743   4.867   3.530
 1727SOL     OW 6079   3.045   3.638   3.560
 1727SOL    HW1 6080   2.991   3.663   3.479
 1727SOL    HW2 6081   3.141   3.629   3.535
 1728SOL     OW 6082   4.932   4.081   5.351
 1728SOL    HW1 6083   4.843   4.077   5.305
 1728SOL    HW2 6084   4.926   4.035   5.439
 1729SOL     OW 6085   1.819   3.701   1.839
 1729SOL    HW1 6086   1.850   3.663   1.927
 1729SOL    HW2 6087   1.898   3.738   1.790
 1730SOL     OW 6088   2.635   5.617   5.549
 1730SOL    HW1 6089   2.719   5.631   5.601
 1730SOL    HW2 6090   2.629   5.520   5.523
 1731SOL     OW 6091   5.057   4.824   4.249
 1731SOL    HW1 6092   5.111   4.749   4.211
 1731SOL    HW2 6093   5.031   4.887   4.176
 1732SOL     OW 6094   2.145   4.000   6.444
 1732SOL    HW1 6095   2.197   3.939   6.385
 1732SOL    HW2 6096   2.064   3.953   6.479
 1733SOL     OW 6097   2.751   3.725   0.298
 1733SOL    HW1 6098   2.832   3.720   0.239
 1733SOL    HW2 6099   2.759   3.803   0.360
 1734SOL     OW 6100   6.563   3.111   1.575
 1734SOL    HW1 6101   6.607   3.200   1.564
 1734SOL    HW2 6102   6.471   3.115   1.535
 1735SOL     OW 6103   4.632   5.179   6.710
 1735SOL    HW1 6104   4.623   5.119   6.631
 1735SOL    HW2 6105   4.542   5.204   6.745
 1736SOL     OW 6106   4.686   3.530   1.767
 1736SOL    HW1 6107   4.739   3.612   1.748
 1736SOL    HW2 6108   4.747   3.452   1.777
 1737SOL     OW 6109   4.763   1.067   4.651
 1737SOL    HW1 6110   4.815   1.148   4.625
 1737SOL    HW2 6111   4.720   1.027   4.570
 1738SOL     OW 6112   1.571   4.124   4.236
 1738SOL    HW1 6113   1.558   4.188   4.312
 1738SOL    HW2 6114   1.668   4.106   4.224
 1739SOL     OW 6115   5.574   0.206   3.867
 1739SOL    HW1 6116   5.578   0.214   3.967
 1739SOL    HW2 6117   5.509   0.273   3.831
 1740SOL     OW 6118   6.933   1.942   4.596
 1740SOL    HW1 6119   6.978   1.884   4.529
 1740SOL    HW2 6120   6.999   1.968   4.667
 1741SOL     OW 6121   1.521   1.778   4.536
 1741SOL    HW1 6122   1.610   1.733   4.549
 1741SOL    HW2 6123   1.465   1.766   4.618
 1742SOL     OW 6124   6.059   6.533   6.024
 1742SOL    HW1 6125   6.131   6.467   6.047
 1742SOL    HW2 6126   6.025   6.514   5.932
 1743SOL     OW 6127   1.137   1.404   3.466
 1743SOL    HW1 6128   1.161   1.482   3.524
 1743SOL    HW2 6129   1.039   1.405   3.448
 1744SOL     OW 6130   5.332   2.311   3.456
 1744SOL    HW1 6131   5.287   2.226   3.483
 1744SOL    HW2 6132   5.310   2.331   3.361
 1745SOL     OW 6133   5.971   6.168   1.080
 1745SOL    HW1 6134   5.906   6.216   1.021
 1745SOL    HW2 6135   6.055   6.149   1.030
 1746SOL     OW 6136   1.795   3.561   3.521
 1746SOL    HW1 6137   1.747   3.610   3.594
 1746SOL    HW2 6138   1.854   3.491   3.562
 1747SOL     OW 6139   3.442   1.336   2.098
 1747SOL    HW1 6140   3.429   1.394   2.179
 1747SOL    HW2 6141   3.414   1.387   2.017
 1748SOL     OW 6142   6.876   1.564   4.681
 1748SOL    HW1 6143   6.916   1.636   4.737
 1748SOL    HW2 6144   6.814   1.509   4.737
 1749SOL     OW 6145   2.584   5.850   0.760
 1749SOL    HW1 6146   2.518   5.877   0.830
 1749SOL    HW2 6147   2.675   5.841   0.801
 1750SOL     OW 6148   4.366   1.121   5.223
 1750SOL    HW1 6149   4.329   1.122   5.130
 1750SOL    HW2 6150   4.465   1.105   5.219
 1751SOL     OW 6151   6.245   2.965   5.068
 1751SOL    HW1 6152   6.300   2.986   5.149
 1751SOL    HW2 6153   6.298   2.910   5.004
 1752SOL     OW 6154   6.252   1.350   1.137
 1752SOL    HW1 6155   6.165   1.319   1.097
 1752SOL    HW2 6156   6.268   1.301   1.223
 1753SOL     OW 6157   6.768   1.746   1.729
 1753SOL    HW1 6158   6.789   1.795   1.814
 1753SOL    HW2 6159   6.845   1.754   1.666
 1754SOL     OW 6160   3.188   6.350   6.002
 1754SOL    HW1 6161   3.225   6.366   5.911
 1754SOL    HW2 6162   3.239   6.277   6.047
 1755SOL     OW 6163   6.028   0.307   5.217
 1755SOL    HW1 6164   6.115   0.282   5.176
 1755SOL    HW2 6165   5.962   0.233   5.204
 1756SOL     OW 6166   5.672   0.407   6.037
 1756SOL    HW1 6167   5.765   0.373   6.022
 1756SOL    HW2 6168   5.646   0.392   6.133
 1757SOL     OW 6169   2.494   5.465   4.629
 1757SOL    HW1 6170   2.523   5.493   4.721
 1757SOL    HW2 6171   2.520   5.370   4.614
 1758SOL     OW 6172   1.710   0.170   5.192
 1758SOL    HW1 6173   1.740   0.261   5.164
 1758SOL    HW2 6174   1.673   0.175   5.285
 1759SOL     OW 6175   1.336   6.351   6.999
 1759SOL    HW1 6176   1.320   6.259   0.011
 1759SOL    HW2 6177   1.316   6.418   0.047
 1760SOL     OW 6178   6.192   0.742   5.046
 1760SOL    HW1 6179   6.183   0.840   5.066
 1760SOL    HW2 6180   6.107   0.695   5.069
 1761SOL     OW 6181   0.059   2.172   1.214
 1761SOL    HW1 6182   0.012   2.243   1.161
 1761SOL    HW2 6183   0.072   2.091   1.158
 1762SOL     OW 6184   0.345   1.267   5.356
 1762SOL    HW1 6185   0.348   1.168   5.341
 1762SOL    HW2 6186   0.373   1.288   5.450
 1763SOL     OW 6187   1.161   3.579   4.719
 1763SOL    HW1 6188   1.174   3.654   4.655
 1763SOL    HW2 6189   1.219   3.502   4.693
 1764SOL     OW 6190   1.755   4.522   1.786
 1764SOL    HW1 6191   1.686   4.456   1.814
 1764SOL    HW2 6192   1.841   4.502   1.832
 1765SOL     OW 6193   5.418   2.956   2.151
 1765SOL    HW1 6194   5.394   2.956   2.054
 1765SOL    HW2 6195   5.514   2.982   2.161
 1766SOL     OW 6196   4.293   4.672   4.054
 1766SOL    HW1 6197   4.207   4.714   4.025
 1766SOL    HW2 6198   4.358   4.744   4.080
 1767SOL     OW 6199   6.969   5.395   2.282
 1767SOL    HW1 6200   6.927   5.398   2.191
 1767SOL    HW2 6201   6.999   5.486   2.308
 1768SOL     OW 6202   4.642   6.534   1.900
 1768SOL    HW1 6203   4.591   6.612   1.937
 1768SOL    HW2 6204   4.713   6.567   1.838
 1769SOL     OW 6205   5.856   0.182   6.552
 1769SOL    HW1 6206   5.899   0.116   6.613
 1769SOL    HW2 6207   5.865   0.274   6.591
 1770SOL     OW 6208   1.610   4.493   5.663
 1770SOL    HW1 6209   1.626   4.591   5.659
 1770SOL    HW2 6210   1.670   4.452   5.733
 1771SOL     OW 6211   0.751   3.574   6.885
 1771SOL    HW1 6212   0.739   3.475   6.886
 1771SOL    HW2 6213   0.824   3.599   6.949
 1772SOL     OW 6214   2.689   4.893   3.853
 1772SOL    HW1 6215   2.705   4.795   3.866
 1772SOL    HW2 6216   2.766   4.932   3.803
 1773SOL     OW 6217   0.687   0.235   4.959
 1773SOL    HW1 6218   0.662   0.142   4.933
 1773SOL    HW2 6219   0.606   0.285   4.988
 1774SOL     OW 6220   6.002   5.926   1.659
 1774SOL    HW1 6221   5.986   6.009   1.712
 1774SOL    HW2 6222   5.996   5.847   1.720
 1775SOL     OW 6223   1.536   5.582   6.857
 1775SOL    HW1 6224   1.613   5.556   6.916
 1775SOL    HW2 6225   1.560   5.664   6.805
 1776SOL     OW 6226   4.304   1.220   5.480
 1776SOL    HW1 6227   4.313   1.173   5.392
 1776SOL    HW2 6228   4.319   1.318   5.467
 1777SOL     OW 6229   4.248   6.362   6.908
 1777SOL    HW1 6230   4.154   6.373   6.941
 1777SOL    HW2 6231   4.277   6.445   6.861
 1778SOL     OW 6232   5.833   0.865   3.838
 1778SOL    HW1 6233   5.914   0.807   3.835
 1778SOL    HW2 6234   5.765   0.831   3.773
 1779SOL     OW 6235   5.609   6.791   4.137
 1779SOL    HW1 6236   5.567   6.880   4.119
 1779SOL    HW2 6237   5.607   6.771   4.235
 1780SOL     OW 6238   1.672   5.575   4.895
 1780SOL    HW1 6239   1.614   5.513   4.841
 1780SOL    HW2 6240   1.625   5.662   4.907
 1781SOL     OW 6241   4.425   0.357   3.959
 1781SOL    HW1 6242   4.429   0.414   4.041
 1781SOL    HW2 6243   4.439   0.261   3.984
 1782SOL     OW 6244   1.595   1.867   2.974
 1782SOL    HW1 6245   1.582   1.768   2.966
 1782SOL    HW2 6246   1.627   1.903   2.887
 1783SOL     OW 6247   1.980   3.921   5.689
 1783SOL    HW1 6248   2.019   3.974   5.613
 1783SOL    HW2 6249   2.053   3.894   5.752
 1784SOL     OW 6250   2.703   0.635   0.885
 1784SOL    HW1 6251   2.719   0.542   0.852
 1784SOL    HW2 6252   2.635   0.633   0.958
 1785SOL     OW 6253   0.851   6.562   4.518
 1785SOL    HW1 6254   0.895   6.479   4.483
 1785SOL    HW2 6255   0.911   6.640   4.503
 1786SOL     OW 6256   1.816   5.878   0.669
 1786SOL    HW1 6257   1.859   5.899   0.581
 1786SOL    HW2 6258   1.797   5.780   0.674
 1787SOL     OW 6259   1.781   3.286   5.762
 1787SOL    HW1 6260   1.853   3.335   5.711
 1787SOL    HW2 6261   1.819   3.250   5.847
 1788SOL     OW 6262   5.133   3.837   0.824
 1788SOL    HW1 6263   5.178   3.814   0.737
 1788SOL    HW2 6264   5.097   3.753   0.865
 1789SOL     OW 6265   6.776   3.709   1.816
 1789SOL    HW1 6266   6.844   3.644   1.850
 1789SOL    HW2 6267   6.761   3.781   1.884
 1790SOL     OW 6268   2.746   2.406   4.286
 1790SOL    HW1 6269   2.746   2.376   4.191
 1790SOL    HW2 6270   2.681   2.482   4.297
 1791SOL     OW 6271   6.082   0.106   3.557
 1791SOL    HW1 6272   6.056   0.014   3.587
 1791SOL    HW2 6273   6.070   0.114   3.458
 1792SOL     OW 6274   6.450   1.836   5.283
 1792SOL    HW1 6275   6.484   1.919   5.328
 1792SOL    HW2 6276   6.350   1.833   5.290
 1793SOL     OW 6277   0.127   0.935   5.534
 1793SOL    HW1 6278   0.161   1.010   5.477
 1793SOL    HW2 6279   0.167   0.848   5.503
 1794SOL     OW 6280   6.903   0.188   6.134
 1794SOL    HW1 6281   6.903   0.247   6.053
 1794SOL    HW2 6282   6.994   0.187   6.175
 1795SOL     OW 6283   6.163   4.431   0.341
 1795SOL    HW1 6284   6.135   4.373   0.265
 1795SOL    HW2 6285   6.233   4.384   0.395
 1796SOL     OW 6286   0.816   0.019   5.600
 1796SOL    HW1 6287   0.825   0.026   5.700
 1796SOL    HW2 6288   0.855   0.101   5.558
 1797SOL     OW 6289   2.440   6.153   4.623
 1797SOL    HW1 6290   2.359   6.105   4.588
 1797SOL    HW2 6291   2.510   6.157   4.552
 1798SOL     OW 6292   3.359   3.851   4.910
 1798SOL    HW1 6293   3.431   3.811   4.853
 1798SOL    HW2 6294   3.353   3.800   4.996
 1799SOL     OW 6295   3.292   0.980   0.373
 1799SOL    HW1 6296   3.216   1.041   0.394
 1799SOL    HW2 6297   3.357   1.026   0.312
 1800SOL     OW 6298   5.153   3.453   4.420
 1800SOL    HW1 6299   5.174   3.509   4.340
 1800SOL    HW2 6300   5.192   3.496   4.501
 1801SOL     OW 6301   0.960   1.623   2.116
 1801SOL    HW1 6302   0.983   1.681   2.038
 1801SOL    HW2 6303   0.941   1.679   2.196
 1802SOL     OW 6304   6.227   4.677   3.754
 1802SOL    HW1 6305   6.320   4.645   3.769
 1802SOL    HW2 6306   6.202   4.665   3.658
 1803SOL     OW 6307   0.787   6.423   2.664
 1803SOL    HW1 6308   0.834   6.470   2.739
 1803SOL    HW2 6309   0.846   6.421   2.584
 1804SOL     OW 6310   2.418   3.311   5.981
 1804SOL    HW1 6311   2.479   3.269   5.914
 1804SOL    HW2 6312   2.414   3.410   5.964
 1805SOL     OW 6313   0.158   6.213   5.854
 1805SOL    HW1 6314   0.228   6.165   5.907
 1805SOL    HW2 6315   0.110   6.148   5.796
 1806SOL     OW 6316   0.010   2.283   2.169
 1806SOL    HW1 6317   0.086   2.269   2.233
 1806SOL    HW2 6318   0.042   2.335   2.090
 1807SOL     OW 6319   6.515   3.966   1.641
 1807SOL    HW1 6320   6.596   4.018   1.670
 1807SOL    HW2 6321   6.453   4.025   1.591
 1808SOL     OW 6322   5.706   2.228   5.770
 1808SOL    HW1 6323   5.675   2.314   5.729
 1808SOL    HW2 6324   5.798   2.240   5.807
 1809SOL     OW 6325   3.854   2.151   5.121
 1809SOL    HW1 6326   3.854   2.064   5.170
 1809SOL    HW2 6327   3.786   2.148   5.048
 1810SOL     OW 6328   0.572   6.787   4.045
 1810SOL    HW1 6329   0.575   6.772   3.946
 1810SOL    HW2 6330   0.497   6.849   4.068
 1811SOL     OW 6331   3.704   5.160   2.728
 1811SOL    HW1 6332   3.657   5.196   2.647
 1811SOL    HW2 6333   3.797   5.196   2.731
 1812SOL     OW 6334   4.677   0.131   6.158
 1812SOL    HW1 6335   4.760   0.110   6.210
 1812SOL    HW2 6336   4.652   0.226   6.173
 1813SOL     OW 6337   4.352   4.814   2.784
 1813SOL    HW1 6338   4.362   4.744   2.854
 1813SOL    HW2 6339   4.263   4.858   2.794
 1814SOL     OW 6340   0.649   6.504   0.334
 1814SOL    HW1 6341   0.638   6.515   0.235
 1814SOL    HW2 6342   0.666   6.594   0.376
 1815SOL     OW 6343   5.411   6.088   2.075
 1815SOL    HW1 6344   5.338   6.156   2.083
 1815SOL    HW2 6345   5.437   6.057   2.166
 1816SOL     OW 6346   3.903   5.839   5.675
 1816SOL    HW1 6347   3.971   5.857   5.746
 1816SOL    HW2 6348   3.945   5.781   5.604
 1817SOL     OW 6349   1.500   1.495   3.661
 1817SOL    HW1 6350   1.538   1.404   3.641
 1817SOL    HW2 6351   1.510   1.515   3.758
 1818SOL     OW 6352   2.603   6.626   0.289
 1818SOL    HW1 6353   2.518   6.644   0.340
 1818SOL    HW2 6354   2.581   6.607   0.194
 1819SOL     OW 6355   1.923   4.799   3.099
 1819SOL    HW1 6356   1.824   4.800   3.110
 1819SOL    HW2 6357   1.945   4.773   3.005
 1820SOL     OW 6358   3.640   0.736   3.779
 1820SOL    HW1 6359   3.541   0.730   3.792
 1820SOL    HW2 6360   3.664   0.828   3.747
 1821SOL     OW 6361   4.600   1.196   2.490
 1821SOL    HW1 6362   4.517   1.229   2.445
 1821SOL    HW2 6363   4.621   1.104   2.456
 1822SOL     OW 6364   0.562   3.437   2.147
 1822SOL    HW1 6365   0.579   3.362   2.211
 1822SOL    HW2 6366   0.543   3.521   2.199
 1823SOL     OW 6367   3.786   6.212   2.723
 1823SOL    HW1 6368   3.805   6.132   2.780
 1823SOL    HW2 6369   3.729   6.186   2.646
 1824SOL     OW 6370   4.181   3.545   1.057
 1824SOL    HW1 6371   4.133   3.563   1.143
 1824SOL    HW2 6372   4.276   3.574   1.067
 1825SOL     OW 6373   1.839   1.700   5.074
 1825SOL    HW1 6374   1.810   1.768   5.141
 1825SOL    HW2 6375   1.771   1.695   5.000
 1826SOL     OW 6376   3.451   2.225   1.743
 1826SOL    HW1 6377   3.530   2.259   1.794
 1826SOL    HW2 6378   3.367   2.258   1.787
 1827SOL     OW 6379   6.026   4.640   0.241
 1827SOL    HW1 6380   6.089   4.578   0.288
 1827SOL    HW2 6381   6.062   4.733   0.243
 1828SOL     OW 6382   1.546   3.447   5.729
 1828SOL    HW1 6383   1.502   3.413   5.646
 1828SOL    HW2 6384   1.635   3.403   5.740
 1829SOL     OW 6385   3.099   1.243   3.926
 1829SOL    HW1 6386   3.190   1.244   3.969
 1829SOL    HW2 6387   3.041   1.175   3.972
 1830SOL     OW 6388   5.702   6.525   4.533
 1830SOL    HW1 6389   5.676   6.446   4.478
 1830SOL    HW2 6390   5.677   6.508   4.629
 1831SOL     OW 6391   4.849   5.761   2.687
 1831SOL    HW1 6392   4.878   5.669   2.661
 1831SOL    HW2 6393   4.803   5.805   2.610
 1832SOL     OW 6394   2.193   3.289   0.835
 1832SOL    HW1 6395   2.193   3.373   0.781
 1832SOL    HW2 6396   2.131   3.223   0.793
 1833SOL     OW 6397   4.814   0.465   1.660
 1833SOL    HW1 6398   4.741   0.452   1.593
 1833SOL    HW2 6399   4.855   0.377   1.684
 1834SOL     OW 6400   2.166   2.710   6.904
 1834SOL    HW1 6401   2.164   2.635   6.970
 1834SOL    HW2 6402   2.177   2.672   6.812
 1835SOL     OW 6403   0.426   4.918   1.601
 1835SOL    HW1 6404   0.460   5.011   1.588
 1835SOL    HW2 6405   0.486   4.868   1.663
 1836SOL     OW 6406   5.625   1.962   1.322
 1836SOL    HW1 6407   5.564   2.015   1.263
 1836SOL    HW2 6408   5.574   1.884   1.360
 1837SOL     OW 6409   2.952   1.615   6.530
 1837SOL    HW1 6410   2.884   1.543   6.521
 1837SOL    HW2 6411   3.010   1.596   6.609
 1838SOL     OW 6412   5.925   0.960   0.901
 1838SOL    HW1 6413   5.877   1.030   0.848
 1838SOL    HW2 6414   6.020   0.953   0.868
 1839SOL     OW 6415   5.581   1.380   6.820
 1839SOL    HW1 6416   5.493   1.427   6.818
 1839SOL    HW2 6417   5.605   1.349   6.728
 1840SOL     OW 6418   4.125   0.010   2.965
 1840SOL    HW1 6419   4.158   0.041   2.876
 1840SOL    HW2 6420   4.143   6.936   2.975
 1841SOL     OW 6421   2.115   1.252   2.121
 1841SOL    HW1 6422   2.106   1.239   2.219
 1841SOL    HW2 6423   2.165   1.336   2.103
 1842SOL     OW 6424   1.909   5.136   0.491
 1842SOL    HW1 6425   1.903   5.048   0.444
 1842SOL    HW2 6426   1.930   5.208   0.425
 1843SOL     OW 6427   3.070   1.254   4.822
 1843SOL    HW1 6428   3.056   1.230   4.726
 1843SOL    HW2 6429   3.164   1.285   4.835
 1844SOL     OW 6430   4.875   1.504   6.467
 1844SOL    HW1 6431   4.856   1.462   6.378
 1844SOL    HW2 6432   4.862   1.603   6.460
 1845SOL     OW 6433   2.311   1.543   3.106
 1845SOL    HW1 6434   2.325   1.640   3.125
 1845SOL    HW2 6435   2.291   1.494   3.191
 1846SOL     OW 6436   4.228   1.323   2.481
 1846SOL    HW1 6437   4.285   1.291   2.406
 1846SOL    HW2 6438   4.222   1.252   2.551
 1847SOL     OW 6439   2.151   0.041   4.830
 1847SOL    HW1 6440   2.234   0.039   4.774
 1847SOL    HW2 6441   2.087   0.108   4.793
 1848SOL     OW 6442   2.233   5.645   4.444
 1848SOL    HW1 6443   2.198   5.615   4.532
 1848SOL    HW2 6444   2.305   5.583   4.413
 1849SOL     OW 6445   4.600   2.550   2.297
 1849SOL    HW1 6446   4.546   2.482   2.346
 1849SOL    HW2 6447   4.577   2.548   2.200
 1850SOL     OW 6448   5.181   1.825   2.063
 1850SOL    HW1 6449   5.157   1.874   2.147
 1850SOL    HW2 6450   5.218   1.735   2.086
 1851SOL     OW 6451   6.688   3.511   5.681
 1851SOL    HW1 6452   6.777   3.554   5.661
 1851SOL    HW2 6453   6.659   3.538   5.773
 1852SOL     OW 6454   1.656   5.270   1.942
 1852SOL    HW1 6455   1.646   5.205   2.017
 1852SOL    HW2 6456   1.748   5.311   1.945
 1853SOL     OW 6457   0.750   2.640   4.871
 1853SOL    HW1 6458   0.813   2.698   4.819
 1853SOL    HW2 6459   0.693   2.697   4.930
 1854SOL     OW 6460   0.495   6.151   3.552
 1854SOL    HW1 6461   0.570   6.103   3.599
 1854SOL    HW2 6462   0.499   6.132   3.454
 1855SOL     OW 6463   4.946   3.338   5.191
 1855SOL    HW1 6464   4.885   3.398   5.140
 1855SOL    HW2 6465   4.898   3.253   5.212
 1856SOL     OW 6466   3.419   3.000   0.030
 1856SOL    HW1 6467   3.494   2.962   0.084
 1856SOL    HW2 6468   3.427   2.969   6.959
 1857SOL     OW 6469   5.140   0.603   0.233
 1857SOL    HW1 6470   5.171   0.523   0.285
 1857SOL    HW2 6471   5.147   0.584   0.135
 1858SOL     OW 6472   4.190   2.314   4.322
 1858SOL    HW1 6473   4.255   2.238   4.313
 1858SOL    HW2 6474   4.098   2.283   4.300
 1859SOL     OW 6475   5.140   2.420   4.173
 1859SOL    HW1 6476   5.220   2.479   4.158
 1859SOL    HW2 6477   5.071   2.440   4.103
 1860SOL     OW 6478   1.361   1.415   4.990
 1860SOL    HW1 6479   1.435   1.426   4.924
 1860SOL    HW2 6480   1.314   1.502   5.001
 1861SOL     OW 6481   6.559   0.400   3.105
 1861SOL    HW1 6482   6.539   0.350   3.021
 1861SOL    HW2 6483   6.508   0.359   3.181
 1862SOL     OW 6484   2.494   6.169   6.304
 1862SOL    HW1 6485   2.428   6.243   6.317
 1862SOL    HW2 6486   2.566   6.176   6.373
 1863SOL     OW 6487   0.018   3.002   1.388
 1863SOL    HW1 6488   7.023   2.994   1.290
 1863SOL    HW2 6489   0.100   3.058   1.402
 1864SOL     OW 6490   3.236   5.855   2.932
 1864SOL    HW1 6491   3.145   5.815   2.923
 1864SOL    HW2 6492   3.230   5.944   2.977
 1865SOL     OW 6493   5.374   1.497   6.027
 1865SOL    HW1 6494   5.369   1.597   6.024
 1865SOL    HW2 6495   5.332   1.464   6.111
 1866SOL     OW 6496   0.362   4.623   3.482
 1866SOL    HW1 6497   0.318   4.704   3.440
 1866SOL    HW2 6498   0.307   4.542   3.462
 1867SOL     OW 6499   2.282   2.584   1.004
 1867SOL    HW1 6500   2.353   2.653   1.011
 1867SOL    HW2 6501   2.193   2.628   0.993
 1868SOL     OW 6502   5.861   4.853   5.739
 1868SOL    HW1 6503   5.949   4.805   5.728
 1868SOL    HW2 6504   5.846   4.913   5.661
 1869SOL     OW 6505   4.396   2.132   4.239
 1869SOL    HW1 6506   4.396   2.033   4.231
 1869SOL    HW2 6507   4.489   2.167   4.224
 1870SOL     OW 6508   0.619   4.914   4.042
 1870SOL    HW1 6509   0.718   4.900   4.035
 1870SOL    HW2 6510   0.582   4.938   3.952
 1871SOL     OW 6511   1.195   6.526   0.164
 1871SOL    HW1 6512   1.141   6.594   0.115
 1871SOL    HW2 6513   1.205   6.553   0.260
 1872SOL     OW 6514   2.558   2.333   0.951
 1872SOL    HW1 6515   2.588   2.279   1.029
 1872SOL    HW2 6516   2.600   2.423   0.955
 1873SOL     OW 6517   6.582   0.605   7.021
 1873SOL    HW1 6518   6.679   0.621   0.018
 1873SOL    HW2 6519   6.568   0.509   6.998
 1874SOL     OW 6520   1.306   6.134   0.141
 1874SOL    HW1 6521   1.253   6.124   0.225
 1874SOL    HW2 6522   1.367   6.055   0.130
 1875SOL     OW 6523   6.022   4.957   6.989
 1875SOL    HW1 6524   6.093   5.027   6.990
 1875SOL    HW2 6525   6.047   4.885   6.924
 1876SOL     OW 6526   6.530   6.081   6.221
 1876SOL    HW1 6527   6.555   6.067   6.125
 1876SOL    HW2 6528   6.431   6.085   6.230
 1877SOL     OW 6529   0.443   1.209   2.350
 1877SOL    HW1 6530   0.434   1.304   2.320
 1877SOL    HW2 6531   0.389   1.195   2.433
 1878SOL     OW 6532   0.213   4.843   3.343
 1878SOL    HW1 6533   0.131   4.819   3.290
 1878SOL    HW2 6534   0.227   4.942   3.339
 1879SOL     OW 6535   3.582   5.654   4.954
 1879SOL    HW1 6536   3.556   5.611   5.040
 1879SOL    HW2 6537   3.541   5.604   4.877
 1880SOL     OW 6538   0.138   1.858   3.648
 1880SOL    HW1 6539   0.159   1.834   3.553
 1880SOL    HW2 6540   0.118   1.775   3.700
 1881SOL     OW 6541   1.204   1.655   3.938
 1881SOL    HW1 6542   1.109   1.681   3.922
 1881SOL    HW2 6543   1.215   1.557   3.921
 1882SOL     OW 6544   1.331   5.662   0.318
 1882SOL    HW1 6545   1.260   5.592   0.308
 1882SOL    HW2 6546   1.389   5.640   0.395
 1883SOL     OW 6547   1.641   3.175   3.204
 1883SOL    HW1 6548   1.655   3.248   3.271
 1883SOL    HW2 6549   1.721   3.168   3.145
 1884SOL     OW 6550   3.018   1.019   0.412
 1884SOL    HW1 6551   2.934   1.068   0.436
 1884SOL    HW2 6552   3.040   0.954   0.484
 1885SOL     OW 6553   0.209   2.438   1.070
 1885SOL    HW1 6554   0.183   2.431   1.166
 1885SOL    HW2 6555   0.142   2.390   1.013
 1886SOL     OW 6556   2.666   2.460   0.016
 1886SOL    HW1 6557   2.764   2.478   0.014
 1886SOL    HW2 6558   2.637   2.424   6.951
 1887SOL     OW 6559   1.457   6.207   5.705
 1887SOL    HW1 6560   1.358   6.199   5.696
 1887SOL    HW2 6561   1.483   6.203   5.802
 1888SOL     OW 6562   1.642   2.122   6.641
 1888SOL    HW1 6563   1.686   2.049   6.693
 1888SOL    HW2 6564   1.557   2.088   6.601
 1889SOL     OW 6565   4.628   3.150   0.398
 1889SOL    HW1 6566   4.589   3.227   0.447
 1889SOL    HW2 6567   4.617   3.163   0.300
 1890SOL     OW 6568   0.138   6.159   6.192
 1890SOL    HW1 6569   0.224   6.123   6.228
 1890SOL    HW2 6570   0.086   6.085   6.149
 1891SOL     OW 6571   6.237   3.342   5.615
 1891SOL    HW1 6572   6.192   3.320   5.529
 1891SOL    HW2 6573   6.336   3.341   5.603
 1892SOL     OW 6574   3.914   5.320   1.978
 1892SOL    HW1 6575   3.939   5.245   2.040
 1892SOL    HW2 6576   3.830   5.296   1.929
 1893SOL     OW 6577   3.953   1.893   4.273
 1893SOL    HW1 6578   3.867   1.846   4.253
 1893SOL    HW2 6579   3.994   1.925   4.187
 1894SOL     OW 6580   4.731   3.744   1.280
 1894SOL    HW1 6581   4.825   3.777   1.276
 1894SOL    HW2 6582   4.669   3.820   1.299
 1895SOL     OW 6583   6.268   0.807   3.240
 1895SOL    HW1 6584   6.211   0.785   3.319
 1895SOL    HW2 6585   6.355   0.760   3.247
 1896SOL     OW 6586   6.774   1.318   4.800
 1896SOL    HW1 6587   6.722   1.235   4.815
 1896SOL    HW2 6588   6.783   1.368   4.886
 1897SOL     OW 6589   5.455   4.550   2.967
 1897SOL    HW1 6590   5.530   4.525   2.906
 1897SOL    HW2 6591   5.433   4.647   2.955
 1898SOL     OW 6592   5.402   5.073   1.108
 1898SOL    HW1 6593   5.402   5.170   1.084
 1898SOL    HW2 6594   5.415   5.064   1.207
 1899SOL     OW 6595   0.784   2.805   3.220
 1899SOL    HW1 6596   0.715   2.775   3.287
 1899SOL    HW2 6597   0.754   2.779   3.128
 1900SOL     OW 6598   1.605   5.617   6.166
 1900SOL    HW1 6599   1.620   5.572   6.078
 1900SOL    HW2 6600   1.522   5.674   6.161
 1901SOL     OW 6601   1.838   0.613   6.970
 1901SOL    HW1 6602   1.855   0.543   0.016
 1901SOL    HW2 6603   1.925   0.649   6.936
 1902SOL     OW 6604   0.877   3.135   4.522
 1902SOL    HW1 6605   0.930   3.050   4.516
 1902SOL    HW2 6606   0.892   3.189   4.439
 1903SOL     OW 6607   6.199   3.725   3.102
 1903SOL    HW1 6608   6.122   3.769   3.147
 1903SOL    HW2 6609   6.182   3.626   3.096
 1904SOL     OW 6610   6.315   6.869   3.920
 1904SOL    HW1 6611   6.391   6.905   3.866
 1904SOL    HW2 6612   6.347   6.847   4.012
 1905SOL     OW 6613   0.238   2.082   3.880
 1905SOL    HW1 6614   0.323   2.079   3.828
 1905SOL    HW2 6615   0.189   2.167   3.860
 1906SOL     OW 6616   2.555   0.270   6.430
 1906SOL    HW1 6617   2.610   0.328   6.370
 1906SOL    HW2 6618   2.518   0.326   6.505
 1907SOL     OW 6619   3.293   6.352   3.418
 1907SOL    HW1 6620   3.242   6.268   3.436
 1907SOL    HW2 6621   3.372   6.357   3.479
 1908SOL     OW 6622   4.111   1.444   5.966
 1908SOL    HW1 6623   4.152   1.415   6.052
 1908SOL    HW2 6624   4.176   1.501   5.915
 1909SOL     OW 6625   2.217   4.969   4.722
 1909SOL    HW1 6626   2.272   4.922   4.653
 1909SOL    HW2 6627   2.143   4.909   4.753
 1910SOL     OW 6628   5.415   2.274   5.886
 1910SOL    HW1 6629   5.471   2.255   5.966
 1910SOL    HW2 6630   5.471   2.322   5.818
 1911SOL     OW 6631   6.428   2.770   4.929
 1911SOL    HW1 6632   6.486   2.846   4.900
 1911SOL    HW2 6633   6.470   2.683   4.901
 1912SOL     OW 6634   3.838   0.052   2.457
 1912SOL    HW1 6635   3.751   0.039   2.505
 1912SOL    HW2 6636   3.877   6.986   2.435
 1913SOL     OW 6637   1.351   5.614   5.534
 1913SOL    HW1 6638   1.291   5.554   5.587
 1913SOL    HW2 6639   1.318   5.621   5.440
 1914SOL     OW 6640   3.247   2.494   6.163
 1914SOL    HW1 6641   3.287   2.427   6.099
 1914SOL    HW2 6642   3.172   2.542   6.118
 1915SOL     OW 6643   3.792   0.387   6.046
 1915SOL    HW1 6644   3.694   0.375   6.036
 1915SOL    HW2 6645   3.822   0.464   5.990
 1916SOL     OW 6646   3.200   5.808   2.116
 1916SOL    HW1 6647   3.114   5.851   2.142
 1916SOL    HW2 6648   3.183   5.739   2.046
 1917SOL     OW 6649   2.910   3.706   4.093
 1917SOL    HW1 6650   2.915   3.793   4.044
 1917SOL    HW2 6651   2.963   3.712   4.177
 1918SOL     OW 6652   5.499   5.761   5.724
 1918SOL    HW1 6653   5.448   5.678   5.703
 1918SOL    HW2 6654   5.592   5.753   5.688
 1919SOL     OW 6655   0.692   5.873   2.099
 1919SOL    HW1 6656   0.644   5.947   2.147
 1919SOL    HW2 6657   0.728   5.907   2.012
 1920SOL     OW 6658   0.220   5.606   3.731
 1920SOL    HW1 6659   0.229   5.696   3.774
 1920SOL    HW2 6660   0.231   5.535   3.800
 1921SOL     OW 6661   1.358   6.089   6.819
 1921SOL    HW1 6662   1.301   6.170   6.807
 1921SOL    HW2 6663   1.450   6.108   6.784
 1922SOL     OW 6664   4.054   4.002   1.209
 1922SOL    HW1 6665   4.009   3.914   1.193
 1922SOL    HW2 6666   4.151   3.994   1.189
 1923SOL     OW 6667   2.211   1.432   0.994
 1923SOL    HW1 6668   2.115   1.453   1.014
 1923SOL    HW2 6669   2.215   1.367   0.918
 1924SOL     OW 6670   6.943   4.029   1.818
 1924SOL    HW1 6671   0.007   3.983   1.801
 1924SOL    HW2 6672   6.956   4.101   1.886
 1925SOL     OW 6673   3.620   3.865   1.715
 1925SOL    HW1 6674   3.682   3.940   1.695
 1925SOL    HW2 6675   3.565   3.887   1.796
 1926SOL     OW 6676   1.402   0.121   4.640
 1926SOL    HW1 6677   1.325   0.069   4.603
 1926SOL    HW2 6678   1.417   0.203   4.586
 1927SOL     OW 6679   3.839   3.946   6.942
 1927SOL    HW1 6680   3.830   3.992   6.854
 1927SOL    HW2 6681   3.931   3.906   6.949
 1928SOL     OW 6682   6.173   4.156   5.802
 1928SOL    HW1 6683   6.213   4.069   5.832
 1928SOL    HW2 6684   6.158   4.153   5.703
 1929SOL     OW 6685   1.157   6.241   0.941
 1929SOL    HW1 6686   1.254   6.229   0.921
 1929SOL    HW2 6687   1.104   6.173   0.889
 1930SOL     OW 6688   5.876   4.549   6.064
 1930SOL    HW1 6689   5.783   4.527   6.091
 1930SOL    HW2 6690   5.919   4.469   6.024
 1931SOL     OW 6691   0.834   3.623   4.053
 1931SOL    HW1 6692   0.742   3.589   4.075
 1931SOL    HW2 6693   0.838   3.650   3.957
 1932SOL     OW 6694   4.934   4.104   1.972
 1932SOL    HW1 6695   4.991   4.139   2.047
 1932SOL    HW2 6696   4.851   4.159   1.965
 1933SOL     OW 6697   2.379   4.725   0.620
 1933SOL    HW1 6698   2.282   4.706   0.635
 1933SOL    HW2 6699   2.389   4.777   0.535
 1934SOL     OW 6700   1.186   6.907   5.771
 1934SOL    HW1 6701   1.105   6.856   5.742
 1934SOL    HW2 6702   1.177   7.002   5.742
 1935SOL     OW 6703   2.399   0.019   4.132
 1935SOL    HW1 6704   2.488   0.038   4.092
 1935SOL    HW2 6705   2.393   6.946   4.158
 1936SOL     OW 6706   5.654   6.133   4.817
 1936SOL    HW1 6707   5.712   6.215   4.816
 1936SOL    HW2 6708   5.587   6.138   4.743
 1937SOL     OW 6709   3.801   6.351   1.953
 1937SOL    HW1 6710   3.744   6.419   1.905
 1937SOL    HW2 6711   3.897   6.369   1.933
 1938SOL     OW 6712   3.955   1.085   3.429
 1938SOL    HW1 6713   4.006   1.072   3.514
 1938SOL    HW2 6714   3.893   1.163   3.439
 1939SOL     OW 6715   1.595   0.833   3.543
 1939SOL    HW1 6716   1.655   0.780   3.603
 1939SOL    HW2 6717   1.570   0.778   3.463
 1940SOL     OW 6718   6.850   5.232   0.067
 1940SOL    HW1 6719   6.919   5.266   0.004
 1940SOL    HW2 6720   6.855   5.284   0.153
 1941SOL     OW 6721   6.072   3.794   2.831
 1941SOL    HW1 6722   6.053   3.892   2.839
 1941SOL    HW2 6723   6.114   3.762   2.917
 1942SOL     OW 6724   6.781   5.462   2.559
 1942SOL    HW1 6725   6.829   5.397   2.619
 1942SOL    HW2 6726   6.688   5.474   2.591
 1943SOL     OW 6727   2.296   4.169   3.274
 1943SOL    HW1 6728   2.321   4.156   3.178
 1943SOL    HW2 6729   2.315   4.264   3.300
 1944SOL     OW 6730   5.616   1.275   6.566
 1944SOL    HW1 6731   5.598   1.185   6.525
 1944SOL    HW2 6732   5.710   1.303   6.543
 1945SOL     OW 6733   4.291   5.573   3.652
 1945SOL    HW1 6734   4.216   5.552   3.714
 1945SOL    HW2 6735   4.320   5.668   3.665
 1946SOL     OW 6736   1.686   0.221   0.453
 1946SOL    HW1 6737   1.716   0.265   0.537
 1946SOL    HW2 6738   1.625   0.282   0.403
 1947SOL     OW 6739   5.565   6.642   3.899
 1947SOL    HW1 6740   5.630   6.568   3.880
 1947SOL    HW2 6741   5.598   6.695   3.977
 1948SOL     OW 6742   6.761   5.873   3.925
 1948SOL    HW1 6743   6.665   5.842   3.925
 1948SOL    HW2 6744   6.789   5.895   4.018
 1949SOL     OW 6745   4.623   4.422   6.270
 1949SOL    HW1 6746   4.675   4.339   6.249
 1949SOL    HW2 6747   4.685   4.500   6.279
 1950SOL     OW 6748   3.408   3.776   6.546
 1950SOL    HW1 6749   3.349   3.797   6.624
 1950SOL    HW2 6750   3.382   3.833   6.468
 1951SOL     OW 6751   5.416   1.778   0.227
 1951SOL    HW1 6752   5.319   1.783   0.251
 1951SOL    HW2 6753   5.429   1.814   0.135
 1952SOL     OW 6754   3.958   2.018   0.918
 1952SOL    HW1 6755   3.934   2.077   0.995
 1952SOL    HW2 6756   4.008   1.938   0.952
 1953SOL     OW 6757   0.035   2.193   6.544
 1953SOL    HW1 6758   6.997   2.151   6.610
 1953SOL    HW2 6759   0.067   2.281   6.578
 1954SOL     OW 6760   4.363   1.820   3.796
 1954SOL    HW1 6761   4.351   1.727   3.759
 1954SOL    HW2 6762   4.404   1.814   3.887
 1955SOL     OW 6763   0.753   6.813   2.150
 1955SOL    HW1 6764   0.827   6.828   2.216
 1955SOL    HW2 6765   0.752   6.887   2.083
 1956SOL     OW 6766   5.327   5.750   2.500
 1956SOL    HW1 6767   5.276   5.679   2.453
 1956SOL    HW2 6768   5.397   5.708   2.558
 1957SOL     OW 6769   0.529   5.474   4.641
 1957SOL    HW1 6770   0.492   5.389   4.601
 1957SOL    HW2 6771   0.629   5.472   4.636
 1958SOL     OW 6772   5.226   3.367   5.281
 1958SOL    HW1 6773   5.145   3.334   5.233
 1958SOL    HW2 6774   5.217   3.466   5.296
 1959SOL     OW 6775   1.317   2.195   5.836
 1959SOL    HW1 6776   1.222   2.223   5.828
 1959SOL    HW2 6777   1.326   2.121   5.902
 1960SOL     OW 6778   6.296   5.157   0.343
 1960SOL    HW1 6779   6.267   5.244   0.303
 1960SOL    HW2 6780   6.389   5.135   0.312
 1961SOL     OW 6781   5.894   4.577   3.554
 1961SOL    HW1 6782   5.855   4.538   3.471
 1961SOL    HW2 6783   5.858   4.529   3.634
 1962SOL     OW 6784   1.279   6.221   3.432
 1962SOL    HW1 6785   1.251   6.226   3.336
 1962SOL    HW2 6786   1.365   6.170   3.438
 1963SOL     OW 6787   0.860   0.158   2.693
 1963SOL    HW1 6788   0.797   0.213   2.747
 1963SOL    HW2 6789   0.900   0.214   2.620
 1964SOL     OW 6790   4.520   2.472   1.948
 1964SOL    HW1 6791   4.462   2.428   2.017
 1964SOL    HW2 6792   4.540   2.566   1.976
 1965SOL     OW 6793   0.564   3.686   2.285
 1965SOL    HW1 6794   0.537   3.751   2.213
 1965SOL    HW2 6795   0.506   3.698   2.365
 1966SOL     OW 6796   6.917   5.254   4.343
 1966SOL    HW1 6797   6.871   5.326   4.292
 1966SOL    HW2 6798   6.858   5.173   4.347
 1967SOL     OW 6799   5.328   3.052   5.832
 1967SOL    HW1 6800   5.231   3.047   5.809
 1967SOL    HW2 6801   5.369   3.130   5.785
 1968SOL     OW 6802   2.892   5.744   6.964
 1968SOL    HW1 6803   2.803   5.729   7.008
 1968SOL    HW2 6804   2.877   5.785   6.874
 1969SOL     OW 6805   6.739   2.671   1.697
 1969SOL    HW1 6806   6.681   2.593   1.718
 1969SOL    HW2 6807   6.749   2.729   1.778
 1970SOL     OW 6808   1.495   0.428   5.800
 1970SOL    HW1 6809   1.590   0.397   5.800
 1970SOL    HW2 6810   1.447   0.385   5.724
 1971SOL     OW 6811   0.129   0.101   6.286
 1971SOL    HW1 6812   0.213   0.073   6.239
 1971SOL    HW2 6813   0.115   0.044   6.367
 1972SOL     OW 6814   0.708   4.236   3.746
 1972SOL    HW1 6815   0.647   4.315   3.758
 1972SOL    HW2 6816   0.798   4.267   3.716
 1973SOL     OW 6817   3.467   2.780   1.821
 1973SOL    HW1 6818   3.528   2.832   1.761
 1973SOL    HW2 6819   3.508   2.691   1.840
 1974SOL     OW 6820   5.525   6.371   4.954
 1974SOL    HW1 6821   5.624   6.366   4.966
 1974SOL    HW2 6822   5.490   6.280   4.930
 1975SOL     OW 6823   2.336   0.913   4.638
 1975SOL    HW1 6824   2.321   0.856   4.720
 1975SOL    HW2 6825   2.371   0.855   4.564
 1976SOL     OW 6826   0.587   5.911   0.506
 1976SOL    HW1 6827   0.584   5.816   0.537
 1976SOL    HW2 6828   0.667   5.957   0.546
 1977SOL     OW 6829   0.844   2.326   4.426
 1977SOL    HW1 6830   0.844   2.322   4.326
 1977SOL    HW2 6831   0.775   2.392   4.456
 1978SOL     OW 6832   0.523   1.037   4.667
 1978SOL    HW1 6833   0.554   0.942   4.671
 1978SOL    HW2 6834   0.456   1.053   4.740
 1979SOL     OW 6835   0.102   4.382   4.919
 1979SOL    HW1 6836   0.040   4.320   4.968
 1979SOL    HW2 6837   0.153   4.437   4.985
 1980SOL     OW 6838   3.193   0.341   0.846
 1980SOL    HW1 6839   3.098   0.310   0.855
 1980SOL    HW2 6840   3.250   0.294   0.913
 1981SOL     OW 6841   5.405   2.566   2.414
 1981SOL    HW1 6842   5.484   2.564   2.475
 1981SOL    HW2 6843   5.328   2.611   2.460
 1982SOL     OW 6844   6.349   4.909   4.960
 1982SOL    HW1 6845   6.338   4.930   4.862
 1982SOL    HW2 6846   6.446   4.896   4.980
 1983SOL     OW 6847   1.423   2.456   3.065
 1983SOL    HW1 6848   1.466   2.520   3.129
 1983SOL    HW2 6849   1.494   2.405   3.016
 1984SOL     OW 6850   4.530   1.458   6.292
 1984SOL    HW1 6851   4.553   1.423   6.383
 1984SOL    HW2 6852   4.433   1.480   6.288
 1985SOL     OW 6853   1.050   0.867   2.294
 1985SOL    HW1 6854   0.993   0.785   2.285
 1985SOL    HW2 6855   0.993   0.945   2.318
 1986SOL     OW 6856   1.342   2.149   6.901
 1986SOL    HW1 6857   1.321   2.191   6.812
 1986SOL    HW2 6858   1.425   2.191   6.938
 1987SOL     OW 6859   2.721   3.115   1.719
 1987SOL    HW1 6860   2.683   3.023   1.715
 1987SOL    HW2 6861   2.820   3.110   1.730
 1988SOL     OW 6862   4.766   4.202   6.939
 1988SOL    HW1 6863   4.773   4.103   6.942
 1988SOL    HW2 6864   4.736   4.236   0.004
 1989SOL     OW 6865   2.360   0.092   4.596
 1989SOL    HW1 6866   2.404   0.008   4.565
 1989SOL    HW2 6867   2.429   0.151   4.640
 1990SOL     OW 6868   3.142   1.156   1.258
 1990SOL    HW1 6869   3.179   1.249   1.262
 1990SOL    HW2 6870   3.162   1.109   1.344
 1991SOL     OW 6871   3.468   5.780   5.556
 1991SOL    HW1 6872   3.394   5.713   5.568
 1991SOL    HW2 6873   3.536   5.742   5.493
 1992SOL     OW 6874   2.299   6.725   5.314
 1992SOL    HW1 6875   2.258   6.802   5.265
 1992SOL    HW2 6876   2.338   6.758   5.400
 1993SOL     OW 6877   3.745   3.608   5.488
 1993SOL    HW1 6878   3.708   3.582   5.399
 1993SOL    HW2 6879   3.671   3.628   5.552
 1994SOL     OW 6880   0.468   2.135   1.776
 1994SOL    HW1 6881   0.553   2.186   1.759
 1994SOL    HW2 6882   0.490   2.045   1.813
 1995SOL     OW 6883   6.404   2.255   1.776
 1995SOL    HW1 6884   6.319   2.234   1.824
 1995SOL    HW2 6885   6.400   2.219   1.683
 1996SOL     OW 6886   3.869   3.400   0.560
 1996SOL    HW1 6887   3.778   3.429   0.533
 1996SOL    HW2 6888   3.916   3.476   0.606
 1997SOL     OW 6889   5.958   1.169   5.051
 1997SOL    HW1 6890   5.892   1.097   5.071
 1997SOL    HW2 6891   5.969   1.178   4.952
 1998SOL     OW 6892   2.655   3.624   6.429
 1998SOL    HW1 6893   2.615   3.643   6.340
 1998SOL    HW2 6894   2.717   3.546   6.422
 1999SOL     OW 6895   2.293   0.267   2.219
 1999SOL    HW1 6896   2.306   0.224   2.308
 1999SOL    HW2 6897   2.205   0.315   2.217
 2000SOL     OW 6898   4.487   1.626   4.798
 2000SOL    HW1 6899   4.455   1.601   4.707
 2000SOL    HW2 6900   4.502   1.725   4.802
 2001SOL     OW 6901   3.955   1.854   1.303
 2001SOL    HW1 6902   3.942   1.860   1.402
 2001SOL    HW2 6903   4.005   1.934   1.271
 2002SOL     OW 6904   2.011   6.554   6.507
 2002SOL    HW1 6905   1.925   6.604   6.494
 2002SOL    HW2 6906   2.033   6.505   6.422
 2003SOL     OW 6907   5.082   0.172   3.624
 2003SOL    HW1 6908   5.073   0.174   3.723
 2003SOL    HW2 6909   5.161   0.117   3.599
 2004SOL     OW 6910   4.281   1.135   4.754
 2004SOL    HW1 6911   4.259   1.195   4.677
 2004SOL    HW2 6912   4.354   1.176   4.808
 2005SOL     OW 6913   2.027   5.947   6.676
 2005SOL    HW1 6914   1.991   5.979   6.764
 2005SOL    HW2 6915   2.115   5.991   6.658
 2006SOL     OW 6916   4.690   4.198   3.992
 2006SOL    HW1 6917   4.718   4.210   4.088
 2006SOL    HW2 6918   4.615   4.260   3.971
 2007SOL     OW 6919   5.223   5.088   6.823
 2007SOL    HW1 6920   5.298   5.027   6.799
 2007SOL    HW2 6921   5.157   5.038   6.881
 2008SOL     OW 6922   6.724   6.172   3.311
 2008SOL    HW1 6923   6.761   6.087   3.348
 2008SOL    HW2 6924   6.635   6.190   3.352
 2009SOL     OW 6925   6.411   0.160   2.010
 2009SOL    HW1 6926   6.503   0.127   2.034
 2009SOL    HW2 6927   6.357   0.171   2.094
 2010SOL     OW 6928   1.677   0.870   1.258
 2010SOL    HW1 6929   1.592   0.847   1.305
 2010SOL    HW2 6930   1.660   0.946   1.195
 2011SOL     OW 6931   6.777   2.511   4.868
 2011SOL    HW1 6932   6.827   2.462   4.797
 2011SOL    HW2 6933   6.819   2.601   4.882
 2012SOL     OW 6934   1.430   4.109   1.439
 2012SOL    HW1 6935   1.400   4.190   1.489
 2012SOL    HW2 6936   1.419   4.028   1.498
 2013SOL     OW 6937   5.284   1.624   3.180
 2013SOL    HW1 6938   5.222   1.651   3.253
 2013SOL    HW2 6939   5.362   1.686   3.177
 2014SOL     OW 6940   0.957   6.126   3.341
 2014SOL    HW1 6941   0.879   6.177   3.377
 2014SOL    HW2 6942   1.027   6.118   3.411
 2015SOL     OW 6943   3.551   0.778   0.193
 2015SOL    HW1 6944   3.571   0.699   0.134
 2015SOL    HW2 6945   3.453   0.784   0.207
 2016SOL     OW 6946   0.884   5.552   4.114
 2016SOL    HW1 6947   0.890   5.580   4.210
 2016SOL    HW2 6948   0.977   5.539   4.077
 2017SOL     OW 6949   2.649   6.423   3.308
 2017SOL    HW1 6950   2.686   6.340   3.350
 2017SOL    HW2 6951   2.620   6.403   3.214
 2018SOL     OW 6952   6.890   5.616   4.942
 2018SOL    HW1 6953   6.839   5.669   5.011
 2018SOL    HW2 6954   6.826   5.580   4.874
 2019SOL     OW 6955   5.429   2.616   0.989
 2019SOL    HW1 6956   5.343   2.661   0.966
 2019SOL    HW2 6957   5.476   2.668   1.060
 2020SOL     OW 6958   1.610   5.414   4.378
 2020SOL    HW1 6959   1.589   5.469   4.297
 2020SOL    HW2 6960   1.704   5.433   4.407
 2021SOL     OW 6961   1.874   0.796   2.376
 2021SOL    HW1 6962   1.868   0.839   2.466
 2021SOL    HW2 6963   1.858   0.865   2.306
 2022SOL     OW 6964   2.114   3.360   1.700
 2022SOL    HW1 6965   2.091   3.428   1.631
 2022SOL    HW2 6966   2.189   3.394   1.757
 2023SOL     OW 6967   6.908   1.246   6.862
 2023SOL    HW1 6968   6.849   1.323   6.888
 2023SOL    HW2 6969   6.852   1.166   6.844
 2024SOL     OW 6970   6.178   0.598   3.538
 2024SOL    HW1 6971   6.139   0.535   3.471
 2024SOL    HW2 6972   6.275   0.613   3.518
 2025SOL     OW 6973   1.047   1.900   1.362
 2025SOL    HW1 6974   1.098   1.971   1.313
 2025SOL    HW2 6975   1.101   1.816   1.365
 2026SOL     OW 6976   2.130   2.351   6.294
 2026SOL    HW1 6977   2.107   2.304   6.209
 2026SOL    HW2 6978   2.229   2.352   6.306
 2027SOL     OW 6979   0.379   0.914   2.311
 2027SOL    HW1 6980   0.456   0.869   2.265
 2027SOL    HW2 6981   0.400   1.010   2.326
 2028SOL     OW 6982   4.035   1.164   0.649
 2028SOL    HW1 6983   4.025   1.150   0.747
 2028SOL    HW2 6984   4.119   1.119   0.618
 2029SOL     OW 6985   1.363   0.621   6.709
 2029SOL    HW1 6986   1.297   0.656   6.775
 2029SOL    HW2 6987   1.452   0.666   6.723
 2030SOL     OW 6988   2.172   2.441   3.693
 2030SOL    HW1 6989   2.191   2.344   3.675
 2030SOL    HW2 6990   2.076   2.461   3.673
 2031SOL     OW 6991   5.158   5.885   2.041
 2031SOL    HW1 6992   5.092   5.953   2.008
 2031SOL    HW2 6993   5.160   5.886   2.141
 2032SOL     OW 6994   5.084   6.167   1.113
 2032SOL    HW1 6995   5.003   6.117   1.142
 2032SOL    HW2 6996   5.134   6.114   1.045
 2033SOL     OW 6997   4.306   4.798   6.324
 2033SOL    HW1 6998   4.350   4.767   6.408
 2033SOL    HW2 6999   4.214   4.832   6.344
 2034SOL     OW 7000   2.106   6.342   3.249
 2034SOL    HW1 7001   2.035   6.290   3.202
 2034SOL    HW2 7002   2.118   6.431   3.205
 2035SOL     OW 7003   6.645   1.781   2.622
 2035SOL    HW1 7004   6.685   1.702   2.669
 2035SOL    HW2 7005   6.546   1.780   2.633
 2036SOL     OW 7006   0.454   5.609   0.987
 2036SOL    HW1 7007   0.475   5.511   0.975
 2036SOL    HW2 7008   0.452   5.630   1.085
 2037SOL     OW 7009   0.157   2.376   5.684
 2037SOL    HW1 7010   0.139   2.466   5.722
 2037SOL    HW2 7011   0.079   2.348   5.627
 2038SOL     OW 7012   1.041   1.436   5.963
 2038SOL    HW1 7013   1.019   1.359   5.902
 2038SOL    HW2 7014   1.053   1.519   5.909
 2039SOL     OW 7015   0.121   6.065   3.954
 2039SOL    HW1 7016   0.164   6.070   3.863
 2039SOL    HW2 7017   0.186   6.094   4.024
 2040SOL     OW 7018   3.541   3.104   4.024
 2040SOL    HW1 7019   3.450   3.137   3.997
 2040SOL    HW2 7020   3.560   3.017   3.980
 2041SOL     OW 7021   5.897   5.100   5.935
 2041SOL    HW1 7022   5.968   5.051   5.884
 2041SOL    HW2 7023   5.878   5.051   6.020
 2042SOL     OW 7024   5.420   5.525   0.674
 2042SOL    HW1 7025   5.429   5.426   0.663
 2042SOL    HW2 7026   5.508   5.564   0.699
 2043SOL     OW 7027   6.495   5.287   2.472
 2043SOL    HW1 7028   6.531   5.315   2.383
 2043SOL    HW2 7029   6.423   5.352   2.500
 2044SOL     OW 7030   5.700   7.020   1.977
 2044SOL    HW1 7031   5.708   0.079   1.922
 2044SOL    HW2 7032   5.791   6.991   2.007
 2045SOL     OW 7033   2.241   4.993   5.602
 2045SOL    HW1 7034   2.230   4.895   5.586
 2045SOL    HW2 7035   2.304   5.031   5.535
 2046SOL     OW 7036   0.103   0.238   4.344
 2046SOL    HW1 7037   0.063   0.171   4.282
 2046SOL    HW2 7038   0.076   0.331   4.315
 2047SOL     OW 7039   4.683   1.892   1.188
 2047SOL    HW1 7040   4.661   1.878   1.091
 2047SOL    HW2 7041   4.599   1.892   1.242
 2048SOL     OW 7042   3.714   6.750   0.027
 2048SOL    HW1 7043   3.763   6.810   0.092
 2048SOL    HW2 7044   3.696   6.662   0.070
 2049SOL     OW 7045   4.679   1.829   6.872
 2049SOL    HW1 7046   4.627   1.889   6.932
 2049SOL    HW2 7047   4.631   1.821   6.784
 2050SOL     OW 7048   6.079   2.839   3.570
 2050SOL    HW1 7049   6.081   2.818   3.668
 2050SOL    HW2 7050   6.172   2.858   3.538
 2051SOL     OW 7051   0.421   5.050   6.610
 2051SOL    HW1 7052   0.433   5.146   6.585
 2051SOL    HW2 7053   0.374   5.044   6.698
 2052SOL     OW 7054   0.470   3.379   0.084
 2052SOL    HW1 7055   0.567   3.358   0.093
 2052SOL    HW2 7056   0.423   3.302   0.040
 2053SOL     OW 7057   6.299   6.937   0.356
 2053SOL    HW1 7058   6.210   6.931   0.403
 2053SOL    HW2 7059   6.358   7.002   0.404
 2054SOL     OW 7060   5.993   2.683   0.929
 2054SOL    HW1 7061   5.948   2.720   1.010
 2054SOL    HW2 7062   6.088   2.659   0.951
 2055SOL     OW 7063   5.535   2.571   3.241
 2055SOL    HW1 7064   5.460   2.508   3.223
 2055SOL    HW2 7065   5.620   2.521   3.250
 2056SOL     OW 7066   2.123   1.533   2.880
 2056SOL    HW1 7067   2.137   1.561   2.974
 2056SOL    HW2 7068   2.211   1.519   2.835
 2057SOL     OW 7069   5.615   2.292   4.145
 2057SOL    HW1 7070   5.627   2.194   4.125
 2057SOL    HW2 7071   5.518   2.313   4.153
 2058SOL     OW 7072   0.716   1.787   3.116
 2058SOL    HW1 7073   0.628   1.822   3.084
 2058SOL    HW2 7074   0.784   1.796   3.043
 2059SOL     OW 7075   2.098   0.026   0.026
 2059SOL    HW1 7076   2.101   0.047   0.123
 2059SOL    HW2 7077   2.101   6.950   0.013
 2060SOL     OW 7078   6.833   4.387   1.506
 2060SOL    HW1 7079   6.900   4.413   1.576
 2060SOL    HW2 7080   6.881   4.358   1.423
 2061SOL     OW 7081   0.167   1.303   2.214
 2061SOL    HW1 7082   0.175   1.334   2.309
 2061SOL    HW2 7083   0.088   1.347   2.171
 2062SOL     OW 7084   5.214   6.861   3.165
 2062SOL    HW1 7085   5.132   6.897   3.121
 2062SOL    HW2 7086   5.209   6.761   3.168
 2063SOL     OW 7087   1.012   1.502   6.669
 2063SOL    HW1 7088   1.010   1.530   6.765
 2063SOL    HW2 7089   1.095   1.450   6.651
 2064SOL     OW 7090   1.097   2.326   5.905
 2064SOL    HW1 7091   1.019   2.285   5.953
 2064SOL    HW2 7092   1.079   2.423   5.889
 2065SOL     OW 7093   5.752   3.543   2.293
 2065SOL    HW1 7094   5.786   3.637   2.300
 2065SOL    HW2 7095   5.755   3.514   2.197
 2066SOL     OW 7096   0.264   5.187   4.346
 2066SOL    HW1 7097   0.239   5.282   4.327
 2066SOL    HW2 7098   0.331   5.184   4.420
 2067SOL     OW 7099   0.054   6.761   0.623
 2067SOL    HW1 7100   0.035   6.789   0.529
 2067SOL    HW2 7101   0.067   6.662   0.627
 2068SOL     OW 7102   2.024   1.259   5.723
 2068SOL    HW1 7103   2.003   1.354   5.750
 2068SOL    HW2 7104   2.052   1.207   5.803
 2069SOL     OW 7105   0.708   2.919   2.886
 2069SOL    HW1 7106   0.634   2.945   2.824
 2069SOL    HW2 7107   0.772   2.995   2.896
 2070SOL     OW 7108   1.485   0.483   2.343
 2070SOL    HW1 7109   1.579   0.495   2.310
 2070SOL    HW2 7110   1.425   0.459   2.266
 2071SOL     OW 7111   0.860   6.454   4.070
 2071SOL    HW1 7112   0.821   6.368   4.037
 2071SOL    HW2 7113   0.786   6.517   4.096
 2072SOL     OW 7114   4.778   5.867   1.951
 2072SOL    HW1 7115   4.795   5.865   1.853
 2072SOL    HW2 7116   4.721   5.789   1.977
 2073SOL     OW 7117   3.810   0.038   4.453
 2073SOL    HW1 7118   3.800   0.136   4.439
 2073SOL    HW2 7119   3.724   0.001   4.489
 2074SOL     OW 7120   0.375   2.139   6.796
 2074SOL    HW1 7121   0.320   2.056   6.789
 2074SOL    HW2 7122   0.471   2.117   6.776
 2075SOL     OW 7123   4.755   3.102   1.404
 2075SOL    HW1 7124   4.797   3.016   1.375
 2075SOL    HW2 7125   4.662   3.084   1.436
 2076SOL     OW 7126   5.669   5.924   0.027
 2076SOL    HW1 7127   5.600   5.971   6.996
 2076SOL    HW2 7128   5.666   5.826   0.007
 2077SOL     OW 7129   5.546   2.571   2.167
 2077SOL    HW1 7130   5.626   2.512   2.160
 2077SOL    HW2 7131   5.505   2.562   2.258
 2078SOL     OW 7132   2.761   5.898   6.310
 2078SOL    HW1 7133   2.777   5.970   6.243
 2078SOL    HW2 7134   2.669   5.860   6.298
 2079SOL     OW 7135   5.630   0.794   3.661
 2079SOL    HW1 7136   5.612   0.828   3.568
 2079SOL    HW2 7137   5.609   0.696   3.665
 2080SOL     OW 7138   2.326   1.738   4.952
 2080SOL    HW1 7139   2.359   1.710   4.862
 2080SOL    HW2 7140   2.394   1.797   4.996
 2081SOL     OW 7141   1.337   6.206   5.390
 2081SOL    HW1 7142   1.297   6.175   5.477
 2081SOL    HW2 7143   1.430   6.239   5.406
 2082SOL     OW 7144   5.744   0.332   1.726
 2082SOL    HW1 7145   5.731   0.233   1.717
 2082SOL    HW2 7146   5.791   0.352   1.812
 2083SOL     OW 7147   4.225   4.580   6.713
 2083SOL    HW1 7148   4.287   4.657   6.733
 2083SOL    HW2 7149   4.236   4.554   6.617
 2084SOL     OW 7150   6.871   2.866   3.841
 2084SOL    HW1 7151   6.936   2.916   3.900
 2084SOL    HW2 7152   6.893   2.884   3.745
 2085SOL     OW 7153   5.314   1.114   6.628
 2085SOL    HW1 7154   5.279   1.198   6.668
 2085SOL    HW2 7155   5.325   1.044   6.699
 2086SOL     OW 7156   2.938   5.467   6.346
 2086SOL    HW1 7157   2.903   5.473   6.252
 2086SOL    HW2 7158   2.983   5.554   6.370
 2087SOL     OW 7159   4.677   6.322   2.097
 2087SOL    HW1 7160   4.771   6.302   2.071
 2087SOL    HW2 7161   4.650   6.411   2.062
 2088SOL     OW 7162   3.204   6.004   0.713
 2088SOL    HW1 7163   3.244   6.094   0.727
 2088SOL    HW2 7164   3.204   5.953   0.799
 2089SOL     OW 7165   4.469   1.385   0.058
 2089SOL    HW1 7166   4.384   1.337   0.078
 2089SOL    HW2 7167   4.503   1.357   6.992
 2090SOL     OW 7168   4.125   3.427   4.128
 2090SOL    HW1 7169   4.152   3.472   4.043
 2090SOL    HW2 7170   4.089   3.496   4.191
 2091SOL     OW 7171   0.428   5.927   0.303
 2091SOL    HW1 7172   0.487   5.917   0.383
 2091SOL    HW2 7173   0.472   5.885   0.223
 2092SOL     OW 7174   5.338   6.178   0.553
 2092SOL    HW1 7175   5.384   6.209   0.470
 2092SOL    HW2 7176   5.313   6.082   0.543
 2093SOL     OW 7177   1.357   1.658   1.826
 2093SOL    HW1 7178   1.275   1.694   1.871
 2093SOL    HW2 7179   1.397   1.585   1.882
 2094SOL     OW 7180   6.392   0.916   1.864
 2094SOL    HW1 7181   6.303   0.881   1.894
 2094SOL    HW2 7182   6.450   0.841   1.834
 2095SOL     OW 7183   5.557   6.895   3.770
 2095SOL    HW1 7184   5.642   6.944   3.752
 2095SOL    HW2 7185   5.576   6.814   3.826
 2096SOL     OW 7186   4.799   4.023   3.223
 2096SOL    HW1 7187   4.850   3.967   3.287
 2096SOL    HW2 7188   4.797   3.978   3.133
 2097SOL     OW 7189   1.135   2.914   6.313
 2097SOL    HW1 7190   1.197   2.955   6.246
 2097SOL    HW2 7191   1.144   2.815   6.309
 2098SOL     OW 7192   3.802   6.198   3.828
 2098SOL    HW1 7193   3.854   6.133   3.883
 2098SOL    HW2 7194   3.865   6.260   3.781
 2099SOL     OW 7195   2.449   1.301   4.958
 2099SOL    HW1 7196   2.452   1.201   4.949
 2099SOL    HW2 7197   2.538   1.334   4.990
 2100SOL     OW 7198   3.836   3.633   6.493
 2100SOL    HW1 7199   3.877   3.550   6.531
 2100SOL    HW2 7200   3.803   3.615   6.401
 2101SOL     OW 7201   1.232   6.624   2.138
 2101SOL    HW1 7202   1.159   6.557   2.128
 2101SOL    HW2 7203   1.211   6.704   2.081
 2102SOL     OW 7204   0.186   5.099   1.909
 2102SOL    HW1 7205   0.260   5.034   1.890
 2102SOL    HW2 7206   0.166   5.100   2.006
 2103SOL     OW 7207   2.601   3.582   0.054
 2103SOL    HW1 7208   2.640   3.608   0.142
 2103SOL    HW2 7209   2.514   3.535   0.069
 2104SOL     OW 7210   1.549   3.605   6.811
 2104SOL    HW1 7211   1.631   3.553   6.836
 2104SOL    HW2 7212   1.567   3.659   6.729
 2105SOL     OW 7213   5.174   5.132   3.322
 2105SOL    HW1 7214   5.116   5.052   3.308
 2105SOL    HW2 7215   5.240   5.112   3.395
 2106SOL     OW 7216   4.134   5.272   0.290
 2106SOL    HW1 7217   4.047   5.290   0.245
 2106SOL    HW2 7218   4.208   5.316   0.238
 2107SOL     OW 7219   4.305   3.260   5.726
 2107SOL    HW1 7220   4.251   3.294   5.803
 2107SOL    HW2 7221   4.363   3.333   5.691
 2108SOL     OW 7222   6.097   6.192   5.876
 2108SOL    HW1 7223   6.165   6.246   5.926
 2108SOL    HW2 7224   6.053   6.128   5.939
 2109SOL     OW 7225   5.286   6.920   3.867
 2109SOL    HW1 7226   5.215   6.938   3.800
 2109SOL    HW2 7227   5.376   6.930   3.825
 2110SOL     OW 7228   3.029   4.004   6.119
 2110SOL    HW1 7229   3.037   3.956   6.207
 2110SOL    HW2 7230   3.116   4.048   6.097
 2111SOL     OW 7231   0.747   2.015   6.285
 2111SOL    HW1 7232   0.760   1.927   6.240
 2111SOL    HW2 7233   0.836   2.055   6.307
 2112SOL     OW 7234   4.703   1.780   1.550
 2112SOL    HW1 7235   4.632   1.767   1.619
 2112SOL    HW2 7236   4.694   1.872   1.511
 2113SOL     OW 7237   1.066   0.018   4.112
 2113SOL    HW1 7238   1.152   0.018   4.061
 2113SOL    HW2 7239   1.057   6.956   4.163
 2114SOL     OW 7240   1.652   3.314   0.569
 2114SOL    HW1 7241   1.601   3.400   0.559
 2114SOL    HW2 7242   1.717   3.324   0.644
 2115SOL     OW 7243   1.878   3.975   3.156
 2115SOL    HW1 7244   1.893   4.060   3.207
 2115SOL    HW2 7245   1.814   3.917   3.207
 2116SOL     OW 7246   6.764   4.007   3.471
 2116SOL    HW1 7247   6.774   4.072   3.396
 2116SOL    HW2 7248   6.675   3.962   3.463
 2117SOL     OW 7249   6.925   4.781   2.098
 2117SOL    HW1 7250   6.896   4.772   2.193
 2117SOL    HW2 7251   6.863   4.730   2.039
 2118SOL     OW 7252   0.464   3.265   2.745
 2118SOL    HW1 7253   0.550   3.213   2.740
 2118SOL    HW2 7254   0.463   3.319   2.828
 2119SOL     OW 7255   2.433   5.897   0.961
 2119SOL    HW1 7256   2.333   5.901   0.949
 2119SOL    HW2 7257   2.455   5.902   1.058
 2120SOL     OW 7258   6.596   5.146   3.374
 2120SOL    HW1 7259   6.556   5.134   3.283
 2120SOL    HW2 7260   6.602   5.243   3.396
 2121SOL     OW 7261   1.046   4.641   5.437
 2121SOL    HW1 7262   1.019   4.590   5.356
 2121SOL    HW2 7263   1.007   4.733   5.433
 2122SOL     OW 7264   6.383   4.113   5.285
 2122SOL    HW1 7265   6.434   4.079   5.364
 2122SOL    HW2 7266   6.287   4.086   5.292
 2123SOL     OW 7267   0.478   4.345   2.689
 2123SOL    HW1 7268   0.379   4.342   2.673
 2123SOL    HW2 7269   0.495   4.372   2.784
 2124SOL     OW 7270   1.993   1.534   1.413
 2124SOL    HW1 7271   2.064   1.570   1.353
 2124SOL    HW2 7272   1.990   1.435   1.407
 2125SOL     OW 7273   1.584   0.814   0.638
 2125SOL    HW1 7274   1.584   0.717   0.613
 2125SOL    HW2 7275   1.515   0.862   0.584
 2126SOL     OW 7276   3.221   0.621   1.004
 2126SOL    HW1 7277   3.264   0.712   0.997
 2126SOL    HW2 7278   3.285   0.552   0.972
 2127SOL     OW 7279   6.170   3.176   4.511
 2127SOL    HW1 7280   6.172   3.138   4.604
 2127SOL    HW2 7281   6.148   3.102   4.447
 2128SOL     OW 7282   0.144   4.448   4.668
 2128SOL    HW1 7283   0.105   4.424   4.756
 2128SOL    HW2 7284   0.130   4.545   4.650
 2129SOL     OW 7285   4.428   3.056   5.597
 2129SOL    HW1 7286   4.365   3.121   5.639
 2129SOL    HW2 7287   4.439   3.079   5.500
 2130SOL     OW 7288   4.799   6.848   2.816
 2130SOL    HW1 7289   4.707   6.886   2.820
 2130SOL    HW2 7290   4.865   6.923   2.805
 2131SOL     OW 7291   0.003   0.870   0.615
 2131SOL    HW1 7292   0.009   0.811   0.696
 2131SOL    HW2 7293   0.095   0.897   0.586
 2132SOL     OW 7294   4.209   3.042   0.869
 2132SOL    HW1 7295   4.126   3.048   0.924
 2132SOL    HW2 7296   4.192   3.079   0.778
 2133SOL     OW 7297   3.004   2.347   5.447
 2133SOL    HW1 7298   3.045   2.338   5.356
 2133SOL    HW2 7299   2.921   2.403   5.441
 2134SOL     OW 7300   0.095   2.053   0.691
 2134SOL    HW1 7301   0.058   1.978   0.746
 2134SOL    HW2 7302   0.171   2.096   0.738
 2135SOL     OW 7303   0.353   4.592   4.317
 2135SOL    HW1 7304   0.304   4.569   4.233
 2135SOL    HW2 7305   0.292   4.581   4.395
 2136SOL     OW 7306   2.864   5.283   2.335
 2136SOL    HW1 7307   2.768   5.290   2.360
 2136SOL    HW2 7308   2.913   5.230   2.404
 2137SOL     OW 7309   3.179   5.114   5.361
 2137SOL    HW1 7310   3.109   5.098   5.431
 2137SOL    HW2 7311   3.143   5.174   5.291
 2138SOL     OW 7312   6.199   1.061   2.785
 2138SOL    HW1 7313   6.248   1.147   2.768
 2138SOL    HW2 7314   6.255   0.985   2.753
 2139SOL     OW 7315   3.937   0.656   4.597
 2139SOL    HW1 7316   3.995   0.727   4.636
 2139SOL    HW2 7317   3.871   0.697   4.535
 2140SOL     OW 7318   3.787   0.299   4.466
 2140SOL    HW1 7319   3.743   0.343   4.545
 2140SOL    HW2 7320   3.821   0.370   4.404
 2141SOL     OW 7321   6.452   4.059   2.488
 2141SOL    HW1 7322   6.383   4.000   2.446
 2141SOL    HW2 7323   6.527   4.002   2.524
 2142SOL     OW 7324   1.146   2.178   3.506
 2142SOL    HW1 7325   1.238   2.157   3.473
 2142SOL    HW2 7326   1.138   2.276   3.523
 2143SOL     OW 7327   2.052   5.772   1.042
 2143SOL    HW1 7328   2.126   5.728   1.093
 2143SOL    HW2 7329   1.983   5.704   1.019
 2144SOL     OW 7330   0.477   4.648   4.061
 2144SOL    HW1 7331   0.397   4.681   4.010
 2144SOL    HW2 7332   0.534   4.726   4.086
 2145SOL     OW 7333   4.188   6.717   4.082
 2145SOL    HW1 7334   4.228   6.708   4.173
 2145SOL    HW2 7335   4.088   6.721   4.090
 2146SOL     OW 7336   2.011   1.888   0.794
 2146SOL    HW1 7337   2.030   1.819   0.863
 2146SOL    HW2 7338   2.088   1.894   0.730
 2147SOL     OW 7339   6.850   1.748   5.837
 2147SOL    HW1 7340   6.847   1.648   5.834
 2147SOL    HW2 7341   6.904   1.778   5.916
 2148SOL     OW 7342   0.242   3.330   6.016
 2148SOL    HW1 7343   0.252   3.237   6.053
 2148SOL    HW2 7344   0.145   3.351   6.005
 2149SOL     OW 7345   1.328   1.338   0.930
 2149SOL    HW1 7346   1.356   1.274   1.001
 2149SOL    HW2 7347   1.386   1.328   0.850
 2150SOL     OW 7348   2.849   2.596   1.695
 2150SOL    HW1 7349   2.883   2.533   1.765
 2150SOL    HW2 7350   2.926   2.647   1.656
 2151SOL     OW 7351   0.893   6.072   0.141
 2151SOL    HW1 7352   0.962   6.006   0.112
 2151SOL    HW2 7353   0.927   6.165   0.124
 2152SOL     OW 7354   3.628   5.298   2.490
 2152SOL    HW1 7355   3.656   5.229   2.423
 2152SOL    HW2 7356   3.688   5.377   2.483
 2153SOL     OW 7357   4.747   1.646   2.663
 2153SOL    HW1 7358   4.800   1.675   2.743
 2153SOL    HW2 7359   4.799   1.667   2.580
 2154SOL     OW 7360   2.833   6.709   3.798
 2154SOL    HW1 7361   2.799   6.759   3.719
 2154SOL    HW2 7362   2.877   6.772   3.862
 2155SOL     OW 7363   4.155   6.783   0.995
 2155SOL    HW1 7364   4.162   6.695   0.949
 2155SOL    HW2 7365   4.228   6.843   0.961
 2156SOL     OW 7366   6.443   0.382   4.384
 2156SOL    HW1 7367   6.423   0.293   4.344
 2156SOL    HW2 7368   6.528   0.377   4.435
 2157SOL     OW 7369   4.474   6.101   3.809
 2157SOL    HW1 7370   4.564   6.096   3.854
 2157SOL    HW2 7371   4.421   6.176   3.849
 2158SOL     OW 7372   4.232   6.559   0.849
 2158SOL    HW1 7373   4.194   6.470   0.823
 2158SOL    HW2 7374   4.290   6.593   0.775
 2159SOL     OW 7375   2.014   0.797   5.082
 2159SOL    HW1 7376   1.944   0.755   5.025
 2159SOL    HW2 7377   1.981   0.803   5.177
 2160SOL     OW 7378   5.017   5.255   6.653
 2160SOL    HW1 7379   5.038   5.172   6.704
 2160SOL    HW2 7380   4.972   5.230   6.566
 2161SOL     OW 7381   0.173   3.995   2.451
 2161SOL    HW1 7382   0.228   3.932   2.506
 2161SOL    HW2 7383   0.121   4.056   2.511
 2162SOL     OW 7384   2.541   6.959   3.084
 2162SOL    HW1 7385   2.537   6.987   3.180
 2162SOL    HW2 7386   2.499   6.868   3.074
 2163SOL     OW 7387   1.747   3.685   0.376
 2163SOL    HW1 7388   1.755   3.719   0.470
 2163SOL    HW2 7389   1.809   3.735   0.316
 2164SOL     OW 7390   2.588   2.851   6.756
 2164SOL    HW1 7391   2.541   2.927   6.711
 2164SOL    HW2 7392   2.686   2.855   6.735
 2165SOL     OW 7393   0.833   1.777   4.218
 2165SOL    HW1 7394   0.806   1.866   4.181
 2165SOL    HW2 7395   0.753   1.731   4.256
 2166SOL     OW 7396   0.131   4.455   4.024
 2166SOL    HW1 7397   0.222   4.437   3.987
 2166SOL    HW2 7398   0.107   4.550   4.009
 2167SOL     OW 7399   0.627   2.901   3.614
 2167SOL    HW1 7400   0.677   2.819   3.588
 2167SOL    HW2 7401   0.576   2.935   3.534
 2168SOL     OW 7402   0.629   1.870   2.792
 2168SOL    HW1 7403   0.600   1.959   2.757
 2168SOL    HW2 7404   0.574   1.846   2.872
 2169SOL     OW 7405   0.167   0.104   0.993
 2169SOL    HW1 7406   0.105   0.179   0.967
 2169SOL    HW2 7407   0.261   0.128   0.966
 2170SOL     OW 7408   0.171   4.244   4.475
 2170SOL    HW1 7409   0.264   4.211   4.493
 2170SOL    HW2 7410   0.152   4.323   4.532
 2171SOL     OW 7411   0.549   5.866   1.306
 2171SOL    HW1 7412   0.511   5.942   1.360
 2171SOL    HW2 7413   0.477   5.798   1.291
 2172SOL     OW 7414   1.768   1.954   5.659
 2172SOL    HW1 7415   1.781   2.052   5.645
 2172SOL    HW2 7416   1.742   1.937   5.754
 2173SOL     OW 7417   5.343   0.107   5.924
 2173SOL    HW1 7418   5.367   0.021   5.878
 2173SOL    HW2 7419   5.346   0.182   5.857
 2174SOL     OW 7420   6.976   6.454   4.795
 2174SOL    HW1 7421   0.029   6.426   4.737
 2174SOL    HW2 7422   6.915   6.375   4.809
 2175SOL     OW 7423   1.936   2.941   4.886
 2175SOL    HW1 7424   1.975   2.855   4.920
 2175SOL    HW2 7425   2.000   3.015   4.904
 2176SOL     OW 7426   4.862   2.486   1.323
 2176SOL    HW1 7427   4.888   2.454   1.414
 2176SOL    HW2 7428   4.777   2.443   1.295
 2177SOL     OW 7429   6.491   0.698   2.504
 2177SOL    HW1 7430   6.459   0.659   2.418
 2177SOL    HW2 7431   6.412   0.720   2.562
 2178SOL     OW 7432   1.314   0.892   2.200
 2178SOL    HW1 7433   1.225   0.887   2.245
 2178SOL    HW2 7434   1.334   0.805   2.155
 2179SOL     OW 7435   1.845   3.093   6.196
 2179SOL    HW1 7436   1.855   3.132   6.105
 2179SOL    HW2 7437   1.931   3.051   6.224
 2180SOL     OW 7438   1.950   3.539   2.002
 2180SOL    HW1 7439   1.950   3.607   2.075
 2180SOL    HW2 7440   2.044   3.510   1.984
 2181SOL     OW 7441   4.770   5.031   4.251
 2181SOL    HW1 7442   4.828   5.043   4.171
 2181SOL    HW2 7443   4.777   5.113   4.309
 2182SOL     OW 7444   0.613   4.612   3.606
 2182SOL    HW1 7445   0.531   4.570   3.567
 2182SOL    HW2 7446   0.617   4.593   3.704
 2183SOL     OW 7447   2.476   3.813   0.660
 2183SOL    HW1 7448   2.419   3.888   0.627
 2183SOL    HW2 7449   2.493   3.748   0.586
 2184SOL     OW 7450   4.700   0.174   6.555
 2184SOL    HW1 7451   4.763   0.096   6.560
 2184SOL    HW2 7452   4.747   0.252   6.514
 2185SOL     OW 7453   1.061   1.199   6.850
 2185SOL    HW1 7454   1.136   1.165   6.793
 2185SOL    HW2 7455   1.070   1.298   6.861
 2186SOL     OW 7456   5.942   5.681   5.920
 2186SOL    HW1 7457   5.869   5.630   5.875
 2186SOL    HW2 7458   5.957   5.767   5.872
 2187SOL     OW 7459   0.211   5.855   2.582
 2187SOL    HW1 7460   0.277   5.907   2.636
 2187SOL    HW2 7461   0.240   5.759   2.577
 2188SOL     OW 7462   2.233   5.147   5.912
 2188SOL    HW1 7463   2.194   5.129   5.822
 2188SOL    HW2 7464   2.243   5.060   5.962
 2189SOL     OW 7465   1.556   0.900   2.365
 2189SOL    HW1 7466   1.482   0.840   2.398
 2189SOL    HW2 7467   1.594   0.862   2.281
 2190SOL     OW 7468   6.731   3.703   2.211
 2190SOL    HW1 7469   6.735   3.795   2.173
 2190SOL    HW2 7470   6.812   3.686   2.267
 2191SOL     OW 7471   2.765   1.415   5.368
 2191SOL    HW1 7472   2.841   1.451   5.313
 2191SOL    HW2 7473   2.801   1.373   5.451
 2192SOL     OW 7474   5.355   0.139   2.761
 2192SOL    HW1 7475   5.435   0.181   2.718
 2192SOL    HW2 7476   5.283   0.209   2.771
 2193SOL     OW 7477   6.268   0.200   5.911
 2193SOL    HW1 7478   6.259   0.268   5.838
 2193SOL    HW2 7479   6.364   0.178   5.924
 2194SOL     OW 7480   0.819   4.011   5.722
 2194SOL    HW1 7481   0.890   4.080   5.708
 2194SOL    HW2 7482   0.842   3.954   5.800
 2195SOL     OW 7483   0.169   6.388   5.342
 2195SOL    HW1 7484   0.233   6.374   5.266
 2195SOL    HW2 7485   0.217   6.433   5.417
 2196SOL     OW 7486   3.095   6.593   4.984
 2196SOL    HW1 7487   3.145   6.672   4.949
 2196SOL    HW2 7488   3.157   6.533   5.034
 2197SOL     OW 7489   2.826   3.410   6.449
 2197SOL    HW1 7490   2.845   3.368   6.360
 2197SOL    HW2 7491   2.905   3.464   6.478
 2198SOL     OW 7492   6.194   0.027   1.085
 2198SOL    HW1 7493   6.115   0.033   1.146
 2198SOL    HW2 7494   6.216   6.954   1.069
 2199SOL     OW 7495   5.128   0.004   5.295
 2199SOL    HW1 7496   5.225   0.024   5.282
 2199SOL    HW2 7497   5.080   0.088   5.320
 2200SOL     OW 7498   2.491   1.312   3.890
 2200SOL    HW1 7499   2.429   1.360   3.951
 2200SOL    HW2 7500   2.541   1.242   3.941
 2201SOL     OW 7501   6.164   2.879   2.901
 2201SOL    HW1 7502   6.097   2.948   2.930
 2201SOL    HW2 7503   6.193   2.899   2.808
 2202SOL     OW 7504   3.397   5.646   2.514
 2202SOL    HW1 7505   3.310   5.638   2.465
 2202SOL    HW2 7506   3.459   5.574   2.481
 2203SOL     OW 7507   2.652   3.520   1.418
 2203SOL    HW1 7508   2.651   3.421   1.404
 2203SOL    HW2 7509   2.605   3.543   1.503
 2204SOL     OW 7510   4.549   2.549   0.953
 2204SOL    HW1 7511   4.533   2.604   0.870
 2204SOL    HW2 7512   4.508   2.595   1.031
 2205SOL     OW 7513   1.398   0.345   0.066
 2205SOL    HW1 7514   1.439   0.254   0.071
 2205SOL    HW2 7515   1.455   0.404   0.009
 2206SOL     OW 7516   2.286   4.239   6.331
 2206SOL    HW1 7517   2.226   4.178   6.384
 2206SOL    HW2 7518   2.329   4.187   6.257
 2207SOL     OW 7519   3.375   5.091   0.141
 2207SOL    HW1 7520   3.461   5.046   0.165
 2207SOL    HW2 7521   3.347   5.151   0.217
 2208SOL     OW 7522   0.649   5.442   2.864
 2208SOL    HW1 7523   0.683   5.443   2.958
 2208SOL    HW2 7524   0.722   5.468   2.801
 2209SOL     OW 7525   2.993   6.217   4.742
 2209SOL    HW1 7526   2.993   6.151   4.667
 2209SOL    HW2 7527   2.939   6.297   4.717
 2210SOL     OW 7528   6.623   5.599   2.943
 2210SOL    HW1 7529   6.661   5.577   3.034
 2210SOL    HW2 7530   6.695   5.638   2.886
 2211SOL     OW 7531   6.317   0.725   0.772
 2211SOL    HW1 7532   6.393   0.672   0.811
 2211SOL    HW2 7533   6.266   0.668   0.708
 2212SOL     OW 7534   1.878   5.783   6.910
 2212SOL    HW1 7535   1.872   5.756   7.006
 2212SOL    HW2 7536   1.942   5.724   6.862
 2213SOL     OW 7537   4.374   2.655   5.588
 2213SOL    HW1 7538   4.422   2.582   5.539
 2213SOL    HW2 7539   4.313   2.615   5.657
 2214SOL     OW 7540   2.905   3.339   4.692
 2214SOL    HW1 7541   2.966   3.411   4.725
 2214SOL    HW2 7542   2.817   3.346   4.738
 2215SOL     OW 7543   5.612   1.744   6.416
 2215SOL    HW1 7544   5.552   1.725   6.339
 2215SOL    HW2 7545   5.558   1.756   6.499
 2216SOL     OW 7546   0.060   0.423   5.674
 2216SOL    HW1 7547   0.070   0.468   5.762
 2216SOL    HW2 7548   0.047   0.491   5.602
 2217SOL     OW 7549   4.327   0.091   3.123
 2217SOL    HW1 7550   4.381   0.152   3.065
 2217SOL    HW2 7551   4.240   0.069   3.078
 2218SOL     OW 7552   6.802   5.307   6.529
 2218SOL    HW1 7553   6.766   5.349   6.446
 2218SOL    HW2 7554   6.784   5.366   6.608
 2219SOL     OW 7555   6.276   2.274   0.854
 2219SOL    HW1 7556   6.183   2.307   0.862
 2219SOL    HW2 7557   6.275   2.174   0.844
 2220SOL     OW 7558   1.578   5.656   5.648
 2220SOL    HW1 7559   1.592   5.753   5.666
 2220SOL    HW2 7560   1.498   5.644   5.588
 2221SOL     OW 7561   6.803   1.798   4.972
 2221SOL    HW1 7562   6.828   1.830   5.063
 2221SOL    HW2 7563   6.739   1.862   4.930
 2222SOL     OW 7564   6.109   0.006   0.653
 2222SOL    HW1 7565   6.159   0.071   0.710
 2222SOL    HW2 7566   6.083   6.950   0.708
 2223SOL     OW 7567   6.107   1.454   6.312
 2223SOL    HW1 7568   6.021   1.505   6.322
 2223SOL    HW2 7569   6.183   1.512   6.342
 2224SOL     OW 7570   5.911   3.304   2.327
 2224SOL    HW1 7571   5.896   3.270   2.234
 2224SOL    HW2 7572   5.874   3.396   2.337
 2225SOL     OW 7573   0.044   6.592   3.196
 2225SOL    HW1 7574   6.992   6.538   3.232
 2225SOL    HW2 7575   0.019   6.689   3.196
 2226SOL     OW 7576   3.979   5.673   0.485
 2226SOL    HW1 7577   3.915   5.596   0.496
 2226SOL    HW2 7578   4.022   5.693   0.573
 2227SOL     OW 7579   4.865   2.591   1.764
 2227SOL    HW1 7580   4.900   2.539   1.842
 2227SOL    HW2 7581   4.780   2.550   1.731
 2228SOL     OW 7582   4.225   5.705   0.088
 2228SOL    HW1 7583   4.304   5.754   0.052
 2228SOL    HW2 7584   4.218   5.720   0.187
 2229SOL     OW 7585   3.898   3.374   4.999
 2229SOL    HW1 7586   3.830   3.301   5.008
 2229SOL    HW2 7587   3.965   3.348   4.930
 2230SOL     OW 7588   5.257   6.404   0.869
 2230SOL    HW1 7589   5.177   6.358   0.830
 2230SOL    HW2 7590   5.238   6.429   0.964
 2231SOL     OW 7591   0.752   0.403   6.966
 2231SOL    HW1 7592   0.744   0.441   0.034
 2231SOL    HW2 7593   0.849   0.390   6.943
 2232SOL     OW 7594   0.976   1.613   4.967
 2232SOL    HW1 7595   0.925   1.613   4.881
 2232SOL    HW2 7596   0.923   1.661   5.037
 2233SOL     OW 7597   2.583   3.115   1.105
 2233SOL    HW1 7598   2.549   3.163   1.186
 2233SOL    HW2 7599   2.536   3.027   1.096
 2234SOL     OW 7600   3.454   1.487   0.863
 2234SOL    HW1 7601   3.409   1.463   0.949
 2234SOL    HW2 7602   3.390   1.474   0.788
 2235SOL     OW 7603   2.573   0.212   1.792
 2235SOL    HW1 7604   2.520   0.276   1.847
 2235SOL    HW2 7605   2.515   0.174   1.720
 2236SOL     OW 7606   1.748   3.439   6.175
 2236SOL    HW1 7607   1.743   3.495   6.092
 2236SOL    HW2 7608   1.656   3.427   6.213
 2237SOL     OW 7609   6.000   4.587   4.899
 2237SOL    HW1 7610   5.923   4.623   4.952
 2237SOL    HW2 7611   5.966   4.532   4.823
 2238SOL     OW 7612   4.575   5.117   2.476
 2238SOL    HW1 7613   4.533   5.033   2.508
 2238SOL    HW2 7614   4.538   5.141   2.386
 2239SOL     OW 7615   4.714   6.052   3.929
 2239SOL    HW1 7616   4.709   6.027   4.026
 2239SOL    HW2 7617   4.807   6.036   3.896
 2240SOL     OW 7618   3.367   5.371   2.876
 2240SOL    HW1 7619   3.437   5.303   2.901
 2240SOL    HW2 7620   3.278   5.327   2.870
 2241SOL     OW 7621   0.109   6.321   1.603
 2241SOL    HW1 7622   0.100   6.419   1.587
 2241SOL    HW2 7623   0.035   6.290   1.663
 2242SOL     OW 7624   5.136   3.705   2.913
 2242SOL    HW1 7625   5.091   3.615   2.918
 2242SOL    HW2 7626   5.221   3.697   2.862
 2243SOL     OW 7627   2.114   6.764   0.059
 2243SOL    HW1 7628   2.142   6.760   0.155
 2243SOL    HW2 7629   2.111   6.672   0.021
 2244SOL     OW 7630   3.170   0.065   1.754
 2244SOL    HW1 7631   3.210   0.146   1.711
 2244SOL    HW2 7632   3.076   0.054   1.722
 2245SOL     OW 7633   0.266   1.303   1.473
 2245SOL    HW1 7634   0.270   1.318   1.572
 2245SOL    HW2 7635   0.359   1.293   1.438
 2246SOL     OW 7636   1.977   0.910   4.191
 2246SOL    HW1 7637   2.065   0.953   4.210
 2246SOL    HW2 7638   1.988   0.843   4.118
 2247SOL     OW 7639   3.124   3.501   3.254
 2247SOL    HW1 7640   3.084   3.562   3.186
 2247SOL    HW2 7641   3.051   3.460   3.309
 2248SOL     OW 7642   6.510   3.772   4.615
 2248SOL    HW1 7643   6.531   3.817   4.702
 2248SOL    HW2 7644   6.563   3.688   4.607
 2249SOL     OW 7645   5.015   6.876   3.764
 2249SOL    HW1 7646   4.984   6.797   3.815
 2249SOL    HW2 7647   4.943   6.946   3.763
 2250SOL     OW 7648   3.118   3.750   5.219
 2250SOL    HW1 7649   3.106   3.690   5.299
 2250SOL    HW2 7650   3.206   3.728   5.175
 2251SOL     OW 7651   5.075   0.139   5.960
 2251SOL    HW1 7652   5.039   0.181   5.877
 2251SOL    HW2 7653   5.174   0.130   5.952
 2252SOL     OW 7654   4.658   1.555   3.159
 2252SOL    HW1 7655   4.638   1.513   3.248
 2252SOL    HW2 7656   4.665   1.484   3.090
 2253SOL     OW 7657   6.817   3.685   0.121
 2253SOL    HW1 7658   6.903   3.727   0.093
 2253SOL    HW2 7659   6.822   3.586   0.109
 2254SOL     OW 7660   3.098   3.051   4.262
 2254SOL    HW1 7661   3.057   3.127   4.212
 2254SOL    HW2 7662   3.061   3.049   4.356
 2255SOL     OW 7663   3.104   3.800   5.788
 2255SOL    HW1 7664   3.195   3.793   5.748
 2255SOL    HW2 7665   3.044   3.852   5.726
 2256SOL     OW 7666   4.994   0.081   2.350
 2256SOL    HW1 7667   4.986   0.111   2.445
 2256SOL    HW2 7668   5.025   7.010   2.347
 2257SOL     OW 7669   0.383   1.106   4.402
 2257SOL    HW1 7670   0.435   1.052   4.468
 2257SOL    HW2 7671   0.421   1.198   4.397
 2258SOL     OW 7672   1.290   5.501   4.833
 2258SOL    HW1 7673   1.292   5.552   4.918
 2258SOL    HW2 7674   1.383   5.471   4.810
 2259SOL     OW 7675   5.393   2.851   5.280
 2259SOL    HW1 7676   5.476   2.829   5.331
 2259SOL    HW2 7677   5.338   2.768   5.269
 2260SOL     OW 7678   0.385   3.687   1.455
 2260SOL    HW1 7679   0.416   3.625   1.382
 2260SOL    HW2 7680   0.402   3.781   1.428
 2261SOL     OW 7681   6.552   5.176   0.233
 2261SOL    HW1 7682   6.593   5.264   0.257
 2261SOL    HW2 7683   6.588   5.145   0.145
 2262SOL     OW 7684   6.211   6.981   2.952
 2262SOL    HW1 7685   6.226   0.046   2.995
 2262SOL    HW2 7686   6.164   6.920   3.016
 2263SOL     OW 7687   2.403   6.215   0.167
 2263SOL    HW1 7688   2.410   6.197   0.069
 2263SOL    HW2 7689   2.315   6.258   0.187
 2264SOL     OW 7690   2.958   6.279   6.389
 2264SOL    HW1 7691   2.941   6.348   6.459
 2264SOL    HW2 7692   3.056   6.258   6.386
 2265SOL     OW 7693   1.862   0.713   4.349
 2265SOL    HW1 7694   1.876   0.759   4.261
 2265SOL    HW2 7695   1.773   0.740   4.386
 2266SOL     OW 7696   5.048   1.951   6.261
 2266SOL    HW1 7697   4.976   2.004   6.217
 2266SOL    HW2 7698   5.088   1.887   6.195
 2267SOL     OW 7699   4.876   3.073   5.082
 2267SOL    HW1 7700   4.957   3.015   5.076
 2267SOL    HW2 7701   4.854   3.108   4.991
 2268SOL     OW 7702   6.192   4.436   6.259
 2268SOL    HW1 7703   6.100   4.412   6.229
 2268SOL    HW2 7704   6.230   4.505   6.198
 2269SOL     OW 7705   0.852   3.671   5.397
 2269SOL    HW1 7706   0.915   3.748   5.384
 2269SOL    HW2 7707   0.796   3.687   5.479
 2270SOL     OW 7708   3.938   2.832   5.930
 2270SOL    HW1 7709   3.862   2.877   5.976
 2270SOL    HW2 7710   3.990   2.899   5.877
 2271SOL     OW 7711   5.843   4.450   0.140
 2271SOL    HW1 7712   5.890   4.402   0.065
 2271SOL    HW2 7713   5.908   4.510   0.186
 2272SOL     OW 7714   5.919   1.039   6.859
 2272SOL    HW1 7715   6.013   1.072   6.864
 2272SOL    HW2 7716   5.911   0.971   6.786
 2273SOL     OW 7717   1.256   2.028   1.880
 2273SOL    HW1 7718   1.248   2.099   1.810
 2273SOL    HW2 7719   1.350   1.995   1.883
 2274SOL     OW 7720   0.394   1.691   6.759
 2274SOL    HW1 7721   0.367   1.652   6.671
 2274SOL    HW2 7722   0.429   1.619   6.819
 2275SOL     OW 7723   6.123   6.837   3.191
 2275SOL    HW1 7724   6.209   6.788   3.202
 2275SOL    HW2 7725   6.047   6.772   3.198
 2276SOL     OW 7726   2.319   5.680   1.956
 2276SOL    HW1 7727   2.282   5.657   2.046
 2276SOL    HW2 7728   2.409   5.638   1.945
 2277SOL     OW 7729   3.757   3.998   4.731
 2277SOL    HW1 7730   3.799   4.023   4.644
 2277SOL    HW2 7731   3.711   3.910   4.722
 2278SOL     OW 7732   6.010   2.757   4.013
 2278SOL    HW1 7733   5.921   2.799   4.034
 2278SOL    HW2 7734   5.996   2.663   3.982
 2279SOL     OW 7735   5.861   0.100   5.130
 2279SOL    HW1 7736   5.813   0.017   5.101
 2279SOL    HW2 7737   5.945   0.111   5.077
 2280SOL     OW 7738   6.575   6.779   4.467
 2280SOL    HW1 7739   6.592   6.722   4.547
 2280SOL    HW2 7740   6.541   6.869   4.496
 2281SOL     OW 7741   3.408   0.802   1.830
 2281SOL    HW1 7742   3.380   0.772   1.739
 2281SOL    HW2 7743   3.328   0.820   1.886
 2282SOL     OW 7744   5.189   6.188   5.891
 2282SOL    HW1 7745   5.286   6.184   5.867
 2282SOL    HW2 7746   5.157   6.096   5.913
 2283SOL     OW 7747   1.917   0.101   1.839
 2283SOL    HW1 7748   1.978   0.177   1.862
 2283SOL    HW2 7749   1.893   0.052   1.923
 2284SOL     OW 7750   1.304   3.460   6.623
 2284SOL    HW1 7751   1.267   3.374   6.588
 2284SOL    HW2 7752   1.347   3.445   6.712
 2285SOL     OW 7753   1.006   2.741   0.295
 2285SOL    HW1 7754   0.971   2.835   0.296
 2285SOL    HW2 7755   1.106   2.743   0.288
 2286SOL     OW 7756   5.455   0.180   3.534
 2286SOL    HW1 7757   5.422   0.092   3.499
 2286SOL    HW2 7758   5.554   0.175   3.549
 2287SOL     OW 7759   2.190   0.335   3.612
 2287SOL    HW1 7760   2.100   0.370   3.636
 2287SOL    HW2 7761   2.259   0.378   3.670
 2288SOL     OW 7762   6.302   4.934   3.811
 2288SOL    HW1 7763   6.244   5.003   3.768
 2288SOL    HW2 7764   6.275   4.843   3.780
 2289SOL     OW 7765   0.198   4.902   0.831
 2289SOL    HW1 7766   0.214   4.816   0.879
 2289SOL    HW2 7767   0.111   4.941   0.861
 2290SOL     OW 7768   0.723   3.601   1.109
 2290SOL    HW1 7769   0.670   3.682   1.137
 2290SOL    HW2 7770   0.721   3.593   1.010
 2291SOL     OW 7771   2.511   2.517   5.773
 2291SOL    HW1 7772   2.423   2.505   5.727
 2291SOL    HW2 7773   2.497   2.570   5.857
 2292SOL     OW 7774   1.165   1.897   4.485
 2292SOL    HW1 7775   1.159   1.984   4.534
 2292SOL    HW2 7776   1.257   1.886   4.446
 2293SOL     OW 7777   4.916   6.398   1.812
 2293SOL    HW1 7778   4.816   6.397   1.817
 2293SOL    HW2 7779   4.954   6.388   1.904
 2294SOL     OW 7780   3.034   0.533   0.266
 2294SOL    HW1 7781   3.102   0.542   0.339
 2294SOL    HW2 7782   2.994   0.623   0.247
 2295SOL     OW 7783   0.609   1.792   2.457
 2295SOL    HW1 7784   0.622   1.809   2.555
 2295SOL    HW2 7785   0.514   1.809   2.433
 2296SOL     OW 7786   3.548   6.008   0.451
 2296SOL    HW1 7787   3.495   6.092   0.440
 2296SOL    HW2 7788   3.509   5.936   0.393
 2297SOL     OW 7789   3.674   3.952   5.201
 2297SOL    HW1 7790   3.693   3.911   5.112
 2297SOL    HW2 7791   3.750   4.012   5.226
 2298SOL     OW 7792   4.133   2.765   1.700
 2298SOL    HW1 7793   4.218   2.728   1.663
 2298SOL    HW2 7794   4.147   2.860   1.729
 2299SOL     OW 7795   5.330   0.241   6.672
 2299SOL    HW1 7796   5.412   0.212   6.623
 2299SOL    HW2 7797   5.250   0.195   6.634
 2300SOL     OW 7798   2.726   4.872   1.513
 2300SOL    HW1 7799   2.804   4.821   1.549
 2300SOL    HW2 7800   2.646   4.857   1.571
 2301SOL     OW 7801   2.904   3.295   3.172
 2301SOL    HW1 7802   2.950   3.218   3.128
 2301SOL    HW2 7803   2.923   3.293   3.270
 2302SOL     OW 7804   3.390   6.913   1.726
 2302SOL    HW1 7805   3.312   6.972   1.706
 2302SOL    HW2 7806   3.419   6.867   1.642
 2303SOL     OW 7807   1.492   3.426   6.259
 2303SOL    HW1 7808   1.403   3.461   6.231
 2303SOL    HW2 7809   1.483   3.375   6.345
 2304SOL     OW 7810   3.283   0.369   3.176
 2304SOL    HW1 7811   3.197   0.337   3.215
 2304SOL    HW2 7812   3.265   0.426   3.096
 2305SOL     OW 7813   3.129   6.336   3.112
 2305SOL    HW1 7814   3.127   6.349   3.211
 2305SOL    HW2 7815   3.177   6.412   3.069
 2306SOL     OW 7816   2.027   5.210   2.182
 2306SOL    HW1 7817   1.980   5.239   2.265
 2306SOL    HW2 7818   2.113   5.260   2.173
 2307SOL     OW 7819   1.856   4.129   2.609
 2307SOL    HW1 7820   1.824   4.075   2.687
 2307SOL    HW2 7821   1.829   4.083   2.524
 2308SOL     OW 7822   1.508   6.780   6.871
 2308SOL    HW1 7823   1.509   6.878   6.851
 2308SOL    HW2 7824   1.473   6.730   6.792
 2309SOL     OW 7825   3.118   0.031   0.126
 2309SOL    HW1 7826   3.214   0.059   0.123
 2309SOL    HW2 7827   3.082   0.029   0.032
 2310SOL     OW 7828   5.925   6.219   1.665
 2310SOL    HW1 7829   5.959   6.205   1.572
 2310SOL    HW2 7830   5.974   6.295   1.708
 2311SOL     OW 7831   2.750   6.455   2.596
 2311SOL    HW1 7832   2.677   6.396   2.562
 2311SOL    HW2 7833   2.814   6.401   2.651
 2312SOL     OW 7834   3.583   6.663   3.984
 2312SOL    HW1 7835   3.599   6.565   4.000
 2312SOL    HW2 7836   3.637   6.694   3.906
 2313SOL     OW 7837   5.058   5.139   2.314
 2313SOL    HW1 7838   5.025   5.232   2.296
 2313SOL    HW2 7839   4.980   5.076   2.314
 2314SOL     OW 7840   5.620   0.843   4.388
 2314SOL    HW1 7841   5.714   0.865   4.363
 2314SOL    HW2 7842   5.557   0.888   4.324
 2315SOL     OW 7843   5.044   3.512   4.919
 2315SOL    HW1 7844   4.948   3.507   4.946
 2315SOL    HW2 7845   5.088   3.423   4.933
 2316SOL     OW 7846   2.891   0.596   4.810
 2316SOL    HW1 7847   2.884   0.637   4.901
 2316SOL    HW2 7848   2.977   0.623   4.768
 2317SOL     OW 7849   6.297   6.242   3.202
 2317SOL    HW1 7850   6.216   6.187   3.219
 2317SOL    HW2 7851   6.286   6.332   3.244
 2318SOL     OW 7852   2.126   3.397   4.385
 2318SOL    HW1 7853   2.144   3.471   4.320
 2318SOL    HW2 7854   2.114   3.312   4.335
 2319SOL     OW 7855   3.050   5.304   5.183
 2319SOL    HW1 7856   3.120   5.375   5.178
 2319SOL    HW2 7857   2.995   5.318   5.266
 2320SOL     OW 7858   1.506   2.618   5.330
 2320SOL    HW1 7859   1.511   2.667   5.243
 2320SOL    HW2 7860   1.521   2.520   5.315
 2321SOL     OW 7861   1.801   5.286   0.204
 2321SOL    HW1 7862   1.739   5.248   0.272
 2321SOL    HW2 7863   1.874   5.220   0.185
 2322SOL     OW 7864   2.042   4.341   2.693
 2322SOL    HW1 7865   1.976   4.278   2.652
 2322SOL    HW2 7866   2.005   4.376   2.780
 2323SOL     OW 7867   3.287   4.728   1.766
 2323SOL    HW1 7868   3.372   4.729   1.820
 2323SOL    HW2 7869   3.212   4.764   1.822
 2324SOL     OW 7870   6.560   6.007   0.656
 2324SOL    HW1 7871   6.659   5.993   0.664
 2324SOL    HW2 7872   6.529   6.070   0.727
 2325SOL     OW 7873   0.951   4.295   1.397
 2325SOL    HW1 7874   0.952   4.238   1.316
 2325SOL    HW2 7875   0.919   4.387   1.373
 2326SOL     OW 7876   1.928   0.091   6.858
 2326SOL    HW1 7877   1.990   0.084   6.936
 2326SOL    HW2 7878   1.925   0.003   6.810
 2327SOL     OW 7879   6.778   1.197   3.444
 2327SOL    HW1 7880   6.814   1.143   3.521
 2327SOL    HW2 7881   6.735   1.280   3.479
 2328SOL     OW 7882   1.517   1.602   2.990
 2328SOL    HW1 7883   1.423   1.600   3.026
 2328SOL    HW2 7884   1.570   1.528   3.032
 2329SOL     OW 7885   1.279   4.379   4.742
 2329SOL    HW1 7886   1.338   4.454   4.714
 2329SOL    HW2 7887   1.298   4.299   4.685
 2330SOL     OW 7888   0.310   2.742   1.430
 2330SOL    HW1 7889   0.408   2.725   1.435
 2330SOL    HW2 7890   0.288   2.787   1.344
 2331SOL     OW 7891   3.909   5.019   0.151
 2331SOL    HW1 7892   3.990   4.963   0.138
 2331SOL    HW2 7893   3.895   5.035   0.249
 2332SOL     OW 7894   6.729   0.242   5.272
 2332SOL    HW1 7895   6.634   0.273   5.265
 2332SOL    HW2 7896   6.732   0.144   5.286
 2333SOL     OW 7897   0.012   3.922   3.088
 2333SOL    HW1 7898   0.085   3.951   3.026
 2333SOL    HW2 7899   0.046   3.852   3.150
 2334SOL     OW 7900   1.989   0.623   6.370
 2334SOL    HW1 7901   2.036   0.536   6.359
 2334SOL    HW2 7902   1.999   0.655   6.464
 2335SOL     OW 7903   5.894   0.733   4.124
 2335SOL    HW1 7904   5.863   0.738   4.030
 2335SOL    HW2 7905   5.964   0.661   4.133
 2336SOL     OW 7906   3.879   1.304   4.495
 2336SOL    HW1 7907   3.838   1.364   4.426
 2336SOL    HW2 7908   3.819   1.301   4.575
 2337SOL     OW 7909   4.012   0.457   1.429
 2337SOL    HW1 7910   4.044   0.508   1.509
 2337SOL    HW2 7911   4.087   0.446   1.364
 2338SOL     OW 7912   0.491   3.098   4.905
 2338SOL    HW1 7913   0.542   3.168   4.955
 2338SOL    HW2 7914   0.491   3.121   4.807
 2339SOL     OW 7915   3.252   3.934   3.368
 2339SOL    HW1 7916   3.320   4.007   3.362
 2339SOL    HW2 7917   3.188   3.941   3.291
 2340SOL     OW 7918   6.784   4.448   6.379
 2340SOL    HW1 7919   6.709   4.387   6.354
 2340SOL    HW2 7920   6.809   4.505   6.300
 2341SOL     OW 7921   3.067   4.776   1.971
 2341SOL    HW1 7922   3.043   4.872   1.959
 2341SOL    HW2 7923   2.984   4.721   1.975
 2342SOL     OW 7924   0.946   6.516   5.595
 2342SOL    HW1 7925   1.015   6.475   5.655
 2342SOL    HW2 7926   0.970   6.497   5.500
 2343SOL     OW 7927   1.570   5.078   2.664
 2343SOL    HW1 7928   1.658   5.124   2.660
 2343SOL    HW2 7929   1.576   4.991   2.615
 2344SOL     OW 7930   0.837   5.679   6.880
 2344SOL    HW1 7931   0.745   5.640   6.891
 2344SOL    HW2 7932   0.896   5.612   6.834
 2345SOL     OW 7933   2.973   5.764   5.349
 2345SOL    HW1 7934   3.039   5.839   5.346
 2345SOL    HW2 7935   2.902   5.784   5.417
 2346SOL     OW 7936   3.499   3.789   5.334
 2346SOL    HW1 7937   3.476   3.842   5.416
 2346SOL    HW2 7938   3.570   3.836   5.283
 2347SOL     OW 7939   3.370   2.094   1.526
 2347SOL    HW1 7940   3.391   2.130   1.617
 2347SOL    HW2 7941   3.308   2.157   1.479
 2348SOL     OW 7942   2.567   6.869   3.907
 2348SOL    HW1 7943   2.474   6.869   3.870
 2348SOL    HW2 7944   2.628   6.822   3.844
 2349SOL     OW 7945   0.971   5.230   5.944
 2349SOL    HW1 7946   0.897   5.262   5.885
 2349SOL    HW2 7947   0.971   5.283   6.029
 2350SOL     OW 7948   6.244   6.372   6.102
 2350SOL    HW1 7949   6.325   6.430   6.101
 2350SOL    HW2 7950   6.264   6.289   6.155
 2351SOL     OW 7951   2.615   5.233   4.628
 2351SOL    HW1 7952   2.592   5.171   4.703
 2351SOL    HW2 7953   2.636   5.180   4.546
 2352SOL     OW 7954   0.562   4.123   2.545
 2352SOL    HW1 7955   0.622   4.072   2.607
 2352SOL    HW2 7956   0.533   4.207   2.589
 2353SOL     OW 7957   3.523   5.537   5.200
 2353SOL    HW1 7958   3.583   5.598   5.252
 2353SOL    HW2 7959   3.486   5.467   5.260
 2354SOL     OW 7960   2.849   1.718   5.392
 2354SOL    HW1 7961   2.825   1.795   5.333
 2354SOL    HW2 7962   2.878   1.641   5.336
 2355SOL     OW 7963   1.900   6.896   6.725
 2355SOL    HW1 7964   1.990   6.855   6.711
 2355SOL    HW2 7965   1.847   6.890   6.640
 2356SOL     OW 7966   0.965   3.560   6.468
 2356SOL    HW1 7967   0.999   3.469   6.493
 2356SOL    HW2 7968   0.982   3.577   6.371
 2357SOL     OW 7969   4.450   0.095   2.537
 2357SOL    HW1 7970   4.507   0.064   2.613
 2357SOL    HW2 7971   4.507   0.135   2.465
 2358SOL     OW 7972   3.858   5.389   4.905
 2358SOL    HW1 7973   3.948   5.359   4.874
 2358SOL    HW2 7974   3.837   5.346   4.993
 2359SOL     OW 7975   6.485   1.107   5.344
 2359SOL    HW1 7976   6.508   1.129   5.439
 2359SOL    HW2 7977   6.393   1.068   5.340
 2360SOL     OW 7978   5.590   3.767   0.031
 2360SOL    HW1 7979   5.521   3.756   0.102
 2360SOL    HW2 7980   5.553   3.737   6.967
 2361SOL     OW 7981   2.780   0.832   5.330
 2361SOL    HW1 7982   2.732   0.820   5.417
 2361SOL    HW2 7983   2.856   0.895   5.342
 2362SOL     OW 7984   2.343   6.411   3.950
 2362SOL    HW1 7985   2.286   6.330   3.936
 2362SOL    HW2 7986   2.320   6.453   4.038
 2363SOL     OW 7987   4.486   2.144   4.920
 2363SOL    HW1 7988   4.455   2.230   4.880
 2363SOL    HW2 7989   4.470   2.146   5.018
 2364SOL     OW 7990   0.779   2.096   2.437
 2364SOL    HW1 7991   0.837   2.044   2.374
 2364SOL    HW2 7992   0.685   2.094   2.404
 2365SOL     OW 7993   6.011   2.540   6.435
 2365SOL    HW1 7994   6.045   2.608   6.369
 2365SOL    HW2 7995   6.014   2.449   6.393
 2366SOL     OW 7996   2.500   5.404   6.147
 2366SOL    HW1 7997   2.404   5.377   6.156
 2366SOL    HW2 7998   2.535   5.433   6.236
 2367SOL     OW 7999   2.611   3.670   0.849
 2367SOL    HW1 8000   2.574   3.735   0.783
 2367SOL    HW2 8001   2.700   3.637   0.817
 2368SOL     OW 8002   4.108   0.620   4.241
 2368SOL    HW1 8003   4.018   0.659   4.258
 2368SOL    HW2 8004   4.099   0.525   4.210
 2369SOL     OW 8005   1.657   0.820   5.425
 2369SOL    HW1 8006   1.618   0.785   5.340
 2369SOL    HW2 8007   1.625   0.913   5.441
 2370SOL     OW 8008   4.635   3.178   0.132
 2370SOL    HW1 8009   4.733   3.193   0.121
 2370SOL    HW2 8010   4.586   3.220   0.055
 2371SOL     OW 8011   0.278   6.866   1.887
 2371SOL    HW1 8012   0.233   6.777   1.901
 2371SOL    HW2 8013   0.372   6.852   1.858
 2372SOL     OW 8014   0.450   2.726   2.571
 2372SOL    HW1 8015   0.433   2.687   2.661
 2372SOL    HW2 8016   0.433   2.825   2.574
 2373SOL     OW 8017   0.335   1.909   6.462
 2373SOL    HW1 8018   0.421   1.961   6.457
 2373SOL    HW2 8019   0.304   1.907   6.557
 2374SOL     OW 8020   6.017   1.569   3.797
 2374SOL    HW1 8021   6.073   1.641   3.756
 2374SOL    HW2 8022   5.933   1.608   3.833
 2375SOL     OW 8023   2.895   6.661   4.819
 2375SOL    HW1 8024   2.836   6.713   4.880
 2375SOL    HW2 8025   2.971   6.621   4.871
 2376SOL     OW 8026   6.918   2.368   4.671
 2376SOL    HW1 8027   6.866   2.310   4.608
 2376SOL    HW2 8028   7.015   2.341   4.668
 2377SOL     OW 8029   3.910   3.953   3.059
 2377SOL    HW1 8030   3.942   3.880   3.118
 2377SOL    HW2 8031   3.987   3.987   3.004
 2378SOL     OW 8032   5.229   1.520   0.112
 2378SOL    HW1 8033   5.309   1.505   0.170
 2378SOL    HW2 8034   5.152   1.468   0.148
 2379SOL     OW 8035   5.818   1.927   0.018
 2379SOL    HW1 8036   5.755   1.873   0.074
 2379SOL    HW2 8037   5.815   2.023   0.047
 2380SOL     OW 8038   0.749   1.212   6.926
 2380SOL    HW1 8039   0.847   1.196   6.923
 2380SOL    HW2 8040   0.724   1.255   7.013
 2381SOL     OW 8041   2.076   4.345   4.713
 2381SOL    HW1 8042   2.058   4.303   4.803
 2381SOL    HW2 8043   2.173   4.333   4.690
 2382SOL     OW 8044   1.988   4.381   4.216
 2382SOL    HW1 8045   1.969   4.359   4.312
 2382SOL    HW2 8046   2.085   4.366   4.197
 2383SOL     OW 8047   5.081   6.603   1.746
 2383SOL    HW1 8048   5.172   6.591   1.785
 2383SOL    HW2 8049   5.019   6.536   1.785
 2384SOL     OW 8050   5.754   0.943   3.040
 2384SOL    HW1 8051   5.836   0.967   2.988
 2384SOL    HW2 8052   5.691   1.021   3.041
 2385SOL     OW 8053   1.348   0.386   0.607
 2385SOL    HW1 8054   1.293   0.337   0.539
 2385SOL    HW2 8055   1.298   0.388   0.694
 2386SOL     OW 8056   6.015   5.991   4.338
 2386SOL    HW1 8057   6.094   5.960   4.391
 2386SOL    HW2 8058   6.026   5.965   4.242
 2387SOL     OW 8059   1.462   2.311   3.713
 2387SOL    HW1 8060   1.520   2.261   3.777
 2387SOL    HW2 8061   1.445   2.255   3.632
 2388SOL     OW 8062   0.697   2.257   4.749
 2388SOL    HW1 8063   0.598   2.256   4.737
 2388SOL    HW2 8064   0.741   2.271   4.660
 2389SOL     OW 8065   4.897   4.194   3.417
 2389SOL    HW1 8066   4.846   4.150   3.343
 2389SOL    HW2 8067   4.987   4.221   3.383
 2390SOL     OW 8068   3.488   2.834   2.787
 2390SOL    HW1 8069   3.480   2.888   2.870
 2390SOL    HW2 8070   3.486   2.737   2.810
 2391SOL     OW 8071   4.897   3.986   5.900
 2391SOL    HW1 8072   4.979   4.041   5.915
 2391SOL    HW2 8073   4.816   4.040   5.924
 2392SOL     OW 8074   4.683   6.613   5.398
 2392SOL    HW1 8075   4.748   6.565   5.339
 2392SOL    HW2 8076   4.611   6.654   5.342
 2393SOL     OW 8077   5.758   4.028   6.190
 2393SOL    HW1 8078   5.729   3.938   6.159
 2393SOL    HW2 8079   5.683   4.093   6.180
 2394SOL     OW 8080   1.134   3.595   4.978
 2394SOL    HW1 8081   1.211   3.561   5.031
 2394SOL    HW2 8082   1.159   3.599   4.881
 2395SOL     OW 8083   5.260   2.605   6.391
 2395SOL    HW1 8084   5.238   2.699   6.366
 2395SOL    HW2 8085   5.222   2.585   6.481
 2396SOL     OW 8086   3.225   5.404   1.206
 2396SOL    HW1 8087   3.278   5.326   1.240
 2396SOL    HW2 8088   3.148   5.421   1.268
 2397SOL     OW 8089   6.919   4.077   5.763
 2397SOL    HW1 8090   7.013   4.067   5.794
 2397SOL    HW2 8091   6.862   4.108   5.838
 2398SOL     OW 8092   2.671   3.312   0.069
 2398SOL    HW1 8093   2.661   3.411   0.058
 2398SOL    HW2 8094   2.671   3.290   0.167
 2399SOL     OW 8095   4.730   1.483   2.260
 2399SOL    HW1 8096   4.646   1.461   2.311
 2399SOL    HW2 8097   4.724   1.446   2.168
 2400SOL     OW 8098   3.353   3.862   0.834
 2400SOL    HW1 8099   3.309   3.866   0.744
 2400SOL    HW2 8100   3.441   3.909   0.830
 2401SOL     OW 8101   4.294   6.440   6.044
 2401SOL    HW1 8102   4.350   6.467   6.122
 2401SOL    HW2 8103   4.351   6.433   5.962
 2402SOL     OW 8104   6.875   0.329   3.686
 2402SOL    HW1 8105   6.823   0.359   3.606
 2402SOL    HW2 8106   6.919   0.408   3.728
 2403SOL     OW 8107   2.177   2.937   6.718
 2403SOL    HW1 8108   2.181   2.872   6.794
 2403SOL    HW2 8109   2.240   2.907   6.646
 2404SOL     OW 8110   3.533   1.223   1.358
 2404SOL    HW1 8111   3.445   1.270   1.346
 2404SOL    HW2 8112   3.603   1.290   1.385
 2405SOL     OW 8113   3.586   3.544   2.502
 2405SOL    HW1 8114   3.559   3.589   2.417
 2405SOL    HW2 8115   3.595   3.446   2.486
 2406SOL     OW 8116   2.869   6.628   2.439
 2406SOL    HW1 8117   2.821   6.576   2.510
 2406SOL    HW2 8118   2.945   6.573   2.403
 2407SOL     OW 8119   5.607   1.713   2.527
 2407SOL    HW1 8120   5.621   1.809   2.502
 2407SOL    HW2 8121   5.583   1.660   2.446
 2408SOL     OW 8122   3.766   4.899   3.125
 2408SOL    HW1 8123   3.809   4.861   3.207
 2408SOL    HW2 8124   3.680   4.852   3.107
 2409SOL     OW 8125   1.771   4.918   2.358
 2409SOL    HW1 8126   1.781   4.825   2.322
 2409SOL    HW2 8127   1.691   4.922   2.418
 2410SOL     OW 8128   4.185   3.042   5.323
 2410SOL    HW1 8129   4.087   3.049   5.302
 2410SOL    HW2 8130   4.205   2.951   5.359
 2411SOL     OW 8131   4.196   5.383   5.069
 2411SOL    HW1 8132   4.258   5.307   5.090
 2411SOL    HW2 8133   4.158   5.371   4.978
 2412SOL     OW 8134   4.899   4.953   0.939
 2412SOL    HW1 8135   4.935   4.903   0.861
 2412SOL    HW2 8136   4.975   4.995   0.990
 2413SOL     OW 8137   6.177   1.900   1.232
 2413SOL    HW1 8138   6.198   1.807   1.262
 2413SOL    HW2 8139   6.158   1.901   1.134
 2414SOL     OW 8140   4.860   4.558   2.890
 2414SOL    HW1 8141   4.883   4.647   2.930
 2414SOL    HW2 8142   4.900   4.485   2.945
 2415SOL     OW 8143   6.466   0.721   2.818
 2415SOL    HW1 8144   6.442   0.672   2.901
 2415SOL    HW2 8145   6.564   0.738   2.816
 2416SOL     OW 8146   4.684   2.279   5.551
 2416SOL    HW1 8147   4.779   2.252   5.537
 2416SOL    HW2 8148   4.627   2.197   5.559
 2417SOL     OW 8149   3.523   3.393   5.601
 2417SOL    HW1 8150   3.496   3.411   5.506
 2417SOL    HW2 8151   3.570   3.305   5.606
 2418SOL     OW 8152   2.936   3.276   4.169
 2418SOL    HW1 8153   2.877   3.332   4.111
 2418SOL    HW2 8154   2.938   3.315   4.261
 2419SOL     OW 8155   0.057   0.156   4.852
 2419SOL    HW1 8156   6.998   0.213   4.844
 2419SOL    HW2 8157   0.134   0.203   4.809
 2420SOL     OW 8158   3.207   0.791   2.472
 2420SOL    HW1 8159   3.211   0.767   2.374
 2420SOL    HW2 8160   3.291   0.839   2.497
 2421SOL     OW 8161   2.230   2.170   4.876
 2421SOL    HW1 8162   2.307   2.231   4.895
 2421SOL    HW2 8163   2.223   2.101   4.949
 2422SOL     OW 8164   5.644   1.352   0.767
 2422SOL    HW1 8165   5.644   1.452   0.776
 2422SOL    HW2 8166   5.738   1.318   0.773
 2423SOL     OW 8167   1.474   5.554   2.312
 2423SOL    HW1 8168   1.547   5.487   2.323
 2423SOL    HW2 8169   1.504   5.642   2.348
 2424SOL     OW 8170   6.132   0.201   6.155
 2424SOL    HW1 8171   6.116   0.107   6.184
 2424SOL    HW2 8172   6.172   0.201   6.063
 2425SOL     OW 8173   5.609   0.504   3.677
 2425SOL    HW1 8174   5.634   0.470   3.586
 2425SOL    HW2 8175   5.517   0.473   3.700
 2426SOL     OW 8176   1.091   6.204   5.219
 2426SOL    HW1 8177   1.084   6.107   5.195
 2426SOL    HW2 8178   1.132   6.212   5.310
 2427SOL     OW 8179   5.721   6.059   5.850
 2427SOL    HW1 8180   5.806   6.008   5.833
 2427SOL    HW2 8181   5.664   6.057   5.769
 2428SOL     OW 8182   6.583   0.299   2.346
 2428SOL    HW1 8183   6.486   0.314   2.364
 2428SOL    HW2 8184   6.594   0.220   2.287
 2429SOL     OW 8185   5.423   5.637   3.187
 2429SOL    HW1 8186   5.351   5.568   3.186
 2429SOL    HW2 8187   5.418   5.691   3.103
 2430SOL     OW 8188   5.795   1.112   1.597
 2430SOL    HW1 8189   5.797   1.067   1.686
 2430SOL    HW2 8190   5.734   1.062   1.536
 2431SOL     OW 8191   4.432   0.830   2.012
 2431SOL    HW1 8192   4.531   0.820   2.019
 2431SOL    HW2 8193   4.409   0.896   1.941
 2432SOL     OW 8194   3.423   6.047   2.760
 2432SOL    HW1 8195   3.347   6.110   2.775
 2432SOL    HW2 8196   3.404   5.960   2.806
 2433SOL     OW 8197   3.686   1.593   0.542
 2433SOL    HW1 8198   3.614   1.657   0.517
 2433SOL    HW2 8199   3.696   1.590   0.642
 2434SOL     OW 8200   3.695   1.336   5.744
 2434SOL    HW1 8201   3.647   1.328   5.832
 2434SOL    HW2 8202   3.784   1.379   5.758
 2435SOL     OW 8203   4.325   5.306   5.673
 2435SOL    HW1 8204   4.321   5.308   5.573
 2435SOL    HW2 8205   4.242   5.262   5.708
 2436SOL     OW 8206   1.581   4.978   0.373
 2436SOL    HW1 8207   1.643   4.934   0.308
 2436SOL    HW2 8208   1.545   5.062   0.333
 2437SOL     OW 8209   5.250   6.707   6.497
 2437SOL    HW1 8210   5.318   6.674   6.563
 2437SOL    HW2 8211   5.262   6.658   6.411
 2438SOL     OW 8212   3.367   1.360   6.915
 2438SOL    HW1 8213   3.399   1.319   6.829
 2438SOL    HW2 8214   3.444   1.404   6.962
 2439SOL     OW 8215   1.094   4.238   6.533
 2439SOL    HW1 8216   1.097   4.305   6.607
 2439SOL    HW2 8217   1.183   4.194   6.523
 2440SOL     OW 8218   4.483   6.436   5.815
 2440SOL    HW1 8219   4.537   6.357   5.847
 2440SOL    HW2 8220   4.534   6.520   5.832
 2441SOL     OW 8221   0.478   1.518   0.117
 2441SOL    HW1 8222   0.527   1.606   0.112
 2441SOL    HW2 8223   0.381   1.533   0.099
 2442SOL     OW 8224   0.906   3.244   5.834
 2442SOL    HW1 8225   0.936   3.318   5.895
 2442SOL    HW2 8226   0.986   3.209   5.784
 2443SOL     OW 8227   3.712   5.018   5.677
 2443SOL    HW1 8228   3.623   5.010   5.631
 2443SOL    HW2 8229   3.784   4.989   5.615
 2444SOL     OW 8230   2.788   4.270   6.733
 2444SOL    HW1 8231   2.761   4.251   6.638
 2444SOL    HW2 8232   2.731   4.217   6.795
 2445SOL     OW 8233   7.008   1.331   1.078
 2445SOL    HW1 8234   6.914   1.303   1.095
 2445SOL    HW2 8235   0.006   1.320   0.981
 2446SOL     OW 8236   6.097   4.471   3.886
 2446SOL    HW1 8237   6.119   4.556   3.837
 2446SOL    HW2 8238   6.173   4.445   3.945
 2447SOL     OW 8239   2.274   2.823   0.297
 2447SOL    HW1 8240   2.304   2.804   0.390
 2447SOL    HW2 8241   2.308   2.752   0.235
 2448SOL     OW 8242   0.417   0.785   4.430
 2448SOL    HW1 8243   0.319   0.767   4.441
 2448SOL    HW2 8244   0.466   0.698   4.419
 2449SOL     OW 8245   6.722   4.538   0.048
 2449SOL    HW1 8246   6.676   4.452   0.069
 2449SOL    HW2 8247   6.707   4.561   6.976
 2450SOL     OW 8248   2.233   4.151   2.747
 2450SOL    HW1 8249   2.167   4.212   2.703
 2450SOL    HW2 8250   2.321   4.157   2.700
 2451SOL     OW 8251   1.634   0.226   4.255
 2451SOL    HW1 8252   1.637   0.200   4.158
 2451SOL    HW2 8253   1.677   0.154   4.309
 2452SOL     OW 8254   1.703   3.469   3.120
 2452SOL    HW1 8255   1.682   3.437   3.212
 2452SOL    HW2 8256   1.793   3.511   3.119
 2453SOL     OW 8257   6.651   4.770   1.259
 2453SOL    HW1 8258   6.628   4.733   1.348
 2453SOL    HW2 8259   6.724   4.715   1.218
 2454SOL     OW 8260   4.138   0.736   1.872
 2454SOL    HW1 8261   4.166   0.708   1.964
 2454SOL    HW2 8262   4.173   0.827   1.853
 2455SOL     OW 8263   5.142   6.345   0.486
 2455SOL    HW1 8264   5.163   6.430   0.438
 2455SOL    HW2 8265   5.224   6.289   0.493
 2456SOL     OW 8266   5.037   6.844   2.324
 2456SOL    HW1 8267   4.958   6.817   2.268
 2456SOL    HW2 8268   5.047   6.780   2.400
 2457SOL     OW 8269   5.430   6.547   0.551
 2457SOL    HW1 8270   5.511   6.603   0.568
 2457SOL    HW2 8271   5.351   6.589   0.597
 2458SOL     OW 8272   2.366   5.405   3.594
 2458SOL    HW1 8273   2.405   5.314   3.578
 2458SOL    HW2 8274   2.350   5.450   3.506
 2459SOL     OW 8275   1.581   6.874   0.904
 2459SOL    HW1 8276   1.496   6.843   0.862
 2459SOL    HW2 8277   1.638   6.917   0.835
 2460SOL     OW 8278   2.274   6.772   2.402
 2460SOL    HW1 8279   2.292   6.675   2.388
 2460SOL    HW2 8280   2.179   6.792   2.378
 2461SOL     OW 8281   5.826   0.915   2.282
 2461SOL    HW1 8282   5.787   1.003   2.310
 2461SOL    HW2 8283   5.791   0.890   2.192
 2462SOL     OW 8284   2.358   5.055   0.594
 2462SOL    HW1 8285   2.289   5.004   0.543
 2462SOL    HW2 8286   2.393   5.129   0.538
 2463SOL     OW 8287   6.903   1.932   3.811
 2463SOL    HW1 8288   6.936   1.852   3.762
 2463SOL    HW2 8289   6.939   1.932   3.904
 2464SOL     OW 8290   0.748   4.531   0.807
 2464SOL    HW1 8291   0.779   4.555   0.714
 2464SOL    HW2 8292   0.745   4.432   0.817
 2465SOL     OW 8293   0.101   5.660   1.590
 2465SOL    HW1 8294   0.199   5.662   1.610
 2465SOL    HW2 8295   0.077   5.568   1.558
 2466SOL     OW 8296   4.486   1.553   2.685
 2466SOL    HW1 8297   4.482   1.455   2.706
 2466SOL    HW2 8298   4.578   1.587   2.704
 2467SOL     OW 8299   6.584   1.463   5.857
 2467SOL    HW1 8300   6.619   1.448   5.949
 2467SOL    HW2 8301   6.643   1.417   5.791
 2468SOL     OW 8302   7.010   6.231   2.026
 2468SOL    HW1 8303   6.977   6.165   2.093
 2468SOL    HW2 8304   0.020   6.183   1.945
 2469SOL     OW 8305   2.873   3.963   5.655
 2469SOL    HW1 8306   2.798   4.028   5.648
 2469SOL    HW2 8307   2.940   3.982   5.584
 2470SOL     OW 8308   2.902   3.714   5.968
 2470SOL    HW1 8309   2.934   3.724   6.062
 2470SOL    HW2 8310   2.972   3.745   5.904
 2471SOL     OW 8311   0.925   6.438   1.815
 2471SOL    HW1 8312   0.915   6.422   1.717
 2471SOL    HW2 8313   0.846   6.399   1.863
 2472SOL     OW 8314   5.447   2.175   4.419
 2472SOL    HW1 8315   5.517   2.246   4.414
 2472SOL    HW2 8316   5.490   2.085   4.416
 2473SOL     OW 8317   0.697   5.362   4.285
 2473SOL    HW1 8318   0.780   5.418   4.284
 2473SOL    HW2 8319   0.617   5.422   4.290
 2474SOL     OW 8320   6.911   5.209   5.190
 2474SOL    HW1 8321   6.820   5.180   5.221
 2474SOL    HW2 8322   6.911   5.219   5.091
 2475SOL     OW 8323   4.332   2.359   0.433
 2475SOL    HW1 8324   4.237   2.330   0.423
 2475SOL    HW2 8325   4.378   2.302   0.501
 2476SOL     OW 8326   0.941   1.628   4.030
 2476SOL    HW1 8327   0.924   1.675   3.943
 2476SOL    HW2 8328   0.906   1.684   4.105
 2477SOL     OW 8329   5.487   6.405   1.569
 2477SOL    HW1 8330   5.572   6.411   1.517
 2477SOL    HW2 8331   5.424   6.341   1.524
 2478SOL     OW 8332   6.348   6.716   2.560
 2478SOL    HW1 8333   6.439   6.746   2.590
 2478SOL    HW2 8334   6.281   6.736   2.631
 2479SOL     OW 8335   6.918   2.454   1.464
 2479SOL    HW1 8336   6.937   2.551   1.483
 2479SOL    HW2 8337   6.886   2.409   1.548
 2480SOL     OW 8338   6.595   3.509   1.452
 2480SOL    HW1 8339   6.660   3.575   1.415
 2480SOL    HW2 8340   6.522   3.493   1.386
 2481SOL     OW 8341   3.928   5.601   1.307
 2481SOL    HW1 8342   4.015   5.647   1.326
 2481SOL    HW2 8343   3.868   5.662   1.256
 2482SOL     OW 8344   4.908   3.455   5.509
 2482SOL    HW1 8345   4.889   3.551   5.526
 2482SOL    HW2 8346   4.928   3.441   5.412
 2483SOL     OW 8347   1.130   1.200   0.602
 2483SOL    HW1 8348   1.107   1.120   0.657
 2483SOL    HW2 8349   1.050   1.227   0.548
 2484SOL     OW 8350   2.654   0.897   0.524
 2484SOL    HW1 8351   2.602   0.882   0.440
 2484SOL    HW2 8352   2.716   0.975   0.512
 2485SOL     OW 8353   0.104   5.134   2.154
 2485SOL    HW1 8354   0.137   5.221   2.190
 2485SOL    HW2 8355   0.088   5.071   2.229
 2486SOL     OW 8356   1.988   5.343   3.156
 2486SOL    HW1 8357   1.990   5.442   3.170
 2486SOL    HW2 8358   2.054   5.299   3.217
 2487SOL     OW 8359   3.965   6.781   0.556
 2487SOL    HW1 8360   3.916   6.727   0.487
 2487SOL    HW2 8361   3.944   6.878   0.543
 2488SOL     OW 8362   2.796   4.254   1.188
 2488SOL    HW1 8363   2.762   4.296   1.272
 2488SOL    HW2 8364   2.877   4.199   1.209
 2489SOL     OW 8365   1.496   5.157   5.519
 2489SOL    HW1 8366   1.495   5.086   5.448
 2489SOL    HW2 8367   1.586   5.200   5.521
 2490SOL     OW 8368   6.491   4.131   0.684
 2490SOL    HW1 8369   6.492   4.077   0.767
 2490SOL    HW2 8370   6.534   4.080   0.610
 2491SOL     OW 8371   2.895   5.526   3.460
 2491SOL    HW1 8372   2.978   5.581   3.462
 2491SOL    HW2 8373   2.839   5.552   3.381
 2492SOL     OW 8374   4.554   3.480   6.284
 2492SOL    HW1 8375   4.578   3.567   6.240
 2492SOL    HW2 8376   4.613   3.466   6.364
 2493SOL     OW 8377   5.574   1.533   2.774
 2493SOL    HW1 8378   5.614   1.580   2.853
 2493SOL    HW2 8379   5.476   1.554   2.769
 2494SOL     OW 8380   4.788   2.653   2.489
 2494SOL    HW1 8381   4.800   2.752   2.481
 2494SOL    HW2 8382   4.732   2.620   2.413
 2495SOL     OW 8383   5.336   1.070   5.135
 2495SOL    HW1 8384   5.398   1.132   5.183
 2495SOL    HW2 8385   5.286   1.122   5.065
 2496SOL     OW 8386   0.796   5.410   0.220
 2496SOL    HW1 8387   0.731   5.371   0.154
 2496SOL    HW2 8388   0.851   5.336   0.260
 2497SOL     OW 8389   7.011   1.751   0.065
 2497SOL    HW1 8390   0.067   1.793   0.108
 2497SOL    HW2 8391   6.927   1.782   0.111
 2498SOL     OW 8392   1.874   2.960   3.731
 2498SOL    HW1 8393   1.963   3.007   3.733
 2498SOL    HW2 8394   1.881   2.874   3.781
 2499SOL     OW 8395   4.937   0.624   4.633
 2499SOL    HW1 8396   5.030   0.589   4.646
 2499SOL    HW2 8397   4.895   0.580   4.554
 2500SOL     OW 8398   4.926   3.119   6.160
 2500SOL    HW1 8399   4.945   3.177   6.081
 2500SOL    HW2 8400   4.933   3.172   6.244
 2501SOL     OW 8401   6.244   4.476   6.988
 2501SOL    HW1 8402   6.246   4.476   0.064
 2501SOL    HW2 8403   6.292   4.395   6.953
 2502SOL     OW 8404   1.848   6.982   2.879
 2502SOL    HW1 8405   1.816   0.049   2.849
 2502SOL    HW2 8406   1.886   6.933   2.801
 2503SOL     OW 8407   4.121   5.113   6.193
 2503SOL    HW1 8408   4.089   5.199   6.154
 2503SOL    HW2 8409   4.135   5.124   6.291
 2504SOL     OW 8410   1.795   4.834   4.770
 2504SOL    HW1 8411   1.880   4.783   4.757
 2504SOL    HW2 8412   1.803   4.924   4.728
 2505SOL     OW 8413   4.355   5.509   4.112
 2505SOL    HW1 8414   4.300   5.590   4.133
 2505SOL    HW2 8415   4.433   5.536   4.056
 2506SOL     OW 8416   6.630   3.064   6.028
 2506SOL    HW1 8417   6.575   2.986   6.059
 2506SOL    HW2 8418   6.724   3.054   6.061
 2507SOL     OW 8419   6.128   5.921   0.819
 2507SOL    HW1 8420   6.183   5.997   0.855
 2507SOL    HW2 8421   6.123   5.929   0.719
 2508SOL     OW 8422   2.433   1.902   2.306
 2508SOL    HW1 8423   2.491   1.963   2.252
 2508SOL    HW2 8424   2.371   1.853   2.245
 2509SOL     OW 8425   5.774   2.462   3.313
 2509SOL    HW1 8426   5.762   2.371   3.272
 2509SOL    HW2 8427   5.869   2.475   3.340
 2510SOL     OW 8428   3.285   5.270   0.322
 2510SOL    HW1 8429   3.265   5.354   0.373
 2510SOL    HW2 8430   3.264   5.191   0.380
 2511SOL     OW 8431   0.880   0.456   5.181
 2511SOL    HW1 8432   0.971   0.467   5.222
 2511SOL    HW2 8433   0.885   0.480   5.084
 2512SOL     OW 8434   4.885   4.042   4.919
 2512SOL    HW1 8435   4.844   4.127   4.885
 2512SOL    HW2 8436   4.980   4.036   4.889
 2513SOL     OW 8437   0.969   2.541   6.509
 2513SOL    HW1 8438   0.897   2.610   6.506
 2513SOL    HW2 8439   0.927   2.450   6.521
 2514SOL     OW 8440   1.503   1.066   4.513
 2514SOL    HW1 8441   1.404   1.070   4.526
 2514SOL    HW2 8442   1.541   1.158   4.516
 2515SOL     OW 8443   1.215   5.825   0.680
 2515SOL    HW1 8444   1.276   5.904   0.674
 2515SOL    HW2 8445   1.269   5.741   0.670
 2516SOL     OW 8446   6.104   6.613   3.482
 2516SOL    HW1 8447   6.095   6.587   3.579
 2516SOL    HW2 8448   6.180   6.563   3.442
 2517SOL     OW 8449   2.452   4.622   0.139
 2517SOL    HW1 8450   2.536   4.664   0.106
 2517SOL    HW2 8451   2.474   4.538   0.189
 2518SOL     OW 8452   2.197   3.229   6.727
 2518SOL    HW1 8453   2.235   3.258   6.815
 2518SOL    HW2 8454   2.197   3.129   6.722
 2519SOL     OW 8455   4.745   4.770   4.788
 2519SOL    HW1 8456   4.706   4.678   4.779
 2519SOL    HW2 8457   4.678   4.837   4.757
 2520SOL     OW 8458   2.177   3.552   1.083
 2520SOL    HW1 8459   2.250   3.484   1.085
 2520SOL    HW2 8460   2.201   3.624   1.018
 2521SOL     OW 8461   6.584   0.326   5.601
 2521SOL    HW1 8462   6.576   0.244   5.657
 2521SOL    HW2 8463   6.510   0.328   5.534
 2522SOL     OW 8464   1.144   3.372   4.520
 2522SOL    HW1 8465   1.080   3.300   4.494
 2522SOL    HW2 8466   1.238   3.338   4.511
 2523SOL     OW 8467   0.157   4.041   0.789
 2523SOL    HW1 8468   0.234   4.104   0.799
 2523SOL    HW2 8469   0.184   3.963   0.732
 2524SOL     OW 8470   1.650   6.623   3.807
 2524SOL    HW1 8471   1.658   6.531   3.844
 2524SOL    HW2 8472   1.594   6.621   3.724
 2525SOL     OW 8473   1.399   4.276   4.089
 2525SOL    HW1 8474   1.462   4.235   4.155
 2525SOL    HW2 8475   1.351   4.203   4.039
 2526SOL     OW 8476   6.875   1.603   4.049
 2526SOL    HW1 8477   6.902   1.699   4.044
 2526SOL    HW2 8478   6.782   1.593   4.014
 2527SOL     OW 8479   5.405   6.238   4.670
 2527SOL    HW1 8480   5.383   6.201   4.760
 2527SOL    HW2 8481   5.424   6.163   4.607
 2528SOL     OW 8482   5.956   5.470   0.864
 2528SOL    HW1 8483   5.911   5.508   0.944
 2528SOL    HW2 8484   6.050   5.443   0.888
 2529SOL     OW 8485   5.420   5.356   4.546
 2529SOL    HW1 8486   5.331   5.323   4.576
 2529SOL    HW2 8487   5.456   5.296   4.474
 2530SOL     OW 8488   1.134   0.190   3.025
 2530SOL    HW1 8489   1.203   0.195   2.953
 2530SOL    HW2 8490   1.153   0.111   3.084
 2531SOL     OW 8491   4.487   0.879   5.474
 2531SOL    HW1 8492   4.427   0.867   5.395
 2531SOL    HW2 8493   4.464   0.812   5.544
 2532SOL     OW 8494   1.349   5.414   6.737
 2532SOL    HW1 8495   1.399   5.476   6.798
 2532SOL    HW2 8496   1.409   5.340   6.709
 2533SOL     OW 8497   5.449   6.651   5.627
 2533SOL    HW1 8498   5.524   6.639   5.562
 2533SOL    HW2 8499   5.443   6.748   5.653
 2534SOL     OW 8500   2.066   0.725   4.001
 2534SOL    HW1 8501   2.105   0.695   3.914
 2534SOL    HW2 8502   2.026   0.646   4.048
 2535SOL     OW 8503   1.375   1.169   3.855
 2535SOL    HW1 8504   1.358   1.129   3.765
 2535SOL    HW2 8505   1.371   1.098   3.925
 2536SOL     OW 8506   5.896   1.623   4.603
 2536SOL    HW1 8507   5.976   1.677   4.577
 2536SOL    HW2 8508   5.882   1.551   4.536
 2537SOL     OW 8509   4.949   5.719   1.404
 2537SOL    HW1 8510   4.993   5.767   1.480
 2537SOL    HW2 8511   4.857   5.756   1.390
 2538SOL     OW 8512   1.852   5.080   4.671
 2538SOL    HW1 8513   1.829   5.075   4.574
 2538SOL    HW2 8514   1.928   5.144   4.684
 2539SOL     OW 8515   4.431   0.538   5.369
 2539SOL    HW1 8516   4.367   0.495   5.432
 2539SOL    HW2 8517   4.390   0.619   5.328
 2540SOL     OW 8518   5.385   1.274   2.077
 2540SOL    HW1 8519   5.431   1.269   2.165
 2540SOL    HW2 8520   5.297   1.322   2.087
 2541SOL     OW 8521   1.386   6.458   5.940
 2541SOL    HW1 8522   1.315   6.501   5.997
 2541SOL    HW2 8523   1.442   6.530   5.897
 2542SOL     OW 8524   3.213   1.561   4.349
 2542SOL    HW1 8525   3.191   1.613   4.431
 2542SOL    HW2 8526   3.151   1.483   4.341
 2543SOL     OW 8527   0.901   1.282   2.755
 2543SOL    HW1 8528   0.903   1.369   2.706
 2543SOL    HW2 8529   0.900   1.299   2.853
 2544SOL     OW 8530   6.707   5.019   1.146
 2544SOL    HW1 8531   6.662   4.934   1.174
 2544SOL    HW2 8532   6.753   5.005   1.058
 2545SOL     OW 8533   0.631   1.745   1.668
 2545SOL    HW1 8534   0.594   1.663   1.625
 2545SOL    HW2 8535   0.700   1.787   1.609
 2546SOL     OW 8536   6.402   3.764   1.789
 2546SOL    HW1 8537   6.360   3.814   1.864
 2546SOL    HW2 8538   6.472   3.821   1.746
 2547SOL     OW 8539   5.581   4.407   0.679
 2547SOL    HW1 8540   5.655   4.409   0.613
 2547SOL    HW2 8541   5.493   4.402   0.631
 2548SOL     OW 8542   0.347   0.000   5.225
 2548SOL    HW1 8543   0.439   7.005   5.259
 2548SOL    HW2 8544   0.301   6.938   5.205
 2549SOL     OW 8545   2.025   1.997   1.610
 2549SOL    HW1 8546   2.093   1.988   1.537
 2549SOL    HW2 8547   1.956   1.925   1.600
 2550SOL     OW 8548   4.849   0.345   6.397
 2550SOL    HW1 8549   4.885   0.289   6.322
 2550SOL    HW2 8550   4.803   0.425   6.359
 2551SOL     OW 8551   3.005   5.304   6.828
 2551SOL    HW1 8552   2.982   5.387   6.777
 2551SOL    HW2 8553   3.052   5.328   6.913
 2552SOL     OW 8554   2.079   5.682   0.264
 2552SOL    HW1 8555   2.139   5.609   0.298
 2552SOL    HW2 8556   2.086   5.687   0.164
 2553SOL     OW 8557   3.977   2.170   6.671
 2553SOL    HW1 8558   3.939   2.191   6.761
 2553SOL    HW2 8559   4.041   2.241   6.643
 2554SOL     OW 8560   1.924   5.961   1.230
 2554SOL    HW1 8561   1.939   5.871   1.188
 2554SOL    HW2 8562   1.927   5.951   1.330
 2555SOL     OW 8563   5.784   6.296   5.988
 2555SOL    HW1 8564   5.779   6.209   5.937
 2555SOL    HW2 8565   5.742   6.368   5.933
 2556SOL     OW 8566   3.325   0.048   1.193
 2556SOL    HW1 8567   3.332   0.125   1.129
 2556SOL    HW2 8568   3.231   0.039   1.225
 2557SOL     OW 8569   3.525   0.727   0.606
 2557SOL    HW1 8570   3.573   0.796   0.660
 2557SOL    HW2 8571   3.522   0.641   0.658
 2558SOL     OW 8572   5.366   4.434   6.992
 2558SOL    HW1 8573   5.358   4.499   0.043
 2558SOL    HW2 8574   5.461   4.430   6.961
 2559SOL     OW 8575   0.825   3.756   3.812
 2559SOL    HW1 8576   0.915   3.767   3.768
 2559SOL    HW2 8577   0.774   3.841   3.804
 2560SOL     OW 8578   4.937   2.578   2.896
 2560SOL    HW1 8579   5.008   2.601   2.829
 2560SOL    HW2 8580   4.852   2.624   2.871
 2561SOL     OW 8581   3.195   0.873   4.303
 2561SOL    HW1 8582   3.107   0.867   4.350
 2561SOL    HW2 8583   3.268   0.849   4.366
 2562SOL     OW 8584   3.044   6.409   3.627
 2562SOL    HW1 8585   3.125   6.439   3.678
 2562SOL    HW2 8586   3.044   6.452   3.536
 2563SOL     OW 8587   3.058   1.178   6.872
 2563SOL    HW1 8588   2.979   1.149   6.926
 2563SOL    HW2 8589   3.093   1.265   6.907
 2564SOL     OW 8590   1.708   1.002   0.830
 2564SOL    HW1 8591   1.687   0.920   0.776
 2564SOL    HW2 8592   1.655   1.079   0.795
 2565SOL     OW 8593   1.187   1.746   6.611
 2565SOL    HW1 8594   1.105   1.779   6.656
 2565SOL    HW2 8595   1.205   1.652   6.639
 2566SOL     OW 8596   3.102   0.854   1.654
 2566SOL    HW1 8597   3.008   0.885   1.642
 2566SOL    HW2 8598   3.120   0.779   1.590
 2567SOL     OW 8599   1.490   0.072   0.016
 2567SOL    HW1 8600   1.512   0.018   0.096
 2567SOL    HW2 8601   1.535   0.034   6.959
 2568SOL     OW 8602   2.546   6.022   1.206
 2568SOL    HW1 8603   2.596   6.105   1.182
 2568SOL    HW2 8604   2.521   6.025   1.303
 2569SOL     OW 8605   1.683   1.331   1.502
 2569SOL    HW1 8606   1.653   1.338   1.406
 2569SOL    HW2 8607   1.654   1.242   1.539
 2570SOL     OW 8608   5.210   6.055   0.004
 2570SOL    HW1 8609   5.161   6.123   6.973
 2570SOL    HW2 8610   5.199   6.075   0.101
 2571SOL     OW 8611   3.782   3.075   4.145
 2571SOL    HW1 8612   3.692   3.078   4.103
 2571SOL    HW2 8613   3.787   2.998   4.208
 2572SOL     OW 8614   2.632   5.402   1.463
 2572SOL    HW1 8615   2.623   5.304   1.443
 2572SOL    HW2 8616   2.576   5.454   1.399
 2573SOL     OW 8617   6.938   2.146   4.138
 2573SOL    HW1 8618   6.894   2.176   4.054
 2573SOL    HW2 8619   7.015   2.207   4.159
 2574SOL     OW 8620   6.725   3.726   1.336
 2574SOL    HW1 8621   6.667   3.801   1.305
 2574SOL    HW2 8622   6.782   3.758   1.412
 2575SOL     OW 8623   5.656   3.968   0.243
 2575SOL    HW1 8624   5.683   3.886   0.192
 2575SOL    HW2 8625   5.631   3.943   0.336
 2576SOL     OW 8626   2.158   0.200   2.945
 2576SOL    HW1 8627   2.204   0.113   2.926
 2576SOL    HW2 8628   2.064   0.197   2.911
 2577SOL     OW 8629   3.047   6.862   3.185
 2577SOL    HW1 8630   3.128   6.804   3.180
 2577SOL    HW2 8631   2.976   6.816   3.238
 2578SOL     OW 8632   4.541   2.557   4.586
 2578SOL    HW1 8633   4.565   2.611   4.667
 2578SOL    HW2 8634   4.472   2.489   4.610
 2579SOL     OW 8635   0.247   2.403   6.674
 2579SOL    HW1 8636   0.273   2.464   6.748
 2579SOL    HW2 8637   0.259   2.308   6.702
 2580SOL     OW 8638   1.594   2.373   6.584
 2580SOL    HW1 8639   1.626   2.278   6.586
 2580SOL    HW2 8640   1.588   2.403   6.489
 2581SOL     OW 8641   5.215   5.531   2.295
 2581SOL    HW1 8642   5.256   5.445   2.325
 2581SOL    HW2 8643   5.286   5.589   2.255
 2582SOL     OW 8644   0.964   5.420   2.466
 2582SOL    HW1 8645   0.885   5.382   2.418
 2582SOL    HW2 8646   0.967   5.519   2.453
 2583SOL     OW 8647   0.822   0.354   0.578
 2583SOL    HW1 8648   0.880   0.281   0.614
 2583SOL    HW2 8649   0.726   0.332   0.596
 2584SOL     OW 8650   3.319   6.339   0.944
 2584SOL    HW1 8651   3.310   6.430   0.904
 2584SOL    HW2 8652   3.241   6.282   0.918
 2585SOL     OW 8653   3.065   6.872   0.604
 2585SOL    HW1 8654   3.027   6.825   0.684
 2585SOL    HW2 8655   3.002   6.944   0.574
 2586SOL     OW 8656   6.173   1.691   4.457
 2586SOL    HW1 8657   6.206   1.597   4.465
 2586SOL    HW2 8658   6.133   1.705   4.367
 2587SOL     OW 8659   5.972   6.574   4.527
 2587SOL    HW1 8660   6.010   6.531   4.609
 2587SOL    HW2 8661   5.876   6.548   4.517
 2588SOL     OW 8662   5.993   0.704   1.513
 2588SOL    HW1 8663   5.959   0.738   1.601
 2588SOL    HW2 8664   6.093   0.708   1.511
 2589SOL     OW 8665   6.440   0.079   5.615
 2589SOL    HW1 8666   6.385   0.079   5.531
 2589SOL    HW2 8667   6.465   7.009   5.639
 2590SOL     OW 8668   4.102   6.740   2.702
 2590SOL    HW1 8669   4.063   6.657   2.662
 2590SOL    HW2 8670   4.154   6.790   2.633
 2591SOL     OW 8671   5.058   6.059   1.535
 2591SOL    HW1 8672   4.995   6.119   1.486
 2591SOL    HW2 8673   5.024   6.043   1.627
 2592SOL     OW 8674   3.115   5.395   0.952
 2592SOL    HW1 8675   3.033   5.445   0.924
 2592SOL    HW2 8676   3.149   5.432   1.039
 2593SOL     OW 8677   3.471   6.251   3.185
 2593SOL    HW1 8678   3.446   6.280   3.277
 2593SOL    HW2 8679   3.474   6.330   3.124
 2594SOL     OW 8680   0.027   0.388   6.515
 2594SOL    HW1 8681   0.068   0.440   6.440
 2594SOL    HW2 8682   0.097   0.329   6.557
 2595SOL     OW 8683   6.903   3.489   4.856
 2595SOL    HW1 8684   6.806   3.465   4.852
 2595SOL    HW2 8685   6.913   3.588   4.847
 2596SOL     OW 8686   4.013   2.146   2.231
 2596SOL    HW1 8687   3.927   2.123   2.276
 2596SOL    HW2 8688   4.089   2.104   2.281
 2597SOL     OW 8689   2.591   3.250   1.445
 2597SOL    HW1 8690   2.546   3.204   1.521
 2597SOL    HW2 8691   2.667   3.194   1.413
 2598SOL     OW 8692   6.850   2.753   4.173
 2598SOL    HW1 8693   6.806   2.841   4.155
 2598SOL    HW2 8694   6.785   2.680   4.153
 2599SOL     OW 8695   4.149   5.904   6.598
 2599SOL    HW1 8696   4.148   5.968   6.675
 2599SOL    HW2 8697   4.215   5.935   6.530
 2600SOL     OW 8698   5.760   3.877   3.778
 2600SOL    HW1 8699   5.836   3.879   3.843
 2600SOL    HW2 8700   5.758   3.788   3.733
 2601SOL     OW 8701   3.574   3.092   5.847
 2601SOL    HW1 8702   3.519   3.010   5.832
 2601SOL    HW2 8703   3.514   3.168   5.873
 2602SOL     OW 8704   0.127   4.681   4.501
 2602SOL    HW1 8705   0.108   4.772   4.466
 2602SOL    HW2 8706   0.051   4.620   4.481
 2603SOL     OW 8707   2.303   2.455   1.389
 2603SOL    HW1 8708   2.215   2.471   1.343
 2603SOL    HW2 8709   2.308   2.360   1.419
 2604SOL     OW 8710   5.101   0.285   1.191
 2604SOL    HW1 8711   5.117   0.271   1.289
 2604SOL    HW2 8712   5.183   0.260   1.140
 2605SOL     OW 8713   4.079   4.802   3.906
 2605SOL    HW1 8714   4.106   4.898   3.914
 2605SOL    HW2 8715   4.107   4.767   3.817
 2606SOL     OW 8716   6.191   4.377   1.187
 2606SOL    HW1 8717   6.254   4.322   1.131
 2606SOL    HW2 8718   6.244   4.435   1.249
 2607SOL     OW 8719   1.317   1.220   3.383
 2607SOL    HW1 8720   1.257   1.293   3.415
 2607SOL    HW2 8721   1.352   1.169   3.462
 2608SOL     OW 8722   5.551   0.333   2.077
 2608SOL    HW1 8723   5.470   0.389   2.056
 2608SOL    HW2 8724   5.523   0.239   2.095
 2609SOL     OW 8725   0.652   2.166   2.724
 2609SOL    HW1 8726   0.742   2.154   2.683
 2609SOL    HW2 8727   0.607   2.246   2.683
 2610SOL     OW 8728   6.661   5.549   4.759
 2610SOL    HW1 8729   6.642   5.497   4.676
 2610SOL    HW2 8730   6.575   5.576   4.803
 2611SOL     OW 8731   5.234   6.930   0.737
 2611SOL    HW1 8732   5.144   6.916   0.779
 2611SOL    HW2 8733   5.224   6.983   0.653
 2612SOL     OW 8734   5.193   6.564   4.244
 2612SOL    HW1 8735   5.149   6.613   4.319
 2612SOL    HW2 8736   5.188   6.620   4.161
 2613SOL     OW 8737   3.475   6.863   2.231
 2613SOL    HW1 8738   3.519   6.794   2.289
 2613SOL    HW2 8739   3.376   6.860   2.245
 2614SOL     OW 8740   6.599   6.852   5.647
 2614SOL    HW1 8741   6.628   6.757   5.631
 2614SOL    HW2 8742   6.628   6.880   5.739
 2615SOL     OW 8743   5.193   5.489   3.555
 2615SOL    HW1 8744   5.244   5.425   3.499
 2615SOL    HW2 8745   5.178   5.449   3.646
 2616SOL     OW 8746   3.884   3.030   2.988
 2616SOL    HW1 8747   3.850   2.985   3.071
 2616SOL    HW2 8748   3.894   2.963   2.915
 2617SOL     OW 8749   3.580   5.227   0.757
 2617SOL    HW1 8750   3.606   5.185   0.670
 2617SOL    HW2 8751   3.517   5.303   0.740
 2618SOL     OW 8752   0.167   0.090   2.008
 2618SOL    HW1 8753   0.108   0.051   2.079
 2618SOL    HW2 8754   0.203   0.017   1.950
 2619SOL     OW 8755   4.672   1.839   2.033
 2619SOL    HW1 8756   4.756   1.823   2.083
 2619SOL    HW2 8757   4.668   1.935   2.004
 2620SOL     OW 8758   1.105   5.314   3.373
 2620SOL    HW1 8759   1.020   5.272   3.407
 2620SOL    HW2 8760   1.177   5.245   3.369
 2621SOL     OW 8761   0.292   5.440   3.937
 2621SOL    HW1 8762   0.308   5.346   3.968
 2621SOL    HW2 8763   0.336   5.504   3.999
 2622SOL     OW 8764   2.112   3.010   6.251
 2622SOL    HW1 8765   2.170   3.023   6.171
 2622SOL    HW2 8766   2.135   3.078   6.320
 2623SOL     OW 8767   3.418   1.473   3.930
 2623SOL    HW1 8768   3.377   1.453   3.841
 2623SOL    HW2 8769   3.381   1.411   3.999
 2624SOL     OW 8770   5.969   2.747   3.123
 2624SOL    HW1 8771   5.896   2.724   3.187
 2624SOL    HW2 8772   5.948   2.708   3.033
 2625SOL     OW 8773   2.265   2.776   5.475
 2625SOL    HW1 8774   2.278   2.873   5.455
 2625SOL    HW2 8775   2.228   2.764   5.567
 2626SOL     OW 8776   1.392   6.355   3.861
 2626SOL    HW1 8777   1.451   6.285   3.822
 2626SOL    HW2 8778   1.423   6.378   3.953
 2627SOL     OW 8779   0.664   0.813   4.810
 2627SOL    HW1 8780   0.639   0.719   4.832
 2627SOL    HW2 8781   0.733   0.812   4.737
 2628SOL     OW 8782   3.428   6.526   6.126
 2628SOL    HW1 8783   3.408   6.542   6.223
 2628SOL    HW2 8784   3.356   6.565   6.070
 2629SOL     OW 8785   3.741   4.125   1.665
 2629SOL    HW1 8786   3.669   4.186   1.698
 2629SOL    HW2 8787   3.783   4.163   1.583
 2630SOL     OW 8788   3.699   1.576   2.259
 2630SOL    HW1 8789   3.731   1.555   2.167
 2630SOL    HW2 8790   3.609   1.619   2.254
 2631SOL     OW 8791   4.766   6.894   4.399
 2631SOL    HW1 8792   4.773   6.828   4.474
 2631SOL    HW2 8793   4.718   6.976   4.431
 2632SOL     OW 8794   3.443   2.337   0.147
 2632SOL    HW1 8795   3.416   2.268   0.213
 2632SOL    HW2 8796   3.542   2.332   0.131
 2633SOL     OW 8797   6.065   2.457   6.688
 2633SOL    HW1 8798   6.023   2.520   6.754
 2633SOL    HW2 8799   6.035   2.481   6.595
 2634SOL     OW 8800   1.891   4.255   2.038
 2634SOL    HW1 8801   1.903   4.223   2.132
 2634SOL    HW2 8802   1.912   4.180   1.975
 2635SOL     OW 8803   5.480   6.035   4.479
 2635SOL    HW1 8804   5.412   6.037   4.405
 2635SOL    HW2 8805   5.562   5.988   4.447
 2636SOL     OW 8806   5.866   6.872   6.089
 2636SOL    HW1 8807   5.780   6.919   6.068
 2636SOL    HW2 8808   5.847   6.776   6.109
 2637SOL     OW 8809   5.940   0.447   3.166
 2637SOL    HW1 8810   6.008   0.472   3.096
 2637SOL    HW2 8811   5.879   0.378   3.129
 2638SOL     OW 8812   5.081   6.423   1.509
 2638SOL    HW1 8813   5.142   6.448   1.434
 2638SOL    HW2 8814   5.098   6.482   1.588
 2639SOL     OW 8815   6.003   6.530   2.175
 2639SOL    HW1 8816   6.029   6.440   2.209
 2639SOL    HW2 8817   5.931   6.568   2.233
 2640SOL     OW 8818   0.217   6.408   4.743
 2640SOL    HW1 8819   0.269   6.322   4.739
 2640SOL    HW2 8820   0.266   6.479   4.692
 2641SOL     OW 8821   5.471   3.514   0.064
 2641SOL    HW1 8822   5.440   3.567   0.142
 2641SOL    HW2 8823   5.435   3.421   0.069
 2642SOL     OW 8824   5.321   0.294   4.489
 2642SOL    HW1 8825   5.264   0.319   4.410
 2642SOL    HW2 8826   5.392   0.363   4.501
 2643SOL     OW 8827   6.836   5.727   2.796
 2643SOL    HW1 8828   6.881   5.647   2.757
 2643SOL    HW2 8829   6.776   5.768   2.728
 2644SOL     OW 8830   1.132   5.009   5.779
 2644SOL    HW1 8831   1.108   4.915   5.800
 2644SOL    HW2 8832   1.074   5.071   5.832
 2645SOL     OW 8833   5.321   6.676   5.904
 2645SOL    HW1 8834   5.357   6.596   5.952
 2645SOL    HW2 8835   5.277   6.646   5.819
 2646SOL     OW 8836   6.439   0.643   6.245
 2646SOL    HW1 8837   6.384   0.692   6.313
 2646SOL    HW2 8838   6.504   0.705   6.203
 2647SOL     OW 8839   5.101   0.636   0.771
 2647SOL    HW1 8840   5.183   0.593   0.808
 2647SOL    HW2 8841   5.103   0.734   0.791
 2648SOL     OW 8842   6.666   6.645   2.440
 2648SOL    HW1 8843   6.623   6.557   2.424
 2648SOL    HW2 8844   6.765   6.635   2.441
 2649SOL     OW 8845   3.646   1.509   6.129
 2649SOL    HW1 8846   3.567   1.477   6.075
 2649SOL    HW2 8847   3.652   1.608   6.123
 2650SOL     OW 8848   0.521   4.971   3.344
 2650SOL    HW1 8849   0.498   4.896   3.281
 2650SOL    HW2 8850   0.582   4.937   3.415
 2651SOL     OW 8851   0.542   1.557   1.507
 2651SOL    HW1 8852   0.483   1.624   1.461
 2651SOL    HW2 8853   0.536   1.470   1.459
 2652SOL     OW 8854   3.235   3.029   3.138
 2652SOL    HW1 8855   3.185   2.989   3.061
 2652SOL    HW2 8856   3.231   3.129   3.131
 2653SOL     OW 8857   5.746   0.135   6.285
 2653SOL    HW1 8858   5.797   0.101   6.365
 2653SOL    HW2 8859   5.723   0.231   6.299
 2654SOL     OW 8860   5.496   2.938   6.249
 2654SOL    HW1 8861   5.521   2.951   6.345
 2654SOL    HW2 8862   5.495   3.027   6.203
 2655SOL     OW 8863   4.298   5.615   4.598
 2655SOL    HW1 8864   4.328   5.542   4.536
 2655SOL    HW2 8865   4.309   5.704   4.554
 2656SOL     OW 8866   5.449   4.780   3.944
 2656SOL    HW1 8867   5.445   4.880   3.934
 2656SOL    HW2 8868   5.423   4.755   4.037
 2657SOL     OW 8869   2.664   3.997   6.484
 2657SOL    HW1 8870   2.685   3.925   6.550
 2657SOL    HW2 8871   2.650   3.956   6.394
 2658SOL     OW 8872   6.358   4.717   6.149
 2658SOL    HW1 8873   6.414   4.674   6.220
 2658SOL    HW2 8874   6.293   4.780   6.191
 2659SOL     OW 8875   6.590   2.906   4.493
 2659SOL    HW1 8876   6.665   2.842   4.472
 2659SOL    HW2 8877   6.504   2.855   4.501
 2660SOL     OW 8878   6.758   2.209   2.284
 2660SOL    HW1 8879   6.823   2.214   2.207
 2660SOL    HW2 8880   6.763   2.119   2.326
 2661SOL     OW 8881   3.211   5.883   0.972
 2661SOL    HW1 8882   3.280   5.933   1.024
 2661SOL    HW2 8883   3.255   5.812   0.918
 2662SOL     OW 8884   4.789   6.738   4.610
 2662SOL    HW1 8885   4.781   6.793   4.693
 2662SOL    HW2 8886   4.789   6.641   4.635
 2663SOL     OW 8887   2.106   4.456   1.360
 2663SOL    HW1 8888   2.069   4.540   1.399
 2663SOL    HW2 8889   2.148   4.477   1.271
 2664SOL     OW 8890   3.727   4.114   3.214
 2664SOL    HW1 8891   3.756   4.100   3.309
 2664SOL    HW2 8892   3.790   4.068   3.152
 2665SOL     OW 8893   2.990   1.425   4.384
 2665SOL    HW1 8894   2.905   1.441   4.434
 2665SOL    HW2 8895   2.969   1.404   4.289
 2666SOL     OW 8896   5.097   4.854   0.737
 2666SOL    HW1 8897   5.121   4.757   0.735
 2666SOL    HW2 8898   5.146   4.902   0.664
 2667SOL     OW 8899   1.575   6.273   5.479
 2667SOL    HW1 8900   1.671   6.299   5.490
 2667SOL    HW2 8901   1.537   6.247   5.568
 2668SOL     OW 8902   6.773   3.617   4.386
 2668SOL    HW1 8903   6.836   3.635   4.462
 2668SOL    HW2 8904   6.725   3.531   4.403
 2669SOL     OW 8905   3.728   4.680   5.517
 2669SOL    HW1 8906   3.758   4.586   5.535
 2669SOL    HW2 8907   3.629   4.682   5.506
 2670SOL     OW 8908   6.868   0.636   6.699
 2670SOL    HW1 8909   6.815   0.554   6.722
 2670SOL    HW2 8910   6.865   0.700   6.775
 2671SOL     OW 8911   1.952   3.834   6.536
 2671SOL    HW1 8912   2.003   3.825   6.622
 2671SOL    HW2 8913   1.920   3.744   6.507
 2672SOL     OW 8914   2.007   5.114   0.177
 2672SOL    HW1 8915   2.007   5.029   0.124
 2672SOL    HW2 8916   2.089   5.167   0.158
 2673SOL     OW 8917   4.695   2.696   3.213
 2673SOL    HW1 8918   4.643   2.612   3.201
 2673SOL    HW2 8919   4.700   2.719   3.310
 2674SOL     OW 8920   1.664   4.880   4.262
 2674SOL    HW1 8921   1.633   4.829   4.182
 2674SOL    HW2 8922   1.753   4.846   4.291
 2675SOL     OW 8923   0.802   4.385   5.902
 2675SOL    HW1 8924   0.894   4.412   5.874
 2675SOL    HW2 8925   0.766   4.317   5.838
 2676SOL     OW 8926   5.119   1.796   2.773
 2676SOL    HW1 8927   5.153   1.702   2.771
 2676SOL    HW2 8928   5.034   1.801   2.825
 2677SOL     OW 8929   2.010   4.880   1.697
 2677SOL    HW1 8930   2.077   4.815   1.660
 2677SOL    HW2 8931   2.045   4.918   1.783
 2678SOL     OW 8932   1.295   5.067   6.698
 2678SOL    HW1 8933   1.302   4.969   6.716
 2678SOL    HW2 8934   1.257   5.113   6.778
 2679SOL     OW 8935   3.811   5.045   0.877
 2679SOL    HW1 8936   3.714   5.044   0.902
 2679SOL    HW2 8937   3.866   5.040   0.960
 2680SOL     OW 8938   2.192   1.285   0.753
 2680SOL    HW1 8939   2.237   1.197   0.736
 2680SOL    HW2 8940   2.113   1.294   0.691
 2681SOL     OW 8941   1.377   3.731   4.054
 2681SOL    HW1 8942   1.475   3.712   4.052
 2681SOL    HW2 8943   1.360   3.816   4.104
 2682SOL     OW 8944   5.702   2.983   2.265
 2682SOL    HW1 8945   5.722   2.885   2.268
 2682SOL    HW2 8946   5.757   3.026   2.194
 2683SOL     OW 8947   0.812   4.865   1.187
 2683SOL    HW1 8948   0.731   4.890   1.240
 2683SOL    HW2 8949   0.787   4.796   1.119
 2684SOL     OW 8950   4.107   6.428   2.295
 2684SOL    HW1 8951   4.007   6.425   2.298
 2684SOL    HW2 8952   4.143   6.337   2.276
 2685SOL     OW 8953   5.943   6.473   3.916
 2685SOL    HW1 8954   5.937   6.399   3.983
 2685SOL    HW2 8955   5.913   6.559   3.959
 2686SOL     OW 8956   1.759   2.433   4.471
 2686SOL    HW1 8957   1.857   2.415   4.466
 2686SOL    HW2 8958   1.726   2.465   4.382
 2687SOL     OW 8959   4.025   5.005   2.519
 2687SOL    HW1 8960   3.929   4.979   2.515
 2687SOL    HW2 8961   4.054   5.009   2.615
 2688SOL     OW 8962   3.784   5.209   5.839
 2688SOL    HW1 8963   3.841   5.273   5.787
 2688SOL    HW2 8964   3.760   5.131   5.781
 2689SOL     OW 8965   1.349   1.818   3.518
 2689SOL    HW1 8966   1.294   1.743   3.555
 2689SOL    HW2 8967   1.323   1.904   3.562
 2690SOL     OW 8968   3.713   2.903   3.672
 2690SOL    HW1 8969   3.791   2.942   3.623
 2690SOL    HW2 8970   3.739   2.884   3.767
 2691SOL     OW 8971   2.037   5.816   1.781
 2691SOL    HW1 8972   2.042   5.911   1.751
 2691SOL    HW2 8973   1.973   5.808   1.857
 2692SOL     OW 8974   6.381   4.906   4.077
 2692SOL    HW1 8975   6.332   4.919   3.991
 2692SOL    HW2 8976   6.410   4.811   4.086
 2693SOL     OW 8977   2.229   3.984   3.443
 2693SOL    HW1 8978   2.213   4.048   3.519
 2693SOL    HW2 8979   2.281   4.030   3.371
 2694SOL     OW 8980   2.845   0.324   3.062
 2694SOL    HW1 8981   2.768   0.385   3.083
 2694SOL    HW2 8982   2.884   0.348   2.973
 2695SOL     OW 8983   5.170   2.173   2.648
 2695SOL    HW1 8984   5.124   2.248   2.600
 2695SOL    HW2 8985   5.126   2.086   2.625
 2696SOL     OW 8986   4.021   3.473   5.542
 2696SOL    HW1 8987   3.943   3.531   5.518
 2696SOL    HW2 8988   4.076   3.518   5.612
 2697SOL     OW 8989   3.660   2.074   4.241
 2697SOL    HW1 8990   3.649   2.088   4.142
 2697SOL    HW2 8991   3.751   2.106   4.269
 2698SOL     OW 8992   1.102   4.656   0.671
 2698SOL    HW1 8993   1.172   4.693   0.610
 2698SOL    HW2 8994   1.139   4.577   0.720
 2699SOL     OW 8995   3.389   5.661   0.803
 2699SOL    HW1 8996   3.418   5.713   0.722
 2699SOL    HW2 8997   3.390   5.564   0.781
 2700SOL     OW 8998   2.121   3.316   2.872
 2700SOL    HW1 8999   2.165   3.230   2.846
 2700SOL    HW2 9000   2.151   3.342   2.964
 2701SOL     OW 9001   3.847   0.512   6.768
 2701SOL    HW1 9002   3.799   0.499   6.855
 2701SOL    HW2 9003   3.812   0.594   6.723
 2702SOL     OW 9004   6.649   2.055   3.228
 2702SOL    HW1 9005   6.571   2.044   3.289
 2702SOL    HW2 9006   6.723   2.103   3.277
 2703SOL     OW 9007   2.801   1.471   2.863
 2703SOL    HW1 9008   2.887   1.425   2.888
 2703SOL    HW2 9009   2.765   1.432   2.778
 2704SOL     OW 9010   2.177   5.588   2.203
 2704SOL    HW1 9011   2.133   5.677   2.205
 2704SOL    HW2 9012   2.180   5.550   2.296
 2705SOL     OW 9013   6.983   5.089   3.825
 2705SOL    HW1 9014   6.973   5.157   3.898
 2705SOL    HW2 9015   6.899   5.085   3.771
 2706SOL     OW 9016   6.502   1.667   1.746
 2706SOL    HW1 9017   6.499   1.602   1.669
 2706SOL    HW2 9018   6.596   1.695   1.762
 2707SOL     OW 9019   2.147   0.994   6.609
 2707SOL    HW1 9020   2.145   1.081   6.559
 2707SOL    HW2 9021   2.191   1.007   6.698
 2708SOL     OW 9022   2.373   2.624   2.029
 2708SOL    HW1 9023   2.300   2.568   1.991
 2708SOL    HW2 9024   2.336   2.684   2.100
 2709SOL     OW 9025   4.591   6.199   1.562
 2709SOL    HW1 9026   4.517   6.258   1.593
 2709SOL    HW2 9027   4.669   6.255   1.535
 2710SOL     OW 9028   6.948   3.334   2.867
 2710SOL    HW1 9029   6.860   3.352   2.913
 2710SOL    HW2 9030   7.023   3.361   2.928
 2711SOL     OW 9031   1.532   0.288   2.547
 2711SOL    HW1 9032   1.538   0.349   2.468
 2711SOL    HW2 9033   1.493   0.200   2.518
 2712SOL     OW 9034   3.112   4.909   0.329
 2712SOL    HW1 9035   3.135   4.968   0.406
 2712SOL    HW2 9036   3.034   4.851   0.353
 2713SOL     OW 9037   2.268   2.909   4.835
 2713SOL    HW1 9038   2.312   2.938   4.920
 2713SOL    HW2 9039   2.278   2.810   4.825
 2714SOL     OW 9040   5.633   1.395   5.869
 2714SOL    HW1 9041   5.570   1.466   5.900
 2714SOL    HW2 9042   5.690   1.430   5.795
 2715SOL     OW 9043   5.910   0.450   0.013
 2715SOL    HW1 9044   5.902   0.497   6.949
 2715SOL    HW2 9045   5.987   0.386   0.009
 2716SOL     OW 9046   7.000   5.236   1.293
 2716SOL    HW1 9047   7.003   5.140   1.264
 2716SOL    HW2 9048   6.917   5.279   1.258
 2717SOL     OW 9049   1.277   5.843   1.783
 2717SOL    HW1 9050   1.347   5.789   1.737
 2717SOL    HW2 9051   1.271   5.934   1.741
 2718SOL     OW 9052   1.806   3.808   4.343
 2718SOL    HW1 9053   1.716   3.772   4.321
 2718SOL    HW2 9054   1.806   3.846   4.436
 2719SOL     OW 9055   4.393   4.967   2.260
 2719SOL    HW1 9056   4.404   5.008   2.169
 2719SOL    HW2 9057   4.453   4.888   2.270
 2720SOL     OW 9058   1.844   5.947   3.482
 2720SOL    HW1 9059   1.829   6.043   3.503
 2720SOL    HW2 9060   1.926   5.915   3.529
 2721SOL     OW 9061   2.565   0.338   4.606
 2721SOL    HW1 9062   2.638   0.270   4.612
 2721SOL    HW2 9063   2.557   0.388   4.692
 2722SOL     OW 9064   0.231   5.664   2.810
 2722SOL    HW1 9065   0.236   5.646   2.908
 2722SOL    HW2 9066   0.142   5.634   2.775
 2723SOL     OW 9067   2.367   1.031   5.894
 2723SOL    HW1 9068   2.321   1.102   5.948
 2723SOL    HW2 9069   2.319   0.944   5.907
 2724SOL     OW 9070   3.393   5.001   6.133
 2724SOL    HW1 9071   3.325   5.043   6.073
 2724SOL    HW2 9072   3.478   5.054   6.129
 2725SOL     OW 9073   5.001   4.515   3.326
 2725SOL    HW1 9074   5.101   4.515   3.325
 2725SOL    HW2 9075   4.968   4.503   3.420
 2726SOL     OW 9076   4.859   4.873   1.930
 2726SOL    HW1 9077   4.844   4.809   1.855
 2726SOL    HW2 9078   4.776   4.927   1.943
 2727SOL     OW 9079   0.769   5.086   2.663
 2727SOL    HW1 9080   0.724   5.162   2.616
 2727SOL    HW2 9081   0.700   5.020   2.693
 2728SOL     OW 9082   3.040   0.344   5.174
 2728SOL    HW1 9083   3.020   0.271   5.239
 2728SOL    HW2 9084   2.983   0.423   5.195
 2729SOL     OW 9085   6.523   5.482   2.695
 2729SOL    HW1 9086   6.567   5.495   2.783
 2729SOL    HW2 9087   6.446   5.419   2.705
 2730SOL     OW 9088   2.286   0.148   0.562
 2730SOL    HW1 9089   2.271   0.057   0.600
 2730SOL    HW2 9090   2.199   0.185   0.528
 2731SOL     OW 9091   2.864   3.680   1.529
 2731SOL    HW1 9092   2.815   3.737   1.595
 2731SOL    HW2 9093   2.799   3.625   1.477
 2732SOL     OW 9094   5.952   3.164   2.554
 2732SOL    HW1 9095   5.913   3.212   2.632
 2732SOL    HW2 9096   5.942   3.220   2.472
 2733SOL     OW 9097   0.814   0.087   5.884
 2733SOL    HW1 9098   0.853   0.179   5.881
 2733SOL    HW2 9099   0.862   0.032   5.952
 2734SOL     OW 9100   1.772   6.243   3.481
 2734SOL    HW1 9101   1.692   6.245   3.541
 2734SOL    HW2 9102   1.834   6.316   3.506
 2735SOL     OW 9103   1.032   3.874   2.727
 2735SOL    HW1 9104   0.970   3.926   2.668
 2735SOL    HW2 9105   1.086   3.937   2.782
 2736SOL     OW 9106   5.087   0.792   5.725
 2736SOL    HW1 9107   4.987   0.796   5.721
 2736SOL    HW2 9108   5.118   0.837   5.809
 2737SOL     OW 9109   3.366   3.450   6.451
 2737SOL    HW1 9110   3.380   3.455   6.352
 2737SOL    HW2 9111   3.441   3.498   6.497
 2738SOL     OW 9112   4.943   5.539   3.873
 2738SOL    HW1 9113   4.947   5.633   3.839
 2738SOL    HW2 9114   4.850   5.504   3.865
 2739SOL     OW 9115   5.948   4.588   1.132
 2739SOL    HW1 9116   5.870   4.537   1.098
 2739SOL    HW2 9117   6.012   4.525   1.178
 2740SOL     OW 9118   6.398   1.959   2.388
 2740SOL    HW1 9119   6.369   1.908   2.307
 2740SOL    HW2 9120   6.322   2.016   2.420
 2741SOL     OW 9121   0.174   1.947   5.799
 2741SOL    HW1 9122   0.268   1.917   5.780
 2741SOL    HW2 9123   0.113   1.868   5.802
 2742SOL     OW 9124   1.186   5.686   6.396
 2742SOL    HW1 9125   1.127   5.606   6.383
 2742SOL    HW2 9126   1.267   5.660   6.449
 2743SOL     OW 9127   5.457   5.569   1.136
 2743SOL    HW1 9128   5.467   5.529   1.227
 2743SOL    HW2 9129   5.452   5.669   1.144
 2744SOL     OW 9130   4.154   2.389   6.611
 2744SOL    HW1 9131   4.197   2.445   6.682
 2744SOL    HW2 9132   4.151   2.442   6.526
 2745SOL     OW 9133   1.909   6.465   0.685
 2745SOL    HW1 9134   1.834   6.529   0.705
 2745SOL    HW2 9135   1.949   6.432   0.770
 2746SOL     OW 9136   2.006   2.680   5.073
 2746SOL    HW1 9137   1.941   2.629   5.130
 2746SOL    HW2 9138   2.046   2.754   5.127
 2747SOL     OW 9139   5.966   5.030   4.914
 2747SOL    HW1 9140   5.895   5.067   4.974
 2747SOL    HW2 9141   6.047   5.008   4.969
 2748SOL     OW 9142   3.708   1.381   3.299
 2748SOL    HW1 9143   3.727   1.298   3.247
 2748SOL    HW2 9144   3.754   1.377   3.387
 2749SOL     OW 9145   5.577   4.633   4.203
 2749SOL    HW1 9146   5.642   4.558   4.197
 2749SOL    HW2 9147   5.539   4.638   4.295
 2750SOL     OW 9148   0.601   5.841   1.647
 2750SOL    HW1 9149   0.673   5.888   1.698
 2750SOL    HW2 9150   0.633   5.821   1.555
 2751SOL     OW 9151   1.735   6.966   0.716
 2751SOL    HW1 9152   1.811   6.906   0.741
 2751SOL    HW2 9153   1.768   0.016   0.657
 2752SOL     OW 9154   4.902   6.526   5.239
 2752SOL    HW1 9155   4.968   6.599   5.257
 2752SOL    HW2 9156   4.921   6.449   5.299
 2753SOL     OW 9157   3.486   5.762   5.992
 2753SOL    HW1 9158   3.539   5.793   6.071
 2753SOL    HW2 9159   3.537   5.690   5.944
 2754SOL     OW 9160   0.222   0.205   4.018
 2754SOL    HW1 9161   0.146   0.169   4.073
 2754SOL    HW2 9162   0.246   0.296   4.051
 2755SOL     OW 9163   2.554   6.172   3.019
 2755SOL    HW1 9164   2.480   6.185   2.952
 2755SOL    HW2 9165   2.639   6.208   2.982
 2756SOL     OW 9166   5.676   3.929   4.650
 2756SOL    HW1 9167   5.667   3.829   4.655
 2756SOL    HW2 9168   5.746   3.953   4.583
 2757SOL     OW 9169   4.214   1.912   6.862
 2757SOL    HW1 9170   4.139   1.940   6.922
 2757SOL    HW2 9171   4.297   1.899   6.916
 2758SOL     OW 9172   5.037   4.915   3.286
 2758SOL    HW1 9173   4.992   4.861   3.215
 2758SOL    HW2 9174   5.009   4.882   3.376
 2759SOL     OW 9175   3.548   4.620   6.245
 2759SOL    HW1 9176   3.493   4.643   6.164
 2759SOL    HW2 9177   3.487   4.603   6.323
 2760SOL     OW 9178   5.746   6.038   3.301
 2760SOL    HW1 9179   5.744   6.003   3.395
 2760SOL    HW2 9180   5.740   6.138   3.304
 2761SOL     OW 9181   1.802   3.950   2.862
 2761SOL    HW1 9182   1.720   3.958   2.919
 2761SOL    HW2 9183   1.879   3.920   2.918
 2762SOL     OW 9184   1.571   2.197   0.062
 2762SOL    HW1 9185   1.624   2.222   7.005
 2762SOL    HW2 9186   1.595   2.257   0.139
 2763SOL     OW 9187   4.821   1.681   5.807
 2763SOL    HW1 9188   4.808   1.651   5.901
 2763SOL    HW2 9189   4.911   1.725   5.798
 2764SOL     OW 9190   0.967   4.326   2.643
 2764SOL    HW1 9191   0.906   4.404   2.628
 2764SOL    HW2 9192   0.972   4.306   2.741
 2765SOL     OW 9193   6.333   6.741   6.774
 2765SOL    HW1 9194   6.374   6.702   6.857
 2765SOL    HW2 9195   6.242   6.777   6.797
 2766SOL     OW 9196   4.596   1.321   6.848
 2766SOL    HW1 9197   4.640   1.407   6.822
 2766SOL    HW2 9198   4.666   1.252   6.866
 2767SOL     OW 9199   5.957   5.409   6.226
 2767SOL    HW1 9200   5.941   5.501   6.261
 2767SOL    HW2 9201   6.049   5.404   6.187
 2768SOL     OW 9202   4.493   0.434   1.026
 2768SOL    HW1 9203   4.528   0.448   1.119
 2768SOL    HW2 9204   4.570   0.422   0.964
 2769SOL     OW 9205   1.776   4.318   5.813
 2769SOL    HW1 9206   1.851   4.310   5.878
 2769SOL    HW2 9207   1.811   4.311   5.720
 2770SOL     OW 9208   3.067   6.650   6.316
 2770SOL    HW1 9209   2.969   6.659   6.298
 2770SOL    HW2 9210   3.117   6.657   6.230
 2771SOL     OW 9211   4.377   0.273   4.667
 2771SOL    HW1 9212   4.305   0.334   4.700
 2771SOL    HW2 9213   4.410   0.304   4.578
 2772SOL     OW 9214   3.800   0.847   2.853
 2772SOL    HW1 9215   3.880   0.861   2.796
 2772SOL    HW2 9216   3.746   0.931   2.858
 2773SOL     OW 9217   0.448   2.961   4.494
 2773SOL    HW1 9218   0.439   3.060   4.498
 2773SOL    HW2 9219   0.358   2.920   4.478
 2774SOL     OW 9220   4.680   1.866   3.434
 2774SOL    HW1 9221   4.728   1.791   3.388
 2774SOL    HW2 9222   4.746   1.937   3.459
 2775SOL     OW 9223   0.090   3.971   4.398
 2775SOL    HW1 9224   7.019   3.965   4.366
 2775SOL    HW2 9225   0.112   4.067   4.416
 2776SOL     OW 9226   4.776   5.054   6.201
 2776SOL    HW1 9227   4.691   5.028   6.155
 2776SOL    HW2 9228   4.849   5.065   6.133
 2777SOL     OW 9229   3.342   2.305   5.941
 2777SOL    HW1 9230   3.408   2.250   5.889
 2777SOL    HW2 9231   3.266   2.329   5.882
 2778SOL     OW 9232   2.323   5.570   6.608
 2778SOL    HW1 9233   2.317   5.603   6.513
 2778SOL    HW2 9234   2.321   5.470   6.609
 2779SOL     OW 9235   5.711   6.336   2.047
 2779SOL    HW1 9236   5.632   6.393   2.027
 2779SOL    HW2 9237   5.732   6.279   1.967
 2780SOL     OW 9238   0.275   1.049   6.543
 2780SOL    HW1 9239   0.182   1.016   6.558
 2780SOL    HW2 9240   0.338   0.971   6.539
 2781SOL     OW 9241   6.689   0.734   2.293
 2781SOL    HW1 9242   6.618   0.721   2.224
 2781SOL    HW2 9243   6.646   0.734   2.384
 2782SOL     OW 9244   4.279   1.442   6.595
 2782SOL    HW1 9245   4.249   1.534   6.618
 2782SOL    HW2 9246   4.258   1.380   6.671
 2783SOL     OW 9247   5.838   3.809   2.207
 2783SOL    HW1 9248   5.774   3.874   2.167
 2783SOL    HW2 9249   5.894   3.769   2.135
 2784SOL     OW 9250   1.918   1.771   1.513
 2784SOL    HW1 9251   1.844   1.810   1.458
 2784SOL    HW2 9252   1.940   1.680   1.480
 2785SOL     OW 9253   5.023   2.828   1.722
 2785SOL    HW1 9254   4.973   2.744   1.745
 2785SOL    HW2 9255   4.999   2.900   1.787
 2786SOL     OW 9256   6.897   5.203   0.454
 2786SOL    HW1 9257   6.867   5.271   0.522
 2786SOL    HW2 9258   6.917   5.117   0.501
 2787SOL     OW 9259   5.989   5.975   5.754
 2787SOL    HW1 9260   6.025   5.937   5.669
 2787SOL    HW2 9261   6.054   6.039   5.793
 2788SOL     OW 9262   3.461   6.249   5.536
 2788SOL    HW1 9263   3.517   6.332   5.546
 2788SOL    HW2 9264   3.451   6.205   5.625
 2789SOL     OW 9265   0.936   2.664   4.426
 2789SOL    HW1 9266   0.850   2.634   4.467
 2789SOL    HW2 9267   0.920   2.749   4.376
 2790SOL     OW 9268   2.377   5.660   0.725
 2790SOL    HW1 9269   2.445   5.733   0.729
 2790SOL    HW2 9270   2.296   5.693   0.676
 2791SOL     OW 9271   7.014   3.534   2.672
 2791SOL    HW1 9272   6.978   3.468   2.739
 2791SOL    HW2 9273   0.022   3.485   2.591
 2792SOL     OW 9274   3.429   0.931   5.216
 2792SOL    HW1 9275   3.465   1.014   5.258
 2792SOL    HW2 9276   3.331   0.941   5.201
 2793SOL     OW 9277   3.869   4.370   1.161
 2793SOL    HW1 9278   3.827   4.444   1.108
 2793SOL    HW2 9279   3.851   4.282   1.115
 2794SOL     OW 9280   6.932   1.511   6.310
 2794SOL    HW1 9281   6.900   1.486   6.402
 2794SOL    HW2 9282   6.997   1.587   6.318
 2795SOL     OW 9283   0.621   4.668   1.625
 2795SOL    HW1 9284   0.697   4.603   1.619
 2795SOL    HW2 9285   0.654   4.761   1.608
 2796SOL     OW 9286   0.652   6.101   5.614
 2796SOL    HW1 9287   0.609   6.166   5.550
 2796SOL    HW2 9288   0.722   6.149   5.667
 2797SOL     OW 9289   5.459   6.501   4.241
 2797SOL    HW1 9290   5.362   6.498   4.267
 2797SOL    HW2 9291   5.503   6.580   4.285
 2798SOL     OW 9292   6.349   6.680   1.876
 2798SOL    HW1 9293   6.258   6.669   1.917
 2798SOL    HW2 9294   6.419   6.663   1.946
 2799SOL     OW 9295   4.432   6.076   4.635
 2799SOL    HW1 9296   4.363   6.009   4.664
 2799SOL    HW2 9297   4.399   6.168   4.654
 2800SOL     OW 9298   6.300   0.532   0.076
 2800SOL    HW1 9299   6.232   0.595   0.039
 2800SOL    HW2 9300   6.392   0.564   0.052
 2801SOL     OW 9301   0.515   5.071   6.073
 2801SOL    HW1 9302   0.419   5.088   6.050
 2801SOL    HW2 9303   0.545   4.987   6.029
 2802SOL     OW 9304   6.565   6.320   5.331
 2802SOL    HW1 9305   6.543   6.223   5.324
 2802SOL    HW2 9306   6.537   6.354   5.421
 2803SOL     OW 9307   3.477   3.211   6.220
 2803SOL    HW1 9308   3.466   3.304   6.185
 2803SOL    HW2 9309   3.542   3.211   6.296
 2804SOL     OW 9310   0.855   2.668   3.985
 2804SOL    HW1 9311   0.912   2.601   4.033
 2804SOL    HW2 9312   0.792   2.620   3.923
 2805SOL     OW 9313   4.557   3.744   1.599
 2805SOL    HW1 9314   4.512   3.661   1.564
 2805SOL    HW2 9315   4.655   3.727   1.609
 2806SOL     OW 9316   1.083   4.395   5.878
 2806SOL    HW1 9317   1.120   4.309   5.912
 2806SOL    HW2 9318   1.140   4.428   5.803
 2807SOL     OW 9319   2.608   0.489   3.133
 2807SOL    HW1 9320   2.605   0.582   3.095
 2807SOL    HW2 9321   2.559   0.427   3.071
 2808SOL     OW 9322   6.449   5.629   0.565
 2808SOL    HW1 9323   6.500   5.629   0.479
 2808SOL    HW2 9324   6.498   5.684   0.633
 2809SOL     OW 9325   6.769   4.935   2.535
 2809SOL    HW1 9326   6.712   4.914   2.615
 2809SOL    HW2 9327   6.755   5.031   2.508
 2810SOL     OW 9328   2.599   5.708   3.604
 2810SOL    HW1 9329   2.516   5.682   3.554
 2810SOL    HW2 9330   2.637   5.629   3.651
 2811SOL     OW 9331   1.000   0.270   2.440
 2811SOL    HW1 9332   1.012   0.367   2.418
 2811SOL    HW2 9333   0.921   0.234   2.390
 2812SOL     OW 9334   0.718   3.214   1.172
 2812SOL    HW1 9335   0.636   3.264   1.143
 2812SOL    HW2 9336   0.799   3.271   1.156
 2813SOL     OW 9337   0.377   1.915   1.130
 2813SOL    HW1 9338   0.289   1.929   1.084
 2813SOL    HW2 9339   0.418   2.004   1.149
 2814SOL     OW 9340   2.584   3.950   0.235
 2814SOL    HW1 9341   2.644   3.943   0.314
 2814SOL    HW2 9342   2.628   3.908   0.156
 2815SOL     OW 9343   0.374   5.896   4.816
 2815SOL    HW1 9344   0.389   5.839   4.896
 2815SOL    HW2 9345   0.400   5.845   4.733
 2816SOL     OW 9346   0.293   6.059   5.491
 2816SOL    HW1 9347   0.201   6.078   5.525
 2816SOL    HW2 9348   0.341   6.146   5.477
 2817SOL     OW 9349   4.019   0.508   2.130
 2817SOL    HW1 9350   4.108   0.552   2.114
 2817SOL    HW2 9351   4.020   0.460   2.217
 2818SOL     OW 9352   1.502   0.617   1.537
 2818SOL    HW1 9353   1.577   0.560   1.571
 2818SOL    HW2 9354   1.437   0.560   1.486
 2819SOL     OW 9355   0.647   0.114   0.755
 2819SOL    HW1 9356   0.607   0.181   0.692
 2819SOL    HW2 9357   0.701   0.048   0.703
 2820SOL     OW 9358   1.152   2.438   1.973
 2820SOL    HW1 9359   1.146   2.534   1.948
 2820SOL    HW2 9360   1.244   2.404   1.954
 2821SOL     OW 9361   3.547   4.311   6.729
 2821SOL    HW1 9362   3.621   4.351   6.784
 2821SOL    HW2 9363   3.575   4.220   6.698
 2822SOL     OW 9364   3.829   2.400   0.446
 2822SOL    HW1 9365   3.831   2.493   0.410
 2822SOL    HW2 9366   3.739   2.383   0.487
 2823SOL     OW 9367   5.112   1.212   0.567
 2823SOL    HW1 9368   5.055   1.145   0.520
 2823SOL    HW2 9369   5.059   1.256   0.640
 2824SOL     OW 9370   1.140   3.591   5.564
 2824SOL    HW1 9371   1.101   3.678   5.533
 2824SOL    HW2 9372   1.234   3.606   5.595
 2825SOL     OW 9373   5.124   1.749   6.048
 2825SOL    HW1 9374   5.218   1.780   6.062
 2825SOL    HW2 9375   5.103   1.752   5.950
 2826SOL     OW 9376   0.981   3.718   6.186
 2826SOL    HW1 9377   1.001   3.665   6.104
 2826SOL    HW2 9378   1.066   3.755   6.224
 2827SOL     OW 9379   7.020   0.973   6.518
 2827SOL    HW1 9380   7.006   1.045   6.586
 2827SOL    HW2 9381   6.978   1.001   6.431
 2828SOL     OW 9382   1.377   3.792   0.757
 2828SOL    HW1 9383   1.455   3.780   0.819
 2828SOL    HW2 9384   1.339   3.883   0.770
 2829SOL     OW 9385   3.842   4.073   3.486
 2829SOL    HW1 9386   3.932   4.059   3.446
 2829SOL    HW2 9387   3.830   4.012   3.565
 2830SOL     OW 9388   3.986   5.318   6.085
 2830SOL    HW1 9389   3.978   5.418   6.089
 2830SOL    HW2 9390   3.896   5.278   6.072
 2831SOL     OW 9391   6.959   2.130   1.939
 2831SOL    HW1 9392   7.004   2.167   2.021
 2831SOL    HW2 9393   6.872   2.177   1.924
 2832SOL     OW 9394   0.784   3.102   1.456
 2832SOL    HW1 9395   0.740   3.160   1.388
 2832SOL    HW2 9396   0.852   3.156   1.506
 2833SOL     OW 9397   2.199   1.656   2.207
 2833SOL    HW1 9398   2.188   1.637   2.109
 2833SOL    HW2 9399   2.195   1.570   2.258
 2834SOL     OW 9400   4.644   6.017   5.120
 2834SOL    HW1 9401   4.698   5.960   5.057
 2834SOL    HW2 9402   4.595   5.957   5.183
 2835SOL     OW 9403   1.075   6.560   0.474
 2835SOL    HW1 9404   0.976   6.554   0.458
 2835SOL    HW2 9405   1.107   6.472   0.509
 2836SOL     OW 9406   3.256   6.629   3.423
 2836SOL    HW1 9407   3.269   6.530   3.430
 2836SOL    HW2 9408   3.212   6.663   3.506
 2837SOL     OW 9409   5.890   3.892   2.478
 2837SOL    HW1 9410   5.917   3.873   2.383
 2837SOL    HW2 9411   5.922   3.818   2.537
 2838SOL     OW 9412   4.914   3.814   6.137
 2838SOL    HW1 9413   4.973   3.849   6.209
 2838SOL    HW2 9414   4.923   3.871   6.055
 2839SOL     OW 9415   6.210   3.428   4.721
 2839SOL    HW1 9416   6.236   3.521   4.747
 2839SOL    HW2 9417   6.259   3.401   4.638
 2840SOL     OW 9418   0.589   5.914   2.453
 2840SOL    HW1 9419   0.526   5.941   2.526
 2840SOL    HW2 9420   0.545   5.846   2.395
 2841SOL     OW 9421   5.995   2.450   1.321
 2841SOL    HW1 9422   6.000   2.411   1.413
 2841SOL    HW2 9423   5.900   2.475   1.301
 2842SOL     OW 9424   1.700   6.351   3.948
 2842SOL    HW1 9425   1.638   6.370   4.025
 2842SOL    HW2 9426   1.792   6.383   3.972
 2843SOL     OW 9427   2.226   3.036   3.157
 2843SOL    HW1 9428   2.322   3.009   3.171
 2843SOL    HW2 9429   2.170   2.996   3.229
 2844SOL     OW 9430   4.840   4.485   0.779
 2844SOL    HW1 9431   4.809   4.457   0.869
 2844SOL    HW2 9432   4.928   4.532   0.787
 2845SOL     OW 9433   4.123   2.241   2.847
 2845SOL    HW1 9434   4.152   2.312   2.783
 2845SOL    HW2 9435   4.112   2.154   2.798
 2846SOL     OW 9436   4.714   0.632   0.412
 2846SOL    HW1 9437   4.659   0.549   0.415
 2846SOL    HW2 9438   4.765   0.641   0.498
 2847SOL     OW 9439   4.695   4.193   2.318
 2847SOL    HW1 9440   4.617   4.157   2.267
 2847SOL    HW2 9441   4.694   4.293   2.314
 2848SOL     OW 9442   0.635   3.230   5.098
 2848SOL    HW1 9443   0.662   3.134   5.106
 2848SOL    HW2 9444   0.716   3.288   5.111
 2849SOL     OW 9445   3.690   0.590   2.294
 2849SOL    HW1 9446   3.624   0.601   2.368
 2849SOL    HW2 9447   3.675   0.503   2.248
 2850SOL     OW 9448   2.433   0.327   2.994
 2850SOL    HW1 9449   2.396   0.281   3.075
 2850SOL    HW2 9450   2.370   0.316   2.917
 2851SOL     OW 9451   4.485   3.231   1.023
 2851SOL    HW1 9452   4.503   3.322   1.061
 2851SOL    HW2 9453   4.393   3.201   1.049
 2852SOL     OW 9454   7.006   4.354   6.021
 2852SOL    HW1 9455   6.960   4.421   6.078
 2852SOL    HW2 9456   0.072   4.389   5.994
 2853SOL     OW 9457   0.566   3.732   0.376
 2853SOL    HW1 9458   0.487   3.778   0.335
 2853SOL    HW2 9459   0.636   3.799   0.397
 2854SOL     OW 9460   3.118   1.492   6.068
 2854SOL    HW1 9461   3.112   1.537   6.157
 2854SOL    HW2 9462   3.183   1.541   6.010
 2855SOL     OW 9463   1.507   1.455   3.941
 2855SOL    HW1 9464   1.455   1.425   4.021
 2855SOL    HW2 9465   1.599   1.480   3.969
 2856SOL     OW 9466   1.333   4.382   3.048
 2856SOL    HW1 9467   1.344   4.301   3.105
 2856SOL    HW2 9468   1.237   4.393   3.024
 2857SOL     OW 9469   0.393   3.079   1.052
 2857SOL    HW1 9470   0.365   3.026   0.971
 2857SOL    HW2 9471   0.397   3.018   1.131
 2858SOL     OW 9472   4.362   4.673   3.027
 2858SOL    HW1 9473   4.270   4.685   3.064
 2858SOL    HW2 9474   4.388   4.577   3.035
 2859SOL     OW 9475   5.423   5.497   1.415
 2859SOL    HW1 9476   5.480   5.458   1.488
 2859SOL    HW2 9477   5.336   5.449   1.412
 2860SOL     OW 9478   1.444   6.074   1.439
 2860SOL    HW1 9479   1.532   6.095   1.396
 2860SOL    HW2 9480   1.429   5.975   1.439
 2861SOL     OW 9481   4.454   4.779   6.592
 2861SOL    HW1 9482   4.449   4.754   6.689
 2861SOL    HW2 9483   4.504   4.865   6.583
 2862SOL     OW 9484   4.475   3.030   1.456
 2862SOL    HW1 9485   4.484   3.068   1.548
 2862SOL    HW2 9486   4.394   3.069   1.411
 2863SOL     OW 9487   5.999   6.834   5.830
 2863SOL    HW1 9488   5.953   6.860   5.915
 2863SOL    HW2 9489   6.074   6.898   5.812
 2864SOL     OW 9490   3.830   3.341   0.896
 2864SOL    HW1 9491   3.832   3.414   0.965
 2864SOL    HW2 9492   3.744   3.348   0.844
 2865SOL     OW 9493   5.269   6.000   4.323
 2865SOL    HW1 9494   5.213   6.076   4.288
 2865SOL    HW2 9495   5.231   5.968   4.409
 2866SOL     OW 9496   4.902   4.225   6.512
 2866SOL    HW1 9497   4.994   4.265   6.508
 2866SOL    HW2 9498   4.851   4.249   6.429
 2867SOL     OW 9499   6.089   6.633   1.946
 2867SOL    HW1 9500   6.086   6.562   1.876
 2867SOL    HW2 9501   6.072   6.593   2.036
 2868SOL     OW 9502   1.581   0.837   5.851
 2868SOL    HW1 9503   1.679   0.849   5.870
 2868SOL    HW2 9504   1.547   0.917   5.802
 2869SOL     OW 9505   5.360   5.836   3.851
 2869SOL    HW1 9506   5.407   5.915   3.890
 2869SOL    HW2 9507   5.428   5.768   3.823
 2870SOL     OW 9508   0.958   1.399   1.405
 2870SOL    HW1 9509   0.963   1.466   1.331
 2870SOL    HW2 9510   0.954   1.446   1.493
 2871SOL     OW 9511   6.504   2.105   1.527
 2871SOL    HW1 9512   6.459   2.146   1.447
 2871SOL    HW2 9513   6.600   2.131   1.528
 2872SOL     OW 9514   2.691   1.585   2.414
 2872SOL    HW1 9515   2.729   1.530   2.488
 2872SOL    HW2 9516   2.594   1.603   2.432
 2873SOL     OW 9517   0.773   6.255   1.341
 2873SOL    HW1 9518   0.781   6.156   1.337
 2873SOL    HW2 9519   0.680   6.281   1.367
 2874SOL     OW 9520   2.296   0.921   3.300
 2874SOL    HW1 9521   2.346   0.946   3.217
 2874SOL    HW2 9522   2.198   0.918   3.281
 2875SOL     OW 9523   3.214   6.950   2.321
 2875SOL    HW1 9524   3.256   0.005   2.368
 2875SOL    HW2 9525   3.126   6.977   2.283
 2876SOL     OW 9526   1.728   5.989   1.682
 2876SOL    HW1 9527   1.797   6.022   1.746
 2876SOL    HW2 9528   1.754   6.014   1.589
 2877SOL     OW 9529   1.989   1.104   5.964
 2877SOL    HW1 9530   1.919   1.176   5.972
 2877SOL    HW2 9531   1.950   1.026   5.915
 2878SOL     OW 9532   3.948   3.221   4.704
 2878SOL    HW1 9533   3.925   3.125   4.722
 2878SOL    HW2 9534   3.954   3.235   4.605
 2879SOL     OW 9535   3.974   4.498   6.058
 2879SOL    HW1 9536   3.970   4.401   6.083
 2879SOL    HW2 9537   4.069   4.530   6.066
 2880SOL     OW 9538   1.175   1.494   4.170
 2880SOL    HW1 9539   1.090   1.482   4.119
 2880SOL    HW2 9540   1.240   1.548   4.116
 2881SOL     OW 9541   3.308   6.543   6.379
 2881SOL    HW1 9542   3.382   6.594   6.422
 2881SOL    HW2 9543   3.226   6.601   6.377
 2882SOL     OW 9544   4.180   6.211   0.238
 2882SOL    HW1 9545   4.255   6.203   0.173
 2882SOL    HW2 9546   4.137   6.121   0.251
 2883SOL     OW 9547   5.981   6.367   3.299
 2883SOL    HW1 9548   5.925   6.414   3.231
 2883SOL    HW2 9549   6.044   6.432   3.341
 2884SOL     OW 9550   0.258   5.581   2.502
 2884SOL    HW1 9551   0.262   5.528   2.417
 2884SOL    HW2 9552   0.314   5.536   2.572
 2885SOL     OW 9553   1.138   3.391   2.837
 2885SOL    HW1 9554   1.223   3.339   2.826
 2885SOL    HW2 9555   1.112   3.391   2.934
 2886SOL     OW 9556   2.917   4.337   6.455
 2886SOL    HW1 9557   2.822   4.365   6.444
 2886SOL    HW2 9558   2.924   4.238   6.442
 2887SOL     OW 9559   1.096   6.361   4.108
 2887SOL    HW1 9560   1.099   6.282   4.047
 2887SOL    HW2 9561   1.005   6.402   4.104
 2888SOL     OW 9562   6.626   6.563   0.334
 2888SOL    HW1 9563   6.544   6.594   0.286
 2888SOL    HW2 9564   6.707   6.600   0.288
 2889SOL     OW 9565   2.954   6.454   3.367
 2889SOL    HW1 9566   2.957   6.551   3.341
 2889SOL    HW2 9567   2.862   6.419   3.349
 2890SOL     OW 9568   1.933   0.202   1.038
 2890SOL    HW1 9569   2.002   0.152   1.090
 2890SOL    HW2 9570   1.852   0.145   1.027
 2891SOL     OW 9571   6.903   3.168   3.335
 2891SOL    HW1 9572   6.824   3.224   3.309
 2891SOL    HW2 9573   6.890   3.132   3.427
 2892SOL     OW 9574   6.213   3.954   0.819
 2892SOL    HW1 9575   6.306   3.939   0.785
 2892SOL    HW2 9576   6.157   3.874   0.799
 2893SOL     OW 9577   0.022   5.320   4.585
 2893SOL    HW1 9578   7.001   5.313   4.496
 2893SOL    HW2 9579   0.056   5.414   4.597
 2894SOL     OW 9580   1.440   5.040   2.261
 2894SOL    HW1 9581   1.391   4.965   2.216
 2894SOL    HW2 9582   1.533   5.046   2.224
 2895SOL     OW 9583   3.995   6.730   6.144
 2895SOL    HW1 9584   3.899   6.746   6.119
 2895SOL    HW2 9585   4.052   6.739   6.063
 2896SOL     OW 9586   5.326   6.128   4.901
 2896SOL    HW1 9587   5.364   6.064   4.967
 2896SOL    HW2 9588   5.234   6.098   4.875
 2897SOL     OW 9589   3.079   4.833   3.383
 2897SOL    HW1 9590   3.110   4.846   3.289
 2897SOL    HW2 9591   2.983   4.805   3.382
 2898SOL     OW 9592   5.881   4.182   2.375
 2898SOL    HW1 9593   5.899   4.224   2.464
 2898SOL    HW2 9594   5.824   4.101   2.388
 2899SOL     OW 9595   6.751   2.645   0.589
 2899SOL    HW1 9596   6.805   2.562   0.582
 2899SOL    HW2 9597   6.686   2.650   0.513
 2900SOL     OW 9598   2.944   3.877   0.080
 2900SOL    HW1 9599   2.980   3.784   0.087
 2900SOL    HW2 9600   2.963   3.914   7.013
 2901SOL     OW 9601   1.662   4.176   3.316
 2901SOL    HW1 9602   1.735   4.149   3.378
 2901SOL    HW2 9603   1.583   4.208   3.369
 2902SOL     OW 9604   0.475   5.756   4.126
 2902SOL    HW1 9605   0.536   5.749   4.047
 2902SOL    HW2 9606   0.380   5.761   4.094
 2903SOL     OW 9607   4.122   5.756   0.755
 2903SOL    HW1 9608   4.105   5.779   0.850
 2903SOL    HW2 9609   4.175   5.829   0.711
 2904SOL     OW 9610   2.630   4.644   5.222
 2904SOL    HW1 9611   2.627   4.592   5.307
 2904SOL    HW2 9612   2.718   4.630   5.177
 2905SOL     OW 9613   0.860   4.331   2.085
 2905SOL    HW1 9614   0.762   4.313   2.074
 2905SOL    HW2 9615   0.873   4.407   2.148
 2906SOL     OW 9616   5.682   5.655   3.091
 2906SOL    HW1 9617   5.593   5.648   3.136
 2906SOL    HW2 9618   5.702   5.750   3.071
 2907SOL     OW 9619   0.824   0.312   3.442
 2907SOL    HW1 9620   0.772   0.227   3.441
 2907SOL    HW2 9621   0.826   0.352   3.351
 2908SOL     OW 9622   4.935   6.812   3.085
 2908SOL    HW1 9623   4.876   6.821   3.005
 2908SOL    HW2 9624   4.880   6.807   3.168
 2909SOL     OW 9625   1.522   5.731   1.894
 2909SOL    HW1 9626   1.447   5.667   1.877
 2909SOL    HW2 9627   1.492   5.824   1.874
 2910SOL     OW 9628   0.282   0.734   3.414
 2910SOL    HW1 9629   0.331   0.704   3.332
 2910SOL    HW2 9630   0.258   0.830   3.406
 2911SOL     OW 9631   6.583   4.193   3.832
 2911SOL    HW1 9632   6.609   4.096   3.837
 2911SOL    HW2 9633   6.643   4.247   3.890
 2912SOL     OW 9634   6.725   6.381   0.700
 2912SOL    HW1 9635   6.822   6.379   0.723
 2912SOL    HW2 9636   6.695   6.475   0.689
 2913SOL     OW 9637   2.089   5.712   1.471
 2913SOL    HW1 9638   2.131   5.696   1.561
 2913SOL    HW2 9639   2.092   5.627   1.418
 2914SOL     OW 9640   5.390   5.276   0.349
 2914SOL    HW1 9641   5.377   5.374   0.367
 2914SOL    HW2 9642   5.488   5.256   0.341
 2915SOL     OW 9643   3.420   1.574   3.041
 2915SOL    HW1 9644   3.509   1.538   3.068
 2915SOL    HW2 9645   3.398   1.543   2.948
 2916SOL     OW 9646   1.979   5.934   0.461
 2916SOL    HW1 9647   2.028   5.867   0.404
 2916SOL    HW2 9648   1.985   6.024   0.419
 2917SOL     OW 9649   2.360   0.270   3.236
 2917SOL    HW1 9650   2.417   0.274   3.318
 2917SOL    HW2 9651   2.269   0.237   3.261
 2918SOL     OW 9652   6.157   3.700   0.702
 2918SOL    HW1 9653   6.119   3.620   0.657
 2918SOL    HW2 9654   6.255   3.707   0.680
 2919SOL     OW 9655   0.832   6.381   4.718
 2919SOL    HW1 9656   0.913   6.408   4.770
 2919SOL    HW2 9657   0.804   6.457   4.658
 2920SOL     OW 9658   1.378   0.680   2.062
 2920SOL    HW1 9659   1.415   0.676   1.969
 2920SOL    HW2 9660   1.358   0.588   2.095
 2921SOL     OW 9661   0.382   0.206   5.569
 2921SOL    HW1 9662   0.341   0.229   5.481
 2921SOL    HW2 9663   0.310   0.193   5.638
 2922SOL     OW 9664   4.294   0.739   3.448
 2922SOL    HW1 9665   4.262   0.830   3.423
 2922SOL    HW2 9666   4.331   0.741   3.540
 2923SOL     OW 9667   6.096   4.893   5.334
 2923SOL    HW1 9668   6.133   4.951   5.261
 2923SOL    HW2 9669   6.163   4.823   5.358
 2924SOL     OW 9670   6.766   2.559   5.681
 2924SOL    HW1 9671   6.824   2.478   5.664
 2924SOL    HW2 9672   6.743   2.601   5.593
 2925SOL     OW 9673   5.738   0.963   5.608
 2925SOL    HW1 9674   5.714   1.056   5.635
 2925SOL    HW2 9675   5.774   0.913   5.686
 2926SOL     OW 9676   0.239   1.388   4.954
 2926SOL    HW1 9677   0.227   1.399   5.053
 2926SOL    HW2 9678   0.334   1.363   4.935
 2927SOL     OW 9679   1.841   2.542   1.781
 2927SOL    HW1 9680   1.843   2.491   1.867
 2927SOL    HW2 9681   1.900   2.622   1.788
 2928SOL     OW 9682   6.397   2.157   6.721
 2928SOL    HW1 9683   6.423   2.065   6.752
 2928SOL    HW2 9684   6.472   2.197   6.670
 2929SOL     OW 9685   1.821   2.267   4.948
 2929SOL    HW1 9686   1.916   2.296   4.963
 2929SOL    HW2 9687   1.771   2.342   4.904
 2930SOL     OW 9688   0.123   5.586   4.588
 2930SOL    HW1 9689   0.201   5.648   4.575
 2930SOL    HW2 9690   0.044   5.638   4.619
 2931SOL     OW 9691   3.893   4.238   6.165
 2931SOL    HW1 9692   3.940   4.157   6.200
 2931SOL    HW2 9693   3.813   4.208   6.112
 2932SOL     OW 9694   6.561   5.251   0.726
 2932SOL    HW1 9695   6.524   5.327   0.779
 2932SOL    HW2 9696   6.487   5.206   0.676
 2933SOL     OW 9697   0.881   6.957   1.052
 2933SOL    HW1 9698   0.832   0.015   1.022
 2933SOL    HW2 9699   0.860   6.881   0.990
 2934SOL     OW 9700   4.029   3.647   0.628
 2934SOL    HW1 9701   4.014   3.741   0.660
 2934SOL    HW2 9702   4.028   3.585   0.707
 2935SOL     OW 9703   0.511   2.780   6.241
 2935SOL    HW1 9704   0.469   2.767   6.331
 2935SOL    HW2 9705   0.556   2.869   6.238
 2936SOL     OW 9706   4.735   0.135   0.763
 2936SOL    HW1 9707   4.710   0.123   0.667
 2936SOL    HW2 9708   4.825   0.094   0.779
 2937SOL     OW 9709   4.064   5.868   1.814
 2937SOL    HW1 9710   4.008   5.892   1.734
 2937SOL    HW2 9711   4.006   5.828   1.884
 2938SOL     OW 9712   6.651   5.826   6.039
 2938SOL    HW1 9713   6.552   5.831   6.030
 2938SOL    HW2 9714   6.677   5.847   6.133
 2939SOL     OW 9715   0.055   5.398   1.527
 2939SOL    HW1 9716   7.008   5.393   1.598
 2939SOL    HW2 9717   0.032   5.333   1.454
 2940SOL     OW 9718   5.538   5.655   3.742
 2940SOL    HW1 9719   5.512   5.574   3.794
 2940SOL    HW2 9720   5.566   5.629   3.650
 2941SOL     OW 9721   2.106   3.321   3.955
 2941SOL    HW1 9722   2.006   3.331   3.958
 2941SOL    HW2 9723   2.147   3.405   3.919
 2942SOL     OW 9724   3.064   1.712   0.422
 2942SOL    HW1 9725   3.012   1.629   0.444
 2942SOL    HW2 9726   3.001   1.789   0.411
 2943SOL     OW 9727   6.041   4.320   3.525
 2943SOL    HW1 9728   5.988   4.332   3.609
 2943SOL    HW2 9729   6.115   4.387   3.523
 2944SOL     OW 9730   2.479   5.904   3.750
 2944SOL    HW1 9731   2.547   5.976   3.740
 2944SOL    HW2 9732   2.513   5.819   3.710
 2945SOL     OW 9733   5.259   4.545   1.481
 2945SOL    HW1 9734   5.242   4.451   1.451
 2945SOL    HW2 9735   5.218   4.609   1.416
 2946SOL     OW 9736   2.810   4.080   5.996
 2946SOL    HW1 9737   2.752   4.011   5.951
 2946SOL    HW2 9738   2.900   4.041   6.015
 2947SOL     OW 9739   5.920   6.460   0.611
 2947SOL    HW1 9740   5.923   6.507   0.522
 2947SOL    HW2 9741   5.867   6.375   0.602
 2948SOL     OW 9742   6.031   4.344   2.592
 2948SOL    HW1 9743   6.120   4.300   2.599
 2948SOL    HW2 9744   6.038   4.439   2.623
 2949SOL     OW 9745   1.472   0.054   1.317
 2949SOL    HW1 9746   1.474   7.009   1.389
 2949SOL    HW2 9747   1.528   0.023   1.240
 2950SOL     OW 9748   4.914   4.566   2.594
 2950SOL    HW1 9749   4.840   4.546   2.658
 2950SOL    HW2 9750   4.986   4.498   2.602
 2951SOL     OW 9751   5.971   0.920   1.347
 2951SOL    HW1 9752   5.949   0.830   1.384
 2951SOL    HW2 9753   6.014   0.976   1.418
 2952SOL     OW 9754   5.443   0.773   4.116
 2952SOL    HW1 9755   5.439   0.871   4.138
 2952SOL    HW2 9756   5.505   0.727   4.179
 2953SOL     OW 9757   0.959   6.155   3.071
 2953SOL    HW1 9758   0.932   6.248   3.045
 2953SOL    HW2 9759   0.929   6.136   3.165
 2954SOL     OW 9760   0.650   4.624   6.353
 2954SOL    HW1 9761   0.694   4.558   6.292
 2954SOL    HW2 9762   0.554   4.599   6.366
 2955SOL     OW 9763   1.599   3.969   6.753
 2955SOL    HW1 9764   1.634   3.944   6.844
 2955SOL    HW2 9765   1.662   4.032   6.709
 2956SOL     OW 9766   6.282   4.479   3.541
 2956SOL    HW1 9767   6.350   4.411   3.569
 2956SOL    HW2 9768   6.328   4.555   3.495
 2957SOL     OW 9769   2.948   5.133   1.569
 2957SOL    HW1 9770   2.885   5.127   1.646
 2957SOL    HW2 9771   2.964   5.229   1.546
 2958SOL     OW 9772   2.264   4.845   3.404
 2958SOL    HW1 9773   2.296   4.842   3.498
 2958SOL    HW2 9774   2.166   4.864   3.403
 2959SOL     OW 9775   6.614   2.050   2.712
 2959SOL    HW1 9776   6.531   2.097   2.682
 2959SOL    HW2 9777   6.628   1.969   2.656
 2960SOL     OW 9778   4.465   0.548   0.651
 2960SOL    HW1 9779   4.370   0.520   0.641
 2960SOL    HW2 9780   4.500   0.521   0.741
 2961SOL     OW 9781   5.215   4.178   2.419
 2961SOL    HW1 9782   5.216   4.124   2.504
 2961SOL    HW2 9783   5.285   4.143   2.357
 2962SOL     OW 9784   6.651   6.305   2.273
 2962SOL    HW1 9785   6.635   6.234   2.342
 2962SOL    HW2 9786   6.749   6.328   2.272
 2963SOL     OW 9787   1.518   1.050   5.184
 2963SOL    HW1 9788   1.610   1.061   5.222
 2963SOL    HW2 9789   1.467   1.135   5.195
 2964SOL     OW 9790   0.887   2.857   6.732
 2964SOL    HW1 9791   0.973   2.848   6.682
 2964SOL    HW2 9792   0.813   2.812   6.682
 2965SOL     OW 9793   0.501   0.655   5.267
 2965SOL    HW1 9794   0.447   0.647   5.351
 2965SOL    HW2 9795   0.443   0.687   5.192
 2966SOL     OW 9796   4.392   5.832   3.687
 2966SOL    HW1 9797   4.419   5.917   3.730
 2966SOL    HW2 9798   4.423   5.831   3.592
 2967SOL     OW 9799   6.534   1.217   5.582
 2967SOL    HW1 9800   6.620   1.265   5.565
 2967SOL    HW2 9801   6.531   1.186   5.677
 2968SOL     OW 9802   1.516   1.959   1.162
 2968SOL    HW1 9803   1.592   1.981   1.100
 2968SOL    HW2 9804   1.469   2.043   1.189
 2969SOL     OW 9805   5.521   3.605   4.352
 2969SOL    HW1 9806   5.537   3.610   4.450
 2969SOL    HW2 9807   5.582   3.668   4.304
 2970SOL     OW 9808   2.252   2.920   4.517
 2970SOL    HW1 9809   2.172   2.981   4.522
 2970SOL    HW2 9810   2.274   2.887   4.609
 2971SOL     OW 9811   5.736   3.875   6.775
 2971SOL    HW1 9812   5.782   3.852   6.689
 2971SOL    HW2 9813   5.645   3.832   6.777
 2972SOL     OW 9814   5.831   5.064   6.247
 2972SOL    HW1 9815   5.904   5.010   6.290
 2972SOL    HW2 9816   5.837   5.159   6.278
 2973SOL     OW 9817   5.123   7.020   2.096
 2973SOL    HW1 9818   5.086   0.078   2.141
 2973SOL    HW2 9819   5.109   6.941   2.155
 2974SOL     OW 9820   5.248   5.198   3.640
 2974SOL    HW1 9821   5.212   5.245   3.720
 2974SOL    HW2 9822   5.333   5.241   3.612
 2975SOL     OW 9823   4.551   4.815   4.104
 2975SOL    HW1 9824   4.558   4.716   4.093
 2975SOL    HW2 9825   4.632   4.850   4.150
 2976SOL     OW 9826   4.724   1.947   2.389
 2976SOL    HW1 9827   4.770   1.889   2.322
 2976SOL    HW2 9828   4.693   2.031   2.344
 2977SOL     OW 9829   0.460   0.248   1.291
 2977SOL    HW1 9830   0.363   0.244   1.266
 2977SOL    HW2 9831   0.469   0.285   1.384
 2978SOL     OW 9832   3.897   4.718   5.926
 2978SOL    HW1 9833   3.912   4.792   5.992
 2978SOL    HW2 9834   3.945   4.636   5.956
 2979SOL     OW 9835   2.232   1.734   4.477
 2979SOL    HW1 9836   2.231   1.815   4.535
 2979SOL    HW2 9837   2.143   1.725   4.430
 2980SOL     OW 9838   3.987   3.974   6.218
 2980SOL    HW1 9839   4.068   3.938   6.265
 2980SOL    HW2 9840   3.961   3.912   6.144
 2981SOL     OW 9841   1.786   1.186   0.542
 2981SOL    HW1 9842   1.864   1.125   0.545
 2981SOL    HW2 9843   1.742   1.188   0.632
 2982SOL     OW 9844   1.346   0.129   2.204
 2982SOL    HW1 9845   1.290   0.117   2.286
 2982SOL    HW2 9846   1.288   0.157   2.128
 2983SOL     OW 9847   6.249   3.222   6.888
 2983SOL    HW1 9848   6.172   3.167   6.858
 2983SOL    HW2 9849   6.314   3.233   6.813
 2984SOL     OW 9850   6.450   4.829   6.907
 2984SOL    HW1 9851   6.396   4.907   6.941
 2984SOL    HW2 9852   6.406   4.791   6.826
 2985SOL     OW 9853   0.151   0.540   4.864
 2985SOL    HW1 9854   0.094   0.506   4.789
 2985SOL    HW2 9855   0.174   0.465   4.926
 2986SOL     OW 9856   3.727   3.957   2.847
 2986SOL    HW1 9857   3.791   3.976   2.773
 2986SOL    HW2 9858   3.777   3.953   2.934
 2987SOL     OW 9859   0.942   1.410   4.406
 2987SOL    HW1 9860   0.962   1.502   4.441
 2987SOL    HW2 9861   0.843   1.395   4.406
 2988SOL     OW 9862   0.646   1.643   0.446
 2988SOL    HW1 9863   0.573   1.660   0.512
 2988SOL    HW2 9864   0.735   1.651   0.491
 2989SOL     OW 9865   5.185   3.042   4.837
 2989SOL    HW1 9866   5.192   3.015   4.741
 2989SOL    HW2 9867   5.263   3.005   4.887
 2990SOL     OW 9868   4.983   1.905   4.667
 2990SOL    HW1 9869   5.029   1.951   4.590
 2990SOL    HW2 9870   5.050   1.887   4.739
 2991SOL     OW 9871   5.344   2.988   0.993
 2991SOL    HW1 9872   5.274   3.049   0.956
 2991SOL    HW2 9873   5.300   2.904   1.025
 2992SOL     OW 9874   0.535   3.842   5.690
 2992SOL    HW1 9875   0.634   3.830   5.699
 2992SOL    HW2 9876   0.513   3.868   5.596
 2993SOL     OW 9877   0.928   4.765   6.882
 2993SOL    HW1 9878   0.919   4.863   6.866
 2993SOL    HW2 9879   0.836   4.725   6.890
 2994SOL     OW 9880   4.379   6.190   0.055
 2994SOL    HW1 9881   4.477   6.175   0.044
 2994SOL    HW2 9882   4.349   6.261   7.015
 2995SOL     OW 9883   5.066   0.128   0.545
 2995SOL    HW1 9884   5.092   0.158   0.637
 2995SOL    HW2 9885   5.002   0.194   0.505
 2996SOL     OW 9886   1.546   2.127   4.840
 2996SOL    HW1 9887   1.571   2.049   4.897
 2996SOL    HW2 9888   1.577   2.111   4.746
 2997SOL     OW 9889   5.068   0.451   4.023
 2997SOL    HW1 9890   5.124   0.533   4.026
 2997SOL    HW2 9891   4.972   0.476   4.011
 2998SOL     OW 9892   2.711   1.040   2.885
 2998SOL    HW1 9893   2.770   1.076   2.813
 2998SOL    HW2 9894   2.623   1.013   2.846
 2999SOL     OW 9895   2.470   4.424   0.342
 2999SOL    HW1 9896   2.478   4.345   0.282
 2999SOL    HW2 9897   2.561   4.456   0.369
 3000SOL     OW 9898   2.744   3.758   5.307
 3000SOL    HW1 9899   2.729   3.856   5.296
 3000SOL    HW2 9900   2.816   3.728   5.243
 3001SOL     OW 9901   6.154   1.844   6.232
 3001SOL    HW1 9902   6.158   1.929   6.284
 3001SOL    HW2 9903   6.140   1.864   6.135
 3002SOL     OW 9904   2.838   0.957   1.593
 3002SOL    HW1 9905   2.852   1.054   1.610
 3002SOL    HW2 9906   2.741   0.936   1.599
 3003SOL     OW 9907   1.192   5.971   0.390
 3003SOL    HW1 9908   1.227   5.919   0.468
 3003SOL    HW2 9909   1.165   5.908   0.317
 3004SOL     OW 9910   2.457   5.239   4.242
 3004SOL    HW1 9911   2.428   5.333   4.257
 3004SOL    HW2 9912   2.551   5.227   4.275
 3005SOL     OW 9913   1.607   2.820   5.767
 3005SOL    HW1 9914   1.700   2.841   5.737
 3005SOL    HW2 9915   1.554   2.784   5.689
 3006SOL     OW 9916   4.852   1.929   5.153
 3006SOL    HW1 9917   4.883   1.888   5.239
 3006SOL    HW2 9918   4.908   2.009   5.132
 3007SOL     OW 9919   5.589   5.404   7.023
 3007SOL    HW1 9920   5.671   5.363   6.984
 3007SOL    HW2 9921   5.510   5.348   7.001
 3008SOL     OW 9922   4.283   2.361   5.853
 3008SOL    HW1 9923   4.209   2.344   5.918
 3008SOL    HW2 9924   4.264   2.445   5.801
 3009SOL     OW 9925   0.689   2.668   3.008
 3009SOL    HW1 9926   0.718   2.751   2.961
 3009SOL    HW2 9927   0.601   2.638   2.972
 3010SOL     OW 9928   4.063   5.757   6.120
 3010SOL    HW1 9929   4.087   5.766   6.024
 3010SOL    HW2 9930   3.997   5.683   6.132
 3011SOL     OW 9931   5.624   0.038   1.254
 3011SOL    HW1 9932   5.549   0.020   1.317
 3011SOL    HW2 9933   5.699   0.082   1.303
 3012SOL     OW 9934   2.924   3.039   5.838
 3012SOL    HW1 9935   2.936   3.101   5.760
 3012SOL    HW2 9936   2.953   3.086   5.922
 3013SOL     OW 9937   0.780   6.013   3.945
 3013SOL    HW1 9938   0.747   6.019   4.039
 3013SOL    HW2 9939   0.817   5.921   3.928
 3014SOL     OW 9940   4.621   1.010   5.160
 3014SOL    HW1 9941   4.692   1.080   5.171
 3014SOL    HW2 9942   4.660   0.920   5.182
 3015SOL     OW 9943   1.375   1.297   0.614
 3015SOL    HW1 9944   1.278   1.288   0.592
 3015SOL    HW2 9945   1.393   1.391   0.643
 3016SOL     OW 9946   2.787   6.448   4.655
 3016SOL    HW1 9947   2.694   6.431   4.687
 3016SOL    HW2 9948   2.828   6.522   4.710
 3017SOL     OW 9949   6.457   5.603   1.761
 3017SOL    HW1 9950   6.366   5.564   1.769
 3017SOL    HW2 9951   6.450   5.699   1.733
 3018SOL     OW 9952   3.557   0.348   0.414
 3018SOL    HW1 9953   3.479   0.346   0.478
 3018SOL    HW2 9954   3.613   0.428   0.433
 3019SOL     OW 9955   1.454   0.058   6.156
 3019SOL    HW1 9956   1.470   0.088   6.062
 3019SOL    HW2 9957   1.419   0.135   6.210
 3020SOL     OW 9958   5.198   3.508   0.283
 3020SOL    HW1 9959   5.132   3.457   0.226
 3020SOL    HW2 9960   5.195   3.605   0.258
 3021SOL     OW 9961   3.822   6.462   4.796
 3021SOL    HW1 9962   3.902   6.516   4.820
 3021SOL    HW2 9963   3.844   6.364   4.804
 3022SOL     OW 9964   4.142   6.264   3.477
 3022SOL    HW1 9965   4.185   6.189   3.427
 3022SOL    HW2 9966   4.057   6.291   3.432
 3023SOL     OW 9967   4.214   6.755   2.958
 3023SOL    HW1 9968   4.183   6.758   2.863
 3023SOL    HW2 9969   4.295   6.698   2.966
 3024SOL     OW 9970   0.231   6.757   6.234
 3024SOL    HW1 9971   0.152   6.738   6.175
 3024SOL    HW2 9972   0.220   6.706   6.320
 3025SOL     OW 9973   3.841   6.002   1.007
 3025SOL    HW1 9974   3.787   6.009   0.924
 3025SOL    HW2 9975   3.831   6.086   1.060
 3026SOL     OW 9976   5.683   1.749   0.170
 3026SOL    HW1 9977   5.605   1.718   0.224
 3026SOL    HW2 9978   5.726   1.671   0.125
 3027SOL     OW 9979   5.367   1.385   1.639
 3027SOL    HW1 9980   5.283   1.377   1.586
 3027SOL    HW2 9981   5.438   1.428   1.583
 3028SOL     OW 9982   2.593   4.295   6.162
 3028SOL    HW1 9983   2.537   4.224   6.120
 3028SOL    HW2 9984   2.652   4.337   6.093
 3029SOL     OW 9985   0.894   2.061   4.498
 3029SOL    HW1 9986   0.893   2.157   4.469
 3029SOL    HW2 9987   0.988   2.033   4.517
 3030SOL     OW 9988   1.410   3.669   1.775
 3030SOL    HW1 9989   1.430   3.730   1.851
 3030SOL    HW2 9990   1.337   3.605   1.801
 3031SOL     OW 9991   1.579   5.655   0.951
 3031SOL    HW1 9992   1.519   5.583   0.915
 3031SOL    HW2 9993   1.527   5.740   0.957
 3032SOL     OW 9994   1.449   0.401   2.827
 3032SOL    HW1 9995   1.467   0.327   2.762
 3032SOL    HW2 9996   1.428   0.485   2.776
 3033SOL     OW 9997   6.753   2.386   4.393
 3033SOL    HW1 9998   6.767   2.293   4.426
 3033SOL    HW2 9999   6.741   2.384   4.294
 3034SOL     OW10000   0.701   6.041   3.689
 3034SOL    HW110001   0.755   5.959   3.668
 3034SOL    HW210002   0.676   6.041   3.785
 3035SOL     OW10003   1.275   2.228   6.399
 3035SOL    HW110004   1.206   2.282   6.349
 3035SOL    HW210005   1.363   2.236   6.352
 3036SOL     OW10006   2.281   1.875   6.488
 3036SOL    HW110007   2.206   1.915   6.541
 3036SOL    HW210008   2.360   1.862   6.548
 3037SOL     OW10009   0.728   5.668   6.403
 3037SOL    HW110010   0.635   5.689   6.373
 3037SOL    HW210011   0.749   5.720   6.486
 3038SOL     OW10012   5.294   4.905   6.036
 3038SOL    HW110013   5.268   4.992   6.077
 3038SOL    HW210014   5.295   4.834   6.107
 3039SOL     OW10015   6.359   4.052   6.834
 3039SOL    HW110016   6.338   4.074   6.738
 3039SOL    HW210017   6.386   4.136   6.881
 3040SOL     OW10018   3.770   4.325   5.767
 3040SOL    HW110019   3.717   4.247   5.800
 3040SOL    HW210020   3.740   4.408   5.814
 3041SOL     OW10021   2.052   4.227   4.978
 3041SOL    HW110022   1.956   4.199   4.985
 3041SOL    HW210023   2.110   4.146   4.973
 3042SOL     OW10024   0.268   5.126   3.046
 3042SOL    HW110025   0.360   5.165   3.052
 3042SOL    HW210026   0.202   5.200   3.028
 3043SOL     OW10027   3.069   4.112   0.887
 3043SOL    HW110028   3.088   4.105   0.985
 3043SOL    HW210029   3.023   4.199   0.868
 3044SOL     OW10030   3.365   3.695   5.130
 3044SOL    HW110031   3.418   3.747   5.197
 3044SOL    HW210032   3.414   3.612   5.105
 3045SOL     OW10033   5.060   1.603   3.019
 3045SOL    HW110034   5.132   1.642   3.077
 3045SOL    HW210035   5.035   1.512   3.054
 3046SOL     OW10036   5.626   5.547   0.403
 3046SOL    HW110037   5.527   5.564   0.403
 3046SOL    HW210038   5.643   5.449   0.393
 3047SOL     OW10039   5.991   0.732   6.580
 3047SOL    HW110040   6.012   0.635   6.565
 3047SOL    HW210041   5.968   0.746   6.677
 3048SOL     OW10042   4.057   3.585   1.293
 3048SOL    HW110043   4.072   3.675   1.334
 3048SOL    HW210044   4.069   3.514   1.363
 3049SOL     OW10045   1.232   0.367   4.318
 3049SOL    HW110046   1.187   0.389   4.231
 3049SOL    HW210047   1.188   0.417   4.392
 3050SOL     OW10048   3.182   2.255   1.370
 3050SOL    HW110049   3.175   2.351   1.398
 3050SOL    HW210050   3.102   2.205   1.403
 3051SOL     OW10051   2.734   6.790   4.522
 3051SOL    HW110052   2.821   6.834   4.546
 3051SOL    HW210053   2.744   6.691   4.531
 3052SOL     OW10054   5.743   6.205   2.495
 3052SOL    HW110055   5.656   6.243   2.463
 3052SOL    HW210056   5.783   6.148   2.424
 3053SOL     OW10057   1.624   4.002   0.644
 3053SOL    HW110058   1.602   4.026   0.739
 3053SOL    HW210059   1.662   3.910   0.641
 3054SOL     OW10060   5.671   1.652   2.993
 3054SOL    HW110061   5.749   1.590   3.009
 3054SOL    HW210062   5.669   1.721   3.065
 3055SOL     OW10063   6.317   5.969   6.416
 3055SOL    HW110064   6.333   5.871   6.429
 3055SOL    HW210065   6.298   6.012   6.504
 3056SOL     OW10066   4.873   1.652   6.077
 3056SOL    HW110067   4.887   1.553   6.071
 3056SOL    HW210068   4.961   1.696   6.095
 3057SOL     OW10069   6.229   5.705   3.218
 3057SOL    HW110070   6.167   5.781   3.237
 3057SOL    HW210071   6.262   5.666   3.304
 3058SOL     OW10072   6.210   4.206   0.065
 3058SOL    HW110073   6.125   4.172   0.104
 3058SOL    HW210074   6.284   4.141   0.082
 3059SOL     OW10075   2.375   2.490   4.598
 3059SOL    HW110076   2.346   2.564   4.537
 3059SOL    HW210077   2.296   2.435   4.625
 3060SOL     OW10078   4.041   5.277   5.466
 3060SOL    HW110079   3.969   5.236   5.411
 3060SOL    HW210080   4.127   5.278   5.414
 3061SOL     OW10081   4.838   4.869   5.259
 3061SOL    HW110082   4.907   4.893   5.191
 3061SOL    HW210083   4.748   4.869   5.216
 3062SOL     OW10084   4.546   4.481   1.784
 3062SOL    HW110085   4.534   4.385   1.811
 3062SOL    HW210086   4.458   4.529   1.792
 3063SOL     OW10087   6.983   4.183   1.325
 3063SOL    HW110088   6.984   4.110   1.393
 3063SOL    HW210089   0.047   4.185   1.277
 3064SOL     OW10090   3.879   2.175   6.932
 3064SOL    HW110091   3.851   2.248   6.995
 3064SOL    HW210092   3.954   2.123   6.972
 3065SOL     OW10093   0.926   0.842   0.238
 3065SOL    HW110094   0.952   0.926   0.192
 3065SOL    HW210095   0.955   0.763   0.184
 3066SOL     OW10096   4.808   6.077   6.228
 3066SOL    HW110097   4.715   6.081   6.266
 3066SOL    HW210098   4.875   6.080   6.302
 3067SOL     OW10099   2.910   2.153   0.045
 3067SOL    HW110100   2.892   2.193   0.135
 3067SOL    HW210101   2.911   2.225   7.000
 3068SOL     OW10102   0.661   0.966   0.753
 3068SOL    HW110103   0.610   0.922   0.827
 3068SOL    HW210104   0.705   0.896   0.697
 3069SOL     OW10105   4.984   7.004   2.734
 3069SOL    HW110106   5.023   6.935   2.673
 3069SOL    HW210107   5.046   0.059   2.739
 3070SOL     OW10108   2.905   1.543   0.963
 3070SOL    HW110109   2.921   1.637   0.934
 3070SOL    HW210110   2.842   1.542   1.041
 3071SOL     OW10111   0.222   2.917   3.451
 3071SOL    HW110112   0.157   2.953   3.518
 3071SOL    HW210113   0.308   2.969   3.456
 3072SOL     OW10114   2.138   6.756   6.650
 3072SOL    HW110115   2.234   6.732   6.645
 3072SOL    HW210116   2.082   6.676   6.629
 3073SOL     OW10117   5.921   4.755   0.740
 3073SOL    HW110118   5.865   4.835   0.719
 3073SOL    HW210119   5.955   4.715   0.654
 3074SOL     OW10120   1.301   3.603   1.151
 3074SOL    HW110121   1.268   3.509   1.161
 3074SOL    HW210122   1.298   3.629   1.055
 3075SOL     OW10123   2.142   5.256   3.402
 3075SOL    HW110124   2.051   5.242   3.441
 3075SOL    HW210125   2.204   5.184   3.435
 3076SOL     OW10126   0.093   0.866   4.590
 3076SOL    HW110127   0.071   0.925   4.668
 3076SOL    HW210128   0.107   0.922   4.509
 3077SOL     OW10129   6.668   4.041   1.373
 3077SOL    HW110130   6.605   4.118   1.381
 3077SOL    HW210131   6.646   3.972   1.443
 3078SOL     OW10132   6.554   2.824   1.538
 3078SOL    HW110133   6.584   2.918   1.548
 3078SOL    HW210134   6.596   2.767   1.609
 3079SOL     OW10135   2.155   2.868   5.186
 3079SOL    HW110136   2.118   2.919   5.264
 3079SOL    HW210137   2.231   2.918   5.145
 3080SOL     OW10138   4.610   4.955   1.073
 3080SOL    HW110139   4.667   4.888   1.025
 3080SOL    HW210140   4.517   4.919   1.082
 3081SOL     OW10141   1.521   4.069   0.881
 3081SOL    HW110142   1.579   3.997   0.920
 3081SOL    HW210143   1.426   4.055   0.908
 3082SOL     OW10144   3.812   5.003   4.684
 3082SOL    HW110145   3.888   4.938   4.681
 3082SOL    HW210146   3.848   5.096   4.687
 3083SOL     OW10147   2.269   5.764   2.725
 3083SOL    HW110148   2.280   5.808   2.636
 3083SOL    HW210149   2.253   5.833   2.795
 3084SOL     OW10150   0.988   3.809   3.477
 3084SOL    HW110151   1.012   3.854   3.563
 3084SOL    HW210152   1.068   3.806   3.417
 3085SOL     OW10153   4.523   4.603   0.796
 3085SOL    HW110154   4.555   4.694   0.767
 3085SOL    HW210155   4.590   4.534   0.770
 3086SOL     OW10156   6.779   1.158   6.439
 3086SOL    HW110157   6.722   1.190   6.363
 3086SOL    HW210158   6.735   1.080   6.483
 3087SOL     OW10159   3.127   6.707   1.997
 3087SOL    HW110160   3.050   6.767   1.974
 3087SOL    HW210161   3.093   6.623   2.039
 3088SOL     OW10162   0.406   2.888   5.356
 3088SOL    HW110163   0.322   2.919   5.400
 3088SOL    HW210164   0.388   2.807   5.300
 3089SOL     OW10165   5.019   6.768   5.293
 3089SOL    HW110166   5.063   6.858   5.290
 3089SOL    HW210167   5.012   6.738   5.388
 3090SOL     OW10168   0.814   1.905   1.506
 3090SOL    HW110169   0.909   1.898   1.475
 3090SOL    HW210170   0.753   1.890   1.429
 3091SOL     OW10171   1.372   1.767   0.853
 3091SOL    HW110172   1.323   1.796   0.935
 3091SOL    HW210173   1.459   1.815   0.847
 3092SOL     OW10174   6.257   6.970   2.418
 3092SOL    HW110175   6.309   0.009   2.477
 3092SOL    HW210176   6.318   6.900   2.383
 3093SOL     OW10177   5.566   5.148   6.017
 3093SOL    HW110178   5.561   5.073   6.082
 3093SOL    HW210179   5.654   5.194   6.026
 3094SOL     OW10180   2.601   1.123   5.814
 3094SOL    HW110181   2.513   1.086   5.844
 3094SOL    HW210182   2.614   1.104   5.717
 3095SOL     OW10183   2.189   3.205   5.118
 3095SOL    HW110184   2.262   3.143   5.148
 3095SOL    HW210185   2.171   3.191   5.020
 3096SOL     OW10186   0.921   3.197   4.817
 3096SOL    HW110187   0.883   3.283   4.851
 3096SOL    HW210188   0.883   3.179   4.726
 3097SOL     OW10189   5.495   2.510   6.243
 3097SOL    HW110190   5.571   2.519   6.306
 3097SOL    HW210191   5.412   2.548   6.285
 3098SOL     OW10192   1.856   1.666   2.227
 3098SOL    HW110193   1.929   1.707   2.282
 3098SOL    HW210194   1.894   1.594   2.169
 3099SOL     OW10195   0.605   6.698   3.751
 3099SOL    HW110196   0.559   6.771   3.699
 3099SOL    HW210197   0.692   6.675   3.708
 3100SOL     OW10198   6.223   6.220   2.587
 3100SOL    HW110199   6.143   6.280   2.586
 3100SOL    HW210200   6.305   6.272   2.562
 3101SOL     OW10201   4.138   6.677   5.918
 3101SOL    HW110202   4.235   6.690   5.939
 3101SOL    HW210203   4.129   6.605   5.849
 3102SOL     OW10204   0.293   4.851   0.567
 3102SOL    HW110205   0.276   4.878   0.662
 3102SOL    HW210206   0.253   4.919   0.505
 3103SOL     OW10207   3.106   0.281   1.174
 3103SOL    HW110208   3.061   0.370   1.168
 3103SOL    HW210209   3.126   0.260   1.270
 3104SOL     OW10210   4.826   0.742   5.845
 3104SOL    HW110211   4.837   0.654   5.799
 3104SOL    HW210212   4.864   0.736   5.937
 3105SOL     OW10213   5.137   2.984   0.327
 3105SOL    HW110214   5.151   2.962   0.230
 3105SOL    HW210215   5.040   2.973   0.349
 3106SOL     OW10216   5.715   0.945   4.638
 3106SOL    HW110217   5.765   0.888   4.703
 3106SOL    HW210218   5.707   0.897   4.551
 3107SOL     OW10219   4.139   1.057   4.975
 3107SOL    HW110220   4.187   1.084   4.892
 3107SOL    HW210221   4.074   1.129   5.001
 3108SOL     OW10222   1.938   4.307   4.495
 3108SOL    HW110223   1.856   4.364   4.501
 3108SOL    HW210224   1.998   4.328   4.572
 3109SOL     OW10225   6.665   6.750   3.942
 3109SOL    HW110226   6.624   6.716   3.857
 3109SOL    HW210227   6.758   6.715   3.951
 3110SOL     OW10228   2.078   4.737   3.925
 3110SOL    HW110229   2.016   4.674   3.971
 3110SOL    HW210230   2.050   4.748   3.830
 3111SOL     OW10231   6.580   4.252   4.937
 3111SOL    HW110232   6.609   4.276   5.030
 3111SOL    HW210233   6.641   4.295   4.871
 3112SOL     OW10234   3.725   2.327   0.104
 3112SOL    HW110235   3.692   2.366   0.018
 3112SOL    HW210236   3.800   2.382   0.140
 3113SOL     OW10237   2.031   5.625   3.176
 3113SOL    HW110238   2.091   5.658   3.249
 3113SOL    HW210239   2.009   5.701   3.114
 3114SOL     OW10240   3.958   1.501   0.291
 3114SOL    HW110241   3.915   1.411   0.290
 3114SOL    HW210242   4.038   1.500   0.231
 3115SOL     OW10243   3.979   4.641   5.683
 3115SOL    HW110244   3.956   4.658   5.778
 3115SOL    HW210245   3.897   4.648   5.626
 3116SOL     OW10246   0.421   2.541   0.884
 3116SOL    HW110247   0.328   2.519   0.915
 3116SOL    HW210248   0.460   2.462   0.837
 3117SOL     OW10249   4.947   2.144   5.460
 3117SOL    HW110250   4.943   2.048   5.432
 3117SOL    HW210251   4.951   2.201   5.378
 3118SOL     OW10252   1.555   1.212   2.751
 3118SOL    HW110253   1.508   1.300   2.759
 3118SOL    HW210254   1.595   1.187   2.839
 3119SOL     OW10255   4.135   3.593   5.775
 3119SOL    HW110256   4.202   3.665   5.761
 3119SOL    HW210257   4.135   3.565   5.871
 3120SOL     OW10258   2.686   6.477   5.467
 3120SOL    HW110259   2.630   6.534   5.526
 3120SOL    HW210260   2.660   6.493   5.371
 3121SOL     OW10261   5.013   1.704   4.392
 3121SOL    HW110262   5.009   1.753   4.479
 3121SOL    HW210263   4.934   1.730   4.336
 3122SOL     OW10264   4.194   4.929   4.406
 3122SOL    HW110265   4.251   4.940   4.324
 3122SOL    HW210266   4.242   4.873   4.473
 3123SOL     OW10267   2.759   2.095   3.215
 3123SOL    HW110268   2.836   2.038   3.242
 3123SOL    HW210269   2.792   2.171   3.159
 3124SOL     OW10270   4.932   6.355   4.272
 3124SOL    HW110271   4.837   6.338   4.299
 3124SOL    HW210272   4.959   6.447   4.303
 3125SOL     OW10273   1.534   2.769   5.108
 3125SOL    HW110274   1.448   2.802   5.068
 3125SOL    HW210275   1.609   2.827   5.077
 3126SOL     OW10276   5.488   5.210   4.326
 3126SOL    HW110277   5.585   5.197   4.304
 3126SOL    HW210278   5.443   5.121   4.330
 3127SOL     OW10279   0.435   1.894   4.606
 3127SOL    HW110280   0.367   1.947   4.556
 3127SOL    HW210281   0.416   1.900   4.704
 3128SOL     OW10282   4.231   0.078   0.377
 3128SOL    HW110283   4.284   0.023   0.313
 3128SOL    HW210284   4.134   0.054   0.371
 3129SOL     OW10285   4.864   3.326   1.071
 3129SOL    HW110286   4.814   3.246   1.037
 3129SOL    HW210287   4.849   3.336   1.169
 3130SOL     OW10288   1.778   4.080   1.300
 3130SOL    HW110289   1.737   4.121   1.381
 3130SOL    HW210290   1.734   4.117   1.218
 3131SOL     OW10291   6.748   3.911   2.024
 3131SOL    HW110292   6.675   3.978   2.037
 3131SOL    HW210293   6.825   3.955   1.978
 3132SOL     OW10294   3.971   3.931   0.302
 3132SOL    HW110295   3.939   3.998   0.235
 3132SOL    HW210296   4.053   3.967   0.347
 3133SOL     OW10297   4.250   0.336   3.312
 3133SOL    HW110298   4.216   0.361   3.221
 3133SOL    HW210299   4.326   0.272   3.303
 3134SOL     OW10300   3.563   5.273   2.163
 3134SOL    HW110301   3.621   5.256   2.083
 3134SOL    HW210302   3.581   5.203   2.232
 3135SOL     OW10303   5.605   6.721   5.931
 3135SOL    HW110304   5.512   6.714   5.967
 3135SOL    HW210305   5.610   6.794   5.863
 3136SOL     OW10306   6.348   1.377   2.717
 3136SOL    HW110307   6.257   1.417   2.730
 3136SOL    HW210308   6.405   1.398   2.796
 3137SOL     OW10309   6.689   6.847   0.492
 3137SOL    HW110310   6.651   6.765   0.535
 3137SOL    HW210311   6.619   6.918   0.487
 3138SOL     OW10312   5.326   4.972   4.318
 3138SOL    HW110313   5.262   4.905   4.357
 3138SOL    HW210314   5.297   4.996   4.226
 3139SOL     OW10315   2.277   5.694   1.216
 3139SOL    HW110316   2.291   5.773   1.275
 3139SOL    HW210317   2.209   5.634   1.256
 3140SOL     OW10318   6.899   6.418   5.578
 3140SOL    HW110319   6.813   6.385   5.619
 3140SOL    HW210320   6.951   6.340   5.542
 3141SOL     OW10321   6.972   2.943   6.485
 3141SOL    HW110322   6.878   2.922   6.457
 3141SOL    HW210323   6.972   2.984   6.576
 3142SOL     OW10324   5.302   0.940   2.406
 3142SOL    HW110325   5.226   0.903   2.460
 3142SOL    HW210326   5.273   0.953   2.312
 3143SOL     OW10327   5.937   1.374   6.946
 3143SOL    HW110328   5.962   1.470   6.935
 3143SOL    HW210329   5.900   1.339   6.859
 3144SOL     OW10330   4.431   3.893   6.555
 3144SOL    HW110331   4.394   3.970   6.501
 3144SOL    HW210332   4.443   3.922   6.650
 3145SOL     OW10333   2.393   5.889   1.782
 3145SOL    HW110334   2.388   5.808   1.841
 3145SOL    HW210335   2.471   5.945   1.809
 3146SOL     OW10336   0.381   0.989   5.371
 3146SOL    HW110337   0.404   0.944   5.458
 3146SOL    HW210338   0.463   0.994   5.314
 3147SOL     OW10339   3.878   4.615   6.305
 3147SOL    HW110340   3.811   4.689   6.296
 3147SOL    HW210341   3.889   4.570   6.216
 3148SOL     OW10342   0.812   6.135   2.686
 3148SOL    HW110343   0.803   6.234   2.693
 3148SOL    HW210344   0.886   6.104   2.746
 3149SOL     OW10345   3.195   1.439   1.037
 3149SOL    HW110346   3.231   1.458   1.128
 3149SOL    HW210347   3.107   1.484   1.026
 3150SOL     OW10348   6.341   6.502   5.254
 3150SOL    HW110349   6.410   6.429   5.259
 3150SOL    HW210350   6.376   6.584   5.298
 3151SOL     OW10351   6.067   1.909   5.960
 3151SOL    HW110352   6.074   1.810   5.946
 3151SOL    HW210353   5.981   1.942   5.921
 3152SOL     OW10354   1.572   3.772   6.577
 3152SOL    HW110355   1.628   3.804   6.501
 3152SOL    HW210356   1.572   3.841   6.650
 3153SOL     OW10357   6.819   5.354   0.705
 3153SOL    HW110358   6.734   5.304   0.721
 3153SOL    HW210359   6.878   5.347   0.785
 3154SOL     OW10360   5.688   1.678   1.576
 3154SOL    HW110361   5.767   1.674   1.515
 3154SOL    HW210362   5.687   1.597   1.634
 3155SOL     OW10363   6.784   4.726   0.235
 3155SOL    HW110364   6.750   4.673   0.157
 3155SOL    HW210365   6.722   4.802   0.254
 3156SOL     OW10366   3.579   4.146   2.046
 3156SOL    HW110367   3.672   4.118   2.071
 3156SOL    HW210368   3.529   4.172   2.128
 3157SOL     OW10369   0.965   2.133   5.357
 3157SOL    HW110370   0.956   2.130   5.457
 3157SOL    HW210371   1.055   2.100   5.331
 3158SOL     OW10372   3.013   1.660   5.605
 3158SOL    HW110373   2.972   1.582   5.651
 3158SOL    HW210374   2.957   1.686   5.526
 3159SOL     OW10375   4.789   7.002   0.279
 3159SOL    HW110376   4.855   6.930   0.300
 3159SOL    HW210377   4.820   0.029   0.198
 3160SOL     OW10378   2.594   6.805   6.216
 3160SOL    HW110379   2.659   6.866   6.172
 3160SOL    HW210380   2.602   6.813   6.315
 3161SOL     OW10381   1.792   2.843   3.085
 3161SOL    HW110382   1.710   2.875   3.132
 3161SOL    HW210383   1.773   2.757   3.038
 3162SOL     OW10384   2.038   5.366   0.356
 3162SOL    HW110385   1.980   5.382   0.277
 3162SOL    HW210386   2.126   5.411   0.344
 3163SOL     OW10387   4.282   3.753   0.601
 3163SOL    HW110388   4.355   3.724   0.663
 3163SOL    HW210389   4.202   3.693   0.614
 3164SOL     OW10390   3.176   5.674   3.569
 3164SOL    HW110391   3.111   5.665   3.644
 3164SOL    HW210392   3.209   5.768   3.563
 3165SOL     OW10393   0.912   5.164   0.315
 3165SOL    HW110394   0.844   5.095   0.289
 3165SOL    HW210395   0.978   5.123   0.379
 3166SOL     OW10396   4.100   0.919   5.229
 3166SOL    HW110397   4.109   0.967   5.142
 3166SOL    HW210398   4.074   0.984   5.301
 3167SOL     OW10399   4.793   4.148   0.739
 3167SOL    HW110400   4.781   4.239   0.780
 3167SOL    HW210401   4.704   4.104   0.729
 3168SOL     OW10402   4.611   2.429   0.652
 3168SOL    HW110403   4.530   2.374   0.669
 3168SOL    HW210404   4.649   2.460   0.740
 3169SOL     OW10405   1.488   4.677   2.290
 3169SOL    HW110406   1.413   4.644   2.346
 3169SOL    HW210407   1.452   4.734   2.216
 3170SOL     OW10408   3.666   5.594   3.183
 3170SOL    HW110409   3.626   5.657   3.116
 3170SOL    HW210410   3.632   5.616   3.275
 3171SOL     OW10411   5.628   2.834   3.294
 3171SOL    HW110412   5.597   2.743   3.265
 3171SOL    HW210413   5.710   2.824   3.350
 3172SOL     OW10414   6.933   4.977   0.565
 3172SOL    HW110415   6.990   4.981   0.647
 3172SOL    HW210416   6.837   4.963   0.592
 3173SOL     OW10417   3.123   1.398   0.289
 3173SOL    HW110418   3.069   1.431   0.366
 3173SOL    HW210419   3.220   1.400   0.313
 3174SOL     OW10420   2.536   3.376   5.646
 3174SOL    HW110421   2.626   3.400   5.610
 3174SOL    HW210422   2.465   3.424   5.594
 3175SOL     OW10423   6.365   1.317   3.587
 3175SOL    HW110424   6.341   1.326   3.684
 3175SOL    HW210425   6.308   1.379   3.533
 3176SOL     OW10426   0.362   4.340   4.929
 3176SOL    HW110427   0.423   4.267   4.899
 3176SOL    HW210428   0.271   4.325   4.890
 3177SOL     OW10429   5.912   3.854   3.234
 3177SOL    HW110430   5.945   3.763   3.260
 3177SOL    HW210431   5.872   3.850   3.143
 3178SOL     OW10432   5.747   1.446   0.137
 3178SOL    HW110433   5.665   1.390   0.126
 3178SOL    HW210434   5.819   1.412   0.076
 3179SOL     OW10435   0.680   2.036   1.982
 3179SOL    HW110436   0.669   2.126   2.024
 3179SOL    HW210437   0.616   1.971   2.024
 3180SOL     OW10438   6.227   6.144   6.240
 3180SOL    HW110439   6.154   6.103   6.186
 3180SOL    HW210440   6.258   6.080   6.310
 3181SOL     OW10441   0.685   1.321   4.496
 3181SOL    HW110442   0.737   1.287   4.574
 3181SOL    HW210443   0.591   1.340   4.524
 3182SOL     OW10444   3.302   0.344   0.590
 3182SOL    HW110445   3.234   0.293   0.538
 3182SOL    HW210446   3.285   0.331   0.688
 3183SOL     OW10447   4.450   4.475   2.237
 3183SOL    HW110448   4.393   4.430   2.306
 3183SOL    HW210449   4.474   4.410   2.165
 3184SOL     OW10450   0.608   2.318   4.036
 3184SOL    HW110451   0.586   2.220   4.034
 3184SOL    HW210452   0.528   2.371   4.008
 3185SOL     OW10453   7.017   6.837   5.558
 3185SOL    HW110454   0.038   6.794   5.637
 3185SOL    HW210455   0.018   6.787   5.475
 3186SOL     OW10456   1.352   1.141   0.155
 3186SOL    HW110457   1.450   1.136   0.175
 3186SOL    HW210458   1.329   1.074   0.084
 3187SOL     OW10459   3.953   5.719   2.524
 3187SOL    HW110460   4.035   5.754   2.569
 3187SOL    HW210461   3.893   5.675   2.591
 3188SOL     OW10462   2.296   4.863   5.141
 3188SOL    HW110463   2.371   4.843   5.079
 3188SOL    HW210464   2.328   4.853   5.236
 3189SOL     OW10465   2.418   1.222   0.338
 3189SOL    HW110466   2.326   1.248   0.307
 3189SOL    HW210467   2.470   1.189   0.259
 3190SOL     OW10468   6.302   6.007   4.748
 3190SOL    HW110469   6.266   5.987   4.657
 3190SOL    HW210470   6.237   6.064   4.798
 3191SOL     OW10471   4.411   5.556   2.203
 3191SOL    HW110472   4.399   5.461   2.232
 3191SOL    HW210473   4.469   5.558   2.122
 3192SOL     OW10474   6.614   2.386   1.402
 3192SOL    HW110475   6.641   2.481   1.388
 3192SOL    HW210476   6.672   2.345   1.472
 3193SOL     OW10477   4.700   1.503   4.915
 3193SOL    HW110478   4.621   1.541   4.868
 3193SOL    HW210479   4.698   1.403   4.909
 3194SOL     OW10480   1.074   1.063   5.564
 3194SOL    HW110481   1.164   1.021   5.556
 3194SOL    HW210482   1.076   1.156   5.527
 3195SOL     OW10483   0.073   0.968   1.853
 3195SOL    HW110484   0.001   1.035   1.869
 3195SOL    HW210485   0.152   0.989   1.911
 3196SOL     OW10486   6.657   0.618   4.983
 3196SOL    HW110487   6.689   0.643   5.074
 3196SOL    HW210488   6.598   0.690   4.947
 3197SOL     OW10489   2.225   6.921   6.252
 3197SOL    HW110490   2.317   6.883   6.256
 3197SOL    HW210491   2.229   7.021   6.253
 3198SOL     OW10492   6.811   2.251   3.929
 3198SOL    HW110493   6.764   2.304   4.000
 3198SOL    HW210494   6.848   2.313   3.860
 3199SOL     OW10495   5.399   4.714   2.642
 3199SOL    HW110496   5.373   4.811   2.640
 3199SOL    HW210497   5.331   4.660   2.594
 3200SOL     OW10498   6.188   3.049   3.951
 3200SOL    HW110499   6.112   2.984   3.959
 3200SOL    HW210500   6.153   3.136   3.916
 3201SOL     OW10501   6.011   4.629   2.655
 3201SOL    HW110502   5.918   4.666   2.662
 3201SOL    HW210503   6.053   4.660   2.570
 3202SOL     OW10504   1.251   5.103   0.475
 3202SOL    HW110505   1.245   5.009   0.442
 3202SOL    HW210506   1.317   5.154   0.420
 3203SOL     OW10507   4.239   6.872   1.408
 3203SOL    HW110508   4.218   6.892   1.504
 3203SOL    HW210509   4.154   6.876   1.355
 3204SOL     OW10510   2.830   1.370   3.577
 3204SOL    HW110511   2.763   1.415   3.636
 3204SOL    HW210512   2.833   1.272   3.600
 3205SOL     OW10513   5.707   3.584   5.925
 3205SOL    HW110514   5.794   3.535   5.932
 3205SOL    HW210515   5.631   3.518   5.930
 3206SOL     OW10516   2.687   2.836   1.681
 3206SOL    HW110517   2.752   2.760   1.685
 3206SOL    HW210518   2.600   2.806   1.719
 3207SOL     OW10519   0.831   0.846   5.945
 3207SOL    HW110520   0.763   0.818   6.013
 3207SOL    HW210521   0.821   0.790   5.863
 3208SOL     OW10522   6.105   5.719   5.296
 3208SOL    HW110523   6.123   5.633   5.249
 3208SOL    HW210524   6.073   5.787   5.230
 3209SOL     OW10525   4.547   5.187   5.791
 3209SOL    HW110526   4.462   5.220   5.750
 3209SOL    HW210527   4.593   5.262   5.837
 3210SOL     OW10528   0.497   5.413   1.663
 3210SOL    HW110529   0.461   5.412   1.570
 3210SOL    HW210530   0.422   5.405   1.729
 3211SOL     OW10531   1.617   5.078   0.639
 3211SOL    HW110532   1.590   5.043   0.549
 3211SOL    HW210533   1.717   5.075   0.648
 3212SOL     OW10534   3.324   0.183   2.494
 3212SOL    HW110535   3.250   0.234   2.452
 3212SOL    HW210536   3.297   0.153   2.585
 3213SOL     OW10537   2.080   0.351   6.356
 3213SOL    HW110538   2.147   0.329   6.285
 3213SOL    HW210539   2.030   0.268   6.381
 3214SOL     OW10540   3.757   0.103   3.267
 3214SOL    HW110541   3.662   0.072   3.264
 3214SOL    HW210542   3.762   0.198   3.236
 3215SOL     OW10543   1.156   3.470   0.405
 3215SOL    HW110544   1.216   3.395   0.376
 3215SOL    HW210545   1.212   3.546   0.437
 3216SOL     OW10546   5.183   4.669   1.255
 3216SOL    HW110547   5.117   4.606   1.215
 3216SOL    HW210548   5.220   4.729   1.183
 3217SOL     OW10549   0.326   5.012   2.777
 3217SOL    HW110550   0.300   5.091   2.833
 3217SOL    HW210551   0.396   5.040   2.712
 3218SOL     OW10552   6.199   2.183   3.343
 3218SOL    HW110553   6.261   2.177   3.421
 3218SOL    HW210554   6.252   2.191   3.259
 3219SOL     OW10555   6.666   0.863   4.772
 3219SOL    HW110556   6.574   0.844   4.806
 3219SOL    HW210557   6.659   0.914   4.685
 3220SOL     OW10558   0.379   6.127   6.332
 3220SOL    HW110559   0.413   6.037   6.308
 3220SOL    HW210560   0.396   6.191   6.257
 3221SOL     OW10561   4.089   0.544   2.594
 3221SOL    HW110562   4.030   0.464   2.580
 3221SOL    HW210563   4.059   0.619   2.535
 3222SOL     OW10564   3.073   1.520   3.195
 3222SOL    HW110565   3.168   1.526   3.165
 3222SOL    HW210566   3.070   1.511   3.295
 3223SOL     OW10567   1.648   6.825   0.482
 3223SOL    HW110568   1.743   6.837   0.453
 3223SOL    HW210569   1.639   6.852   0.577
 3224SOL     OW10570   4.806   2.898   4.785
 3224SOL    HW110571   4.810   2.997   4.772
 3224SOL    HW210572   4.879   2.870   4.848
 3225SOL     OW10573   4.244   1.240   3.911
 3225SOL    HW110574   4.210   1.191   3.991
 3225SOL    HW210575   4.223   1.337   3.920
 3226SOL     OW10576   1.515   6.987   1.968
 3226SOL    HW110577   1.522   0.026   2.046
 3226SOL    HW210578   1.457   0.005   1.898
 3227SOL     OW10579   3.921   2.617   6.561
 3227SOL    HW110580   4.005   2.590   6.608
 3227SOL    HW210581   3.905   2.555   6.484
 3228SOL     OW10582   0.624   4.082   0.710
 3228SOL    HW110583   0.622   3.982   0.702
 3228SOL    HW210584   0.552   4.121   0.653
 3229SOL     OW10585   3.124   0.568   5.687
 3229SOL    HW110586   3.042   0.591   5.635
 3229SOL    HW210587   3.176   0.498   5.639
 3230SOL     OW10588   2.503   5.598   5.902
 3230SOL    HW110589   2.469   5.534   5.972
 3230SOL    HW210590   2.563   5.665   5.945
 3231SOL     OW10591   3.227   1.076   2.742
 3231SOL    HW110592   3.308   1.134   2.749
 3231SOL    HW210593   3.233   1.002   2.809
 3232SOL     OW10594   3.818   6.112   4.201
 3232SOL    HW110595   3.872   6.064   4.269
 3232SOL    HW210596   3.782   6.197   4.240
 3233SOL     OW10597   6.896   2.460   0.082
 3233SOL    HW110598   6.939   2.506   0.160
 3233SOL    HW210599   6.883   2.526   0.008
 3234SOL     OW10600   1.723   3.096   0.349
 3234SOL    HW110601   1.630   3.094   0.386
 3234SOL    HW210602   1.732   3.172   0.285
 3235SOL     OW10603   6.008   5.597   2.150
 3235SOL    HW110604   5.991   5.514   2.204
 3235SOL    HW210605   6.007   5.677   2.210
 3236SOL     OW10606   2.563   3.649   0.467
 3236SOL    HW110607   2.633   3.674   0.399
 3236SOL    HW210608   2.549   3.550   0.464
 3237SOL     OW10609   6.446   1.606   4.253
 3237SOL    HW110610   6.385   1.554   4.312
 3237SOL    HW210611   6.540   1.593   4.282
 3238SOL     OW10612   6.129   5.498   0.402
 3238SOL    HW110613   6.195   5.472   0.332
 3238SOL    HW210614   6.173   5.499   0.491
 3239SOL     OW10615   0.035   6.967   3.501
 3239SOL    HW110616   0.129   6.949   3.472
 3239SOL    HW210617   0.035   0.001   3.583
 3240SOL     OW10618   0.116   0.630   6.204
 3240SOL    HW110619   0.134   0.534   6.227
 3240SOL    HW210620   0.099   0.682   6.287
 3241SOL     OW10621   4.924   1.762   6.739
 3241SOL    HW110622   4.961   1.848   6.704
 3241SOL    HW210623   4.837   1.780   6.785
 3242SOL     OW10624   5.310   4.100   5.502
 3242SOL    HW110625   5.304   4.196   5.474
 3242SOL    HW210626   5.264   4.042   5.435
 3243SOL     OW10627   3.831   5.691   6.355
 3243SOL    HW110628   3.839   5.610   6.413
 3243SOL    HW210629   3.775   5.669   6.275
 3244SOL     OW10630   5.892   6.258   7.022
 3244SOL    HW110631   5.912   6.240   6.926
 3244SOL    HW210632   5.890   6.172   0.049
 3245SOL     OW10633   4.627   2.286   4.155
 3245SOL    HW110634   4.659   2.285   4.060
 3245SOL    HW210635   4.549   2.349   4.163
 3246SOL     OW10636   6.997   7.021   2.233
 3246SOL    HW110637   6.940   0.075   2.260
 3246SOL    HW210638   0.016   6.981   2.315
 3247SOL     OW10639   0.219   4.401   2.580
 3247SOL    HW110640   0.151   4.474   2.572
 3247SOL    HW210641   0.250   4.375   2.488
 3248SOL     OW10642   5.572   2.625   2.879
 3248SOL    HW110643   5.535   2.532   2.879
 3248SOL    HW210644   5.496   2.690   2.880
 3249SOL     OW10645   3.757   2.992   3.236
 3249SOL    HW110646   3.703   2.926   3.289
 3249SOL    HW210647   3.814   3.046   3.298
 3250SOL     OW10648   4.887   6.442   3.314
 3250SOL    HW110649   4.874   6.541   3.318
 3250SOL    HW210650   4.879   6.404   3.406
 3251SOL     OW10651   2.722   0.928   4.815
 3251SOL    HW110652   2.706   0.830   4.807
 3251SOL    HW210653   2.642   0.971   4.857
 3252SOL     OW10654   2.865   1.338   3.252
 3252SOL    HW110655   2.941   1.385   3.207
 3252SOL    HW210656   2.855   1.373   3.346
 3253SOL     OW10657   5.439   3.581   1.020
 3253SOL    HW110658   5.536   3.594   1.001
 3253SOL    HW210659   5.385   3.637   0.956
 3254SOL     OW10660   5.027   0.292   6.933
 3254SOL    HW110661   5.126   0.295   6.946
 3254SOL    HW210662   5.007   0.286   6.835
 3255SOL     OW10663   5.886   5.819   0.703
 3255SOL    HW110664   5.906   5.737   0.649
 3255SOL    HW210665   5.969   5.847   0.752
 3256SOL     OW10666   4.406   2.226   1.523
 3256SOL    HW110667   4.423   2.241   1.426
 3256SOL    HW210668   4.333   2.288   1.554
 3257SOL     OW10669   2.991   2.120   1.976
 3257SOL    HW110670   3.011   2.148   1.882
 3257SOL    HW210671   2.940   2.193   2.022
 3258SOL     OW10672   3.400   5.538   4.195
 3258SOL    HW110673   3.399   5.509   4.100
 3258SOL    HW210674   3.429   5.462   4.253
 3259SOL     OW10675   5.610   4.903   4.294
 3259SOL    HW110676   5.512   4.921   4.289
 3259SOL    HW210677   5.628   4.809   4.267
 3260SOL     OW10678   1.516   3.966   2.229
 3260SOL    HW110679   1.588   3.969   2.299
 3260SOL    HW210680   1.427   3.966   2.273
 3261SOL     OW10681   5.525   0.922   2.714
 3261SOL    HW110682   5.520   0.878   2.624
 3261SOL    HW210683   5.582   0.867   2.775
 3262SOL     OW10684   4.196   2.003   2.377
 3262SOL    HW110685   4.203   1.933   2.448
 3262SOL    HW210686   4.271   1.994   2.313
 3263SOL     OW10687   3.266   1.178   3.339
 3263SOL    HW110688   3.316   1.260   3.311
 3263SOL    HW210689   3.327   1.099   3.335
 3264SOL     OW10690   1.955   4.785   0.544
 3264SOL    HW110691   2.031   4.842   0.511
 3264SOL    HW210692   1.909   4.742   0.466
 3265SOL     OW10693   5.992   6.299   5.649
 3265SOL    HW110694   5.952   6.389   5.665
 3265SOL    HW210695   6.015   6.256   5.736
 3266SOL     OW10696   2.814   4.312   0.147
 3266SOL    HW110697   2.745   4.280   0.083
 3266SOL    HW210698   2.854   4.397   0.114
 3267SOL     OW10699   4.124   0.851   1.437
 3267SOL    HW110700   4.198   0.819   1.496
 3267SOL    HW210701   4.038   0.853   1.489
 3268SOL     OW10702   1.115   4.735   1.527
 3268SOL    HW110703   1.149   4.801   1.459
 3268SOL    HW210704   1.127   4.772   1.619
 3269SOL     OW10705   0.551   5.364   2.012
 3269SOL    HW110706   0.469   5.371   1.954
 3269SOL    HW210707   0.587   5.456   2.029
 3270SOL     OW10708   0.922   3.011   6.057
 3270SOL    HW110709   0.889   3.014   5.963
 3270SOL    HW210710   1.012   2.969   6.060
 3271SOL     OW10711   6.532   3.504   1.718
 3271SOL    HW110712   6.502   3.587   1.766
 3271SOL    HW210713   6.554   3.527   1.623
 3272SOL     OW10714   3.969   5.400   6.983
 3272SOL    HW110715   4.064   5.418   7.007
 3272SOL    HW210716   3.913   5.398   0.042
 3273SOL     OW10717   4.674   4.147   5.996
 3273SOL    HW110718   4.576   4.153   6.017
 3273SOL    HW210719   4.698   4.217   5.928
 3274SOL     OW10720   6.129   0.749   7.010
 3274SOL    HW110721   6.081   0.805   0.053
 3274SOL    HW210722   6.213   0.795   6.982
 3275SOL     OW10723   4.911   0.548   0.960
 3275SOL    HW110724   4.841   0.619   0.951
 3275SOL    HW210725   4.983   0.564   0.892
 3276SOL     OW10726   4.557   6.388   6.830
 3276SOL    HW110727   4.469   6.350   6.800
 3276SOL    HW210728   4.632   6.335   6.790
 3277SOL     OW10729   3.162   1.617   1.261
 3277SOL    HW110730   3.063   1.618   1.278
 3277SOL    HW210731   3.188   1.697   1.208
 3278SOL     OW10732   6.969   0.792   6.053
 3278SOL    HW110733   0.003   0.725   6.099
 3278SOL    HW210734   6.989   0.790   5.955
 3279SOL     OW10735   4.282   6.233   0.890
 3279SOL    HW110736   4.370   6.244   0.845
 3279SOL    HW210737   4.208   6.248   0.825
 3280SOL     OW10738   5.634   3.864   4.188
 3280SOL    HW110739   5.646   3.837   4.092
 3280SOL    HW210740   5.546   3.911   4.198
 3281SOL     OW10741   6.900   4.834   1.454
 3281SOL    HW110742   6.900   4.748   1.505
 3281SOL    HW210743   6.809   4.849   1.415
 3282SOL     OW10744   0.618   4.022   5.067
 3282SOL    HW110745   0.675   3.947   5.035
 3282SOL    HW210746   0.528   3.987   5.094
 3283SOL     OW10747   3.765   1.627   1.445
 3283SOL    HW110748   3.808   1.717   1.440
 3283SOL    HW210749   3.757   1.598   1.540
 3284SOL     OW10750   1.192   5.367   4.368
 3284SOL    HW110751   1.279   5.327   4.395
 3284SOL    HW210752   1.122   5.295   4.364
 3285SOL     OW10753   5.736   1.989   4.513
 3285SOL    HW110754   5.728   1.938   4.598
 3285SOL    HW210755   5.701   1.934   4.437
 3286SOL     OW10756   3.698   2.038   1.666
 3286SOL    HW110757   3.708   2.100   1.743
 3286SOL    HW210758   3.602   2.032   1.640
 3287SOL     OW10759   0.911   0.301   6.610
 3287SOL    HW110760   1.000   0.263   6.584
 3287SOL    HW210761   0.852   0.227   6.642
 3288SOL     OW10762   1.964   6.621   0.407
 3288SOL    HW110763   1.946   6.573   0.493
 3288SOL    HW210764   1.905   6.584   0.336
 3289SOL     OW10765   3.294   1.809   0.052
 3289SOL    HW110766   3.208   1.842   0.091
 3289SOL    HW210767   3.286   1.801   6.977
 3290SOL     OW10768   6.786   5.566   0.320
 3290SOL    HW110769   6.855   5.617   0.268
 3290SOL    HW210770   6.803   5.578   0.418
 3291SOL     OW10771   3.996   0.484   6.442
 3291SOL    HW110772   4.003   0.562   6.505
 3291SOL    HW210773   4.073   0.422   6.458
 3292SOL     OW10774   6.954   1.206   0.812
 3292SOL    HW110775   6.876   1.152   0.845
 3292SOL    HW210776   6.927   1.260   0.733
 3293SOL     OW10777   6.776   4.390   2.564
 3293SOL    HW110778   6.700   4.444   2.600
 3293SOL    HW210779   6.752   4.293   2.568
 3294SOL     OW10780   5.347   2.813   5.707
 3294SOL    HW110781   5.331   2.736   5.769
 3294SOL    HW210782   5.332   2.899   5.756
 3295SOL     OW10783   1.897   2.959   0.485
 3295SOL    HW110784   1.825   3.010   0.438
 3295SOL    HW210785   1.889   2.862   0.462
 3296SOL     OW10786   6.334   0.033   5.366
 3296SOL    HW110787   6.391   6.976   5.349
 3296SOL    HW210788   6.243   0.018   5.325
 3297SOL     OW10789   3.274   1.710   5.086
 3297SOL    HW110790   3.304   1.805   5.090
 3297SOL    HW210791   3.225   1.694   5.001
 3298SOL     OW10792   6.288   3.636   5.383
 3298SOL    HW110793   6.290   3.568   5.309
 3298SOL    HW210794   6.379   3.643   5.424
 3299SOL     OW10795   4.234   5.393   3.461
 3299SOL    HW110796   4.239   5.466   3.393
 3299SOL    HW210797   4.226   5.433   3.552
 3300SOL     OW10798   1.973   0.360   5.402
 3300SOL    HW110799   2.013   0.392   5.316
 3300SOL    HW210800   1.978   0.432   5.471
 3301SOL     OW10801   1.349   3.218   3.150
 3301SOL    HW110802   1.441   3.207   3.190
 3301SOL    HW210803   1.330   3.141   3.090
 3302SOL     OW10804   0.977   4.621   6.587
 3302SOL    HW110805   0.918   4.553   6.631
 3302SOL    HW210806   0.920   4.695   6.550
 3303SOL     OW10807   3.643   3.352   0.314
 3303SOL    HW110808   3.680   3.432   0.268
 3303SOL    HW210809   3.552   3.373   0.349
 3304SOL     OW10810   2.365   4.467   6.430
 3304SOL    HW110811   2.352   4.456   6.528
 3304SOL    HW210812   2.348   4.380   6.384
 3305SOL     OW10813   3.370   0.846   0.973
 3305SOL    HW110814   3.412   0.924   0.928
 3305SOL    HW210815   3.391   0.848   1.071
 3306SOL     OW10816   1.052   5.778   6.654
 3306SOL    HW110817   1.097   5.789   6.566
 3306SOL    HW210818   1.034   5.868   6.694
 3307SOL     OW10819   0.990   6.983   6.026
 3307SOL    HW110820   1.025   0.034   6.082
 3307SOL    HW210821   1.063   6.916   6.011
 3308SOL     OW10822   4.153   4.652   1.405
 3308SOL    HW110823   4.112   4.681   1.491
 3308SOL    HW210824   4.151   4.553   1.398
 3309SOL     OW10825   5.307   4.587   3.793
 3309SOL    HW110826   5.317   4.503   3.847
 3309SOL    HW210827   5.372   4.655   3.825
 3310SOL     OW10828   0.989   4.467   4.546
 3310SOL    HW110829   0.993   4.462   4.646
 3310SOL    HW210830   1.008   4.560   4.517
 3311SOL     OW10831   3.675   3.605   1.269
 3311SOL    HW110832   3.589   3.574   1.229
 3311SOL    HW210833   3.709   3.537   1.334
 3312SOL     OW10834   4.100   3.011   5.771
 3312SOL    HW110835   4.183   2.988   5.822
 3312SOL    HW210836   4.104   3.107   5.742
 3313SOL     OW10837   0.734   0.663   3.360
 3313SOL    HW110838   0.667   0.693   3.292
 3313SOL    HW210839   0.689   0.650   3.448
 3314SOL     OW10840   2.428   0.545   3.341
 3314SOL    HW110841   2.473   0.494   3.268
 3314SOL    HW210842   2.353   0.600   3.303
 3315SOL     OW10843   1.009   4.460   5.216
 3315SOL    HW110844   0.964   4.535   5.167
 3315SOL    HW210845   1.075   4.416   5.155
 3316SOL     OW10846   3.457   0.447   6.251
 3316SOL    HW110847   3.466   0.392   6.168
 3316SOL    HW210848   3.546   0.451   6.297
 3317SOL     OW10849   5.542   1.871   2.748
 3317SOL    HW110850   5.615   1.939   2.762
 3317SOL    HW210851   5.583   1.785   2.719
 3318SOL     OW10852   2.442   1.733   6.931
 3318SOL    HW110853   2.413   1.827   6.948
 3318SOL    HW210854   2.422   1.678   7.013
 3319SOL     OW10855   0.125   0.127   2.700
 3319SOL    HW110856   0.052   0.060   2.683
 3319SOL    HW210857   0.203   0.080   2.742
 3320SOL     OW10858   6.346   0.271   0.056
 3320SOL    HW110859   6.280   0.200   0.033
 3320SOL    HW210860   6.300   0.360   0.057
 3321SOL     OW10861   5.626   1.915   1.013
 3321SOL    HW110862   5.580   1.991   1.059
 3321SOL    HW210863   5.559   1.863   0.960
 3322SOL     OW10864   6.690   3.276   0.925
 3322SOL    HW110865   6.716   3.199   0.984
 3322SOL    HW210866   6.753   3.352   0.941
 3323SOL     OW10867   2.788   1.450   1.211
 3323SOL    HW110868   2.690   1.442   1.232
 3323SOL    HW210869   2.828   1.523   1.266
 3324SOL     OW10870   4.527   5.679   5.769
 3324SOL    HW110871   4.572   5.693   5.858
 3324SOL    HW210872   4.588   5.709   5.696
 3325SOL     OW10873   0.658   3.408   6.575
 3325SOL    HW110874   0.601   3.386   6.655
 3325SOL    HW210875   0.746   3.362   6.585
 3326SOL     OW10876   4.857   0.926   2.627
 3326SOL    HW110877   4.828   0.999   2.689
 3326SOL    HW210878   4.791   0.919   2.552
 3327SOL     OW10879   2.097   5.894   2.270
 3327SOL    HW110880   2.179   5.950   2.272
 3327SOL    HW210881   2.037   5.925   2.197
 3328SOL     OW10882   3.880   1.851   1.579
 3328SOL    HW110883   3.887   1.785   1.653
 3328SOL    HW210884   3.825   1.929   1.609
 3329SOL     OW10885   6.067   0.160   5.666
 3329SOL    HW110886   6.130   0.099   5.714
 3329SOL    HW210887   6.107   0.251   5.658
 3330SOL     OW10888   0.148   3.456   2.101
 3330SOL    HW110889   0.150   3.399   2.183
 3330SOL    HW210890   0.195   3.543   2.120
 3331SOL     OW10891   2.052   2.540   1.249
 3331SOL    HW110892   2.060   2.586   1.161
 3331SOL    HW210893   2.048   2.608   1.322
 3332SOL     OW10894   5.317   5.558   7.003
 3332SOL    HW110895   5.280   5.645   6.972
 3332SOL    HW210896   5.277   5.535   0.068
 3333SOL     OW10897   4.389   5.069   6.846
 3333SOL    HW110898   4.322   5.139   6.823
 3333SOL    HW210899   4.429   5.089   6.935
 3334SOL     OW10900   3.460   3.453   1.169
 3334SOL    HW110901   3.395   3.435   1.244
 3334SOL    HW210902   3.478   3.368   1.119
 3335SOL     OW10903   4.779   5.471   5.722
 3335SOL    HW110904   4.742   5.425   5.802
 3335SOL    HW210905   4.727   5.555   5.704
 3336SOL     OW10906   2.989   5.403   5.720
 3336SOL    HW110907   2.933   5.324   5.744
 3336SOL    HW210908   2.929   5.481   5.699
 3337SOL     OW10909   3.682   2.746   1.433
 3337SOL    HW110910   3.601   2.687   1.431
 3337SOL    HW210911   3.673   2.813   1.507
 3338SOL     OW10912   5.837   3.893   1.233
 3338SOL    HW110913   5.908   3.915   1.166
 3338SOL    HW210914   5.828   3.968   1.299
 3339SOL     OW10915   6.901   6.329   6.752
 3339SOL    HW110916   6.870   6.383   6.674
 3339SOL    HW210917   6.998   6.307   6.741
 3340SOL     OW10918   3.718   6.927   2.086
 3340SOL    HW110919   3.643   6.900   2.146
 3340SOL    HW210920   3.764   7.007   2.124
 3341SOL     OW10921   0.446   0.082   3.051
 3341SOL    HW110922   0.434   0.150   3.124
 3341SOL    HW210923   0.405   7.019   3.078
 3342SOL     OW10924   2.192   0.165   4.018
 3342SOL    HW110925   2.272   0.119   4.055
 3342SOL    HW210926   2.219   0.254   3.980
 3343SOL     OW10927   5.008   3.229   0.582
 3343SOL    HW110928   4.974   3.258   0.492
 3343SOL    HW210929   5.066   3.301   0.620
 3344SOL     OW10930   5.380   3.795   5.073
 3344SOL    HW110931   5.453   3.734   5.041
 3344SOL    HW210932   5.292   3.759   5.043
 3345SOL     OW10933   2.933   3.373   5.945
 3345SOL    HW110934   2.852   3.424   5.973
 3345SOL    HW210935   2.925   3.347   5.849
 3346SOL     OW10936   0.747   1.084   2.230
 3346SOL    HW110937   0.654   1.111   2.254
 3346SOL    HW210938   0.765   0.991   2.261
 3347SOL     OW10939   6.914   4.473   3.064
 3347SOL    HW110940   6.997   4.417   3.072
 3347SOL    HW210941   6.884   4.475   2.969
 3348SOL     OW10942   3.508   2.871   3.875
 3348SOL    HW110943   3.553   2.859   3.786
 3348SOL    HW210944   3.413   2.900   3.861
 3349SOL     OW10945   6.928   4.546   4.396
 3349SOL    HW110946   6.925   4.446   4.383
 3349SOL    HW210947   6.915   4.591   4.307
 3350SOL     OW10948   1.762   1.240   6.886
 3350SOL    HW110949   1.756   1.176   6.810
 3350SOL    HW210950   1.739   1.194   6.971
 3351SOL     OW10951   5.533   0.345   1.570
 3351SOL    HW110952   5.553   0.375   1.477
 3351SOL    HW210953   5.615   0.354   1.626
 3352SOL     OW10954   0.394   3.884   0.232
 3352SOL    HW110955   0.310   3.919   0.272
 3352SOL    HW210956   0.372   3.818   0.159
 3353SOL     OW10957   1.680   0.031   1.079
 3353SOL    HW110958   1.674   0.124   1.043
 3353SOL    HW210959   1.627   6.993   1.020
 3354SOL     OW10960   6.790   2.446   3.499
 3354SOL    HW110961   6.830   2.492   3.578
 3354SOL    HW210962   6.821   2.491   3.415
 3355SOL     OW10963   0.588   2.092   0.155
 3355SOL    HW110964   0.623   2.126   0.242
 3355SOL    HW210965   0.530   2.012   0.171
 3356SOL     OW10966   2.764   2.794   0.300
 3356SOL    HW110967   2.798   2.888   0.294
 3356SOL    HW210968   2.722   2.780   0.390
 3357SOL     OW10969   2.099   5.037   1.443
 3357SOL    HW110970   2.078   4.977   1.520
 3357SOL    HW210971   2.198   5.034   1.424
 3358SOL     OW10972   4.985   6.459   2.227
 3358SOL    HW110973   4.958   6.379   2.173
 3358SOL    HW210974   4.907   6.493   2.278
 3359SOL     OW10975   0.181   0.413   3.030
 3359SOL    HW110976   0.162   0.496   2.977
 3359SOL    HW210977   0.101   0.353   3.029
 3360SOL     OW10978   0.356   0.937   0.401
 3360SOL    HW110979   0.449   0.901   0.405
 3360SOL    HW210980   0.353   1.014   0.337
 3361SOL     OW10981   6.383   5.789   3.007
 3361SOL    HW110982   6.333   5.744   3.081
 3361SOL    HW210983   6.401   5.723   2.934
 3362SOL     OW10984   2.856   1.429   4.839
 3362SOL    HW110985   2.881   1.500   4.904
 3362SOL    HW210986   2.937   1.374   4.816
 3363SOL     OW10987   0.469   0.911   6.243
 3363SOL    HW110988   0.408   0.856   6.300
 3363SOL    HW210989   0.431   1.003   6.232
 3364SOL     OW10990   1.009   5.929   5.843
 3364SOL    HW110991   1.059   5.890   5.765
 3364SOL    HW210992   0.911   5.908   5.833
 3365SOL     OW10993   0.698   1.890   4.474
 3365SOL    HW110994   0.625   1.917   4.537
 3365SOL    HW210995   0.782   1.939   4.498
 3366SOL     OW10996   5.319   1.131   4.648
 3366SOL    HW110997   5.414   1.160   4.664
 3366SOL    HW210998   5.319   1.037   4.613
 3367SOL     OW10999   2.017   2.755   1.422
 3367SOL    HW111000   1.935   2.758   1.479
 3367SOL    HW211001   2.096   2.782   1.476
 3368SOL     OW11002   6.847   5.333   6.007
 3368SOL    HW111003   6.919   5.392   5.971
 3368SOL    HW211004   6.781   5.389   6.058
 3369SOL     OW11005   3.397   1.408   0.327
 3369SOL    HW111006   3.377   1.506   0.334
 3369SOL    HW211007   3.425   1.373   0.417
 3370SOL     OW11008   6.377   0.035   4.909
 3370SOL    HW111009   6.376   0.091   4.826
 3370SOL    HW211010   6.363   6.963   4.885
 3371SOL     OW11011   1.547   4.260   2.129
 3371SOL    HW111012   1.647   4.269   2.125
 3371SOL    HW211013   1.523   4.168   2.158
 3372SOL     OW11014   0.385   1.512   1.934
 3372SOL    HW111015   0.362   1.435   1.993
 3372SOL    HW211016   0.476   1.497   1.894
 3373SOL     OW11017   6.330   0.902   4.333
 3373SOL    HW111018   6.251   0.846   4.309
 3373SOL    HW211019   6.410   0.843   4.348
 3374SOL     OW11020   4.000   5.966   4.975
 3374SOL    HW111021   4.096   5.993   4.984
 3374SOL    HW211022   3.957   5.968   5.066
 3375SOL     OW11023   4.317   4.805   4.876
 3375SOL    HW111024   4.271   4.864   4.942
 3375SOL    HW211025   4.321   4.712   4.912
 3376SOL     OW11026   3.998   3.247   2.858
 3376SOL    HW111027   3.952   3.191   2.927
 3376SOL    HW211028   4.074   3.196   2.819
 3377SOL     OW11029   1.379   6.476   4.825
 3377SOL    HW111030   1.366   6.478   4.924
 3377SOL    HW211031   1.302   6.523   4.781
 3378SOL     OW11032   6.470   1.081   0.839
 3378SOL    HW111033   6.383   1.049   0.877
 3378SOL    HW211034   6.544   1.060   0.902
 3379SOL     OW11035   0.590   4.117   6.062
 3379SOL    HW111036   0.499   4.136   6.099
 3379SOL    HW211037   0.586   4.122   5.962
 3380SOL     OW11038   0.007   5.481   5.587
 3380SOL    HW111039   6.990   5.389   5.580
 3380SOL    HW211040   0.103   5.477   5.560
 3381SOL     OW11041   2.320   1.948   0.693
 3381SOL    HW111042   2.283   1.874   0.638
 3381SOL    HW211043   2.398   1.915   0.747
 3382SOL     OW11044   0.202   1.594   0.114
 3382SOL    HW111045   0.196   1.601   0.214
 3382SOL    HW211046   0.116   1.558   0.078
 3383SOL     OW11047   6.159   5.157   2.693
 3383SOL    HW111048   6.184   5.077   2.639
 3383SOL    HW211049   6.060   5.174   2.684
 3384SOL     OW11050   3.057   3.098   5.103
 3384SOL    HW111051   3.050   3.149   5.188
 3384SOL    HW211052   3.104   3.012   5.119
 3385SOL     OW11053   0.104   3.789   4.096
 3385SOL    HW111054   0.019   3.750   4.131
 3385SOL    HW211055   0.107   3.781   3.997
 3386SOL     OW11056   6.143   3.919   5.291
 3386SOL    HW111057   6.151   3.862   5.208
 3386SOL    HW211058   6.047   3.928   5.315
 3387SOL     OW11059   2.508   2.026   2.618
 3387SOL    HW111060   2.530   2.099   2.682
 3387SOL    HW211061   2.451   2.062   2.545
 3388SOL     OW11062   5.631   3.293   0.779
 3388SOL    HW111063   5.588   3.273   0.691
 3388SOL    HW211064   5.725   3.324   0.764
 3389SOL     OW11065   4.436   4.539   4.512
 3389SOL    HW111066   4.385   4.624   4.527
 3389SOL    HW211067   4.462   4.532   4.416
 3390SOL     OW11068   5.311   3.598   5.876
 3390SOL    HW111069   5.346   3.678   5.827
 3390SOL    HW211070   5.228   3.565   5.831
 3391SOL     OW11071   4.173   1.745   4.661
 3391SOL    HW111072   4.104   1.673   4.670
 3391SOL    HW211073   4.181   1.794   4.748
 3392SOL     OW11074   2.474   0.969   4.254
 3392SOL    HW111075   2.498   0.992   4.348
 3392SOL    HW211076   2.423   0.883   4.252
 3393SOL     OW11077   6.512   6.635   0.595
 3393SOL    HW111078   6.416   6.613   0.612
 3393SOL    HW211079   6.531   6.625   0.498
 3394SOL     OW11080   5.480   3.165   1.176
 3394SOL    HW111081   5.430   3.121   1.101
 3394SOL    HW211082   5.578   3.150   1.165
 3395SOL     OW11083   6.450   3.350   3.903
 3395SOL    HW111084   6.431   3.406   3.984
 3395SOL    HW211085   6.366   3.336   3.851
 3396SOL     OW11086   0.098   3.057   3.642
 3396SOL    HW111087   0.012   3.099   3.613
 3396SOL    HW211088   0.170   3.126   3.647
 3397SOL     OW11089   3.737   1.223   5.435
 3397SOL    HW111090   3.836   1.235   5.429
 3397SOL    HW211091   3.704   1.260   5.522
 3398SOL     OW11092   0.584   0.218   4.303
 3398SOL    HW111093   0.587   0.287   4.231
 3398SOL    HW211094   0.677   0.184   4.320
 3399SOL     OW11095   4.500   4.524   4.102
 3399SOL    HW111096   4.527   4.499   4.009
 3399SOL    HW211097   4.413   4.572   4.100
 3400SOL     OW11098   4.282   1.772   6.037
 3400SOL    HW111099   4.331   1.712   5.974
 3400SOL    HW211100   4.279   1.729   6.127
 3401SOL     OW11101   6.916   4.009   0.698
 3401SOL    HW111102   7.009   4.023   0.732
 3401SOL    HW211103   6.863   4.093   0.711
 3402SOL     OW11104   5.428   5.824   1.043
 3402SOL    HW111105   5.346   5.769   1.027
 3402SOL    HW211106   5.444   5.883   0.964
 3403SOL     OW11107   4.028   0.601   5.324
 3403SOL    HW111108   4.005   0.655   5.243
 3403SOL    HW211109   4.060   0.662   5.396
 3404SOL     OW11110   4.018   1.651   0.750
 3404SOL    HW111111   3.923   1.669   0.777
 3404SOL    HW211112   4.024   1.561   0.708
 3405SOL     OW11113   6.546   3.655   5.461
 3405SOL    HW111114   6.579   3.587   5.526
 3405SOL    HW211115   6.623   3.710   5.429
 3406SOL     OW11116   2.003   4.463   1.893
 3406SOL    HW111117   1.957   4.382   1.929
 3406SOL    HW211118   2.102   4.448   1.896
 3407SOL     OW11119   1.870   5.381   1.424
 3407SOL    HW111120   1.784   5.427   1.401
 3407SOL    HW211121   1.890   5.394   1.521
 3408SOL     OW11122   5.091   4.083   4.191
 3408SOL    HW111123   5.024   4.106   4.120
 3408SOL    HW211124   5.113   3.986   4.185
 3409SOL     OW11125   4.043   7.018   5.556
 3409SOL    HW111126   4.052   6.919   5.547
 3409SOL    HW211127   4.133   0.035   5.571
 3410SOL     OW11128   6.274   6.150   6.611
 3410SOL    HW111129   6.239   6.243   6.597
 3410SOL    HW211130   6.203   6.093   6.652
 3411SOL     OW11131   6.307   2.553   2.308
 3411SOL    HW111132   6.227   2.614   2.306
 3411SOL    HW211133   6.357   2.567   2.393
 3412SOL     OW11134   4.177   2.987   0.159
 3412SOL    HW111135   4.114   2.936   0.218
 3412SOL    HW211136   4.125   3.038   0.091
 3413SOL     OW11137   3.957   1.237   2.695
 3413SOL    HW111138   3.972   1.247   2.597
 3413SOL    HW211139   3.870   1.280   2.720
 3414SOL     OW11140   3.006   1.499   5.267
 3414SOL    HW111141   2.987   1.528   5.173
 3414SOL    HW211142   3.103   1.514   5.287
 3415SOL     OW11143   1.272   4.457   4.407
 3415SOL    HW111144   1.184   4.455   4.455
 3415SOL    HW211145   1.343   4.490   4.469
 3416SOL     OW11146   0.233   4.727   5.895
 3416SOL    HW111147   0.268   4.720   5.989
 3416SOL    HW211148   0.171   4.650   5.877
 3417SOL     OW11149   6.083   5.969   2.596
 3417SOL    HW111150   6.162   6.028   2.607
 3417SOL    HW211151   6.025   5.976   2.678
 3418SOL     OW11152   4.439   1.186   4.264
 3418SOL    HW111153   4.433   1.273   4.215
 3418SOL    HW211154   4.412   1.199   4.359
 3419SOL     OW11155   3.650   5.436   6.113
 3419SOL    HW111156   3.602   5.380   6.045
 3419SOL    HW211157   3.584   5.491   6.163
 3420SOL     OW11158   4.884   2.203   3.731
 3420SOL    HW111159   4.983   2.189   3.738
 3420SOL    HW211160   4.850   2.249   3.813
 3421SOL     OW11161   6.328   0.700   5.461
 3421SOL    HW111162   6.409   0.744   5.500
 3421SOL    HW211163   6.302   0.745   5.376
 3422SOL     OW11164   3.564   0.305   1.205
 3422SOL    HW111165   3.653   0.346   1.226
 3422SOL    HW211166   3.530   0.258   1.286
 3423SOL     OW11167   1.977   0.719   0.738
 3423SOL    HW111168   2.062   0.688   0.780
 3423SOL    HW211169   1.992   0.806   0.692
 3424SOL     OW11170   3.789   0.953   2.485
 3424SOL    HW111171   3.704   0.996   2.516
 3424SOL    HW211172   3.861   0.967   2.553
 3425SOL     OW11173   4.989   4.226   2.267
 3425SOL    HW111174   4.916   4.172   2.309
 3425SOL    HW211175   5.075   4.209   2.314
 3426SOL     OW11176   3.315   3.449   0.622
 3426SOL    HW111177   3.415   3.458   0.630
 3426SOL    HW211178   3.290   3.449   0.525
 3427SOL     OW11179   6.488   6.475   6.894
 3427SOL    HW111180   6.549   6.553   6.878
 3427SOL    HW211181   6.505   6.405   6.824
 3428SOL     OW11182   3.853   5.311   1.620
 3428SOL    HW111183   3.765   5.263   1.626
 3428SOL    HW211184   3.851   5.390   1.682
 3429SOL     OW11185   0.623   2.059   6.712
 3429SOL    HW111186   0.601   2.090   6.619
 3429SOL    HW211187   0.652   1.964   6.709
 3430SOL     OW11188   0.950   6.606   6.240
 3430SOL    HW111189   0.910   6.697   6.245
 3430SOL    HW211190   0.961   6.569   6.332
 3431SOL     OW11191   2.341   6.659   1.036
 3431SOL    HW111192   2.365   6.585   1.099
 3431SOL    HW211193   2.419   6.680   0.977
 3432SOL     OW11194   2.764   2.503   5.406
 3432SOL    HW111195   2.728   2.410   5.406
 3432SOL    HW211196   2.708   2.560   5.345
 3433SOL     OW11197   2.488   0.489   6.599
 3433SOL    HW111198   2.453   0.436   6.676
 3433SOL    HW211199   2.475   0.586   6.616
 3434SOL     OW11200   3.279   2.798   0.690
 3434SOL    HW111201   3.330   2.882   0.670
 3434SOL    HW211202   3.339   2.734   0.739
 3435SOL     OW11203   0.044   1.900   1.594
 3435SOL    HW111204   0.057   1.804   1.568
 3435SOL    HW211205   0.132   1.947   1.597
 3436SOL     OW11206   4.643   0.060   5.374
 3436SOL    HW111207   4.669   7.016   5.305
 3436SOL    HW211208   4.575   0.122   5.334
 3437SOL     OW11209   4.484   1.086   6.324
 3437SOL    HW111210   4.401   1.084   6.380
 3437SOL    HW211211   4.560   1.122   6.379
 3438SOL     OW11212   1.541   2.786   6.273
 3438SOL    HW111213   1.515   2.745   6.186
 3438SOL    HW211214   1.508   2.880   6.278
 3439SOL     OW11215   3.005   6.815   5.371
 3439SOL    HW111216   2.949   6.828   5.288
 3439SOL    HW211217   2.952   6.842   5.451
 3440SOL     OW11218   4.862   3.333   1.733
 3440SOL    HW111219   4.943   3.371   1.687
 3440SOL    HW211220   4.882   3.239   1.763
 3441SOL     OW11221   4.835   0.436   2.882
 3441SOL    HW111222   4.843   0.514   2.820
 3441SOL    HW211223   4.755   0.449   2.941
 3442SOL     OW11224   2.287   4.441   3.341
 3442SOL    HW111225   2.197   4.478   3.318
 3442SOL    HW211226   2.351   4.461   3.266
 3443SOL     OW11227   5.136   0.884   3.056
 3443SOL    HW111228   5.093   0.973   3.066
 3443SOL    HW211229   5.186   0.861   3.140
 3444SOL     OW11230   5.065   5.573   6.746
 3444SOL    HW111231   5.063   5.506   6.820
 3444SOL    HW211232   5.112   5.534   6.667
 3445SOL     OW11233   6.146   4.219   4.037
 3445SOL    HW111234   6.197   4.297   4.073
 3445SOL    HW211235   6.051   4.225   4.067
 3446SOL     OW11236   5.456   0.372   3.063
 3446SOL    HW111237   5.491   0.310   3.133
 3446SOL    HW211238   5.454   0.465   3.099
 3447SOL     OW11239   5.071   4.965   0.146
 3447SOL    HW111240   5.147   5.029   0.153
 3447SOL    HW211241   5.093   4.893   0.080
 3448SOL     OW11242   4.017   6.540   1.244
 3448SOL    HW111243   3.955   6.572   1.172
 3448SOL    HW211244   4.111   6.555   1.215
 3449SOL     OW11245   6.091   6.398   2.872
 3449SOL    HW111246   6.079   6.376   2.969
 3449SOL    HW211247   6.051   6.326   2.816
 3450SOL     OW11248   0.798   2.569   0.884
 3450SOL    HW111249   0.893   2.601   0.888
 3450SOL    HW211250   0.744   2.617   0.954
 3451SOL     OW11251   0.663   5.685   3.129
 3451SOL    HW111252   0.734   5.681   3.059
 3451SOL    HW211253   0.680   5.763   3.189
 3452SOL     OW11254   6.238   1.134   0.157
 3452SOL    HW111255   6.319   1.098   0.203
 3452SOL    HW211256   6.257   1.226   0.123
 3453SOL     OW11257   5.754   5.750   5.586
 3453SOL    HW111258   5.759   5.651   5.583
 3453SOL    HW211259   5.846   5.789   5.584
 3454SOL     OW11260   1.861   0.873   5.912
 3454SOL    HW111261   1.866   0.859   6.011
 3454SOL    HW211262   1.897   0.793   5.864
 3455SOL     OW11263   1.057   2.930   4.544
 3455SOL    HW111264   1.110   2.946   4.627
 3455SOL    HW211265   1.118   2.928   4.465
 3456SOL     OW11266   5.859   5.975   2.019
 3456SOL    HW111267   5.914   5.905   1.974
 3456SOL    HW211268   5.792   6.012   1.955
 3457SOL     OW11269   2.487   4.988   4.339
 3457SOL    HW111270   2.585   5.004   4.354
 3457SOL    HW211271   2.444   5.072   4.307
 3458SOL     OW11272   5.445   6.566   6.644
 3458SOL    HW111273   5.509   6.507   6.595
 3458SOL    HW211274   5.402   6.515   6.718
 3459SOL     OW11275   0.392   4.026   3.214
 3459SOL    HW111276   0.430   4.059   3.127
 3459SOL    HW211277   0.302   3.987   3.198
 3460SOL     OW11278   3.239   3.187   0.671
 3460SOL    HW111279   3.263   3.283   0.688
 3460SOL    HW211280   3.141   3.179   0.657
 3461SOL     OW11281   4.158   5.231   4.482
 3461SOL    HW111282   4.117   5.154   4.432
 3461SOL    HW211283   4.086   5.295   4.510
 3462SOL     OW11284   5.928   3.712   1.949
 3462SOL    HW111285   5.855   3.665   1.900
 3462SOL    HW211286   6.007   3.652   1.956
 3463SOL     OW11287   0.844   3.318   2.765
 3463SOL    HW111288   0.854   3.372   2.849
 3463SOL    HW211289   0.880   3.371   2.688
 3464SOL     OW11290   5.701   2.315   6.728
 3464SOL    HW111291   5.767   2.283   6.796
 3464SOL    HW211292   5.615   2.338   6.774
 3465SOL     OW11293   1.843   3.248   2.144
 3465SOL    HW111294   1.931   3.258   2.098
 3465SOL    HW211295   1.820   3.333   2.190
 3466SOL     OW11296   5.735   5.231   5.720
 3466SOL    HW111297   5.797   5.161   5.755
 3466SOL    HW211298   5.641   5.209   5.747
 3467SOL     OW11299   2.551   1.549   0.898
 3467SOL    HW111300   2.485   1.579   0.829
 3467SOL    HW211301   2.577   1.454   0.880
 3468SOL     OW11302   5.761   2.036   2.798
 3468SOL    HW111303   5.841   2.035   2.858
 3468SOL    HW211304   5.707   2.118   2.816
 3469SOL     OW11305   5.400   1.096   5.984
 3469SOL    HW111306   5.318   1.038   5.982
 3469SOL    HW211307   5.389   1.170   5.917
 3470SOL     OW11308   0.167   2.785   2.112
 3470SOL    HW111309   0.133   2.828   2.028
 3470SOL    HW211310   0.252   2.830   2.140
 3471SOL     OW11311   4.562   4.451   3.839
 3471SOL    HW111312   4.633   4.502   3.789
 3471SOL    HW211313   4.493   4.419   3.775
 3472SOL     OW11314   3.696   1.228   1.730
 3472SOL    HW111315   3.614   1.171   1.732
 3472SOL    HW211316   3.772   1.175   1.692
 3473SOL     OW11317   6.294   3.309   3.461
 3473SOL    HW111318   6.350   3.389   3.443
 3473SOL    HW211319   6.231   3.294   3.384
 3474SOL     OW11320   1.007   4.220   3.722
 3474SOL    HW111321   1.000   4.281   3.643
 3474SOL    HW211322   1.046   4.270   3.800
 3475SOL     OW11323   1.297   4.752   4.322
 3475SOL    HW111324   1.226   4.736   4.390
 3475SOL    HW211325   1.303   4.674   4.260
 3476SOL     OW11326   1.015   1.755   2.994
 3476SOL    HW111327   1.036   1.661   2.970
 3476SOL    HW211328   0.999   1.808   2.910
 3477SOL     OW11329   0.761   3.918   0.449
 3477SOL    HW111330   0.751   3.864   0.533
 3477SOL    HW211331   0.857   3.920   0.422
 3478SOL     OW11332   3.013   6.500   6.854
 3478SOL    HW111333   3.013   6.576   6.789
 3478SOL    HW211334   2.923   6.492   6.896
 3479SOL     OW11335   0.796   1.141   3.385
 3479SOL    HW111336   0.741   1.196   3.322
 3479SOL    HW211337   0.833   1.062   3.337
 3480SOL     OW11338   1.118   6.393   5.782
 3480SOL    HW111339   1.171   6.313   5.753
 3480SOL    HW211340   1.158   6.430   5.866
 3481SOL     OW11341   5.202   0.372   0.391
 3481SOL    HW111342   5.103   0.357   0.387
 3481SOL    HW211343   5.238   0.333   0.476
 3482SOL     OW11344   6.044   1.441   2.489
 3482SOL    HW111345   6.102   1.361   2.471
 3482SOL    HW211346   6.077   1.518   2.433
 3483SOL     OW11347   5.640   2.245   2.869
 3483SOL    HW111348   5.581   2.323   2.847
 3483SOL    HW211349   5.665   2.248   2.966
 3484SOL     OW11350   1.662   2.943   6.762
 3484SOL    HW111351   1.757   2.973   6.752
 3484SOL    HW211352   1.640   2.879   6.689
 3485SOL     OW11353   1.209   1.968   5.005
 3485SOL    HW111354   1.172   2.048   4.957
 3485SOL    HW211355   1.196   1.980   5.104
 3486SOL     OW11356   1.974   0.483   3.755
 3486SOL    HW111357   2.068   0.501   3.787
 3486SOL    HW211358   1.910   0.499   3.831
 3487SOL     OW11359   6.454   2.394   0.001
 3487SOL    HW111360   6.497   2.304   7.016
 3487SOL    HW211361   6.364   2.392   6.981
 3488SOL     OW11362   5.518   0.950   4.937
 3488SOL    HW111363   5.479   0.882   4.875
 3488SOL    HW211364   5.457   0.963   5.015
 3489SOL     OW11365   3.787   0.579   1.616
 3489SOL    HW111366   3.731   0.629   1.683
 3489SOL    HW211367   3.779   0.623   1.527
 3490SOL     OW11368   3.287   4.635   1.530
 3490SOL    HW111369   3.191   4.621   1.505
 3490SOL    HW211370   3.292   4.675   1.622
 3491SOL     OW11371   3.932   3.331   6.090
 3491SOL    HW111372   3.947   3.244   6.137
 3491SOL    HW211373   3.895   3.313   5.999
 3492SOL     OW11374   6.035   4.012   1.038
 3492SOL    HW111375   6.019   4.104   1.001
 3492SOL    HW211376   6.107   3.967   0.985
 3493SOL     OW11377   5.989   3.848   3.938
 3493SOL    HW111378   5.980   3.867   4.035
 3493SOL    HW211379   6.051   3.771   3.924
 3494SOL     OW11380   2.660   0.560   1.784
 3494SOL    HW111381   2.564   0.585   1.776
 3494SOL    HW211382   2.694   0.525   1.696
 3495SOL     OW11383   0.677   3.703   2.629
 3495SOL    HW111384   0.720   3.648   2.558
 3495SOL    HW211385   0.583   3.724   2.603
 3496SOL     OW11386   5.935   5.291   1.414
 3496SOL    HW111387   5.936   5.255   1.507
 3496SOL    HW211388   5.872   5.238   1.358
 3497SOL     OW11389   2.268   1.481   4.021
 3497SOL    HW111390   2.254   1.521   4.111
 3497SOL    HW211391   2.192   1.419   4.000
 3498SOL     OW11392   3.176   1.184   2.485
 3498SOL    HW111393   3.190   1.134   2.571
 3498SOL    HW211394   3.117   1.263   2.502
 3499SOL     OW11395   6.494   4.730   4.312
 3499SOL    HW111396   6.441   4.814   4.324
 3499SOL    HW211397   6.591   4.753   4.304
 3500SOL     OW11398   1.862   3.152   3.420
 3500SOL    HW111399   1.774   3.105   3.428
 3500SOL    HW211400   1.868   3.225   3.488
 3501SOL     OW11401   3.296   6.860   6.688
 3501SOL    HW111402   3.305   6.795   6.764
 3501SOL    HW211403   3.386   6.877   6.648
 3502SOL     OW11404   6.560   3.014   1.235
 3502SOL    HW111405   6.513   3.100   1.252
 3502SOL    HW211406   6.640   3.007   1.294
 3503SOL     OW11407   0.042   6.658   5.350
 3503SOL    HW111408   0.086   6.572   5.376
 3503SOL    HW211409   0.098   6.706   5.283
 3504SOL     OW11410   1.939   0.900   2.116
 3504SOL    HW111411   1.982   0.985   2.145
 3504SOL    HW211412   2.002   0.848   2.058
 3505SOL     OW11413   5.593   4.927   4.860
 3505SOL    HW111414   5.557   4.936   4.767
 3505SOL    HW211415   5.574   5.011   4.911
 3506SOL     OW11416   5.408   4.811   5.021
 3506SOL    HW111417   5.438   4.880   4.955
 3506SOL    HW211418   5.353   4.741   4.974
 3507SOL     OW11419   2.658   0.551   0.209
 3507SOL    HW111420   2.652   0.452   0.221
 3507SOL    HW211421   2.690   0.593   0.294
 3508SOL     OW11422   2.795   1.870   6.534
 3508SOL    HW111423   2.864   1.902   6.469
 3508SOL    HW211424   2.827   1.785   6.576
 3509SOL     OW11425   5.871   0.000   6.795
 3509SOL    HW111426   5.870   6.966   6.876
 3509SOL    HW211427   5.798   0.068   6.801
 3510SOL     OW11428   1.359   0.411   2.112
 3510SOL    HW111429   1.439   0.392   2.057
 3510SOL    HW211430   1.281   0.359   2.077
 3511SOL     OW11431   2.002   4.161   1.668
 3511SOL    HW111432   2.052   4.114   1.596
 3511SOL    HW211433   1.985   4.098   1.744
 3512SOL     OW11434   0.576   4.138   0.976
 3512SOL    HW111435   0.647   4.204   1.000
 3512SOL    HW211436   0.600   4.093   0.890
 3513SOL     OW11437   5.999   2.002   0.641
 3513SOL    HW111438   5.907   2.042   0.646
 3513SOL    HW211439   6.006   1.925   0.705
 3514SOL     OW11440   6.602   0.909   1.452
 3514SOL    HW111441   6.544   0.951   1.522
 3514SOL    HW211442   6.617   0.813   1.475
 3515SOL     OW11443   5.403   6.197   3.137
 3515SOL    HW111444   5.304   6.182   3.146
 3515SOL    HW211445   5.428   6.194   3.041
 3516SOL     OW11446   4.578   6.254   1.034
 3516SOL    HW111447   4.636   6.314   1.088
 3516SOL    HW211448   4.629   6.218   0.956
 3517SOL     OW11449   0.263   1.511   1.157
 3517SOL    HW111450   0.227   1.429   1.113
 3517SOL    HW211451   0.316   1.564   1.090
 3518SOL     OW11452   4.997   2.841   4.957
 3518SOL    HW111453   5.082   2.883   4.925
 3518SOL    HW211454   5.017   2.780   5.034
 3519SOL     OW11455   1.952   0.488   5.675
 3519SOL    HW111456   2.029   0.424   5.668
 3519SOL    HW211457   1.980   0.569   5.726
 3520SOL     OW11458   3.373   6.506   0.532
 3520SOL    HW111459   3.332   6.594   0.507
 3520SOL    HW211460   3.469   6.520   0.557
 3521SOL     OW11461   4.552   2.722   0.725
 3521SOL    HW111462   4.607   2.796   0.685
 3521SOL    HW211463   4.510   2.669   0.652
 3522SOL     OW11464   6.890   5.919   6.602
 3522SOL    HW111465   6.923   5.991   6.541
 3522SOL    HW211466   6.851   5.961   6.684
 3523SOL     OW11467   1.893   4.604   5.216
 3523SOL    HW111468   1.888   4.597   5.315
 3523SOL    HW211469   1.802   4.619   5.178
 3524SOL     OW11470   5.059   2.026   1.875
 3524SOL    HW111471   5.000   2.064   1.947
 3524SOL    HW211472   5.084   1.933   1.899
 3525SOL     OW11473   6.638   3.276   4.078
 3525SOL    HW111474   6.693   3.360   4.088
 3525SOL    HW211475   6.568   3.290   4.009
 3526SOL     OW11476   1.951   6.708   3.879
 3526SOL    HW111477   1.852   6.696   3.878
 3526SOL    HW211478   1.989   6.679   3.791
 3527SOL     OW11479   5.730   3.680   6.319
 3527SOL    HW111480   5.690   3.589   6.332
 3527SOL    HW211481   5.692   3.720   6.235
 3528SOL     OW11482   2.553   6.472   5.219
 3528SOL    HW111483   2.469   6.418   5.215
 3528SOL    HW211484   2.602   6.463   5.132
 3529SOL     OW11485   4.125   6.341   0.693
 3529SOL    HW111486   4.048   6.404   0.698
 3529SOL    HW211487   4.164   6.343   0.601
 3530SOL     OW11488   6.737   5.352   1.473
 3530SOL    HW111489   6.766   5.416   1.402
 3530SOL    HW211490   6.775   5.381   1.561
 3531SOL     OW11491   5.233   2.283   0.591
 3531SOL    HW111492   5.274   2.233   0.515
 3531SOL    HW211493   5.157   2.338   0.557
 3532SOL     OW11494   2.798   0.524   1.545
 3532SOL    HW111495   2.867   0.456   1.522
 3532SOL    HW211496   2.812   0.606   1.490
 3533SOL     OW11497   0.206   1.075   2.495
 3533SOL    HW111498   0.222   0.992   2.442
 3533SOL    HW211499   0.114   1.110   2.475
 3534SOL     OW11500   0.486   2.288   0.738
 3534SOL    HW111501   0.559   2.220   0.737
 3534SOL    HW211502   0.437   2.287   0.651
 3535SOL     OW11503   2.024   5.222   6.080
 3535SOL    HW111504   1.929   5.215   6.051
 3535SOL    HW211505   2.082   5.174   6.014
 3536SOL     OW11506   3.075   1.744   2.918
 3536SOL    HW111507   3.102   1.754   2.822
 3536SOL    HW211508   2.990   1.793   2.934
 3537SOL     OW11509   2.500   5.209   2.733
 3537SOL    HW111510   2.424   5.237   2.675
 3537SOL    HW211511   2.524   5.284   2.794
 3538SOL     OW11512   2.432   6.071   5.309
 3538SOL    HW111513   2.504   6.034   5.250
 3538SOL    HW211514   2.372   5.996   5.339
 3539SOL     OW11515   3.714   3.594   5.000
 3539SOL    HW111516   3.797   3.538   4.996
 3539SOL    HW211517   3.740   3.691   5.000
 3540SOL     OW11518   2.264   2.663   4.410
 3540SOL    HW111519   2.169   2.682   4.387
 3540SOL    HW211520   2.309   2.747   4.438
 3541SOL     OW11521   2.939   2.772   5.824
 3541SOL    HW111522   2.891   2.718   5.754
 3541SOL    HW211523   2.899   2.864   5.827
 3542SOL     OW11524   1.218   5.450   3.173
 3542SOL    HW111525   1.249   5.527   3.228
 3542SOL    HW211526   1.169   5.385   3.232
 3543SOL     OW11527   0.092   2.580   4.880
 3543SOL    HW111528   0.113   2.570   4.783
 3543SOL    HW211529   0.008   2.634   4.891
 3544SOL     OW11530   1.269   4.097   6.160
 3544SOL    HW111531   1.259   4.197   6.154
 3544SOL    HW211532   1.276   4.070   6.256
 3545SOL     OW11533   3.733   6.009   6.637
 3545SOL    HW111534   3.668   6.048   6.702
 3545SOL    HW211535   3.792   5.943   6.683
 3546SOL     OW11536   0.709   4.878   3.546
 3546SOL    HW111537   0.747   4.917   3.630
 3546SOL    HW211538   0.689   4.781   3.561
 3547SOL     OW11539   5.345   4.269   3.682
 3547SOL    HW111540   5.291   4.330   3.624
 3547SOL    HW211541   5.334   4.295   3.778
 3548SOL     OW11542   5.889   1.196   5.977
 3548SOL    HW111543   5.804   1.186   5.926
 3548SOL    HW211544   5.903   1.293   6.000
 3549SOL     OW11545   6.800   4.351   4.766
 3549SOL    HW111546   6.735   4.410   4.717
 3549SOL    HW211547   6.829   4.397   4.850
 3550SOL     OW11548   5.461   2.297   2.359
 3550SOL    HW111549   5.433   2.390   2.384
 3550SOL    HW211550   5.457   2.238   2.440
 3551SOL     OW11551   4.073   6.058   2.708
 3551SOL    HW111552   3.990   6.011   2.738
 3551SOL    HW211553   4.105   6.118   2.781
 3552SOL     OW11554   4.944   6.247   2.058
 3552SOL    HW111555   5.040   6.269   2.041
 3552SOL    HW211556   4.937   6.156   2.098
 3553SOL     OW11557   5.911   3.123   1.273
 3553SOL    HW111558   5.867   3.108   1.185
 3553SOL    HW211559   5.842   3.129   1.345
 3554SOL     OW11560   3.992   3.128   1.002
 3554SOL    HW111561   3.951   3.198   0.943
 3554SOL    HW211562   3.959   3.038   0.974
 3555SOL     OW11563   1.064   3.507   3.292
 3555SOL    HW111564   0.970   3.541   3.285
 3555SOL    HW211565   1.128   3.583   3.283
 3556SOL     OW11566   4.083   0.891   4.681
 3556SOL    HW111567   4.100   0.830   4.759
 3556SOL    HW211568   4.103   0.985   4.706
 3557SOL     OW11569   0.399   0.366   3.200
 3557SOL    HW111570   0.319   0.383   3.142
 3557SOL    HW211571   0.398   0.430   3.278
 3558SOL     OW11572   0.884   5.883   0.996
 3558SOL    HW111573   0.784   5.876   0.992
 3558SOL    HW211574   0.916   5.940   0.920
 3559SOL     OW11575   0.274   6.828   4.669
 3559SOL    HW111576   0.362   6.848   4.626
 3559SOL    HW211577   0.244   6.736   4.644
 3560SOL     OW11578   1.380   5.190   0.823
 3560SOL    HW111579   1.309   5.127   0.793
 3560SOL    HW211580   1.470   5.151   0.805
 3561SOL     OW11581   3.874   4.901   5.467
 3561SOL    HW111582   3.962   4.877   5.509
 3561SOL    HW211583   3.810   4.825   5.478
 3562SOL     OW11584   4.994   0.731   4.300
 3562SOL    HW111585   4.984   0.826   4.329
 3562SOL    HW211586   4.943   0.672   4.362
 3563SOL     OW11587   5.308   0.408   1.718
 3563SOL    HW111588   5.383   0.387   1.656
 3563SOL    HW211589   5.242   0.467   1.672
 3564SOL     OW11590   1.389   5.091   4.202
 3564SOL    HW111591   1.360   5.001   4.235
 3564SOL    HW211592   1.312   5.154   4.203
 3565SOL     OW11593   4.158   6.652   4.685
 3565SOL    HW111594   4.232   6.590   4.710
 3565SOL    HW211595   4.099   6.608   4.617
 3566SOL     OW11596   6.869   3.353   6.450
 3566SOL    HW111597   6.909   3.414   6.381
 3566SOL    HW211598   6.942   3.316   6.508
 3567SOL     OW11599   0.909   2.636   0.051
 3567SOL    HW111600   1.008   2.631   0.038
 3567SOL    HW211601   0.863   2.596   6.995
 3568SOL     OW11602   5.223   5.456   3.178
 3568SOL    HW111603   5.276   5.423   3.256
 3568SOL    HW211604   5.250   5.406   3.096
 3569SOL     OW11605   2.714   2.640   5.654
 3569SOL    HW111606   2.626   2.617   5.697
 3569SOL    HW211607   2.730   2.579   5.576
 3570SOL     OW11608   5.358   0.267   5.063
 3570SOL    HW111609   5.426   0.264   4.989
 3570SOL    HW211610   5.393   0.216   5.142
 3571SOL     OW11611   2.137   1.152   5.238
 3571SOL    HW111612   2.136   1.184   5.332
 3571SOL    HW211613   2.181   1.221   5.180
 3572SOL     OW11614   5.710   3.567   2.965
 3572SOL    HW111615   5.649   3.488   2.963
 3572SOL    HW211616   5.715   3.608   2.873
 3573SOL     OW11617   6.574   4.613   2.230
 3573SOL    HW111618   6.492   4.664   2.204
 3573SOL    HW211619   6.557   4.515   2.223
 3574SOL     OW11620   1.650   3.841   0.007
 3574SOL    HW111621   1.749   3.830   0.003
 3574SOL    HW211622   1.608   3.756   0.041
 3575SOL     OW11623   5.051   5.729   1.669
 3575SOL    HW111624   4.965   5.760   1.710
 3575SOL    HW211625   5.058   5.630   1.679
 3576SOL     OW11626   0.018   2.261   6.998
 3576SOL    HW111627   0.115   2.278   7.015
 3576SOL    HW211628   6.988   2.341   7.022
 3577SOL     OW11629   2.653   3.023   5.857
 3577SOL    HW111630   2.609   3.070   5.781
 3577SOL    HW211631   2.753   3.028   5.846
 3578SOL     OW11632   4.183   2.677   1.175
 3578SOL    HW111633   4.273   2.715   1.158
 3578SOL    HW211634   4.116   2.751   1.182
 3579SOL     OW11635   0.229   2.806   2.873
 3579SOL    HW111636   0.137   2.770   2.856
 3579SOL    HW211637   0.229   2.905   2.859
 3580SOL     OW11638   6.549   3.727   0.963
 3580SOL    HW111639   6.523   3.631   0.968
 3580SOL    HW211640   6.646   3.734   0.939
 3581SOL     OW11641   0.414   6.272   2.729
 3581SOL    HW111642   0.409   6.358   2.678
 3581SOL    HW211643   0.490   6.276   2.793
 3582SOL     OW11644   2.627   5.139   5.917
 3582SOL    HW111645   2.560   5.071   5.889
 3582SOL    HW211646   2.604   5.227   5.876
 3583SOL     OW11647   1.172   4.190   0.149
 3583SOL    HW111648   1.188   4.133   0.068
 3583SOL    HW211649   1.134   4.134   0.222
 3584SOL     OW11650   5.331   4.894   5.452
 3584SOL    HW111651   5.331   4.907   5.551
 3584SOL    HW211652   5.424   4.899   5.417
 3585SOL     OW11653   3.127   1.714   4.571
 3585SOL    HW111654   3.032   1.728   4.544
 3585SOL    HW211655   3.173   1.802   4.580
 3586SOL     OW11656   6.872   2.569   5.231
 3586SOL    HW111657   6.956   2.515   5.228
 3586SOL    HW211658   6.812   2.541   5.156
 3587SOL     OW11659   3.571   5.258   6.347
 3587SOL    HW111660   3.613   5.200   6.278
 3587SOL    HW211661   3.547   5.346   6.307
 3588SOL     OW11662   6.857   3.867   4.304
 3588SOL    HW111663   6.850   3.790   4.367
 3588SOL    HW211664   6.869   3.833   4.210
 3589SOL     OW11665   6.166   6.435   6.361
 3589SOL    HW111666   6.189   6.379   6.281
 3589SOL    HW211667   6.148   6.376   6.439
 3590SOL     OW11668   0.379   3.544   1.141
 3590SOL    HW111669   0.436   3.480   1.090
 3590SOL    HW211670   0.395   3.637   1.108
 3591SOL     OW11671   5.598   2.978   0.873
 3591SOL    HW111672   5.591   3.070   0.834
 3591SOL    HW211673   5.521   2.962   0.934
 3592SOL     OW11674   0.274   0.045   2.437
 3592SOL    HW111675   0.333   0.018   2.514
 3592SOL    HW211676   0.179   0.049   2.467
 3593SOL     OW11677   0.641   4.650   5.860
 3593SOL    HW111678   0.691   4.685   5.781
 3593SOL    HW211679   0.674   4.558   5.882
 3594SOL     OW11680   4.750   0.220   4.681
 3594SOL    HW111681   4.750   0.182   4.773
 3594SOL    HW211682   4.718   0.315   4.683
 3595SOL     OW11683   6.219   5.865   0.160
 3595SOL    HW111684   6.224   5.945   0.100
 3595SOL    HW211685   6.198   5.895   0.253
 3596SOL     OW11686   4.358   2.386   3.396
 3596SOL    HW111687   4.402   2.332   3.468
 3596SOL    HW211688   4.268   2.347   3.376
 3597SOL     OW11689   2.038   3.361   5.696
 3597SOL    HW111690   2.056   3.280   5.641
 3597SOL    HW211691   2.001   3.433   5.637
 3598SOL     OW11692   1.945   6.109   5.834
 3598SOL    HW111693   1.857   6.136   5.872
 3598SOL    HW211694   1.931   6.045   5.758
 3599SOL     OW11695   4.873   1.763   6.400
 3599SOL    HW111696   4.843   1.836   6.462
 3599SOL    HW211697   4.947   1.797   6.343
 3600SOL     OW11698   1.501   3.424   1.472
 3600SOL    HW111699   1.570   3.479   1.518
 3600SOL    HW211700   1.519   3.424   1.373
 3601SOL     OW11701   5.544   2.081   5.621
 3601SOL    HW111702   5.620   2.116   5.676
 3601SOL    HW211703   5.504   2.001   5.666
 3602SOL     OW11704   2.041   3.077   0.741
 3602SOL    HW111705   1.981   3.079   0.661
 3602SOL    HW211706   1.986   3.068   0.824
 3603SOL     OW11707   3.643   1.041   6.024
 3603SOL    HW111708   3.695   1.086   5.952
 3603SOL    HW211709   3.677   0.947   6.036
 3604SOL     OW11710   6.088   0.851   3.484
 3604SOL    HW111711   6.091   0.949   3.502
 3604SOL    HW211712   6.167   0.807   3.529
 3605SOL     OW11713   0.689   5.418   3.960
 3605SOL    HW111714   0.762   5.431   4.027
 3605SOL    HW211715   0.615   5.366   4.002
 3606SOL     OW11716   1.690   6.368   2.096
 3606SOL    HW111717   1.640   6.402   2.017
 3606SOL    HW211718   1.690   6.268   2.095
 3607SOL     OW11719   4.927   2.420   2.527
 3607SOL    HW111720   4.904   2.514   2.553
 3607SOL    HW211721   4.912   2.360   2.606
 3608SOL     OW11722   5.284   1.577   3.970
 3608SOL    HW111723   5.192   1.616   3.962
 3608SOL    HW211724   5.277   1.481   3.997
 3609SOL     OW11725   2.283   6.505   4.451
 3609SOL    HW111726   2.293   6.572   4.525
 3609SOL    HW211727   2.321   6.543   4.367
 3610SOL     OW11728   1.642   0.251   5.445
 3610SOL    HW111729   1.681   0.204   5.524
 3610SOL    HW211730   1.681   0.344   5.439
 3611SOL     OW11731   4.673   4.491   4.325
 3611SOL    HW111732   4.601   4.487   4.256
 3611SOL    HW211733   4.721   4.579   4.319
 3612SOL     OW11734   6.670   1.714   6.636
 3612SOL    HW111735   6.760   1.722   6.680
 3612SOL    HW211736   6.635   1.621   6.647
 3613SOL     OW11737   4.407   5.303   2.214
 3613SOL    HW111738   4.341   5.246   2.264
 3613SOL    HW211739   4.429   5.259   2.127
 3614SOL     OW11740   3.163   3.424   6.809
 3614SOL    HW111741   3.231   3.420   6.882
 3614SOL    HW211742   3.072   3.429   6.849
 3615SOL     OW11743   6.290   3.162   6.057
 3615SOL    HW111744   6.288   3.063   6.058
 3615SOL    HW211745   6.227   3.196   5.986
 3616SOL     OW11746   1.732   1.423   6.487
 3616SOL    HW111747   1.773   1.406   6.397
 3616SOL    HW211748   1.791   1.387   6.558
 3617SOL     OW11749   4.730   0.150   5.887
 3617SOL    HW111750   4.721   0.134   5.985
 3617SOL    HW211751   4.646   0.123   5.841
 3618SOL     OW11752   2.197   3.449   5.246
 3618SOL    HW111753   2.181   3.359   5.206
 3618SOL    HW211754   2.244   3.507   5.179
 3619SOL     OW11755   5.417   3.278   0.609
 3619SOL    HW111756   5.381   3.310   0.696
 3619SOL    HW211757   5.383   3.185   0.591
 3620SOL     OW11758   6.226   5.913   4.486
 3620SOL    HW111759   6.306   5.866   4.449
 3620SOL    HW211760   6.175   5.850   4.544
 3621SOL     OW11761   3.278   2.922   4.097
 3621SOL    HW111762   3.220   2.981   4.154
 3621SOL    HW211763   3.337   2.867   4.156
 3622SOL     OW11764   1.000   0.537   1.406
 3622SOL    HW111765   1.022   0.596   1.328
 3622SOL    HW211766   0.906   0.504   1.396
 3623SOL     OW11767   0.823   5.982   4.928
 3623SOL    HW111768   0.791   6.059   4.872
 3623SOL    HW211769   0.777   5.898   4.897
 3624SOL     OW11770   1.576   0.063   1.643
 3624SOL    HW111771   1.664   0.110   1.633
 3624SOL    HW211772   1.567   7.016   1.573
 3625SOL     OW11773   0.275   3.194   6.985
 3625SOL    HW111774   0.243   3.107   7.023
 3625SOL    HW211775   0.196   3.253   6.965
 3626SOL     OW11776   0.594   3.857   4.694
 3626SOL    HW111777   0.638   3.836   4.781
 3626SOL    HW211778   0.659   3.904   4.634
 3627SOL     OW11779   5.281   2.850   1.600
 3627SOL    HW111780   5.284   2.807   1.510
 3627SOL    HW211781   5.198   2.823   1.648
 3628SOL     OW11782   1.602   1.508   1.998
 3628SOL    HW111783   1.659   1.571   1.945
 3628SOL    HW211784   1.587   1.547   2.089
 3629SOL     OW11785   1.297   0.261   3.878
 3629SOL    HW111786   1.335   0.329   3.942
 3629SOL    HW211787   1.321   0.286   3.785
 3630SOL     OW11788   6.984   2.737   2.871
 3630SOL    HW111789   6.967   2.639   2.875
 3630SOL    HW211790   6.935   2.783   2.944
 3631SOL     OW11791   2.059   6.630   4.114
 3631SOL    HW111792   2.017   6.669   4.032
 3631SOL    HW211793   2.013   6.666   4.196
 3632SOL     OW11794   4.544   4.188   1.210
 3632SOL    HW111795   4.542   4.104   1.155
 3632SOL    HW211796   4.625   4.188   1.268
 3633SOL     OW11797   3.508   2.463   5.399
 3633SOL    HW111798   3.585   2.524   5.422
 3633SOL    HW211799   3.436   2.516   5.355
 3634SOL     OW11800   2.097   6.340   6.294
 3634SOL    HW111801   2.105   6.349   6.194
 3634SOL    HW211802   2.015   6.287   6.316
 3635SOL     OW11803   2.207   1.604   1.575
 3635SOL    HW111804   2.115   1.643   1.579
 3635SOL    HW211805   2.274   1.677   1.557
 3636SOL     OW11806   6.960   5.275   0.916
 3636SOL    HW111807   6.977   5.185   0.958
 3636SOL    HW211808   6.901   5.328   0.977
 3637SOL     OW11809   1.101   2.489   0.359
 3637SOL    HW111810   1.122   2.430   0.281
 3637SOL    HW211811   1.050   2.570   0.327
 3638SOL     OW11812   6.917   4.089   2.877
 3638SOL    HW111813   6.955   4.012   2.928
 3638SOL    HW211814   6.825   4.110   2.911
 3639SOL     OW11815   3.798   4.331   5.149
 3639SOL    HW111816   3.751   4.303   5.066
 3639SOL    HW211817   3.757   4.415   5.184
 3640SOL     OW11818   5.394   2.502   0.441
 3640SOL    HW111819   5.358   2.493   0.348
 3640SOL    HW211820   5.355   2.430   0.498
 3641SOL     OW11821   5.456   4.432   1.109
 3641SOL    HW111822   5.387   4.379   1.160
 3641SOL    HW211823   5.538   4.442   1.165
 3642SOL     OW11824   5.551   2.250   6.140
 3642SOL    HW111825   5.551   2.342   6.179
 3642SOL    HW211826   5.634   2.236   6.087
 3643SOL     OW11827   4.218   6.753   6.324
 3643SOL    HW111828   4.166   6.728   6.243
 3643SOL    HW211829   4.314   6.768   6.299
 3644SOL     OW11830   3.233   1.051   1.508
 3644SOL    HW111831   3.323   1.026   1.474
 3644SOL    HW211832   3.184   0.968   1.537
 3645SOL     OW11833   1.642   3.708   4.028
 3645SOL    HW111834   1.708   3.651   4.077
 3645SOL    HW211835   1.676   3.801   4.021
 3646SOL     OW11836   2.918   4.940   4.713
 3646SOL    HW111837   2.869   4.961   4.628
 3646SOL    HW211838   2.941   5.026   4.760
 3647SOL     OW11839   2.731   0.266   6.897
 3647SOL    HW111840   2.797   0.296   6.966
 3647SOL    HW211841   2.747   0.316   6.812
 3648SOL     OW11842   5.056   6.046   3.246
 3648SOL    HW111843   5.066   6.139   3.282
 3648SOL    HW211844   5.135   5.992   3.273
 3649SOL     OW11845   5.452   3.817   6.781
 3649SOL    HW111846   5.425   3.913   6.790
 3649SOL    HW211847   5.455   3.792   6.684
 3650SOL     OW11848   5.365   4.086   0.737
 3650SOL    HW111849   5.360   4.126   0.829
 3650SOL    HW211850   5.393   3.990   0.744
 3651SOL     OW11851   2.153   1.924   5.804
 3651SOL    HW111852   2.174   1.999   5.742
 3651SOL    HW211853   2.078   1.869   5.767
 3652SOL     OW11854   5.288   1.180   2.558
 3652SOL    HW111855   5.273   1.124   2.639
 3652SOL    HW211856   5.312   1.121   2.481
 3653SOL     OW11857   0.823   0.860   2.726
 3653SOL    HW111858   0.795   0.797   2.798
 3653SOL    HW211859   0.922   0.878   2.734
 3654SOL     OW11860   4.474   5.782   0.894
 3654SOL    HW111861   4.455   5.683   0.892
 3654SOL    HW211862   4.458   5.816   0.986
 3655SOL     OW11863   3.049   1.086   4.131
 3655SOL    HW111864   3.063   1.020   4.205
 3655SOL    HW211865   3.074   1.177   4.162
 3656SOL     OW11866   1.158   5.497   1.663
 3656SOL    HW111867   1.114   5.471   1.749
 3656SOL    HW211868   1.095   5.480   1.587
 3657SOL     OW11869   4.528   5.999   5.499
 3657SOL    HW111870   4.535   6.096   5.521
 3657SOL    HW211871   4.448   5.960   5.546
 3658SOL     OW11872   1.388   5.545   6.517
 3658SOL    HW111873   1.373   5.486   6.597
 3658SOL    HW211874   1.486   5.557   6.503
 3659SOL     OW11875   0.311   1.323   6.671
 3659SOL    HW111876   0.343   1.239   6.627
 3659SOL    HW211877   0.213   1.332   6.657
 3660SOL     OW11878   5.510   6.132   6.052
 3660SOL    HW111879   5.574   6.088   5.989
 3660SOL    HW211880   5.548   6.220   6.082
 3661SOL     OW11881   6.582   0.645   3.906
 3661SOL    HW111882   6.545   0.674   3.994
 3661SOL    HW211883   6.619   0.725   3.859
 3662SOL     OW11884   3.992   0.883   5.541
 3662SOL    HW111885   3.958   0.840   5.457
 3662SOL    HW211886   4.081   0.844   5.565
 3663SOL     OW11887   2.157   2.634   6.618
 3663SOL    HW111888   2.057   2.638   6.621
 3663SOL    HW211889   2.185   2.548   6.576
 3664SOL     OW11890   4.476   1.467   2.372
 3664SOL    HW111891   4.399   1.523   2.340
 3664SOL    HW211892   4.502   1.497   2.464
 3665SOL     OW11893   0.716   6.039   5.268
 3665SOL    HW111894   0.749   6.035   5.173
 3665SOL    HW211895   0.707   6.135   5.296
 3666SOL     OW11896   1.512   2.645   3.322
 3666SOL    HW111897   1.417   2.624   3.343
 3666SOL    HW211898   1.516   2.729   3.268
 3667SOL     OW11899   1.099   1.527   2.847
 3667SOL    HW111900   1.132   1.435   2.869
 3667SOL    HW211901   1.043   1.523   2.765
 3668SOL     OW11902   1.204   0.239   1.960
 3668SOL    HW111903   1.267   0.253   1.885
 3668SOL    HW211904   1.128   0.181   1.929
 3669SOL     OW11905   6.312   1.879   4.598
 3669SOL    HW111906   6.261   1.808   4.550
 3669SOL    HW211907   6.401   1.842   4.627
 3670SOL     OW11908   3.381   4.955   1.509
 3670SOL    HW111909   3.379   5.011   1.592
 3670SOL    HW211910   3.435   4.873   1.525
 3671SOL     OW11911   6.257   1.038   3.095
 3671SOL    HW111912   6.248   0.950   3.142
 3671SOL    HW211913   6.179   1.097   3.118
 3672SOL     OW11914   5.544   1.253   2.779
 3672SOL    HW111915   5.541   1.353   2.768
 3672SOL    HW211916   5.493   1.210   2.705
 3673SOL     OW11917   4.821   6.040   0.241
 3673SOL    HW111918   4.897   6.106   0.244
 3673SOL    HW211919   4.795   6.016   0.335
 3674SOL     OW11920   1.374   6.141   6.192
 3674SOL    HW111921   1.294   6.191   6.223
 3674SOL    HW211922   1.401   6.074   6.260
 3675SOL     OW11923   0.526   2.033   3.968
 3675SOL    HW111924   0.525   1.993   3.877
 3675SOL    HW211925   0.450   1.995   4.022
 3676SOL     OW11926   4.777   3.016   3.221
 3676SOL    HW111927   4.745   2.926   3.251
 3676SOL    HW211928   4.824   3.008   3.133
 3677SOL     OW11929   2.188   1.123   4.455
 3677SOL    HW111930   2.145   1.051   4.509
 3677SOL    HW211931   2.276   1.147   4.495
 3678SOL     OW11932   1.620   0.140   3.879
 3678SOL    HW111933   1.609   0.238   3.863
 3678SOL    HW211934   1.570   0.089   3.810
 3679SOL     OW11935   6.058   0.285   2.871
 3679SOL    HW111936   6.102   0.372   2.854
 3679SOL    HW211937   6.033   0.242   2.784
 3680SOL     OW11938   4.407   1.633   3.118
 3680SOL    HW111939   4.495   1.592   3.143
 3680SOL    HW211940   4.358   1.571   3.057
 3681SOL     OW11941   0.965   0.811   5.711
 3681SOL    HW111942   1.006   0.889   5.663
 3681SOL    HW211943   0.994   0.811   5.806
 3682SOL     OW11944   5.499   2.145   1.116
 3682SOL    HW111945   5.455   2.234   1.102
 3682SOL    HW211946   5.430   2.073   1.111
 3683SOL     OW11947   0.073   0.510   4.266
 3683SOL    HW111948   7.015   0.559   4.237
 3683SOL    HW211949   0.129   0.569   4.324
 3684SOL     OW11950   1.976   6.843   6.011
 3684SOL    HW111951   2.007   6.938   6.003
 3684SOL    HW211952   2.052   6.782   5.990
 3685SOL     OW11953   2.501   5.823   5.087
 3685SOL    HW111954   2.490   5.777   5.175
 3685SOL    HW211955   2.593   5.806   5.051
 3686SOL     OW11956   7.005   3.515   3.619
 3686SOL    HW111957   7.000   3.612   3.596
 3686SOL    HW211958   0.053   3.471   3.565
 3687SOL     OW11959   4.871   6.413   3.033
 3687SOL    HW111960   4.951   6.468   3.008
 3687SOL    HW211961   4.865   6.405   3.132
 3688SOL     OW11962   6.219   3.438   0.051
 3688SOL    HW111963   6.253   3.378   7.002
 3688SOL    HW211964   6.239   3.398   0.140
 3689SOL     OW11965   2.025   1.678   5.415
 3689SOL    HW111966   2.052   1.643   5.325
 3689SOL    HW211967   2.019   1.601   5.480
 3690SOL     OW11968   5.016   5.548   0.780
 3690SOL    HW111969   4.944   5.615   0.794
 3690SOL    HW211970   5.066   5.570   0.696
 3691SOL     OW11971   3.115   1.902   5.960
 3691SOL    HW111972   3.041   1.843   5.991
 3691SOL    HW211973   3.093   1.939   5.869
 3692SOL     OW11974   6.822   4.152   6.004
 3692SOL    HW111975   6.895   4.211   6.036
 3692SOL    HW211976   6.817   4.071   6.062
 3693SOL     OW11977   0.724   1.595   2.827
 3693SOL    HW111978   0.674   1.679   2.804
 3693SOL    HW211979   0.773   1.562   2.747
 3694SOL     OW11980   0.935   0.797   1.548
 3694SOL    HW111981   1.011   0.832   1.493
 3694SOL    HW211982   0.854   0.787   1.491
 3695SOL     OW11983   6.649   2.636   2.547
 3695SOL    HW111984   6.721   2.675   2.605
 3695SOL    HW211985   6.680   2.635   2.452
 3696SOL     OW11986   5.035   0.957   5.012
 3696SOL    HW111987   5.112   0.898   5.035
 3696SOL    HW211988   4.975   0.911   4.946
 3697SOL     OW11989   6.578   5.930   3.144
 3697SOL    HW111990   6.507   5.874   3.101
 3697SOL    HW211991   6.577   5.914   3.243
 3698SOL     OW11992   1.820   0.988   3.596
 3698SOL    HW111993   1.733   0.952   3.562
 3698SOL    HW211994   1.814   1.003   3.695
 3699SOL     OW11995   2.282   2.124   4.199
 3699SOL    HW111996   2.341   2.185   4.251
 3699SOL    HW211997   2.338   2.069   4.137
 3700SOL     OW11998   1.794   5.258   5.218
 3700SOL    HW111999   1.792   5.295   5.311
 3700SOL    HW212000   1.851   5.318   5.161
 3701SOL     OW12001   1.179   6.351   1.873
 3701SOL    HW112002   1.197   6.348   1.972
 3701SOL    HW212003   1.082   6.369   1.857
 3702SOL     OW12004   5.950   6.283   4.120
 3702SOL    HW112005   5.904   6.207   4.165
 3702SOL    HW212006   5.985   6.347   4.188
 3703SOL     OW12007   1.203   1.102   6.411
 3703SOL    HW112008   1.124   1.119   6.351
 3703SOL    HW212009   1.254   1.024   6.376
 3704SOL     OW12010   5.754   2.999   1.091
 3704SOL    HW112011   5.774   2.906   1.123
 3704SOL    HW212012   5.698   2.994   1.008
 3705SOL     OW12013   5.155   4.918   3.606
 3705SOL    HW112014   5.176   5.016   3.609
 3705SOL    HW212015   5.227   4.869   3.557
 3706SOL     OW12016   0.699   3.792   0.689
 3706SOL    HW112017   0.782   3.752   0.726
 3706SOL    HW212018   0.620   3.735   0.714
 3707SOL     OW12019   3.283   5.042   3.945
 3707SOL    HW112020   3.210   5.102   3.977
 3707SOL    HW212021   3.332   5.005   4.024
 3708SOL     OW12022   3.940   6.636   1.494
 3708SOL    HW112023   4.028   6.651   1.539
 3708SOL    HW212024   3.955   6.590   1.406
 3709SOL     OW12025   1.808   0.252   1.653
 3709SOL    HW112026   1.877   0.251   1.581
 3709SOL    HW212027   1.830   0.183   1.722
 3710SOL     OW12028   0.628   4.968   5.011
 3710SOL    HW112029   0.673   4.897   4.957
 3710SOL    HW212030   0.561   4.926   5.071
 3711SOL     OW12031   1.638   6.378   4.769
 3711SOL    HW112032   1.670   6.287   4.796
 3711SOL    HW212033   1.545   6.391   4.803
 3712SOL     OW12034   2.464   5.376   6.948
 3712SOL    HW112035   2.558   5.344   6.941
 3712SOL    HW212036   2.402   5.304   6.916
 3713SOL     OW12037   6.625   0.013   4.727
 3713SOL    HW112038   6.634   0.112   4.726
 3713SOL    HW212039   6.692   6.998   4.792
 3714SOL     OW12040   0.873   5.028   6.848
 3714SOL    HW112041   0.825   5.008   6.762
 3714SOL    HW212042   0.807   5.031   6.923
 3715SOL     OW12043   0.408   5.851   3.463
 3715SOL    HW112044   0.476   5.832   3.391
 3715SOL    HW212045   0.334   5.906   3.425
 3716SOL     OW12046   6.489   5.795   3.906
 3716SOL    HW112047   6.471   5.870   3.843
 3716SOL    HW212048   6.452   5.710   3.868
 3717SOL     OW12049   5.033   1.395   0.287
 3717SOL    HW112050   5.064   1.345   0.368
 3717SOL    HW212051   5.008   1.331   0.215
 3718SOL     OW12052   0.450   6.992   6.760
 3718SOL    HW112053   0.377   6.928   6.785
 3718SOL    HW212054   0.455   0.042   6.829
 3719SOL     OW12055   4.141   3.277   6.404
 3719SOL    HW112056   4.067   3.231   6.355
 3719SOL    HW212057   4.208   3.209   6.434
 3720SOL     OW12058   5.704   3.416   1.301
 3720SOL    HW112059   5.744   3.336   1.344
 3720SOL    HW212060   5.703   3.404   1.202
 3721SOL     OW12061   6.467   5.589   6.844
 3721SOL    HW112062   6.550   5.534   6.832
 3721SOL    HW212063   6.387   5.530   6.838
 3722SOL     OW12064   4.618   6.930   1.677
 3722SOL    HW112065   4.548   6.864   1.705
 3722SOL    HW212066   4.592   7.021   1.709
 3723SOL     OW12067   4.590   5.266   0.565
 3723SOL    HW112068   4.554   5.335   0.629
 3723SOL    HW212069   4.515   5.231   0.509
 3724SOL     OW12070   1.753   5.231   5.570
 3724SOL    HW112071   1.771   5.152   5.630
 3724SOL    HW212072   1.794   5.313   5.610
 3725SOL     OW12073   0.336   6.570   0.003
 3725SOL    HW112074   0.260   6.606   6.974
 3725SOL    HW212075   0.320   6.473   0.024
 3726SOL     OW12076   5.480   4.673   4.491
 3726SOL    HW112077   5.458   4.591   4.544
 3726SOL    HW212078   5.559   4.719   4.532
 3727SOL     OW12079   0.085   3.542   4.569
 3727SOL    HW112080   0.016   3.613   4.583
 3727SOL    HW212081   0.175   3.584   4.558
 3728SOL     OW12082   2.959   3.263   0.266
 3728SOL    HW112083   2.970   3.360   0.288
 3728SOL    HW212084   2.972   3.208   0.348
 3729SOL     OW12085   0.516   0.407   5.116
 3729SOL    HW112086   0.497   0.477   5.185
 3729SOL    HW212087   0.439   0.342   5.113
 3730SOL     OW12088   4.688   6.791   5.731
 3730SOL    HW112089   4.691   6.843   5.817
 3730SOL    HW212090   4.601   6.807   5.685
 3731SOL     OW12091   0.509   1.117   7.005
 3731SOL    HW112092   0.562   1.161   6.933
 3731SOL    HW212093   0.476   1.029   6.973
 3732SOL     OW12094   1.602   1.932   0.837
 3732SOL    HW112095   1.685   1.958   0.787
 3732SOL    HW212096   1.557   2.014   0.871
 3733SOL     OW12097   1.555   3.008   3.754
 3733SOL    HW112098   1.502   2.961   3.683
 3733SOL    HW212099   1.652   2.985   3.745
 3734SOL     OW12100   4.241   0.429   1.270
 3734SOL    HW112101   4.205   0.518   1.241
 3734SOL    HW212102   4.335   0.440   1.302
 3735SOL     OW12103   4.298   6.558   2.443
 3735SOL    HW112104   4.225   6.512   2.393
 3735SOL    HW212105   4.270   6.652   2.463
 3736SOL     OW12106   6.546   0.628   0.881
 3736SOL    HW112107   6.613   0.597   0.948
 3736SOL    HW212108   6.590   0.688   0.815
 3737SOL     OW12109   6.251   2.482   3.631
 3737SOL    HW112110   6.348   2.499   3.617
 3737SOL    HW212111   6.238   2.395   3.679
 3738SOL     OW12112   6.805   5.728   0.999
 3738SOL    HW112113   6.896   5.756   0.968
 3738SOL    HW212114   6.795   5.749   1.097
 3739SOL     OW12115   2.901   4.745   1.707
 3739SOL    HW112116   2.994   4.770   1.736
 3739SOL    HW212117   2.877   4.656   1.746
 3740SOL     OW12118   6.159   5.923   6.719
 3740SOL    HW112119   6.255   5.904   6.740
 3740SOL    HW212120   6.102   5.899   6.798
 3741SOL     OW12121   5.203   2.718   0.232
 3741SOL    HW112122   5.222   2.792   0.297
 3741SOL    HW212123   5.108   2.688   0.243
 3742SOL     OW12124   4.943   5.757   0.182
 3742SOL    HW112125   4.867   5.692   0.183
 3742SOL    HW212126   4.908   5.850   0.181
 3743SOL     OW12127   4.672   4.152   1.492
 3743SOL    HW112128   4.700   4.157   1.588
 3743SOL    HW212129   4.634   4.240   1.463
 3744SOL     OW12130   1.328   6.611   1.750
 3744SOL    HW112131   1.276   6.696   1.738
 3744SOL    HW212132   1.274   6.547   1.805
 3745SOL     OW12133   5.025   3.588   2.570
 3745SOL    HW112134   4.995   3.660   2.509
 3745SOL    HW212135   5.004   3.499   2.530
 3746SOL     OW12136   6.735   0.352   3.425
 3746SOL    HW112137   6.639   0.341   3.452
 3746SOL    HW212138   6.745   0.432   3.367
 3747SOL     OW12139   4.376   6.806   5.972
 3747SOL    HW112140   4.380   6.905   5.982
 3747SOL    HW212141   4.464   6.767   5.999
 3748SOL     OW12142   5.851   1.144   2.593
 3748SOL    HW112143   5.823   1.229   2.638
 3748SOL    HW212144   5.778   1.112   2.533
 3749SOL     OW12145   1.250   5.323   2.700
 3749SOL    HW112146   1.320   5.393   2.691
 3749SOL    HW212147   1.267   5.269   2.783
 3750SOL     OW12148   5.695   4.620   0.882
 3750SOL    HW112149   5.794   4.630   0.875
 3750SOL    HW212150   5.660   4.571   0.802
 3751SOL     OW12151   1.148   3.117   1.184
 3751SOL    HW112152   1.199   3.121   1.098
 3751SOL    HW212153   1.079   3.044   1.178
 3752SOL     OW12154   0.357   0.464   6.566
 3752SOL    HW112155   0.434   0.447   6.627
 3752SOL    HW212156   0.294   0.530   6.608
 3753SOL     OW12157   0.630   6.504   4.923
 3753SOL    HW112158   0.717   6.547   4.900
 3753SOL    HW212159   0.555   6.555   4.880
 3754SOL     OW12160   5.343   6.231   1.431
 3754SOL    HW112161   5.245   6.230   1.450
 3754SOL    HW212162   5.364   6.165   1.359
 3755SOL     OW12163   5.291   5.418   4.052
 3755SOL    HW112164   5.284   5.502   4.107
 3755SOL    HW212165   5.387   5.401   4.031
 3756SOL     OW12166   2.230   0.804   6.022
 3756SOL    HW112167   2.321   0.791   6.063
 3756SOL    HW212168   2.180   0.872   6.075
 3757SOL     OW12169   3.646   5.923   5.707
 3757SOL    HW112170   3.727   5.865   5.711
 3757SOL    HW212171   3.575   5.877   5.654
 3758SOL     OW12172   1.972   1.709   4.368
 3758SOL    HW112173   1.923   1.739   4.286
 3758SOL    HW212174   1.911   1.716   4.448
 3759SOL     OW12175   4.776   5.275   5.421
 3759SOL    HW112176   4.710   5.346   5.394
 3759SOL    HW212177   4.796   5.284   5.518
 3760SOL     OW12178   1.235   3.742   3.300
 3760SOL    HW112179   1.276   3.658   3.338
 3760SOL    HW212180   1.290   3.774   3.224
 3761SOL     OW12181   0.553   6.858   5.011
 3761SOL    HW112182   0.587   6.883   4.920
 3761SOL    HW212183   0.550   6.939   5.069
 3762SOL     OW12184   0.948   4.460   6.883
 3762SOL    HW112185   1.025   4.417   6.835
 3762SOL    HW212186   0.968   4.556   6.898
 3763SOL     OW12187   6.678   4.352   6.766
 3763SOL    HW112188   6.713   4.440   6.735
 3763SOL    HW212189   6.625   4.310   6.692
 3764SOL     OW12190   2.024   0.950   4.708
 3764SOL    HW112191   2.085   0.994   4.773
 3764SOL    HW212192   2.039   0.851   4.711
 3765SOL     OW12193   4.755   0.886   3.253
 3765SOL    HW112194   4.711   0.951   3.192
 3765SOL    HW212195   4.687   0.846   3.315
 3766SOL     OW12196   0.592   0.484   3.892
 3766SOL    HW112197   0.630   0.575   3.904
 3766SOL    HW212198   0.666   0.417   3.890
 3767SOL     OW12199   1.845   4.665   0.339
 3767SOL    HW112200   1.813   4.704   0.253
 3767SOL    HW212201   1.780   4.596   0.371
 3768SOL     OW12202   3.655   6.473   6.407
 3768SOL    HW112203   3.748   6.466   6.372
 3768SOL    HW212204   3.624   6.383   6.438
 3769SOL     OW12205   5.238   5.876   5.425
 3769SOL    HW112206   5.258   5.972   5.441
 3769SOL    HW212207   5.204   5.834   5.510
 3770SOL     OW12208   2.609   0.650   6.159
 3770SOL    HW112209   2.646   0.579   6.219
 3770SOL    HW212210   2.556   0.715   6.214
 3771SOL     OW12211   5.345   2.135   0.394
 3771SOL    HW112212   5.407   2.178   0.328
 3771SOL    HW212213   5.389   2.054   0.433
 3772SOL     OW12214   6.158   0.958   0.750
 3772SOL    HW112215   6.209   0.877   0.725
 3772SOL    HW212216   6.161   1.024   0.674
 3773SOL     OW12217   5.657   3.232   5.880
 3773SOL    HW112218   5.596   3.285   5.939
 3773SOL    HW212219   5.734   3.289   5.851
 3774SOL     OW12220   1.382   6.949   6.381
 3774SOL    HW112221   1.400   6.985   6.289
 3774SOL    HW212222   1.284   6.943   6.396
 3775SOL     OW12223   5.301   3.842   2.561
 3775SOL    HW112224   5.395   3.839   2.526
 3775SOL    HW212225   5.271   3.750   2.586
 3776SOL     OW12226   2.411   1.425   2.212
 3776SOL    HW112227   2.471   1.353   2.178
 3776SOL    HW212228   2.433   1.511   2.167
 3777SOL     OW12229   3.263   4.902   4.748
 3777SOL    HW112230   3.174   4.860   4.730
 3777SOL    HW212231   3.306   4.855   4.825
 3778SOL     OW12232   2.511   5.443   2.884
 3778SOL    HW112233   2.486   5.419   2.978
 3778SOL    HW212234   2.496   5.541   2.870
 3779SOL     OW12235   2.918   4.822   6.727
 3779SOL    HW112236   2.885   4.741   6.775
 3779SOL    HW212237   3.006   4.851   6.766
 3780SOL     OW12238   3.755   5.337   4.645
 3780SOL    HW112239   3.663   5.307   4.619
 3780SOL    HW212240   3.756   5.360   4.742
 3781SOL     OW12241   2.199   6.183   3.922
 3781SOL    HW112242   2.210   6.092   3.962
 3781SOL    HW212243   2.176   6.175   3.826
 3782SOL     OW12244   2.630   2.380   4.527
 3782SOL    HW112245   2.682   2.399   4.444
 3782SOL    HW212246   2.546   2.435   4.527
 3783SOL     OW12247   6.650   0.026   5.066
 3783SOL    HW112248   6.698   6.982   5.009
 3783SOL    HW212249   6.588   0.080   5.009
 3784SOL     OW12250   5.442   1.573   3.748
 3784SOL    HW112251   5.506   1.503   3.781
 3784SOL    HW212252   5.383   1.603   3.824
 3785SOL     OW12253   2.387   1.456   0.649
 3785SOL    HW112254   2.469   1.405   0.623
 3785SOL    HW212255   2.329   1.398   0.707
 3786SOL     OW12256   2.954   5.016   4.060
 3786SOL    HW112257   2.986   4.971   4.144
 3786SOL    HW212258   2.976   4.958   3.981
 3787SOL     OW12259   5.412   0.350   4.089
 3787SOL    HW112260   5.339   0.372   4.154
 3787SOL    HW212261   5.495   0.326   4.138
 3788SOL     OW12262   6.253   3.431   3.693
 3788SOL    HW112263   6.321   3.501   3.713
 3788SOL    HW212264   6.273   3.388   3.605
 3789SOL     OW12265   1.634   4.439   4.167
 3789SOL    HW112266   1.592   4.512   4.113
 3789SOL    HW212267   1.655   4.361   4.108
 3790SOL     OW12268   2.145   3.835   4.681
 3790SOL    HW112269   2.137   3.798   4.588
 3790SOL    HW212270   2.195   3.922   4.678
 3791SOL     OW12271   5.261   6.556   1.328
 3791SOL    HW112272   5.208   6.636   1.298
 3791SOL    HW212273   5.343   6.587   1.376
 3792SOL     OW12274   6.817   0.299   4.836
 3792SOL    HW112275   6.722   0.321   4.813
 3792SOL    HW212276   6.843   0.348   4.919
 3793SOL     OW12277   2.093   1.258   2.756
 3793SOL    HW112278   2.098   1.355   2.780
 3793SOL    HW212279   2.140   1.242   2.670
 3794SOL     OW12280   3.783   5.543   1.768
 3794SOL    HW112281   3.780   5.553   1.867
 3794SOL    HW212282   3.698   5.580   1.729
 3795SOL     OW12283   4.469   6.663   6.498
 3795SOL    HW112284   4.460   6.715   6.583
 3795SOL    HW212285   4.496   6.724   6.423
 3796SOL     OW12286   1.707   1.917   1.728
 3796SOL    HW112287   1.665   1.945   1.641
 3796SOL    HW212288   1.763   1.992   1.764
 3797SOL     OW12289   6.584   5.337   2.188
 3797SOL    HW112290   6.674   5.362   2.151
 3797SOL    HW212291   6.569   5.239   2.174
 3798SOL     OW12292   2.610   4.917   3.362
 3798SOL    HW112293   2.531   4.895   3.306
 3798SOL    HW212294   2.668   4.836   3.373
 3799SOL     OW12295   1.241   1.574   4.569
 3799SOL    HW112296   1.247   1.479   4.601
 3799SOL    HW212297   1.149   1.592   4.535
 3800SOL     OW12298   5.226   2.511   4.883
 3800SOL    HW112299   5.173   2.548   4.959
 3800SOL    HW212300   5.209   2.565   4.801
 3801SOL     OW12301   6.327   5.709   5.481
 3801SOL    HW112302   6.413   5.668   5.448
 3801SOL    HW212303   6.269   5.733   5.403
 3802SOL     OW12304   1.309   2.373   5.107
 3802SOL    HW112305   1.308   2.309   5.030
 3802SOL    HW212306   1.262   2.457   5.082
 3803SOL     OW12307   4.420   0.867   2.566
 3803SOL    HW112308   4.435   0.854   2.468
 3803SOL    HW212309   4.479   0.804   2.618
 3804SOL     OW12310   4.432   1.923   4.780
 3804SOL    HW112311   4.409   1.960   4.691
 3804SOL    HW212312   4.468   1.996   4.838
 3805SOL     OW12313   3.345   4.194   1.690
 3805SOL    HW112314   3.335   4.114   1.749
 3805SOL    HW212315   3.427   4.244   1.715
 3806SOL     OW12316   2.965   2.423   6.990
 3806SOL    HW112317   2.939   2.426   6.894
 3806SOL    HW212318   3.064   2.410   6.998
 3807SOL     OW12319   1.466   0.647   4.236
 3807SOL    HW112320   1.509   0.729   4.271
 3807SOL    HW212321   1.368   0.664   4.220
 3808SOL     OW12322   3.148   0.321   2.328
 3808SOL    HW112323   3.146   0.271   2.242
 3808SOL    HW212324   3.197   0.407   2.316
 3809SOL     OW12325   6.024   1.685   6.935
 3809SOL    HW112326   6.034   1.712   6.839
 3809SOL    HW212327   5.960   1.747   6.980
 3810SOL     OW12328   3.890   3.129   5.419
 3810SOL    HW112329   3.877   3.082   5.332
 3810SOL    HW212330   3.835   3.213   5.420
 3811SOL     OW12331   0.325   3.798   4.326
 3811SOL    HW112332   0.234   3.831   4.352
 3811SOL    HW212333   0.326   3.773   4.229
 3812SOL     OW12334   5.939   1.480   6.003
 3812SOL    HW112335   6.034   1.492   5.973
 3812SOL    HW212336   5.923   1.538   6.083
 3813SOL     OW12337   4.102   4.948   1.260
 3813SOL    HW112338   4.071   4.970   1.353
 3813SOL    HW212339   4.053   4.868   1.227
 3814SOL     OW12340   0.069   5.625   1.160
 3814SOL    HW112341   0.023   5.675   1.086
 3814SOL    HW212342   0.084   5.686   1.237
 3815SOL     OW12343   4.779   2.191   0.904
 3815SOL    HW112344   4.697   2.210   0.959
 3815SOL    HW212345   4.840   2.270   0.905
 3816SOL     OW12346   0.106   6.050   1.872
 3816SOL    HW112347   0.205   6.041   1.883
 3816SOL    HW212348   0.071   5.974   1.817
 3817SOL     OW12349   4.601   2.618   4.307
 3817SOL    HW112350   4.556   2.585   4.224
 3817SOL    HW212351   4.551   2.585   4.388
 3818SOL     OW12352   4.257   6.563   2.065
 3818SOL    HW112353   4.254   6.531   2.159
 3818SOL    HW212354   4.341   6.615   2.050
 3819SOL     OW12355   5.787   5.722   0.270
 3819SOL    HW112356   5.739   5.654   0.325
 3819SOL    HW212357   5.733   5.744   0.189
 3820SOL     OW12358   5.989   5.886   3.439
 3820SOL    HW112359   5.900   5.844   3.458
 3820SOL    HW212360   6.003   5.892   3.341
 3821SOL     OW12361   1.868   3.189   1.666
 3821SOL    HW112362   1.860   3.193   1.567
 3821SOL    HW212363   1.955   3.229   1.695
 3822SOL     OW12364   1.652   5.543   2.048
 3822SOL    HW112365   1.601   5.625   2.024
 3822SOL    HW212366   1.589   5.467   2.062
 3823SOL     OW12367   4.113   2.165   5.058
 3823SOL    HW112368   4.015   2.165   5.078
 3823SOL    HW212369   4.148   2.258   5.063
 3824SOL     OW12370   6.258   2.383   5.866
 3824SOL    HW112371   6.310   2.345   5.942
 3824SOL    HW212372   6.306   2.363   5.780
 3825SOL     OW12373   6.686   0.012   6.796
 3825SOL    HW112374   6.774   0.025   6.750
 3825SOL    HW212375   6.657   0.098   6.837
 3826SOL     OW12376   0.083   3.561   0.460
 3826SOL    HW112377   0.034   3.518   0.385
 3826SOL    HW212378   0.170   3.598   0.428
 3827SOL     OW12379   3.937   4.421   0.823
 3827SOL    HW112380   3.893   4.369   0.750
 3827SOL    HW212381   3.872   4.485   0.862
 3828SOL     OW12382   4.592   1.803   0.635
 3828SOL    HW112383   4.503   1.770   0.602
 3828SOL    HW212384   4.608   1.895   0.600
 3829SOL     OW12385   2.397   5.087   3.542
 3829SOL    HW112386   2.444   5.021   3.484
 3829SOL    HW212387   2.421   5.071   3.638
 3830SOL     OW12388   1.381   0.181   5.458
 3830SOL    HW112389   1.476   0.210   5.446
 3830SOL    HW212390   1.359   0.109   5.392
 3831SOL     OW12391   3.905   1.785   2.265
 3831SOL    HW112392   3.865   1.699   2.234
 3831SOL    HW212393   3.856   1.861   2.223
 3832SOL     OW12394   6.620   1.201   1.420
 3832SOL    HW112395   6.694   1.238   1.477
 3832SOL    HW212396   6.648   1.201   1.324
 3833SOL     OW12397   0.543   4.728   0.595
 3833SOL    HW112398   0.456   4.776   0.581
 3833SOL    HW212399   0.580   4.752   0.685
 3834SOL     OW12400   2.790   2.222   0.672
 3834SOL    HW112401   2.766   2.300   0.730
 3834SOL    HW212402   2.888   2.224   0.654
 3835SOL     OW12403   3.920   5.637   5.477
 3835SOL    HW112404   3.942   5.611   5.383
 3835SOL    HW212405   3.943   5.561   5.538
 3836SOL     OW12406   1.822   3.579   5.914
 3836SOL    HW112407   1.914   3.550   5.943
 3836SOL    HW212408   1.825   3.607   5.818
 3837SOL     OW12409   4.461   3.615   0.060
 3837SOL    HW112410   4.465   3.537   0.122
 3837SOL    HW212411   4.368   3.625   0.024
 3838SOL     OW12412   5.029   2.765   4.246
 3838SOL    HW112413   5.122   2.793   4.218
 3838SOL    HW212414   5.013   2.794   4.340
 3839SOL     OW12415   5.762   6.801   5.343
 3839SOL    HW112416   5.838   6.737   5.330
 3839SOL    HW212417   5.779   6.858   5.423
 3840SOL     OW12418   1.338   1.107   4.891
 3840SOL    HW112419   1.402   1.144   4.959
 3840SOL    HW212420   1.280   1.181   4.857
 3841SOL     OW12421   0.925   4.342   4.822
 3841SOL    HW112422   0.992   4.378   4.887
 3841SOL    HW212423   0.950   4.249   4.797
 3842SOL     OW12424   0.634   5.347   0.011
 3842SOL    HW112425   0.553   5.381   0.058
 3842SOL    HW212426   0.619   5.252   7.007
 3843SOL     OW12427   6.533   3.169   0.640
 3843SOL    HW112428   6.541   3.199   0.735
 3843SOL    HW212429   6.624   3.167   0.598
 3844SOL     OW12430   1.596   5.548   5.913
 3844SOL    HW112431   1.576   5.592   5.825
 3844SOL    HW212432   1.540   5.467   5.923
 3845SOL     OW12433   3.211   3.027   2.779
 3845SOL    HW112434   3.277   2.953   2.766
 3845SOL    HW212435   3.180   3.059   2.690
 3846SOL     OW12436   6.493   4.519   3.779
 3846SOL    HW112437   6.568   4.552   3.723
 3846SOL    HW212438   6.474   4.424   3.757
 3847SOL     OW12439   6.639   0.929   6.559
 3847SOL    HW112440   6.620   0.843   6.512
 3847SOL    HW212441   6.556   0.984   6.563
 3848SOL     OW12442   2.246   5.274   2.559
 3848SOL    HW112443   2.182   5.207   2.596
 3848SOL    HW212444   2.296   5.234   2.483
 3849SOL     OW12445   0.552   1.532   5.506
 3849SOL    HW112446   0.537   1.534   5.407
 3849SOL    HW212447   0.566   1.437   5.535
 3850SOL     OW12448   3.020   3.971   1.795
 3850SOL    HW112449   3.073   3.890   1.768
 3850SOL    HW212450   2.983   3.956   1.887
 3851SOL     OW12451   2.159   3.728   3.337
 3851SOL    HW112452   2.158   3.733   3.237
 3851SOL    HW212453   2.181   3.818   3.375
 3852SOL     OW12454   4.954   1.204   5.047
 3852SOL    HW112455   4.883   1.217   5.117
 3852SOL    HW212456   4.972   1.107   5.035
 3853SOL     OW12457   0.975   3.207   2.348
 3853SOL    HW112458   1.030   3.291   2.354
 3853SOL    HW212459   1.029   3.130   2.382
 3854SOL     OW12460   1.026   3.459   3.932
 3854SOL    HW112461   0.973   3.405   3.866
 3854SOL    HW212462   0.965   3.515   3.986
 3855SOL     OW12463   6.130   4.782   5.650
 3855SOL    HW112464   6.124   4.721   5.571
 3855SOL    HW212465   6.156   4.728   5.731
 3856SOL     OW12466   6.840   0.450   5.952
 3856SOL    HW112467   6.938   0.471   5.955
 3856SOL    HW212468   6.788   0.531   5.979
 3857SOL     OW12469   0.943   6.396   5.048
 3857SOL    HW112470   0.857   6.366   5.007
 3857SOL    HW212471   0.992   6.317   5.083
 3858SOL     OW12472   0.982   5.860   6.309
 3858SOL    HW112473   0.951   5.824   6.221
 3858SOL    HW212474   1.048   5.796   6.349
 3859SOL     OW12475   6.886   2.840   3.537
 3859SOL    HW112476   6.916   2.749   3.566
 3859SOL    HW212477   6.928   2.862   3.449
 3860SOL     OW12478   2.012   5.794   5.612
 3860SOL    HW112479   2.084   5.763   5.675
 3860SOL    HW212480   1.943   5.722   5.603
 3861SOL     OW12481   5.006   4.602   1.641
 3861SOL    HW112482   5.086   4.561   1.597
 3861SOL    HW212483   4.995   4.565   1.734
 3862SOL     OW12484   0.564   6.983   5.947
 3862SOL    HW112485   0.660   6.981   5.921
 3862SOL    HW212486   0.556   7.000   6.046
 3863SOL     OW12487   3.521   3.606   0.955
 3863SOL    HW112488   3.447   3.673   0.943
 3863SOL    HW212489   3.511   3.561   1.044
 3864SOL     OW12490   3.709   1.978   6.809
 3864SOL    HW112491   3.783   2.035   6.845
 3864SOL    HW212492   3.745   1.887   6.787
 3865SOL     OW12493   4.003   0.256   2.026
 3865SOL    HW112494   4.024   0.350   2.053
 3865SOL    HW212495   3.922   0.224   2.076
 3866SOL     OW12496   4.016   6.849   1.230
 3866SOL    HW112497   4.063   6.834   1.143
 3866SOL    HW212498   3.950   6.774   1.246
 3867SOL     OW12499   1.974   3.541   3.175
 3867SOL    HW112500   1.991   3.583   3.264
 3867SOL    HW212501   2.020   3.453   3.170
 3868SOL     OW12502   2.861   6.679   1.874
 3868SOL    HW112503   2.915   6.645   1.797
 3868SOL    HW212504   2.833   6.773   1.855
 3869SOL     OW12505   0.428   2.533   3.522
 3869SOL    HW112506   0.333   2.527   3.491
 3869SOL    HW212507   0.478   2.452   3.491
 3870SOL     OW12508   3.130   5.452   0.043
 3870SOL    HW112509   3.195   5.413   0.109
 3870SOL    HW212510   3.056   5.497   0.093
 3871SOL     OW12511   3.280   0.118   2.823
 3871SOL    HW112512   3.213   0.089   2.891
 3871SOL    HW212513   3.361   0.156   2.868
 3872SOL     OW12514   4.296   3.987   1.494
 3872SOL    HW112515   4.297   4.054   1.568
 3872SOL    HW212516   4.390   3.959   1.474
 3873SOL     OW12517   5.620   5.113   1.531
 3873SOL    HW112518   5.652   5.041   1.592
 3873SOL    HW212519   5.682   5.192   1.536
 3874SOL     OW12520   3.894   6.620   0.340
 3874SOL    HW112521   3.975   6.570   0.309
 3874SOL    HW212522   3.843   6.655   0.261
 3875SOL     OW12523   1.478   4.584   1.339
 3875SOL    HW112524   1.381   4.563   1.355
 3875SOL    HW212525   1.532   4.546   1.414
 3876SOL     OW12526   5.617   4.657   4.747
 3876SOL    HW112527   5.612   4.564   4.783
 3876SOL    HW212528   5.596   4.722   4.820
 3877SOL     OW12529   6.243   1.255   2.456
 3877SOL    HW112530   6.342   1.244   2.463
 3877SOL    HW212531   6.197   1.173   2.489
 3878SOL     OW12532   4.074   6.625   6.552
 3878SOL    HW112533   4.108   6.677   6.473
 3878SOL    HW212534   4.026   6.544   6.520
 3879SOL     OW12535   4.116   5.556   1.719
 3879SOL    HW112536   4.050   5.626   1.692
 3879SOL    HW212537   4.200   5.600   1.750
 3880SOL     OW12538   5.926   3.202   2.964
 3880SOL    HW112539   5.931   3.146   3.046
 3880SOL    HW212540   5.911   3.143   2.884
 3881SOL     OW12541   0.897   4.524   0.540
 3881SOL    HW112542   0.861   4.567   0.457
 3881SOL    HW212543   0.940   4.594   0.597
 3882SOL     OW12544   6.553   1.647   5.459
 3882SOL    HW112545   6.651   1.633   5.450
 3882SOL    HW212546   6.524   1.718   5.394
 3883SOL     OW12547   4.356   0.991   3.835
 3883SOL    HW112548   4.452   0.967   3.820
 3883SOL    HW212549   4.345   1.090   3.825
 3884SOL     OW12550   1.623   6.390   5.194
 3884SOL    HW112551   1.615   6.321   5.267
 3884SOL    HW212552   1.563   6.364   5.118
 3885SOL     OW12553   6.481   1.074   3.551
 3885SOL    HW112554   6.421   1.154   3.550
 3885SOL    HW212555   6.510   1.054   3.457
 3886SOL     OW12556   6.794   6.909   4.900
 3886SOL    HW112557   6.807   6.846   4.978
 3886SOL    HW212558   6.879   6.912   4.847
 3887SOL     OW12559   4.075   2.007   5.384
 3887SOL    HW112560   4.028   1.924   5.356
 3887SOL    HW212561   4.018   2.087   5.362
 3888SOL     OW12562   6.562   1.543   0.804
 3888SOL    HW112563   6.521   1.465   0.757
 3888SOL    HW212564   6.601   1.512   0.891
 3889SOL     OW12565   0.711   5.859   6.668
 3889SOL    HW112566   0.629   5.811   6.639
 3889SOL    HW212567   0.739   5.826   6.758
 3890SOL     OW12568   5.658   4.715   3.149
 3890SOL    HW112569   5.754   4.743   3.159
 3890SOL    HW212570   5.624   4.744   3.059
 3891SOL     OW12571   5.370   5.213   5.041
 3891SOL    HW112572   5.308   5.148   5.085
 3891SOL    HW212573   5.380   5.189   4.944
 3892SOL     OW12574   5.863   6.842   2.823
 3892SOL    HW112575   5.765   6.842   2.800
 3892SOL    HW212576   5.885   6.925   2.875
 3893SOL     OW12577   3.281   5.747   4.756
 3893SOL    HW112578   3.337   5.685   4.701
 3893SOL    HW212579   3.244   5.819   4.697
 3894SOL     OW12580   4.671   3.838   0.401
 3894SOL    HW112581   4.703   3.814   0.310
 3894SOL    HW212582   4.743   3.819   0.468
 3895SOL     OW12583   2.554   1.380   5.974
 3895SOL    HW112584   2.585   1.288   5.949
 3895SOL    HW212585   2.472   1.403   5.921
 3896SOL     OW12586   6.999   3.105   5.268
 3896SOL    HW112587   0.025   3.021   5.288
 3896SOL    HW212588   6.951   3.136   5.350
 3897SOL     OW12589   3.719   0.468   1.965
 3897SOL    HW112590   3.813   0.499   1.981
 3897SOL    HW212591   3.701   0.466   1.867
 3898SOL     OW12592   3.978   3.255   3.980
 3898SOL    HW112593   4.060   3.301   4.015
 3898SOL    HW212594   3.901   3.275   4.041
 3899SOL     OW12595   4.653   1.927   5.787
 3899SOL    HW112596   4.715   1.872   5.731
 3899SOL    HW212597   4.695   1.944   5.876
 3900SOL     OW12598   6.506   2.674   2.901
 3900SOL    HW112599   6.421   2.724   2.887
 3900SOL    HW212600   6.523   2.664   2.999
 3901SOL     OW12601   1.534   6.896   5.298
 3901SOL    HW112602   1.453   6.893   5.357
 3901SOL    HW212603   1.512   6.943   5.213
 3902SOL     OW12604   4.550   5.319   1.356
 3902SOL    HW112605   4.518   5.288   1.445
 3902SOL    HW212606   4.572   5.417   1.360
 3903SOL     OW12607   4.514   2.688   6.618
 3903SOL    HW112608   4.507   2.596   6.657
 3903SOL    HW212609   4.527   2.682   6.519
 3904SOL     OW12610   1.159   6.337   0.610
 3904SOL    HW112611   1.104   6.274   0.555
 3904SOL    HW212612   1.137   6.324   0.707
 3905SOL     OW12613   6.781   0.615   5.233
 3905SOL    HW112614   6.808   0.709   5.251
 3905SOL    HW212615   6.765   0.568   5.320
 3906SOL     OW12616   2.049   5.027   4.397
 3906SOL    HW112617   2.065   5.078   4.482
 3906SOL    HW212618   1.965   5.060   4.354
 3907SOL     OW12619   6.653   1.107   3.783
 3907SOL    HW112620   6.614   1.165   3.854
 3907SOL    HW212621   6.579   1.069   3.726
 3908SOL     OW12622   1.100   0.364   4.928
 3908SOL    HW112623   1.183   0.313   4.905
 3908SOL    HW212624   1.118   0.426   5.004
 3909SOL     OW12625   5.768   3.238   6.165
 3909SOL    HW112626   5.757   3.202   6.072
 3909SOL    HW212627   5.859   3.217   6.199
 3910SOL     OW12628   3.383   2.202   0.457
 3910SOL    HW112629   3.479   2.182   0.438
 3910SOL    HW212630   3.373   2.227   0.553
 3911SOL     OW12631   6.328   0.977   1.163
 3911SOL    HW112632   6.301   0.903   1.103
 3911SOL    HW212633   6.259   0.988   1.236
 3912SOL     OW12634   4.503   1.429   0.650
 3912SOL    HW112635   4.570   1.489   0.606
 3912SOL    HW212636   4.479   1.355   0.587
 3913SOL     OW12637   4.904   5.418   0.462
 3913SOL    HW112638   4.919   5.517   0.463
 3913SOL    HW212639   4.988   5.372   0.433
 3914SOL     OW12640   5.852   1.117   0.418
 3914SOL    HW112641   5.767   1.168   0.408
 3914SOL    HW212642   5.853   1.041   0.353
 3915SOL     OW12643   4.515   5.275   0.033
 3915SOL    HW112644   4.497   5.341   6.984
 3915SOL    HW212645   4.612   5.251   0.033
 3916SOL     OW12646   1.717   1.084   2.056
 3916SOL    HW112647   1.779   1.010   2.081
 3916SOL    HW212648   1.698   1.140   2.137
 3917SOL     OW12649   2.813   5.588   0.769
 3917SOL    HW112650   2.722   5.562   0.738
 3917SOL    HW212651   2.811   5.606   0.868
 3918SOL     OW12652   5.536   0.459   0.743
 3918SOL    HW112653   5.629   0.428   0.727
 3918SOL    HW212654   5.490   0.472   0.655
 3919SOL     OW12655   3.558   0.416   1.611
 3919SOL    HW112656   3.595   0.327   1.637
 3919SOL    HW212657   3.632   0.475   1.579
 3920SOL     OW12658   3.181   0.999   5.862
 3920SOL    HW112659   3.236   0.919   5.840
 3920SOL    HW212660   3.150   1.043   5.778
 3921SOL     OW12661   0.660   3.009   6.221
 3921SOL    HW112662   0.644   3.106   6.237
 3921SOL    HW212663   0.733   2.999   6.153
 3922SOL     OW12664   5.093   4.801   2.702
 3922SOL    HW112665   5.116   4.882   2.647
 3922SOL    HW212666   5.046   4.734   2.644
 3923SOL     OW12667   5.535   1.212   1.209
 3923SOL    HW112668   5.631   1.208   1.181
 3923SOL    HW212669   5.476   1.186   1.132
 3924SOL     OW12670   5.868   4.543   4.658
 3924SOL    HW112671   5.800   4.609   4.691
 3924SOL    HW212672   5.937   4.591   4.605
 3925SOL     OW12673   4.674   3.703   0.960
 3925SOL    HW112674   4.756   3.667   0.915
 3925SOL    HW212675   4.698   3.736   1.051
 3926SOL     OW12676   0.562   6.853   5.673
 3926SOL    HW112677   0.495   6.796   5.720
 3926SOL    HW212678   0.558   6.946   5.707
 3927SOL     OW12679   5.859   3.235   5.132
 3927SOL    HW112680   5.787   3.179   5.092
 3927SOL    HW212681   5.824   3.327   5.151
 3928SOL     OW12682   2.503   6.285   2.523
 3928SOL    HW112683   2.431   6.279   2.454
 3928SOL    HW212684   2.501   6.203   2.580
 3929SOL     OW12685   0.410   1.904   5.192
 3929SOL    HW112686   0.444   1.881   5.101
 3929SOL    HW212687   0.413   2.003   5.206
 3930SOL     OW12688   0.633   4.163   3.488
 3930SOL    HW112689   0.704   4.205   3.544
 3930SOL    HW212690   0.666   4.076   3.451
 3931SOL     OW12691   1.727   2.219   1.410
 3931SOL    HW112692   1.821   2.187   1.398
 3931SOL    HW212693   1.715   2.253   1.504
 3932SOL     OW12694   2.034   5.555   4.250
 3932SOL    HW112695   2.055   5.470   4.202
 3932SOL    HW212696   2.115   5.585   4.300
 3933SOL     OW12697   1.996   5.360   1.018
 3933SOL    HW112698   1.959   5.267   1.018
 3933SOL    HW212699   1.990   5.398   0.925
 3934SOL     OW12700   0.570   1.313   1.348
 3934SOL    HW112701   0.628   1.262   1.412
 3934SOL    HW212702   0.610   1.310   1.257
 3935SOL     OW12703   5.968   3.615   6.761
 3935SOL    HW112704   5.948   3.660   6.674
 3935SOL    HW212705   5.883   3.581   6.802
 3936SOL     OW12706   0.485   5.396   5.009
 3936SOL    HW112707   0.424   5.438   4.941
 3936SOL    HW212708   0.456   5.424   5.100
 3937SOL     OW12709   6.915   0.326   1.847
 3937SOL    HW112710   6.827   0.331   1.800
 3937SOL    HW212711   6.901   0.297   1.941
 3938SOL     OW12712   0.613   4.583   2.571
 3938SOL    HW112713   0.584   4.489   2.589
 3938SOL    HW212714   0.713   4.589   2.578
 3939SOL     OW12715   1.440   1.121   2.293
 3939SOL    HW112716   1.372   1.055   2.262
 3939SOL    HW212717   1.506   1.076   2.354
 3940SOL     OW12718   3.429   5.444   1.828
 3940SOL    HW112719   3.387   5.449   1.919
 3940SOL    HW212720   3.452   5.536   1.797
 3941SOL     OW12721   5.456   6.622   3.602
 3941SOL    HW112722   5.389   6.622   3.676
 3941SOL    HW212723   5.514   6.540   3.609
 3942SOL     OW12724   6.880   5.836   5.378
 3942SOL    HW112725   6.974   5.844   5.346
 3942SOL    HW212726   6.876   5.776   5.458
 3943SOL     OW12727   1.171   2.643   0.039
 3943SOL    HW112728   1.201   2.713   0.103
 3943SOL    HW212729   1.247   2.616   7.003
 3944SOL     OW12730   5.861   2.214   6.919
 3944SOL    HW112731   5.823   2.208   7.011
 3944SOL    HW212732   5.960   2.200   6.923
 3945SOL     OW12733   6.444   0.371   3.563
 3945SOL    HW112734   6.361   0.338   3.607
 3945SOL    HW212735   6.436   0.469   3.547
 3946SOL     OW12736   1.224   2.906   0.547
 3946SOL    HW112737   1.233   2.807   0.534
 3946SOL    HW212738   1.145   2.924   0.605
 3947SOL     OW12739   5.555   4.977   1.872
 3947SOL    HW112740   5.469   4.926   1.877
 3947SOL    HW212741   5.630   4.915   1.849
 3948SOL     OW12742   1.462   2.711   6.023
 3948SOL    HW112743   1.424   2.619   6.027
 3948SOL    HW212744   1.480   2.736   5.927
 3949SOL     OW12745   6.000   6.383   2.532
 3949SOL    HW112746   6.012   6.321   2.454
 3949SOL    HW212747   6.042   6.471   2.511
 3950SOL     OW12748   3.019   4.499   1.463
 3950SOL    HW112749   2.990   4.446   1.543
 3950SOL    HW212750   3.050   4.437   1.391
 3951SOL     OW12751   0.737   2.590   5.493
 3951SOL    HW112752   0.644   2.558   5.474
 3951SOL    HW212753   0.774   2.540   5.571
 3952SOL     OW12754   6.002   3.821   5.730
 3952SOL    HW112755   6.015   3.919   5.745
 3952SOL    HW212756   5.930   3.787   5.790
 3953SOL     OW12757   3.308   4.041   6.432
 3953SOL    HW112758   3.314   3.994   6.344
 3953SOL    HW212759   3.326   4.139   6.419
 3954SOL     OW12760   0.652   2.985   5.212
 3954SOL    HW112761   0.584   2.966   5.283
 3954SOL    HW212762   0.695   2.900   5.183
 3955SOL     OW12763   6.103   4.707   6.900
 3955SOL    HW112764   6.124   4.629   6.959
 3955SOL    HW212765   6.173   4.716   6.830
 3956SOL     OW12766   1.132   2.582   5.681
 3956SOL    HW112767   1.196   2.529   5.626
 3956SOL    HW212768   1.175   2.668   5.709
 3957SOL     OW12769   1.305   0.712   3.025
 3957SOL    HW112770   1.259   0.754   3.103
 3957SOL    HW212771   1.397   0.682   3.052
 3958SOL     OW12772   5.283   6.342   5.200
 3958SOL    HW112773   5.269   6.438   5.226
 3958SOL    HW212774   5.286   6.335   5.100
 3959SOL     OW12775   2.710   4.924   0.600
 3959SOL    HW112776   2.743   5.017   0.618
 3959SOL    HW212777   2.613   4.928   0.576
 3960SOL     OW12778   4.189   3.215   0.293
 3960SOL    HW112779   4.126   3.266   0.235
 3960SOL    HW212780   4.196   3.121   0.261
 3961SOL     OW12781   5.691   0.824   2.059
 3961SOL    HW112782   5.706   0.886   1.981
 3961SOL    HW212783   5.592   0.809   2.071
 3962SOL     OW12784   0.359   0.335   5.999
 3962SOL    HW112785   0.449   0.302   5.970
 3962SOL    HW212786   0.288   0.282   5.952
 3963SOL     OW12787   5.244   5.880   3.346
 3963SOL    HW112788   5.266   5.854   3.440
 3963SOL    HW212789   5.238   5.798   3.289
 3964SOL     OW12790   5.487   6.119   5.293
 3964SOL    HW112791   5.490   6.127   5.194
 3964SOL    HW212792   5.393   6.111   5.324
 3965SOL     OW12793   3.925   3.677   0.369
 3965SOL    HW112794   3.973   3.647   0.451
 3965SOL    HW212795   3.963   3.764   0.337
 3966SOL     OW12796   5.798   3.885   4.935
 3966SOL    HW112797   5.733   3.810   4.935
 3966SOL    HW212798   5.777   3.948   4.860
 3967SOL     OW12799   0.438   5.835   6.269
 3967SOL    HW112800   0.515   5.835   6.205
 3967SOL    HW212801   0.359   5.791   6.227
 3968SOL     OW12802   6.169   0.458   1.823
 3968SOL    HW112803   6.150   0.389   1.894
 3968SOL    HW212804   6.183   0.546   1.867
 3969SOL     OW12805   0.534   5.233   2.254
 3969SOL    HW112806   0.559   5.283   2.172
 3969SOL    HW212807   0.584   5.146   2.257
 3970SOL     OW12808   5.325   4.488   3.501
 3970SOL    HW112809   5.356   4.549   3.574
 3970SOL    HW212810   5.375   4.509   3.417
 3971SOL     OW12811   1.302   5.688   3.331
 3971SOL    HW112812   1.289   5.764   3.268
 3971SOL    HW212813   1.399   5.663   3.334
 3972SOL     OW12814   1.557   6.681   0.125
 3972SOL    HW112815   1.543   6.689   0.026
 3972SOL    HW212816   1.626   6.747   0.154
 3973SOL     OW12817   3.031   3.861   3.893
 3973SOL    HW112818   3.047   3.766   3.865
 3973SOL    HW212819   3.055   3.922   3.818
 3974SOL     OW12820   6.015   1.727   6.652
 3974SOL    HW112821   5.998   1.781   6.570
 3974SOL    HW212822   5.949   1.652   6.656
 3975SOL     OW12823   0.002   1.268   5.616
 3975SOL    HW112824   7.009   1.224   5.527
 3975SOL    HW212825   0.092   1.310   5.617
 3976SOL     OW12826   1.077   3.057   0.274
 3976SOL    HW112827   1.047   2.995   0.346
 3976SOL    HW212828   1.020   3.139   0.274
 3977SOL     OW12829   3.894   6.009   6.378
 3977SOL    HW112830   3.885   5.987   6.475
 3977SOL    HW212831   3.989   5.994   6.349
 3978SOL     OW12832   5.992   3.490   6.081
 3978SOL    HW112833   6.090   3.471   6.069
 3978SOL    HW212834   5.939   3.435   6.017
 3979SOL     OW12835   0.688   6.714   2.813
 3979SOL    HW112836   0.683   6.644   2.885
 3979SOL    HW212837   0.601   6.717   2.765
 3980SOL     OW12838   5.275   2.892   3.986
 3980SOL    HW112839   5.270   2.992   3.985
 3980SOL    HW212840   5.207   2.855   3.924
 3981SOL     OW12841   6.773   2.446   6.499
 3981SOL    HW112842   6.776   2.354   6.459
 3981SOL    HW212843   6.852   2.459   6.558
 3982SOL     OW12844   2.304   1.710   3.682
 3982SOL    HW112845   2.282   1.635   3.744
 3982SOL    HW212846   2.403   1.717   3.672
 3983SOL     OW12847   3.700   6.344   4.288
 3983SOL    HW112848   3.673   6.415   4.353
 3983SOL    HW212849   3.778   6.376   4.235
 3984SOL     OW12850   1.721   6.755   1.700
 3984SOL    HW112851   1.729   6.718   1.792
 3984SOL    HW212852   1.794   6.822   1.684
 3985SOL     OW12853   1.944   2.779   1.911
 3985SOL    HW112854   1.916   2.841   1.983
 3985SOL    HW212855   2.028   2.813   1.867
 3986SOL     OW12856   0.603   2.425   1.903
 3986SOL    HW112857   0.633   2.367   1.827
 3986SOL    HW212858   0.528   2.484   1.873
 3987SOL     OW12859   3.040   4.565   6.551
 3987SOL    HW112860   2.968   4.627   6.582
 3987SOL    HW212861   2.999   4.478   6.522
 3988SOL     OW12862   3.931   2.822   0.629
 3988SOL    HW112863   4.006   2.815   0.563
 3988SOL    HW212864   3.865   2.890   0.597
 3989SOL     OW12865   5.067   6.818   6.657
 3989SOL    HW112866   5.080   6.767   6.742
 3989SOL    HW212867   5.143   6.801   6.595
 3990SOL     OW12868   0.797   3.451   3.540
 3990SOL    HW112869   0.719   3.394   3.515
 3990SOL    HW212870   0.820   3.510   3.462
 3991SOL     OW12871   0.400   1.891   4.274
 3991SOL    HW112872   0.342   1.958   4.320
 3991SOL    HW212873   0.353   1.855   4.194
 3992SOL     OW12874   4.420   3.618   6.640
 3992SOL    HW112875   4.429   3.706   6.593
 3992SOL    HW212876   4.372   3.554   6.580
 3993SOL     OW12877   2.565   2.495   2.735
 3993SOL    HW112878   2.531   2.562   2.800
 3993SOL    HW212879   2.493   2.471   2.670
 3994SOL     OW12880   2.309   2.880   3.823
 3994SOL    HW112881   2.316   2.784   3.795
 3994SOL    HW212882   2.389   2.904   3.879
 3995SOL     OW12883   2.071   3.660   2.642
 3995SOL    HW112884   2.093   3.679   2.738
 3995SOL    HW212885   2.112   3.573   2.615
 3996SOL     OW12886   6.419   0.637   3.076
 3996SOL    HW112887   6.469   0.551   3.085
 3996SOL    HW212888   6.476   0.713   3.107
 3997SOL     OW12889   5.616   4.072   2.749
 3997SOL    HW112890   5.581   4.001   2.810
 3997SOL    HW212891   5.711   4.091   2.771
 3998SOL     OW12892   6.452   1.823   2.904
 3998SOL    HW112893   6.438   1.790   2.811
 3998SOL    HW212894   6.368   1.867   2.937
 3999SOL     OW12895   5.620   3.074   2.808
 3999SOL    HW112896   5.712   3.037   2.799
 3999SOL    HW212897   5.570   3.060   2.723
 4000SOL     OW12898   2.720   5.922   2.167
 4000SOL    HW112899   2.682   5.999   2.117
 4000SOL    HW212900   2.654   5.891   2.236
 4001SOL     OW12901   2.451   4.234   5.299
 4001SOL    HW112902   2.459   4.315   5.242
 4001SOL    HW212903   2.443   4.153   5.241
 4002SOL     OW12904   3.260   3.247   4.404
 4002SOL    HW112905   3.334   3.188   4.370
 4002SOL    HW212906   3.279   3.342   4.378
 4003SOL     OW12907   2.200   0.879   5.328
 4003SOL    HW112908   2.229   0.861   5.422
 4003SOL    HW212909   2.215   0.976   5.306
 4004SOL     OW12910   0.521   3.728   3.533
 4004SOL    HW112911   0.593   3.792   3.509
 4004SOL    HW212912   0.549   3.674   3.613
 4005SOL     OW12913   4.360   3.560   1.511
 4005SOL    HW112914   4.302   3.639   1.524
 4005SOL    HW212915   4.381   3.548   1.414
 4006SOL     OW12916   4.955   5.318   3.374
 4006SOL    HW112917   5.017   5.239   3.365
 4006SOL    HW212918   5.009   5.402   3.373
 4007SOL     OW12919   0.165   1.538   2.897
 4007SOL    HW112920   0.186   1.507   2.804
 4007SOL    HW212921   0.074   1.580   2.899
 4008SOL     OW12922   2.398   6.906   0.763
 4008SOL    HW112923   2.386   6.956   0.849
 4008SOL    HW212924   2.494   6.881   0.752
 4009SOL     OW12925   4.261   2.048   0.824
 4009SOL    HW112926   4.181   2.063   0.883
 4009SOL    HW212927   4.272   1.949   0.809
 4010SOL     OW12928   2.621   5.135   1.451
 4010SOL    HW112929   2.666   5.046   1.455
 4010SOL    HW212930   2.579   5.156   1.539
 4011SOL     OW12931   6.307   6.174   0.346
 4011SOL    HW112932   6.406   6.190   0.344
 4011SOL    HW212933   6.262   6.234   0.280
 4012SOL     OW12934   3.847   6.441   2.213
 4012SOL    HW112935   3.797   6.383   2.148
 4012SOL    HW212936   3.833   6.537   2.189
 4013SOL     OW12937   1.359   1.198   1.182
 4013SOL    HW112938   1.435   1.154   1.134
 4013SOL    HW212939   1.390   1.227   1.273
 4014SOL     OW12940   2.516   5.445   3.844
 4014SOL    HW112941   2.605   5.476   3.812
 4014SOL    HW212942   2.452   5.443   3.767
 4015SOL     OW12943   4.616   4.978   6.496
 4015SOL    HW112944   4.709   4.950   6.520
 4015SOL    HW212945   4.586   4.927   6.415
 4016SOL     OW12946   3.765   5.869   6.149
 4016SOL    HW112947   3.848   5.911   6.112
 4016SOL    HW212948   3.776   5.854   6.248
 4017SOL     OW12949   0.414   5.462   5.264
 4017SOL    HW112950   0.317   5.467   5.244
 4017SOL    HW212951   0.437   5.526   5.337
 4018SOL     OW12952   3.875   6.074   2.167
 4018SOL    HW112953   3.876   6.134   2.087
 4018SOL    HW212954   3.926   5.991   2.147
 4019SOL     OW12955   5.316   3.340   2.935
 4019SOL    HW112956   5.220   3.359   2.955
 4019SOL    HW212957   5.334   3.359   2.838
 4020SOL     OW12958   6.846   4.118   4.609
 4020SOL    HW112959   6.811   4.195   4.663
 4020SOL    HW212960   6.926   4.079   4.655
 4021SOL     OW12961   3.283   3.562   5.900
 4021SOL    HW112962   3.211   3.531   5.963
 4021SOL    HW212963   3.246   3.630   5.838
 4022SOL     OW12964   2.862   0.017   0.589
 4022SOL    HW112965   2.800   6.962   0.588
 4022SOL    HW212966   2.818   0.094   0.635
 4023SOL     OW12967   0.388   2.146   5.712
 4023SOL    HW112968   0.416   2.057   5.673
 4023SOL    HW212969   0.429   2.220   5.658
 4024SOL     OW12970   0.908   5.018   3.727
 4024SOL    HW112971   0.852   5.084   3.775
 4024SOL    HW212972   1.000   5.016   3.767
 4025SOL     OW12973   1.313   6.128   4.103
 4025SOL    HW112974   1.340   6.172   4.189
 4025SOL    HW212975   1.324   6.193   4.028
 4026SOL     OW12976   6.532   6.300   4.025
 4026SOL    HW112977   6.444   6.346   4.036
 4026SOL    HW212978   6.539   6.263   3.932
 4027SOL     OW12979   2.749   3.027   6.336
 4027SOL    HW112980   2.791   2.938   6.320
 4027SOL    HW212981   2.811   3.099   6.305
 4028SOL     OW12982   4.872   1.723   3.314
 4028SOL    HW112983   4.972   1.728   3.323
 4028SOL    HW212984   4.849   1.667   3.235
 4029SOL     OW12985   3.013   4.010   6.876
 4029SOL    HW112986   3.089   4.074   6.894
 4029SOL    HW212987   2.993   4.011   6.778
 4030SOL     OW12988   6.743   1.081   1.754
 4030SOL    HW112989   6.802   1.097   1.833
 4030SOL    HW212990   6.756   0.987   1.722
 4031SOL     OW12991   5.426   0.069   2.115
 4031SOL    HW112992   5.425   7.005   2.066
 4031SOL    HW212993   5.337   0.113   2.107
 4032SOL     OW12994   6.440   6.768   1.353
 4032SOL    HW112995   6.369   6.769   1.282
 4032SOL    HW212996   6.526   6.736   1.314
 4033SOL     OW12997   3.003   2.072   2.418
 4033SOL    HW112998   3.068   2.091   2.344
 4033SOL    HW212999   2.912   2.100   2.391
 4034SOL     OW13000   6.917   2.760   4.910
 4034SOL    HW113001   6.912   2.812   4.995
 4034SOL    HW213002   6.854   2.800   4.843
 4035SOL     OW13003   6.441   2.440   1.027
 4035SOL    HW113004   6.405   2.370   0.965
 4035SOL    HW213005   6.516   2.402   1.080
 4036SOL     OW13006   3.525   5.122   2.942
 4036SOL    HW113007   3.598   5.102   2.876
 4036SOL    HW213008   3.565   5.147   3.030
 4037SOL     OW13009   3.053   0.569   5.944
 4037SOL    HW113010   3.091   0.553   5.853
 4037SOL    HW213011   2.998   0.653   5.943
 4038SOL     OW13012   3.939   3.558   6.814
 4038SOL    HW113013   3.957   3.493   6.740
 4038SOL    HW213014   3.874   3.518   6.879
 4039SOL     OW13015   5.224   5.514   1.801
 4039SOL    HW113016   5.291   5.576   1.841
 4039SOL    HW213017   5.271   5.437   1.758
 4040SOL     OW13018   3.446   5.306   5.329
 4040SOL    HW113019   3.354   5.271   5.312
 4040SOL    HW213020   3.514   5.238   5.303
 4041SOL     OW13021   2.048   6.655   1.484
 4041SOL    HW113022   2.099   6.675   1.567
 4041SOL    HW213023   1.957   6.695   1.490
 4042SOL     OW13024   6.101   6.784   2.705
 4042SOL    HW113025   6.036   6.839   2.757
 4042SOL    HW213026   6.052   6.716   2.651
 4043SOL     OW13027   6.217   2.695   6.911
 4043SOL    HW113028   6.180   2.614   6.957
 4043SOL    HW213029   6.309   2.714   6.945
 4044SOL     OW13030   4.127   4.769   3.093
 4044SOL    HW113031   4.143   4.860   3.054
 4044SOL    HW213032   4.037   4.736   3.066
 4045SOL     OW13033   5.130   0.063   6.594
 4045SOL    HW113034   5.102   7.004   6.645
 4045SOL    HW213035   5.152   0.038   6.500
 4046SOL     OW13036   0.614   1.227   3.192
 4046SOL    HW113037   0.543   1.283   3.235
 4046SOL    HW213038   0.643   1.270   3.106
 4047SOL     OW13039   1.912   3.054   6.968
 4047SOL    HW113040   1.975   2.998   7.021
 4047SOL    HW213041   1.926   3.038   6.871
 4048SOL     OW13042   5.086   1.160   2.196
 4048SOL    HW113043   5.115   1.070   2.164
 4048SOL    HW213044   5.117   1.230   2.131
 4049SOL     OW13045   3.906   5.787   6.593
 4049SOL    HW113046   4.005   5.802   6.602
 4049SOL    HW213047   3.886   5.756   6.501
 4050SOL     OW13048   1.116   5.589   1.978
 4050SOL    HW113049   1.063   5.522   2.030
 4050SOL    HW213050   1.056   5.665   1.950
 4051SOL     OW13051   5.263   1.383   6.256
 4051SOL    HW113052   5.191   1.329   6.213
 4051SOL    HW213053   5.245   1.390   6.355
 4052SOL     OW13054   6.694   2.234   2.914
 4052SOL    HW113055   6.678   2.158   2.851
 4052SOL    HW213056   6.682   2.321   2.865
 4053SOL     OW13057   1.293   6.175   4.722
 4053SOL    HW113058   1.225   6.230   4.674
 4053SOL    HW213059   1.352   6.129   4.655
 4054SOL     OW13060   4.878   4.016   1.255
 4054SOL    HW113061   4.928   3.930   1.249
 4054SOL    HW213062   4.821   4.016   1.338
 4055SOL     OW13063   1.336   3.875   1.951
 4055SOL    HW113064   1.361   3.914   2.039
 4055SOL    HW213065   1.286   3.942   1.897
 4056SOL     OW13066   5.700   3.678   0.992
 4056SOL    HW113067   5.699   3.741   1.069
 4056SOL    HW213068   5.795   3.652   0.971
 4057SOL     OW13069   6.500   3.153   6.403
 4057SOL    HW113070   6.462   3.154   6.311
 4057SOL    HW213071   6.495   3.060   6.441
 4058SOL     OW13072   2.760   5.926   4.875
 4058SOL    HW113073   2.752   6.011   4.926
 4058SOL    HW213074   2.838   5.931   4.813
 4059SOL     OW13075   0.703   2.891   4.067
 4059SOL    HW113076   0.728   2.961   4.000
 4059SOL    HW213077   0.750   2.805   4.045
 4060SOL     OW13078   6.074   5.722   4.608
 4060SOL    HW113079   6.126   5.645   4.645
 4060SOL    HW213080   5.984   5.725   4.651
 4061SOL     OW13081   2.416   4.875   2.161
 4061SOL    HW113082   2.509   4.859   2.194
 4061SOL    HW213083   2.361   4.916   2.234
 4062SOL     OW13084   2.891   1.427   1.518
 4062SOL    HW113085   2.966   1.474   1.563
 4062SOL    HW213086   2.845   1.490   1.455
 4063SOL     OW13087   5.338   6.688   1.052
 4063SOL    HW113088   5.387   6.717   1.134
 4063SOL    HW213089   5.404   6.658   0.982
 4064SOL     OW13090   2.049   1.880   4.847
 4064SOL    HW113091   2.137   1.907   4.807
 4064SOL    HW213092   2.020   1.793   4.806
 4065SOL     OW13093   1.161   0.208   0.466
 4065SOL    HW113094   1.240   0.147   0.458
 4065SOL    HW213095   1.112   0.211   0.379
 4066SOL     OW13096   6.565   4.276   2.811
 4066SOL    HW113097   6.510   4.343   2.761
 4066SOL    HW213098   6.625   4.228   2.748
 4067SOL     OW13099   6.149   4.454   2.899
 4067SOL    HW113100   6.069   4.436   2.955
 4067SOL    HW213101   6.200   4.532   2.937
 4068SOL     OW13102   1.739   2.489   4.192
 4068SOL    HW113103   1.795   2.407   4.193
 4068SOL    HW213104   1.742   2.531   4.101
 4069SOL     OW13105   3.348   5.800   6.837
 4069SOL    HW113106   3.288   5.795   6.757
 4069SOL    HW213107   3.322   5.731   6.903
 4070SOL     OW13108   1.084   3.305   3.103
 4070SOL    HW113109   1.057   3.373   3.170
 4070SOL    HW213110   1.172   3.266   3.128
 4071SOL     OW13111   1.657   0.501   4.628
 4071SOL    HW113112   1.575   0.447   4.610
 4071SOL    HW213113   1.731   0.470   4.567
 4072SOL     OW13114   1.416   5.233   4.480
 4072SOL    HW113115   1.459   5.143   4.469
 4072SOL    HW213116   1.465   5.300   4.424
 4073SOL     OW13117   2.279   5.041   6.360
 4073SOL    HW113118   2.226   4.957   6.353
 4073SOL    HW213119   2.375   5.022   6.340
 4074SOL     OW13120   1.202   4.510   1.417
 4074SOL    HW113121   1.180   4.598   1.460
 4074SOL    HW213122   1.206   4.439   1.487
 4075SOL     OW13123   5.196   1.664   0.750
 4075SOL    HW113124   5.188   1.763   0.766
 4075SOL    HW213125   5.106   1.627   0.726
 4076SOL     OW13126   3.601   3.646   5.721
 4076SOL    HW113127   3.569   3.558   5.685
 4076SOL    HW213128   3.676   3.630   5.785
 4077SOL     OW13129   4.906   0.797   1.629
 4077SOL    HW113130   4.933   0.872   1.689
 4077SOL    HW213131   4.977   0.780   1.561
 4078SOL     OW13132   2.662   5.133   2.470
 4078SOL    HW113133   2.610   5.170   2.547
 4078SOL    HW213134   2.757   5.118   2.498
 4079SOL     OW13135   1.722   1.986   4.018
 4079SOL    HW113136   1.715   1.886   4.011
 4079SOL    HW213137   1.775   2.010   4.099
 4080SOL     OW13138   4.955   2.347   4.928
 4080SOL    HW113139   4.896   2.275   4.891
 4080SOL    HW213140   5.006   2.389   4.853
 4081SOL     OW13141   1.505   3.005   4.299
 4081SOL    HW113142   1.566   3.027   4.376
 4081SOL    HW213143   1.493   3.086   4.242
 4082SOL     OW13144   1.485   3.099   0.498
 4082SOL    HW113145   1.403   3.147   0.468
 4082SOL    HW213146   1.517   3.138   0.584
 4083SOL     OW13147   5.944   3.109   3.499
 4083SOL    HW113148   6.018   3.049   3.531
 4083SOL    HW213149   5.983   3.182   3.444
 4084SOL     OW13150   6.181   1.844   3.970
 4084SOL    HW113151   6.211   1.934   4.000
 4084SOL    HW213152   6.130   1.799   4.044
 4085SOL     OW13153   4.056   6.078   0.650
 4085SOL    HW113154   3.975   6.020   0.657
 4085SOL    HW213155   4.039   6.165   0.696
 4086SOL     OW13156   1.938   5.988   1.498
 4086SOL    HW113157   2.029   6.009   1.534
 4086SOL    HW213158   1.911   5.896   1.528
 4087SOL     OW13159   2.562   2.503   3.269
 4087SOL    HW113160   2.549   2.602   3.266
 4087SOL    HW213161   2.513   2.461   3.192
 4088SOL     OW13162   6.696   1.744   0.596
 4088SOL    HW113163   6.681   1.840   0.574
 4088SOL    HW213164   6.657   1.723   0.686
 4089SOL     OW13165   6.815   6.433   2.929
 4089SOL    HW113166   6.772   6.344   2.944
 4089SOL    HW213167   6.772   6.502   2.988
 4090SOL     OW13168   2.510   3.938   5.862
 4090SOL    HW113169   2.528   4.022   5.809
 4090SOL    HW213170   2.487   3.864   5.799
 4091SOL     OW13171   6.047   6.634   0.022
 4091SOL    HW113172   6.007   6.617   0.113
 4091SOL    HW213173   6.146   6.641   0.031
 4092SOL     OW13174   6.844   2.938   5.116
 4092SOL    HW113175   6.912   2.980   5.175
 4092SOL    HW213176   6.762   2.916   5.169
 4093SOL     OW13177   4.750   0.240   3.832
 4093SOL    HW113178   4.746   0.339   3.832
 4093SOL    HW213179   4.772   0.207   3.740
 4094SOL     OW13180   2.440   5.236   5.133
 4094SOL    HW113181   2.413   5.332   5.133
 4094SOL    HW213182   2.384   5.186   5.067
 4095SOL     OW13183   0.834   3.951   6.369
 4095SOL    HW113184   0.801   3.947   6.463
 4095SOL    HW213185   0.927   3.914   6.364
 4096SOL     OW13186   4.774   5.924   0.476
 4096SOL    HW113187   4.848   5.946   0.541
 4096SOL    HW213188   4.758   5.826   0.476
 4097SOL     OW13189   3.563   4.085   5.831
 4097SOL    HW113190   3.626   4.007   5.826
 4097SOL    HW213191   3.574   4.130   5.919
 4098SOL     OW13192   0.403   2.975   2.621
 4098SOL    HW113193   0.311   3.012   2.633
 4098SOL    HW213194   0.468   3.050   2.604
 4099SOL     OW13195   2.925   4.893   1.074
 4099SOL    HW113196   3.000   4.958   1.082
 4099SOL    HW213197   2.914   4.845   1.161
 4100SOL     OW13198   5.721   5.907   4.355
 4100SOL    HW113199   5.817   5.899   4.325
 4100SOL    HW213200   5.702   5.835   4.423
 4101SOL     OW13201   5.914   0.711   6.871
 4101SOL    HW113202   5.994   0.690   6.927
 4101SOL    HW213203   5.837   0.732   6.931
 4102SOL     OW13204   7.011   0.631   1.324
 4102SOL    HW113205   6.975   0.539   1.338
 4102SOL    HW213206   6.957   0.697   1.378
 4103SOL     OW13207   0.866   0.699   1.931
 4103SOL    HW113208   0.894   0.648   1.850
 4103SOL    HW213209   0.775   0.738   1.916
 4104SOL     OW13210   1.239   4.608   2.381
 4104SOL    HW113211   1.227   4.546   2.304
 4104SOL    HW213212   1.250   4.555   2.465
 4105SOL     OW13213   4.088   5.355   0.935
 4105SOL    HW113214   4.055   5.290   1.003
 4105SOL    HW213215   4.098   5.445   0.977
 4106SOL     OW13216   0.341   3.401   4.839
 4106SOL    HW113217   0.255   3.359   4.810
 4106SOL    HW213218   0.330   3.440   4.930
 4107SOL     OW13219   0.919   6.531   0.937
 4107SOL    HW113220   1.019   6.537   0.937
 4107SOL    HW213221   0.889   6.479   0.857
 4108SOL     OW13222   0.313   4.731   6.156
 4108SOL    HW113223   0.363   4.816   6.173
 4108SOL    HW213224   0.330   4.667   6.231
 4109SOL     OW13225   4.572   6.405   4.905
 4109SOL    HW113226   4.637   6.414   4.830
 4109SOL    HW213227   4.620   6.373   4.987
 4110SOL     OW13228   4.213   3.669   6.848
 4110SOL    HW113229   4.144   3.598   6.860
 4110SOL    HW213230   4.290   3.634   6.795
 4111SOL     OW13231   3.281   2.748   6.981
 4111SOL    HW113232   3.344   2.701   0.019
 4111SOL    HW213233   3.222   2.809   0.011
 4112SOL     OW13234   5.033   1.835   5.770
 4112SOL    HW113235   5.120   1.801   5.736
 4112SOL    HW213236   5.035   1.935   5.776
 4113SOL     OW13237   4.308   5.877   4.788
 4113SOL    HW113238   4.388   5.906   4.840
 4113SOL    HW213239   4.257   5.810   4.840
 4114SOL     OW13240   3.562   2.056   3.982
 4114SOL    HW113241   3.510   2.076   3.899
 4114SOL    HW213242   3.605   1.966   3.974
 4115SOL     OW13243   4.913   5.987   2.135
 4115SOL    HW113244   4.869   5.938   2.060
 4115SOL    HW213245   4.881   5.950   2.223
 4116SOL     OW13246   4.182   2.447   1.781
 4116SOL    HW113247   4.162   2.374   1.847
 4116SOL    HW213248   4.280   2.464   1.778
 4117SOL     OW13249   0.775   4.856   1.492
 4117SOL    HW113250   0.832   4.819   1.420
 4117SOL    HW213251   0.759   4.954   1.475
 4118SOL     OW13252   1.438   6.501   0.715
 4118SOL    HW113253   1.500   6.423   0.724
 4118SOL    HW213254   1.439   6.533   0.621
 4119SOL     OW13255   3.930   1.420   3.468
 4119SOL    HW113256   3.922   1.495   3.534
 4119SOL    HW213257   4.022   1.381   3.474
 4120SOL     OW13258   4.560   6.501   1.518
 4120SOL    HW113259   4.512   6.482   1.604
 4120SOL    HW213260   4.517   6.579   1.473
 4121SOL     OW13261   6.579   1.548   4.865
 4121SOL    HW113262   6.608   1.585   4.954
 4121SOL    HW213263   6.546   1.455   4.878
 4122SOL     OW13264   0.921   6.170   5.512
 4122SOL    HW113265   0.869   6.085   5.514
 4122SOL    HW213266   0.894   6.224   5.432
 4123SOL     OW13267   4.909   4.956   5.545
 4123SOL    HW113268   4.990   5.010   5.521
 4123SOL    HW213269   4.857   4.936   5.462
 4124SOL     OW13270   6.202   5.556   5.095
 4124SOL    HW113271   6.282   5.561   5.036
 4124SOL    HW213272   6.162   5.465   5.091
 4125SOL     OW13273   4.659   0.520   1.886
 4125SOL    HW113274   4.710   0.467   1.818
 4125SOL    HW213275   4.644   0.465   1.968
 4126SOL     OW13276   1.195   4.687   3.753
 4126SOL    HW113277   1.263   4.736   3.698
 4126SOL    HW213278   1.238   4.655   3.837
 4127SOL     OW13279   5.371   3.965   4.209
 4127SOL    HW113280   5.292   3.904   4.218
 4127SOL    HW213281   5.357   4.046   4.265
 4128SOL     OW13282   1.899   3.785   2.420
 4128SOL    HW113283   1.899   3.743   2.330
 4128SOL    HW213284   1.931   3.719   2.488
 4129SOL     OW13285   5.354   1.850   6.234
 4129SOL    HW113286   5.286   1.790   6.278
 4129SOL    HW213287   5.368   1.931   6.290
 4130SOL     OW13288   0.127   3.848   5.916
 4130SOL    HW113289   0.214   3.800   5.908
 4130SOL    HW213290   0.144   3.943   5.942
 4131SOL     OW13291   0.861   5.872   3.552
 4131SOL    HW113292   0.876   5.780   3.586
 4131SOL    HW213293   0.943   5.905   3.506
 4132SOL     OW13294   5.713   4.136   3.834
 4132SOL    HW113295   5.616   4.160   3.845
 4132SOL    HW213296   5.720   4.050   3.783
 4133SOL     OW13297   3.017   6.578   1.679
 4133SOL    HW113298   2.979   6.492   1.645
 4133SOL    HW213299   3.006   6.649   1.609
 4134SOL     OW13300   1.435   2.320   0.673
 4134SOL    HW113301   1.463   2.243   0.616
 4134SOL    HW213302   1.380   2.384   0.618
 4135SOL     OW13303   2.050   0.615   2.663
 4135SOL    HW113304   2.083   0.633   2.570
 4135SOL    HW213305   1.986   0.688   2.690
 4136SOL     OW13306   0.754   2.018   4.120
 4136SOL    HW113307   0.678   2.015   4.055
 4136SOL    HW213308   0.735   2.085   4.191
 4137SOL     OW13309   2.236   3.682   1.332
 4137SOL    HW113310   2.327   3.719   1.315
 4137SOL    HW213311   2.203   3.634   1.250
 4138SOL     OW13312   3.669   4.872   4.352
 4138SOL    HW113313   3.738   4.943   4.370
 4138SOL    HW213314   3.715   4.784   4.337
 4139SOL     OW13315   2.123   2.159   6.101
 4139SOL    HW113316   2.181   2.097   6.154
 4139SOL    HW213317   2.175   2.198   6.025
 4140SOL     OW13318   3.524   0.507   5.246
 4140SOL    HW113319   3.615   0.494   5.285
 4140SOL    HW213320   3.517   0.455   5.161
 4141SOL     OW13321   5.214   5.669   0.992
 4141SOL    HW113322   5.242   5.584   1.038
 4141SOL    HW213323   5.155   5.649   0.915
 4142SOL     OW13324   6.577   5.480   0.868
 4142SOL    HW113325   6.608   5.477   0.963
 4142SOL    HW213326   6.571   5.576   0.838
 4143SOL     OW13327   6.852   3.509   0.908
 4143SOL    HW113328   6.885   3.478   0.819
 4143SOL    HW213329   6.861   3.608   0.914
 4144SOL     OW13330   5.766   2.322   0.853
 4144SOL    HW113331   5.754   2.231   0.814
 4144SOL    HW213332   5.682   2.374   0.844
 4145SOL     OW13333   6.985   5.866   1.718
 4145SOL    HW113334   6.942   5.932   1.657
 4145SOL    HW213335   0.004   5.793   1.664
 4146SOL     OW13336   6.020   0.693   5.515
 4146SOL    HW113337   6.111   0.717   5.550
 4146SOL    HW213338   6.002   0.596   5.531
 4147SOL     OW13339   3.586   1.807   5.184
 4147SOL    HW113340   3.576   1.773   5.278
 4147SOL    HW213341   3.495   1.829   5.147
 4148SOL     OW13342   0.391   6.887   3.702
 4148SOL    HW113343   0.328   6.812   3.722
 4148SOL    HW213344   0.364   6.968   3.754
 4149SOL     OW13345   0.408   3.506   0.455
 4149SOL    HW113346   0.401   3.459   0.543
 4149SOL    HW213347   0.485   3.570   0.457
 4150SOL     OW13348   6.033   0.621   5.917
 4150SOL    HW113349   6.081   0.707   5.933
 4150SOL    HW213350   5.974   0.601   5.996
 4151SOL     OW13351   5.463   6.039   6.905
 4151SOL    HW113352   5.454   6.015   6.808
 4151SOL    HW213353   5.372   6.044   6.946
 4152SOL     OW13354   3.091   4.905   1.501
 4152SOL    HW113355   3.036   4.977   1.542
 4152SOL    HW213356   3.187   4.932   1.502
 4153SOL     OW13357   5.364   5.638   6.234
 4153SOL    HW113358   5.345   5.576   6.157
 4153SOL    HW213359   5.278   5.670   6.273
 4154SOL     OW13360   6.590   3.968   5.444
 4154SOL    HW113361   6.682   3.964   5.483
 4154SOL    HW213362   6.595   3.970   5.344
 4155SOL     OW13363   0.237   3.235   3.177
 4155SOL    HW113364   0.270   3.144   3.202
 4155SOL    HW213365   0.178   3.270   3.249
 4156SOL     OW13366   5.712   6.928   5.014
 4156SOL    HW113367   5.797   6.884   4.985
 4156SOL    HW213368   5.656   6.861   5.063
 4157SOL     OW13369   3.596   0.292   3.802
 4157SOL    HW113370   3.500   0.298   3.774
 4157SOL    HW213371   3.655   0.317   3.725
 4158SOL     OW13372   1.423   5.370   3.960
 4158SOL    HW113373   1.425   5.469   3.948
 4158SOL    HW213374   1.509   5.330   3.930
 4159SOL     OW13375   1.690   3.196   4.175
 4159SOL    HW113376   1.646   3.201   4.086
 4159SOL    HW213377   1.643   3.256   4.239
 4160SOL     OW13378   6.086   0.461   0.880
 4160SOL    HW113379   6.002   0.509   0.853
 4160SOL    HW213380   6.068   0.405   0.961
 4161SOL     OW13381   1.968   0.110   6.430
 4161SOL    HW113382   2.049   0.053   6.445
 4161SOL    HW213383   1.887   0.052   6.424
 4162SOL     OW13384   6.156   0.413   4.949
 4162SOL    HW113385   6.248   0.446   4.966
 4162SOL    HW213386   6.089   0.481   4.979
 4163SOL     OW13387   6.171   1.599   3.207
 4163SOL    HW113388   6.226   1.537   3.150
 4163SOL    HW213389   6.207   1.692   3.199
 4164SOL     OW13390   1.665   0.271   6.864
 4164SOL    HW113391   1.661   0.208   6.787
 4164SOL    HW213392   1.725   0.234   6.935
 4165SOL     OW13393   4.622   6.813   0.889
 4165SOL    HW113394   4.551   6.773   0.831
 4165SOL    HW213395   4.586   6.894   0.935
 4166SOL     OW13396   4.986   2.425   1.548
 4166SOL    HW113397   5.070   2.470   1.521
 4166SOL    HW213398   4.944   2.475   1.624
 4167SOL     OW13399   2.436   3.342   1.244
 4167SOL    HW113400   2.484   3.326   1.331
 4167SOL    HW213401   2.480   3.418   1.195
 4168SOL     OW13402   0.291   4.743   1.224
 4168SOL    HW113403   0.206   4.721   1.273
 4168SOL    HW213404   0.338   4.659   1.199
 4169SOL     OW13405   5.138   3.909   4.502
 4169SOL    HW113406   5.139   3.925   4.403
 4169SOL    HW213407   5.064   3.846   4.525
 4170SOL     OW13408   3.826   2.933   4.774
 4170SOL    HW113409   3.903   2.869   4.770
 4170SOL    HW213410   3.744   2.884   4.804
 4171SOL     OW13411   5.451   4.014   1.042
 4171SOL    HW113412   5.499   3.959   1.111
 4171SOL    HW213413   5.515   4.079   1.002
 4172SOL     OW13414   6.986   2.523   6.677
 4172SOL    HW113415   6.943   2.588   6.739
 4172SOL    HW213416   0.015   2.455   6.729
 4173SOL     OW13417   5.497   3.364   5.218
 4173SOL    HW113418   5.532   3.455   5.239
 4173SOL    HW213419   5.401   3.357   5.246
 4174SOL     OW13420   4.948   0.855   4.046
 4174SOL    HW113421   5.015   0.784   4.069
 4174SOL    HW213422   4.890   0.873   4.125
 4175SOL     OW13423   3.261   6.743   4.555
 4175SOL    HW113424   3.274   6.786   4.465
 4175SOL    HW213425   3.219   6.653   4.543
 4176SOL     OW13426   3.794   0.143   2.171
 4176SOL    HW113427   3.816   0.143   2.268
 4176SOL    HW213428   3.706   0.187   2.156
 4177SOL     OW13429   0.283   5.019   4.989
 4177SOL    HW113430   0.360   5.061   4.941
 4177SOL    HW213431   0.303   4.923   5.007
 4178SOL     OW13432   3.870   1.042   5.112
 4178SOL    HW113433   3.809   1.120   5.101
 4178SOL    HW213434   3.916   1.048   5.201
 4179SOL     OW13435   5.532   3.648   3.963
 4179SOL    HW113436   5.506   3.571   4.021
 4179SOL    HW213437   5.578   3.614   3.881
 4180SOL     OW13438   5.239   4.528   1.897
 4180SOL    HW113439   5.145   4.500   1.876
 4180SOL    HW213440   5.253   4.528   1.996
 4181SOL     OW13441   1.598   2.014   6.238
 4181SOL    HW113442   1.694   2.033   6.217
 4181SOL    HW213443   1.592   1.944   6.309
 4182SOL     OW13444   0.053   0.810   2.601
 4182SOL    HW113445   0.012   0.725   2.634
 4182SOL    HW213446   0.134   0.789   2.546
 4183SOL     OW13447   2.588   1.373   1.940
 4183SOL    HW113448   2.548   1.463   1.957
 4183SOL    HW213449   2.572   1.346   1.845
 4184SOL     OW13450   3.694   5.094   1.320
 4184SOL    HW113451   3.736   5.180   1.289
 4184SOL    HW213452   3.660   5.106   1.413
 4185SOL     OW13453   0.295   5.507   3.081
 4185SOL    HW113454   0.351   5.585   3.051
 4185SOL    HW213455   0.325   5.476   3.171
 4186SOL     OW13456   1.999   4.071   7.019
 4186SOL    HW113457   1.902   4.089   7.006
 4186SOL    HW213458   2.026   3.993   6.963
 4187SOL     OW13459   3.817   3.231   5.884
 4187SOL    HW113460   3.878   3.230   5.805
 4187SOL    HW213461   3.730   3.188   5.860
 4188SOL     OW13462   4.626   0.977   4.415
 4188SOL    HW113463   4.632   0.922   4.332
 4188SOL    HW213464   4.532   0.978   4.448
 4189SOL     OW13465   2.873   1.812   4.031
 4189SOL    HW113466   2.925   1.789   4.113
 4189SOL    HW213467   2.784   1.766   4.034
 4190SOL     OW13468   3.038   0.103   6.180
 4190SOL    HW113469   2.989   0.033   6.232
 4190SOL    HW213470   2.990   0.190   6.188
 4191SOL     OW13471   5.836   3.372   3.151
 4191SOL    HW113472   5.754   3.326   3.187
 4191SOL    HW213473   5.858   3.335   3.061
 4192SOL     OW13474   6.708   1.922   2.983
 4192SOL    HW113475   6.676   1.971   3.064
 4192SOL    HW213476   6.635   1.864   2.947
 4193SOL     OW13477   2.358   6.547   1.944
 4193SOL    HW113478   2.449   6.587   1.956
 4193SOL    HW213479   2.292   6.596   2.001
 4194SOL     OW13480   6.699   1.873   4.483
 4194SOL    HW113481   6.796   1.872   4.504
 4194SOL    HW213482   6.648   1.823   4.554
 4195SOL     OW13483   4.116   0.690   1.218
 4195SOL    HW113484   4.084   0.732   1.302
 4195SOL    HW213485   4.210   0.719   1.199
 4196SOL     OW13486   5.761   2.828   4.151
 4196SOL    HW113487   5.788   2.819   4.247
 4196SOL    HW213488   5.699   2.753   4.127
 4197SOL     OW13489   5.257   4.332   3.996
 4197SOL    HW113490   5.171   4.293   4.028
 4197SOL    HW213491   5.306   4.374   4.073
 4198SOL     OW13492   6.395   3.772   6.745
 4198SOL    HW113493   6.392   3.867   6.774
 4198SOL    HW213494   6.329   3.719   6.799
 4199SOL     OW13495   3.014   3.234   5.338
 4199SOL    HW113496   2.946   3.308   5.340
 4199SOL    HW213497   3.105   3.273   5.330
 4200SOL     OW13498   2.564   6.548   6.548
 4200SOL    HW113499   2.602   6.640   6.538
 4200SOL    HW213500   2.639   6.482   6.558
 4201SOL     OW13501   6.291   6.508   3.321
 4201SOL    HW113502   6.373   6.510   3.378
 4201SOL    HW213503   6.297   6.580   3.252
 4202SOL     OW13504   4.948   4.685   6.074
 4202SOL    HW113505   4.901   4.699   5.987
 4202SOL    HW213506   4.885   4.702   6.149
 4203SOL     OW13507   4.380   5.935   3.128
 4203SOL    HW113508   4.477   5.916   3.140
 4203SOL    HW213509   4.354   5.917   3.033
 4204SOL     OW13510   3.267   2.985   1.851
 4204SOL    HW113511   3.339   3.054   1.840
 4204SOL    HW213512   3.309   2.897   1.874
 4205SOL     OW13513   3.420   4.951   4.206
 4205SOL    HW113514   3.368   4.948   4.291
 4205SOL    HW213515   3.505   4.900   4.217
 4206SOL     OW13516   4.742   0.987   5.958
 4206SOL    HW113517   4.811   1.055   5.934
 4206SOL    HW213518   4.744   0.912   5.892
 4207SOL     OW13519   1.560   1.075   1.631
 4207SOL    HW113520   1.493   1.093   1.558
 4207SOL    HW213521   1.556   1.149   1.698
 4208SOL     OW13522   1.732   2.504   0.942
 4208SOL    HW113523   1.770   2.412   0.957
 4208SOL    HW213524   1.632   2.499   0.943
 4209SOL     OW13525   1.524   0.796   5.026
 4209SOL    HW113526   1.465   0.782   5.105
 4209SOL    HW213527   1.556   0.891   5.024
 4210SOL     OW13528   3.500   3.433   1.685
 4210SOL    HW113529   3.445   3.476   1.614
 4210SOL    HW213530   3.454   3.351   1.719
 4211SOL     OW13531   4.628   5.123   5.187
 4211SOL    HW113532   4.720   5.160   5.196
 4211SOL    HW213533   4.631   5.040   5.132
 4212SOL     OW13534   6.441   1.551   2.182
 4212SOL    HW113535   6.384   1.519   2.257
 4212SOL    HW213536   6.521   1.598   2.218
 4213SOL     OW13537   2.230   0.980   2.610
 4213SOL    HW113538   2.300   1.050   2.597
 4213SOL    HW213539   2.245   0.934   2.697
 4214SOL     OW13540   0.547   3.526   6.362
 4214SOL    HW113541   0.608   3.582   6.306
 4214SOL    HW213542   0.584   3.521   6.455
 4215SOL     OW13543   0.568   5.629   4.351
 4215SOL    HW113544   0.537   5.681   4.271
 4215SOL    HW213545   0.666   5.644   4.365
 4216SOL     OW13546   1.161   2.072   3.992
 4216SOL    HW113547   1.229   1.999   3.990
 4216SOL    HW213548   1.207   2.160   3.994
 4217SOL     OW13549   0.062   6.874   2.443
 4217SOL    HW113550   0.019   6.802   2.389
 4217SOL    HW213551   0.160   6.859   2.448
 4218SOL     OW13552   4.886   0.195   1.697
 4218SOL    HW113553   4.938   0.122   1.742
 4218SOL    HW213554   4.790   0.188   1.723
 4219SOL     OW13555   3.470   4.754   5.230
 4219SOL    HW113556   3.520   4.678   5.271
 4219SOL    HW213557   3.390   4.775   5.287
 4220SOL     OW13558   6.607   3.765   3.219
 4220SOL    HW113559   6.633   3.861   3.210
 4220SOL    HW213560   6.510   3.758   3.242
 4221SOL     OW13561   5.220   6.032   6.533
 4221SOL    HW113562   5.231   6.114   6.590
 4221SOL    HW213563   5.281   5.960   6.565
 4222SOL     OW13564   6.133   2.182   2.223
 4222SOL    HW113565   6.206   2.227   2.172
 4222SOL    HW213566   6.161   2.172   2.319
 4223SOL     OW13567   3.324   3.609   2.878
 4223SOL    HW113568   3.237   3.566   2.851
 4223SOL    HW213569   3.393   3.590   2.808
 4224SOL     OW13570   4.734   2.827   4.507
 4224SOL    HW113571   4.728   2.839   4.606
 4224SOL    HW213572   4.667   2.759   4.478
 4225SOL     OW13573   5.747   0.989   5.154
 4225SOL    HW113574   5.708   0.927   5.087
 4225SOL    HW213575   5.771   0.939   5.237
 4226SOL     OW13576   1.584   0.895   3.886
 4226SOL    HW113577   1.549   0.860   3.973
 4226SOL    HW213578   1.657   0.961   3.905
 4227SOL     OW13579   4.092   4.828   0.175
 4227SOL    HW113580   4.099   4.751   0.112
 4227SOL    HW213581   4.066   4.794   0.266
 4228SOL     OW13582   5.524   6.349   4.020
 4228SOL    HW113583   5.622   6.338   4.034
 4228SOL    HW213584   5.483   6.392   4.100
 4229SOL     OW13585   4.037   4.766   6.467
 4229SOL    HW113586   4.106   4.696   6.487
 4229SOL    HW213587   3.974   4.732   6.397
 4230SOL     OW13588   2.806   7.017   5.166
 4230SOL    HW113589   2.718   6.981   5.194
 4230SOL    HW213590   2.849   0.043   5.242
 4231SOL     OW13591   4.941   6.310   5.415
 4231SOL    HW113592   4.924   6.371   5.493
 4231SOL    HW213593   4.934   6.215   5.446
 4232SOL     OW13594   1.398   5.624   1.600
 4232SOL    HW113595   1.468   5.553   1.607
 4232SOL    HW213596   1.311   5.588   1.631
 4233SOL     OW13597   6.082   0.475   6.548
 4233SOL    HW113598   6.113   0.405   6.611
 4233SOL    HW213599   6.089   0.441   6.454
 4234SOL     OW13600   2.474   5.053   6.157
 4234SOL    HW113601   2.410   5.016   6.091
 4234SOL    HW213602   2.517   5.135   6.120
 4235SOL     OW13603   6.468   4.604   5.760
 4235SOL    HW113604   6.405   4.677   5.788
 4235SOL    HW213605   6.474   4.536   5.832
 4236SOL     OW13606   0.451   2.234   3.683
 4236SOL    HW113607   0.543   2.197   3.692
 4236SOL    HW213608   0.434   2.300   3.756
 4237SOL     OW13609   6.036   4.084   4.698
 4237SOL    HW113610   6.071   4.002   4.743
 4237SOL    HW213611   6.086   4.099   4.612
 4238SOL     OW13612   3.925   5.210   3.786
 4238SOL    HW113613   3.937   5.304   3.817
 4238SOL    HW213614   4.014   5.171   3.760
 4239SOL     OW13615   4.499   7.005   4.979
 4239SOL    HW113616   4.539   6.989   4.889
 4239SOL    HW213617   4.526   0.072   5.012
 4240SOL     OW13618   2.928   5.557   6.752
 4240SOL    HW113619   2.925   5.592   6.845
 4240SOL    HW213620   2.852   5.595   6.699
 4241SOL     OW13621   5.102   0.321   1.457
 4241SOL    HW113622   5.013   0.278   1.475
 4241SOL    HW213623   5.114   0.400   1.517
 4242SOL     OW13624   2.417   0.056   2.843
 4242SOL    HW113625   2.398   7.003   2.782
 4242SOL    HW213626   2.453   0.021   2.930
 4243SOL     OW13627   0.715   3.361   2.389
 4243SOL    HW113628   0.795   3.302   2.390
 4243SOL    HW213629   0.742   3.456   2.374
 4244SOL     OW13630   4.866   5.937   1.178
 4244SOL    HW113631   4.802   5.955   1.103
 4244SOL    HW213632   4.830   5.864   1.236
 4245SOL     OW13633   6.386   3.150   0.117
 4245SOL    HW113634   6.373   3.218   0.188
 4245SOL    HW213635   6.316   3.161   0.047
 4246SOL     OW13636   5.438   2.391   2.769
 4246SOL    HW113637   5.364   2.339   2.812
 4246SOL    HW213638   5.400   2.472   2.725
 4247SOL     OW13639   2.182   5.352   4.882
 4247SOL    HW113640   2.216   5.271   4.931
 4247SOL    HW213641   2.111   5.396   4.937
 4248SOL     OW13642   1.851   0.822   2.654
 4248SOL    HW113643   1.753   0.815   2.669
 4248SOL    HW213644   1.883   0.911   2.686
 4249SOL     OW13645   0.132   1.021   4.381
 4249SOL    HW113646   0.059   1.080   4.346
 4249SOL    HW213647   0.216   1.074   4.389
 4250SOL     OW13648   0.591   5.653   3.901
 4250SOL    HW113649   0.636   5.564   3.916
 4250SOL    HW213650   0.563   5.659   3.805
 4251SOL     OW13651   5.958   2.689   6.849
 4251SOL    HW113652   6.058   2.692   6.850
 4251SOL    HW213653   5.921   2.774   6.887
 4252SOL     OW13654   6.225   6.374   5.510
 4252SOL    HW113655   6.227   6.464   5.467
 4252SOL    HW213656   6.137   6.362   5.557
 4253SOL     OW13657   3.721   5.898   2.328
 4253SOL    HW113658   3.775   5.824   2.369
 4253SOL    HW213659   3.782   5.958   2.276
 4254SOL     OW13660   2.402   3.056   0.131
 4254SOL    HW113661   2.350   2.988   0.183
 4254SOL    HW213662   2.499   3.047   0.153
 4255SOL     OW13663   0.958   4.628   2.890
 4255SOL    HW113664   0.861   4.628   2.915
 4255SOL    HW213665   0.975   4.701   2.823
 4256SOL     OW13666   0.887   4.548   1.686
 4256SOL    HW113667   0.976   4.581   1.718
 4256SOL    HW213668   0.874   4.454   1.716
 4257SOL     OW13669   6.054   1.643   5.071
 4257SOL    HW113670   5.977   1.681   5.019
 4257SOL    HW213671   6.121   1.604   5.008
 4258SOL     OW13672   3.013   5.768   0.696
 4258SOL    HW113673   2.934   5.709   0.710
 4258SOL    HW213674   3.093   5.712   0.672
 4259SOL     OW13675   1.663   6.643   1.215
 4259SOL    HW113676   1.700   6.562   1.259
 4259SOL    HW213677   1.606   6.616   1.137
 4260SOL     OW13678   4.858   6.965   4.827
 4260SOL    HW113679   4.877   7.006   4.916
 4260SOL    HW213680   4.903   7.018   4.755
 4261SOL     OW13681   2.567   6.945   4.899
 4261SOL    HW113682   2.548   6.901   4.811
 4261SOL    HW213683   2.647   7.005   4.889
 4262SOL     OW13684   1.252   4.884   6.360
 4262SOL    HW113685   1.181   4.829   6.405
 4262SOL    HW213686   1.220   4.978   6.349
 4263SOL     OW13687   2.744   2.305   3.403
 4263SOL    HW113688   2.734   2.219   3.352
 4263SOL    HW213689   2.668   2.366   3.379
 4264SOL     OW13690   5.444   1.194   4.419
 4264SOL    HW113691   5.486   1.284   4.432
 4264SOL    HW213692   5.405   1.163   4.506
 4265SOL     OW13693   2.651   0.100   1.044
 4265SOL    HW113694   2.671   0.184   1.093
 4265SOL    HW213695   2.684   0.022   1.096
 4266SOL     OW13696   1.038   0.203   0.232
 4266SOL    HW113697   1.049   0.296   0.198
 4266SOL    HW213698   1.085   0.140   0.170
 4267SOL     OW13699   2.194   4.002   4.020
 4267SOL    HW113700   2.169   4.094   3.987
 4267SOL    HW213701   2.203   3.941   3.941
 4268SOL     OW13702   1.437   5.075   6.439
 4268SOL    HW113703   1.364   5.064   6.506
 4268SOL    HW213704   1.441   4.993   6.381
 4269SOL     OW13705   3.044   1.793   4.255
 4269SOL    HW113706   3.109   1.862   4.224
 4269SOL    HW213707   3.086   1.702   4.248
 4270SOL     OW13708   3.558   3.141   1.204
 4270SOL    HW113709   3.475   3.148   1.149
 4270SOL    HW213710   3.607   3.057   1.180
 4271SOL     OW13711   6.375   0.385   0.908
 4271SOL    HW113712   6.446   0.454   0.924
 4271SOL    HW213713   6.285   0.429   0.911
 4272SOL     OW13714   6.859   3.211   5.480
 4272SOL    HW113715   6.859   3.252   5.571
 4272SOL    HW213716   6.788   3.140   5.475
 4273SOL     OW13717   4.677   6.163   4.686
 4273SOL    HW113718   4.604   6.112   4.640
 4273SOL    HW213719   4.686   6.130   4.780
 4274SOL     OW13720   6.944   6.255   1.370
 4274SOL    HW113721   7.020   6.277   1.432
 4274SOL    HW213722   6.966   6.288   1.278
 4275SOL     OW13723   0.724   2.408   3.786
 4275SOL    HW113724   0.803   2.371   3.836
 4275SOL    HW213725   0.640   2.389   3.838
 4276SOL     OW13726   2.751   5.557   4.219
 4276SOL    HW113727   2.792   5.646   4.240
 4276SOL    HW213728   2.662   5.570   4.177
 4277SOL     OW13729   6.605   5.371   4.310
 4277SOL    HW113730   6.573   5.317   4.232
 4277SOL    HW213731   6.692   5.413   4.288
 4278SOL     OW13732   0.207   6.515   2.402
 4278SOL    HW113733   0.236   6.581   2.472
 4278SOL    HW213734   0.186   6.428   2.446
 4279SOL     OW13735   1.062   1.892   2.416
 4279SOL    HW113736   1.089   1.951   2.492
 4279SOL    HW213737   1.020   1.948   2.344
 4280SOL     OW13738   6.723   6.904   6.477
 4280SOL    HW113739   6.752   6.995   6.449
 4280SOL    HW213740   6.632   6.908   6.517
 4281SOL     OW13741   4.498   5.718   3.927
 4281SOL    HW113742   4.501   5.769   3.841
 4281SOL    HW213743   4.414   5.741   3.977
 4282SOL     OW13744   2.981   4.013   1.217
 4282SOL    HW113745   3.035   3.939   1.257
 4282SOL    HW213746   2.905   3.975   1.164
 4283SOL     OW13747   4.988   0.928   3.422
 4283SOL    HW113748   5.070   0.984   3.412
 4283SOL    HW213749   4.926   0.946   3.346
 4284SOL     OW13750   5.001   5.301   0.121
 4284SOL    HW113751   5.064   5.225   0.138
 4284SOL    HW213752   4.908   5.266   0.111
 4285SOL     OW13753   3.775   0.829   6.372
 4285SOL    HW113754   3.854   0.779   6.338
 4285SOL    HW213755   3.702   0.827   6.303
 4286SOL     OW13756   6.408   1.068   6.525
 4286SOL    HW113757   6.366   1.127   6.456
 4286SOL    HW213758   6.337   1.032   6.586
 4287SOL     OW13759   4.636   0.995   0.010
 4287SOL    HW113760   4.721   1.001   6.982
 4287SOL    HW213761   4.629   0.904   0.052
 4288SOL     OW13762   6.437   5.932   1.801
 4288SOL    HW113763   6.436   6.028   1.829
 4288SOL    HW213764   6.369   5.918   1.729
 4289SOL     OW13765   0.749   2.853   5.554
 4289SOL    HW113766   0.714   2.762   5.532
 4289SOL    HW213767   0.676   2.909   5.593
 4290SOL     OW13768   0.167   0.658   2.884
 4290SOL    HW113769   0.230   0.733   2.906
 4290SOL    HW213770   0.100   0.689   2.816
 4291SOL     OW13771   4.997   3.277   5.962
 4291SOL    HW113772   4.926   3.347   5.960
 4291SOL    HW213773   5.063   3.294   5.888
 4292SOL     OW13774   5.124   1.936   0.512
 4292SOL    HW113775   5.116   1.917   0.610
 4292SOL    HW213776   5.220   1.953   0.490
 4293SOL     OW13777   5.076   3.749   6.647
 4293SOL    HW113778   5.146   3.796   6.593
 4293SOL    HW213779   4.999   3.725   6.588
 4294SOL     OW13780   3.100   2.458   6.406
 4294SOL    HW113781   3.141   2.374   6.440
 4294SOL    HW213782   3.144   2.484   6.320
 4295SOL     OW13783   4.508   6.731   2.048
 4295SOL    HW113784   4.443   6.803   2.024
 4295SOL    HW213785   4.519   6.728   2.148
 4296SOL     OW13786   2.842   6.423   1.247
 4296SOL    HW113787   2.890   6.442   1.161
 4296SOL    HW213788   2.828   6.508   1.297
 4297SOL     OW13789   6.537   5.233   1.106
 4297SOL    HW113790   6.589   5.148   1.095
 4297SOL    HW213791   6.443   5.220   1.074
 4298SOL     OW13792   3.461   6.486   1.351
 4298SOL    HW113793   3.488   6.413   1.288
 4298SOL    HW213794   3.404   6.447   1.424
 4299SOL     OW13795   0.329   2.581   6.877
 4299SOL    HW113796   0.333   2.681   6.875
 4299SOL    HW213797   0.419   2.544   6.852
 4300SOL     OW13798   4.130   0.816   0.879
 4300SOL    HW113799   4.052   0.824   0.942
 4300SOL    HW213800   4.161   0.722   0.876
 4301SOL     OW13801   3.222   6.180   1.810
 4301SOL    HW113802   3.294   6.224   1.757
 4301SOL    HW213803   3.208   6.230   1.896
 4302SOL     OW13804   1.417   6.354   6.429
 4302SOL    HW113805   1.493   6.307   6.475
 4302SOL    HW213806   1.330   6.316   6.462
 4303SOL     OW13807   6.514   4.257   4.463
 4303SOL    HW113808   6.562   4.177   4.428
 4303SOL    HW213809   6.449   4.229   4.533
 4304SOL     OW13810   3.190   3.758   1.721
 4304SOL    HW113811   3.224   3.787   1.632
 4304SOL    HW213812   3.210   3.661   1.734
 4305SOL     OW13813   6.769   0.147   5.779
 4305SOL    HW113814   6.784   0.120   5.684
 4305SOL    HW213815   6.820   0.230   5.799
 4306SOL     OW13816   4.843   3.927   4.676
 4306SOL    HW113817   4.880   3.835   4.679
 4306SOL    HW213818   4.858   3.972   4.764
 4307SOL     OW13819   6.355   2.608   5.224
 4307SOL    HW113820   6.403   2.677   5.169
 4307SOL    HW213821   6.260   2.604   5.196
 4308SOL     OW13822   5.321   4.806   1.767
 4308SOL    HW113823   5.311   4.713   1.802
 4308SOL    HW213824   5.374   4.805   1.683
 4309SOL     OW13825   0.990   3.366   0.611
 4309SOL    HW113826   1.046   3.410   0.541
 4309SOL    HW213827   1.040   3.289   0.651
 4310SOL     OW13828   0.179   1.705   2.304
 4310SOL    HW113829   0.140   1.767   2.236
 4310SOL    HW213830   0.253   1.652   2.262
 4311SOL     OW13831   1.194   6.222   2.121
 4311SOL    HW113832   1.221   6.130   2.092
 4311SOL    HW213833   1.095   6.223   2.138
 4312SOL     OW13834   1.058   5.236   1.941
 4312SOL    HW113835   1.069   5.275   1.849
 4312SOL    HW213836   1.013   5.303   2.000
 4313SOL     OW13837   5.715   1.868   0.533
 4313SOL    HW113838   5.779   1.863   0.457
 4313SOL    HW213839   5.749   1.933   0.601
 4314SOL     OW13840   6.607   2.910   5.312
 4314SOL    HW113841   6.515   2.944   5.295
 4314SOL    HW213842   6.637   2.939   5.403
 4315SOL     OW13843   2.059   1.317   3.817
 4315SOL    HW113844   1.995   1.393   3.825
 4315SOL    HW213845   2.108   1.323   3.730
 4316SOL     OW13846   5.520   0.071   2.380
 4316SOL    HW113847   5.446   0.132   2.411
 4316SOL    HW213848   5.506   0.048   2.284
 4317SOL     OW13849   4.535   1.273   5.786
 4317SOL    HW113850   4.521   1.312   5.876
 4317SOL    HW213851   4.472   1.196   5.772
 4318SOL     OW13852   0.585   0.894   3.645
 4318SOL    HW113853   0.606   0.817   3.706
 4318SOL    HW213854   0.627   0.877   3.555
 4319SOL     OW13855   1.258   3.302   2.129
 4319SOL    HW113856   1.247   3.269   2.223
 4319SOL    HW213857   1.345   3.270   2.093
 4320SOL     OW13858   3.517   6.298   0.750
 4320SOL    HW113859   3.467   6.317   0.834
 4320SOL    HW213860   3.453   6.279   0.675
 4321SOL     OW13861   6.489   5.994   2.269
 4321SOL    HW113862   6.457   5.932   2.197
 4321SOL    HW213863   6.587   6.010   2.258
 4322SOL     OW13864   0.609   2.200   5.244
 4322SOL    HW113865   0.680   2.268   5.229
 4322SOL    HW213866   0.600   2.142   5.163
 4323SOL     OW13867   4.289   5.392   0.125
 4323SOL    HW113868   4.281   5.486   0.092
 4323SOL    HW213869   4.368   5.348   0.082
 4324SOL     OW13870   0.167   4.005   5.590
 4324SOL    HW113871   0.174   3.910   5.619
 4324SOL    HW213872   0.212   4.064   5.657
 4325SOL     OW13873   2.899   0.696   2.981
 4325SOL    HW113874   2.802   0.676   2.992
 4325SOL    HW213875   2.919   0.712   2.884
 4326SOL     OW13876   5.001   2.395   2.265
 4326SOL    HW113877   4.951   2.397   2.352
 4326SOL    HW213878   5.087   2.345   2.278
 4327SOL     OW13879   3.776   5.618   4.369
 4327SOL    HW113880   3.848   5.633   4.436
 4327SOL    HW213881   3.693   5.665   4.399
 4328SOL     OW13882   6.523   5.561   5.302
 4328SOL    HW113883   6.564   5.636   5.250
 4328SOL    HW213884   6.516   5.480   5.243
 4329SOL     OW13885   5.780   2.979   5.764
 4329SOL    HW113886   5.716   3.052   5.787
 4329SOL    HW213887   5.792   2.974   5.665
 4330SOL     OW13888   2.477   5.701   5.337
 4330SOL    HW113889   2.405   5.755   5.381
 4330SOL    HW213890   2.558   5.698   5.396
 4331SOL     OW13891   6.253   0.717   1.482
 4331SOL    HW113892   6.313   0.641   1.506
 4331SOL    HW213893   6.210   0.700   1.394
 4332SOL     OW13894   6.645   3.884   2.561
 4332SOL    HW113895   6.596   3.799   2.582
 4332SOL    HW213896   6.699   3.871   2.478
 4333SOL     OW13897   4.185   1.860   4.927
 4333SOL    HW113898   4.121   1.914   4.872
 4333SOL    HW213899   4.278   1.872   4.891
 4334SOL     OW13900   1.293   2.971   3.053
 4334SOL    HW113901   1.269   2.968   2.956
 4334SOL    HW213902   1.215   2.939   3.108
 4335SOL     OW13903   3.336   3.026   0.869
 4335SOL    HW113904   3.289   3.082   0.800
 4335SOL    HW213905   3.423   2.993   0.831
 4336SOL     OW13906   1.959   5.588   6.347
 4336SOL    HW113907   1.929   5.610   6.254
 4336SOL    HW213908   2.059   5.584   6.349
 4337SOL     OW13909   1.252   5.952   2.057
 4337SOL    HW113910   1.278   5.936   1.961
 4337SOL    HW213911   1.253   5.866   2.107
 4338SOL     OW13912   5.628   0.464   5.236
 4338SOL    HW113913   5.714   0.485   5.282
 4338SOL    HW213914   5.580   0.392   5.287
 4339SOL     OW13915   4.120   2.712   6.120
 4339SOL    HW113916   4.025   2.703   6.149
 4339SOL    HW213917   4.124   2.711   6.020
 4340SOL     OW13918   6.526   4.037   0.935
 4340SOL    HW113919   6.617   4.068   0.962
 4340SOL    HW213920   6.522   3.937   0.941
 4341SOL     OW13921   0.981   5.774   1.835
 4341SOL    HW113922   1.043   5.838   1.790
 4341SOL    HW213923   0.963   5.696   1.775
 4342SOL     OW13924   5.276   3.616   2.690
 4342SOL    HW113925   5.194   3.588   2.641
 4342SOL    HW213926   5.348   3.547   2.678
 4343SOL     OW13927   4.675   0.527   5.541
 4343SOL    HW113928   4.598   0.584   5.514
 4343SOL    HW213929   4.717   0.487   5.459
 4344SOL     OW13930   0.300   2.675   4.313
 4344SOL    HW113931   0.259   2.756   4.356
 4344SOL    HW213932   0.399   2.685   4.311
 4345SOL     OW13933   2.913   3.474   2.573
 4345SOL    HW113934   3.012   3.466   2.560
 4345SOL    HW213935   2.881   3.559   2.532
 4346SOL     OW13936   2.412   2.709   2.557
 4346SOL    HW113937   2.482   2.759   2.507
 4346SOL    HW213938   2.349   2.665   2.492
 4347SOL     OW13939   5.876   5.166   1.653
 4347SOL    HW113940   5.952   5.175   1.716
 4347SOL    HW213941   5.856   5.068   1.640
 4348SOL     OW13942   6.891   6.139   3.766
 4348SOL    HW113943   6.796   6.117   3.789
 4348SOL    HW213944   6.946   6.138   3.849
 4349SOL     OW13945   0.257   3.982   3.626
 4349SOL    HW113946   0.307   3.945   3.547
 4349SOL    HW213947   0.321   3.997   3.702
 4350SOL     OW13948   5.449   1.609   4.674
 4350SOL    HW113949   5.368   1.563   4.710
 4350SOL    HW213950   5.490   1.552   4.602
 4351SOL     OW13951   1.260   0.151   1.163
 4351SOL    HW113952   1.334   0.112   1.218
 4351SOL    HW213953   1.189   0.186   1.223
 4352SOL     OW13954   4.449   3.865   1.154
 4352SOL    HW113955   4.444   3.765   1.153
 4352SOL    HW213956   4.485   3.896   1.241
 4353SOL     OW13957   3.034   3.624   0.093
 4353SOL    HW113958   3.071   3.584   0.176
 4353SOL    HW213959   2.980   3.557   0.043
 4354SOL     OW13960   6.488   7.020   3.778
 4354SOL    HW113961   6.557   0.056   3.819
 4354SOL    HW213962   6.414   0.052   3.740
 4355SOL     OW13963   1.013   0.215   3.921
 4355SOL    HW113964   1.011   0.140   3.988
 4355SOL    HW213965   1.099   0.266   3.931
 4356SOL     OW13966   5.088   2.914   6.081
 4356SOL    HW113967   5.146   2.946   6.007
 4356SOL    HW213968   5.022   2.986   6.106
 4357SOL     OW13969   6.381   0.647   2.275
 4357SOL    HW113970   6.317   0.718   2.246
 4357SOL    HW213971   6.425   0.606   2.195
 4358SOL     OW13972   0.592   0.859   0.342
 4358SOL    HW113973   0.649   0.924   0.292
 4358SOL    HW213974   0.649   0.784   0.375
 4359SOL     OW13975   2.557   0.740   6.703
 4359SOL    HW113976   2.614   0.724   6.784
 4359SOL    HW213977   2.615   0.769   6.627
 4360SOL     OW13978   1.532   2.911   3.188
 4360SOL    HW113979   1.571   2.999   3.213
 4360SOL    HW213980   1.448   2.925   3.137
 4361SOL     OW13981   1.226   1.837   1.067
 4361SOL    HW113982   1.250   1.788   1.151
 4361SOL    HW213983   1.211   1.933   1.087
 4362SOL     OW13984   0.649   6.081   4.171
 4362SOL    HW113985   0.729   6.057   4.227
 4362SOL    HW213986   0.602   6.159   4.211
 4363SOL     OW13987   4.500   0.648   2.755
 4363SOL    HW113988   4.539   0.689   2.837
 4363SOL    HW213989   4.514   0.549   2.758
 4364SOL     OW13990   3.366   3.878   2.490
 4364SOL    HW113991   3.413   3.901   2.576
 4364SOL    HW213992   3.324   3.960   2.452
 4365SOL     OW13993   2.751   2.262   1.808
 4365SOL    HW113994   2.772   2.310   1.893
 4365SOL    HW213995   2.835   2.228   1.766
 4366SOL     OW13996   4.905   5.743   5.423
 4366SOL    HW113997   4.903   5.842   5.404
 4366SOL    HW213998   5.000   5.714   5.436
 4367SOL     OW13999   2.979   5.513   4.017
 4367SOL    HW114000   2.893   5.536   4.062
 4367SOL    HW214001   3.055   5.531   4.080
 4368SOL     OW14002   4.952   5.451   2.580
 4368SOL    HW114003   4.947   5.381   2.651
 4368SOL    HW214004   4.890   5.428   2.506
 4369SOL     OW14005   4.659   5.377   2.962
 4369SOL    HW114006   4.718   5.443   2.916
 4369SOL    HW214007   4.715   5.308   3.007
 4370SOL     OW14008   4.002   4.763   1.632
 4370SOL    HW114009   3.914   4.719   1.649
 4370SOL    HW214010   4.045   4.786   1.720
 4371SOL     OW14011   2.403   0.614   1.375
 4371SOL    HW114012   2.308   0.613   1.404
 4371SOL    HW214013   2.451   0.535   1.413
 4372SOL     OW14014   1.680   2.628   4.665
 4372SOL    HW114015   1.717   2.553   4.611
 4372SOL    HW214016   1.653   2.595   4.755
 4373SOL     OW14017   4.486   0.996   6.053
 4373SOL    HW114018   4.496   1.033   6.145
 4373SOL    HW214019   4.577   0.989   6.010
 4374SOL     OW14020   2.505   1.951   1.223
 4374SOL    HW114021   2.442   1.996   1.160
 4374SOL    HW214022   2.463   1.866   1.257
 4375SOL     OW14023   3.442   0.562   3.292
 4375SOL    HW114024   3.384   0.618   3.352
 4375SOL    HW214025   3.408   0.468   3.291
 4376SOL     OW14026   6.621   6.474   1.379
 4376SOL    HW114027   6.633   6.549   1.314
 4376SOL    HW214028   6.568   6.506   1.457
 4377SOL     OW14029   5.953   6.232   6.773
 4377SOL    HW114030   5.924   6.195   6.684
 4377SOL    HW214031   6.019   6.305   6.758
 4378SOL     OW14032   1.979   6.143   2.812
 4378SOL    HW114033   2.015   6.215   2.752
 4378SOL    HW214034   2.053   6.110   2.871
 4379SOL     OW14035   1.179   0.667   1.799
 4379SOL    HW114036   1.135   0.682   1.887
 4379SOL    HW214037   1.218   0.754   1.766
 4380SOL     OW14038   1.911   6.038   5.536
 4380SOL    HW114039   1.967   5.958   5.557
 4380SOL    HW214040   1.897   6.043   5.437
 4381SOL     OW14041   4.437   6.319   4.294
 4381SOL    HW114042   4.521   6.330   4.346
 4381SOL    HW214043   4.425   6.223   4.269
 4382SOL     OW14044   4.774   4.080   4.455
 4382SOL    HW114045   4.737   4.166   4.490
 4382SOL    HW214046   4.782   4.015   4.531
 4383SOL     OW14047   1.727   1.898   5.923
 4383SOL    HW114048   1.674   1.828   5.971
 4383SOL    HW214049   1.743   1.976   5.983
 4384SOL     OW14050   3.809   6.620   1.062
 4384SOL    HW114051   3.803   6.552   0.988
 4384SOL    HW214052   3.726   6.674   1.064
 4385SOL     OW14053   0.033   1.473   3.759
 4385SOL    HW114054   6.971   1.524   3.763
 4385SOL    HW214055   0.023   1.386   3.808
 4386SOL     OW14056   0.607   3.840   6.909
 4386SOL    HW114057   0.637   3.804   6.821
 4386SOL    HW214058   0.575   3.765   6.967
 4387SOL     OW14059   6.395   3.208   1.288
 4387SOL    HW114060   6.405   3.297   1.243
 4387SOL    HW214061   6.300   3.177   1.278
 4388SOL     OW14062   3.509   0.300   6.023
 4388SOL    HW114063   3.506   0.200   6.024
 4388SOL    HW214064   3.437   0.336   5.964
 4389SOL     OW14065   5.556   3.012   1.905
 4389SOL    HW114066   5.616   2.938   1.937
 4389SOL    HW214067   5.535   2.998   1.808
 4390SOL     OW14068   5.037   2.109   1.638
 4390SOL    HW114069   5.056   2.074   1.729
 4390SOL    HW214070   5.105   2.179   1.614
 4391SOL     OW14071   0.789   5.658   0.316
 4391SOL    HW114072   0.765   5.571   0.271
 4391SOL    HW214073   0.884   5.681   0.295
 4392SOL     OW14074   5.235   3.169   3.977
 4392SOL    HW114075   5.298   3.245   3.996
 4392SOL    HW214076   5.155   3.177   4.035
 4393SOL     OW14077   5.232   0.051   3.355
 4393SOL    HW114078   5.240   6.990   3.302
 4393SOL    HW214079   5.152   0.102   3.325
 4394SOL     OW14080   5.872   6.195   2.727
 4394SOL    HW114081   5.804   6.223   2.795
 4394SOL    HW214082   5.850   6.237   2.639
 4395SOL     OW14083   4.471   1.627   1.969
 4395SOL    HW114084   4.555   1.680   1.959
 4395SOL    HW214085   4.418   1.665   2.045
 4396SOL     OW14086   1.082   1.165   4.346
 4396SOL    HW114087   1.025   1.243   4.373
 4396SOL    HW214088   1.115   1.178   4.253
 4397SOL     OW14089   6.857   1.088   4.537
 4397SOL    HW114090   6.923   1.081   4.612
 4397SOL    HW214091   6.890   1.155   4.470
 4398SOL     OW14092   1.112   3.976   4.260
 4398SOL    HW114093   1.101   4.064   4.307
 4398SOL    HW214094   1.203   3.939   4.279
 4399SOL     OW14095   2.235   0.728   0.463
 4399SOL    HW114096   2.260   0.634   0.437
 4399SOL    HW214097   2.231   0.735   0.562
 4400SOL     OW14098   2.510   6.791   4.179
 4400SOL    HW114099   2.541   6.804   4.085
 4400SOL    HW214100   2.554   6.710   4.217
 4401SOL     OW14101   5.608   5.810   4.801
 4401SOL    HW114102   5.566   5.778   4.716
 4401SOL    HW214103   5.556   5.887   4.838
 4402SOL     OW14104   1.088   5.768   2.920
 4402SOL    HW114105   1.120   5.673   2.913
 4402SOL    HW214106   1.048   5.782   3.010
 4403SOL     OW14107   6.798   6.953   3.058
 4403SOL    HW114108   6.893   6.925   3.068
 4403SOL    HW214109   6.791   0.029   3.066
 4404SOL     OW14110   0.851   4.419   3.582
 4404SOL    HW114111   0.759   4.456   3.573
 4404SOL    HW214112   0.917   4.494   3.588
 4405SOL     OW14113   3.128   4.423   6.110
 4405SOL    HW114114   3.133   4.496   6.042
 4405SOL    HW214115   3.086   4.459   6.194
 4406SOL     OW14116   4.732   4.661   1.731
 4406SOL    HW114117   4.796   4.620   1.666
 4406SOL    HW214118   4.657   4.598   1.749
 4407SOL     OW14119   6.836   6.062   0.412
 4407SOL    HW114120   6.773   6.134   0.380
 4407SOL    HW214121   6.818   6.043   0.508
 4408SOL     OW14122   4.930   0.342   0.457
 4408SOL    HW114123   4.876   0.354   0.374
 4408SOL    HW214124   4.915   0.420   0.518
 4409SOL     OW14125   4.138   1.920   1.880
 4409SOL    HW114126   4.171   1.878   1.796
 4409SOL    HW214127   4.153   1.857   1.957
 4410SOL     OW14128   2.439   4.937   1.039
 4410SOL    HW114129   2.401   4.845   1.050
 4410SOL    HW214130   2.386   5.002   1.093
 4411SOL     OW14131   3.624   3.140   2.933
 4411SOL    HW114132   3.592   3.123   3.026
 4411SOL    HW214133   3.720   3.112   2.925
 4412SOL     OW14134   3.842   1.354   6.015
 4412SOL    HW114135   3.790   1.418   6.071
 4412SOL    HW214136   3.932   1.392   5.996
 4413SOL     OW14137   3.792   5.705   3.921
 4413SOL    HW114138   3.834   5.707   4.012
 4413SOL    HW214139   3.841   5.767   3.860
 4414SOL     OW14140   4.150   4.858   2.314
 4414SOL    HW114141   4.243   4.893   2.300
 4414SOL    HW214142   4.103   4.916   2.381
 4415SOL     OW14143   5.388   4.036   5.987
 4415SOL    HW114144   5.435   4.112   6.032
 4415SOL    HW214145   5.419   4.028   5.892
 4416SOL     OW14146   2.736   1.589   4.476
 4416SOL    HW114147   2.686   1.577   4.391
 4416SOL    HW214148   2.778   1.680   4.477
 4417SOL     OW14149   0.327   4.825   1.913
 4417SOL    HW114150   0.421   4.859   1.916
 4417SOL    HW214151   0.311   4.777   1.826
 4418SOL     OW14152   4.315   6.438   3.822
 4418SOL    HW114153   4.238   6.496   3.796
 4418SOL    HW214154   4.332   6.371   3.750
 4419SOL     OW14155   6.291   5.429   0.655
 4419SOL    HW114156   6.350   5.502   0.620
 4419SOL    HW214157   6.261   5.451   0.747
 4420SOL     OW14158   4.733   0.760   0.945
 4420SOL    HW114159   4.783   0.846   0.936
 4420SOL    HW214160   4.666   0.752   0.872
 4421SOL     OW14161   1.642   1.463   2.517
 4421SOL    HW114162   1.738   1.443   2.537
 4421SOL    HW214163   1.584   1.398   2.565
 4422SOL     OW14164   2.982   3.712   6.223
 4422SOL    HW114165   3.037   3.638   6.184
 4422SOL    HW214166   2.970   3.696   6.321
 4423SOL     OW14167   1.140   1.871   6.352
 4423SOL    HW114168   1.159   1.822   6.437
 4423SOL    HW214169   1.170   1.815   6.274
 4424SOL     OW14170   5.422   6.078   3.385
 4424SOL    HW114171   5.348   6.012   3.369
 4424SOL    HW214172   5.445   6.124   3.299
 4425SOL     OW14173   3.573   5.570   5.850
 4425SOL    HW114174   3.667   5.546   5.824
 4425SOL    HW214175   3.518   5.487   5.856
 4426SOL     OW14176   6.777   0.983   4.989
 4426SOL    HW114177   6.811   0.922   5.060
 4426SOL    HW214178   6.747   0.930   4.910
 4427SOL     OW14179   0.514   0.748   3.194
 4427SOL    HW114180   0.519   0.752   3.095
 4427SOL    HW214181   0.498   0.840   3.230
 4428SOL     OW14182   3.062   4.856   4.265
 4428SOL    HW114183   3.016   4.773   4.298
 4428SOL    HW214184   3.128   4.887   4.333
 4429SOL     OW14185   2.844   6.736   3.329
 4429SOL    HW114186   2.771   6.675   3.298
 4429SOL    HW214187   2.815   6.781   3.414
 4430SOL     OW14188   3.890   1.813   2.539
 4430SOL    HW114189   3.828   1.886   2.569
 4430SOL    HW214190   3.895   1.813   2.439
 4431SOL     OW14191   2.739   1.724   3.424
 4431SOL    HW114192   2.793   1.692   3.502
 4431SOL    HW214193   2.800   1.749   3.349
 4432SOL     OW14194   3.261   3.311   3.133
 4432SOL    HW114195   3.249   3.328   3.035
 4432SOL    HW214196   3.215   3.383   3.186
 4433SOL     OW14197   5.533   6.635   3.106
 4433SOL    HW114198   5.561   6.724   3.068
 4433SOL    HW214199   5.575   6.562   3.053
 4434SOL     OW14200   5.307   1.869   3.832
 4434SOL    HW114201   5.360   1.953   3.830
 4434SOL    HW214202   5.333   1.814   3.912
 4435SOL     OW14203   3.585   3.238   1.451
 4435SOL    HW114204   3.601   3.196   1.362
 4435SOL    HW214205   3.637   3.324   1.457
 4436SOL     OW14206   3.135   2.118   0.329
 4436SOL    HW114207   3.219   2.158   0.365
 4436SOL    HW214208   3.066   2.189   0.317
 4437SOL     OW14209   4.314   0.786   4.331
 4437SOL    HW114210   4.323   0.862   4.267
 4437SOL    HW214211   4.236   0.729   4.305
 4438SOL     OW14212   4.220   2.283   0.163
 4438SOL    HW114213   4.146   2.216   0.171
 4438SOL    HW214214   4.280   2.277   0.243
 4439SOL     OW14215   0.826   5.572   1.701
 4439SOL    HW114216   0.825   5.473   1.691
 4439SOL    HW214217   0.793   5.615   1.617
 4440SOL     OW14218   1.890   6.021   0.109
 4440SOL    HW114219   1.985   6.010   0.138
 4440SOL    HW214220   1.888   6.050   0.013
 4441SOL     OW14221   6.375   2.675   2.577
 4441SOL    HW114222   6.474   2.667   2.582
 4441SOL    HW214223   6.332   2.596   2.622
 4442SOL     OW14224   3.893   6.379   3.449
 4442SOL    HW114225   3.845   6.311   3.395
 4442SOL    HW214226   3.933   6.448   3.389
 4443SOL     OW14227   2.285   2.004   6.259
 4443SOL    HW114228   2.263   1.945   6.336
 4443SOL    HW214229   2.366   1.969   6.212
 4444SOL     OW14230   4.743   6.440   1.168
 4444SOL    HW114231   4.768   6.406   1.259
 4444SOL    HW214232   4.670   6.507   1.177
 4445SOL     OW14233   1.492   1.220   6.453
 4445SOL    HW114234   1.394   1.220   6.433
 4445SOL    HW214235   1.542   1.192   6.371
 4446SOL     OW14236   5.829   0.380   1.988
 4446SOL    HW114237   5.848   0.459   2.045
 4446SOL    HW214238   5.752   0.329   2.026
 4447SOL     OW14239   5.454   3.404   5.632
 4447SOL    HW114240   5.441   3.375   5.727
 4447SOL    HW214241   5.447   3.503   5.626
 4448SOL     OW14242   2.879   3.422   0.562
 4448SOL    HW114243   2.845   3.497   0.618
 4448SOL    HW214244   2.801   3.372   0.523
 4449SOL     OW14245   2.800   0.481   5.171
 4449SOL    HW114246   2.813   0.503   5.267
 4449SOL    HW214247   2.786   0.565   5.119
 4450SOL     OW14248   2.925   3.222   2.617
 4450SOL    HW114249   2.899   3.318   2.613
 4450SOL    HW214250   2.843   3.165   2.613
 4451SOL     OW14251   6.322   4.407   2.420
 4451SOL    HW114252   6.292   4.341   2.488
 4451SOL    HW214253   6.249   4.472   2.402
 4452SOL     OW14254   5.928   6.544   5.746
 4452SOL    HW114255   5.835   6.569   5.775
 4452SOL    HW214256   5.977   6.627   5.718
 4453SOL     OW14257   5.924   3.028   1.674
 4453SOL    HW114258   5.962   2.984   1.755
 4453SOL    HW214259   5.989   3.095   1.639
 4454SOL     OW14260   5.339   2.374   1.137
 4454SOL    HW114261   5.370   2.458   1.092
 4454SOL    HW214262   5.239   2.373   1.140
 4455SOL     OW14263   3.613   6.660   2.358
 4455SOL    HW114264   3.597   6.606   2.275
 4455SOL    HW214265   3.673   6.610   2.419
 4456SOL     OW14266   2.142   5.517   2.465
 4456SOL    HW114267   2.118   5.573   2.544
 4456SOL    HW214268   2.162   5.424   2.495
 4457SOL     OW14269   4.105   2.271   6.282
 4457SOL    HW114270   4.108   2.182   6.235
 4457SOL    HW214271   4.180   2.276   6.348
 4458SOL     OW14272   2.547   3.146   6.468
 4458SOL    HW114273   2.638   3.105   6.460
 4458SOL    HW214274   2.552   3.226   6.529
 4459SOL     OW14275   4.525   0.035   4.669
 4459SOL    HW114276   4.616   0.071   4.647
 4459SOL    HW214277   4.461   0.111   4.682
 4460SOL     OW14278   2.382   3.221   6.946
 4460SOL    HW114279   2.374   3.155   7.021
 4460SOL    HW214280   2.390   3.313   6.984
 4461SOL     OW14281   1.163   0.051   2.400
 4461SOL    HW114282   1.145   7.012   2.476
 4461SOL    HW214283   1.095   0.125   2.402
 4462SOL     OW14284   6.316   5.084   1.003
 4462SOL    HW114285   6.234   5.085   1.060
 4462SOL    HW214286   6.298   5.032   0.920
 4463SOL     OW14287   1.855   3.226   6.474
 4463SOL    HW114288   1.885   3.206   6.381
 4463SOL    HW214289   1.755   3.219   6.480
 4464SOL     OW14290   5.838   4.564   6.425
 4464SOL    HW114291   5.840   4.590   6.521
 4464SOL    HW214292   5.929   4.571   6.386
 4465SOL     OW14293   2.192   6.364   2.081
 4465SOL    HW114294   2.134   6.390   2.158
 4465SOL    HW214295   2.188   6.435   2.011
 4466SOL     OW14296   0.814   1.460   2.353
 4466SOL    HW114297   0.885   1.400   2.317
 4466SOL    HW214298   0.827   1.553   2.318
 4467SOL     OW14299   1.240   6.556   2.870
 4467SOL    HW114300   1.279   6.587   2.957
 4467SOL    HW214301   1.243   6.457   2.865
 4468SOL     OW14302   1.026   2.201   6.740
 4468SOL    HW114303   1.097   2.257   6.696
 4468SOL    HW214304   1.069   2.135   6.801
 4469SOL     OW14305   3.270   0.386   1.677
 4469SOL    HW114306   3.277   0.406   1.775
 4469SOL    HW214307   3.359   0.400   1.634
 4470SOL     OW14308   5.216   3.838   1.992
 4470SOL    HW114309   5.288   3.869   1.929
 4470SOL    HW214310   5.233   3.876   2.083
 4471SOL     OW14311   0.599   2.607   1.177
 4471SOL    HW114312   0.570   2.667   1.103
 4471SOL    HW214313   0.597   2.658   1.263
 4472SOL     OW14314   1.762   4.013   2.352
 4472SOL    HW114315   1.808   3.927   2.375
 4472SOL    HW214316   1.828   4.078   2.314
 4473SOL     OW14317   0.173   0.294   4.618
 4473SOL    HW114318   0.154   0.238   4.537
 4473SOL    HW214319   0.099   0.361   4.630
 4474SOL     OW14320   3.565   0.235   2.075
 4474SOL    HW114321   3.538   0.160   2.015
 4474SOL    HW214322   3.586   0.316   2.021
 4475SOL     OW14323   1.563   3.801   0.946
 4475SOL    HW114324   1.534   3.850   1.028
 4475SOL    HW214325   1.663   3.796   0.944
 4476SOL     OW14326   5.159   6.763   2.770
 4476SOL    HW114327   5.109   6.700   2.829
 4476SOL    HW214328   5.204   6.832   2.826
 4477SOL     OW14329   2.088   0.708   6.887
 4477SOL    HW114330   2.147   0.634   6.855
 4477SOL    HW214331   2.142   0.774   6.939
 4478SOL     OW14332   2.409   6.940   2.598
 4478SOL    HW114333   2.497   6.900   2.573
 4478SOL    HW214334   2.340   6.913   2.531
 4479SOL     OW14335   0.851   0.328   6.309
 4479SOL    HW114336   0.886   0.322   6.402
 4479SOL    HW214337   0.887   0.410   6.265
 4480SOL     OW14338   1.360   4.164   4.584
 4480SOL    HW114339   1.336   4.071   4.556
 4480SOL    HW214340   1.451   4.187   4.549
 4481SOL     OW14341   1.490   6.467   4.110
 4481SOL    HW114342   1.435   6.450   4.192
 4481SOL    HW214343   1.554   6.542   4.127
 4482SOL     OW14344   1.331   4.538   4.139
 4482SOL    HW114345   1.368   4.462   4.084
 4482SOL    HW214346   1.322   4.509   4.234
 4483SOL     OW14347   6.601   2.815   1.064
 4483SOL    HW114348   6.542   2.834   0.985
 4483SOL    HW214349   6.586   2.884   1.134
 4484SOL     OW14350   3.727   2.681   5.398
 4484SOL    HW114351   3.750   2.730   5.314
 4484SOL    HW214352   3.811   2.657   5.447
 4485SOL     OW14353   5.009   2.013   6.651
 4485SOL    HW114354   5.073   2.041   6.579
 4485SOL    HW214355   5.021   2.071   6.731
 4486SOL     OW14356   0.236   4.166   5.203
 4486SOL    HW114357   0.237   4.127   5.111
 4486SOL    HW214358   0.290   4.250   5.204
 4487SOL     OW14359   2.718   3.775   6.632
 4487SOL    HW114360   2.651   3.721   6.580
 4487SOL    HW214361   2.805   3.776   6.582
 4488SOL     OW14362   5.968   2.591   5.408
 4488SOL    HW114363   5.992   2.594   5.311
 4488SOL    HW214364   5.939   2.682   5.439
 4489SOL     OW14365   5.660   5.674   4.514
 4489SOL    HW114366   5.564   5.649   4.508
 4489SOL    HW214367   5.703   5.624   4.590
 4490SOL     OW14368   6.109   1.386   1.499
 4490SOL    HW114369   6.017   1.386   1.462
 4490SOL    HW214370   6.150   1.296   1.488
 4491SOL     OW14371   1.553   3.564   2.682
 4491SOL    HW114372   1.647   3.597   2.681
 4491SOL    HW214373   1.541   3.499   2.756
 4492SOL     OW14374   4.987   2.394   0.011
 4492SOL    HW114375   5.056   2.338   6.989
 4492SOL    HW214376   4.930   2.337   0.070
 4493SOL     OW14377   4.558   5.265   4.800
 4493SOL    HW114378   4.542   5.361   4.822
 4493SOL    HW214379   4.648   5.255   4.757
 4494SOL     OW14380   0.215   3.276   5.552
 4494SOL    HW114381   0.152   3.345   5.515
 4494SOL    HW214382   0.296   3.270   5.494
 4495SOL     OW14383   5.415   6.623   2.789
 4495SOL    HW114384   5.324   6.658   2.768
 4495SOL    HW214385   5.481   6.698   2.790
 4496SOL     OW14386   5.612   4.654   6.628
 4496SOL    HW114387   5.577   4.591   6.697
 4496SOL    HW214388   5.583   4.625   6.537
 4497SOL     OW14389   5.241   6.270   6.646
 4497SOL    HW114390   5.279   6.319   6.725
 4497SOL    HW214391   5.192   6.334   6.587
 4498SOL     OW14392   0.246   4.201   6.698
 4498SOL    HW114393   0.166   4.144   6.712
 4498SOL    HW214394   0.329   4.145   6.707
 4499SOL     OW14395   6.842   3.109   4.474
 4499SOL    HW114396   6.907   3.060   4.532
 4499SOL    HW214397   6.753   3.064   4.480
 4500SOL     OW14398   3.202   3.968   4.089
 4500SOL    HW114399   3.134   3.924   4.031
 4500SOL    HW214400   3.273   4.010   4.032
 4501SOL     OW14401   1.223   4.020   5.557
 4501SOL    HW114402   1.125   4.032   5.576
 4501SOL    HW214403   1.276   4.044   5.638
 4502SOL     OW14404   1.674   2.474   6.280
 4502SOL    HW114405   1.650   2.568   6.256
 4502SOL    HW214406   1.766   2.473   6.319
 4503SOL     OW14407   2.273   1.143   3.470
 4503SOL    HW114408   2.296   1.062   3.417
 4503SOL    HW214409   2.287   1.124   3.567
 4504SOL     OW14410   6.118   2.563   5.636
 4504SOL    HW114411   6.058   2.561   5.556
 4504SOL    HW214412   6.064   2.544   5.718
 4505SOL     OW14413   0.700   6.152   4.731
 4505SOL    HW114414   0.752   6.236   4.714
 4505SOL    HW214415   0.732   6.080   4.670
 4506SOL     OW14416   3.519   1.415   4.893
 4506SOL    HW114417   3.606   1.377   4.861
 4506SOL    HW214418   3.518   1.514   4.879
 4507SOL     OW14419   4.812   5.083   1.223
 4507SOL    HW114420   4.749   5.011   1.191
 4507SOL    HW214421   4.901   5.071   1.179
 4508SOL     OW14422   1.897   3.748   0.020
 4508SOL    HW114423   1.938   3.762   0.111
 4508SOL    HW214424   1.969   3.747   6.974
 4509SOL     OW14425   4.182   1.904   4.434
 4509SOL    HW114426   4.153   1.865   4.521
 4509SOL    HW214427   4.105   1.902   4.370
 4510SOL     OW14428   5.929   0.642   5.066
 4510SOL    HW114429   5.890   0.648   5.158
 4510SOL    HW214430   5.886   0.567   5.015
 4511SOL     OW14431   0.132   3.196   0.552
 4511SOL    HW114432   0.075   3.123   0.589
 4511SOL    HW214433   0.100   3.222   0.461
 4512SOL     OW14434   2.674   0.013   6.933
 4512SOL    HW114435   2.704   0.108   6.921
 4512SOL    HW214436   2.684   7.010   0.006
 4513SOL     OW14437   4.244   6.319   1.379
 4513SOL    HW114438   4.315   6.388   1.389
 4513SOL    HW214439   4.162   6.347   1.429
 4514SOL     OW14440   3.702   1.020   4.532
 4514SOL    HW114441   3.768   1.094   4.527
 4514SOL    HW214442   3.714   0.970   4.618
 4515SOL     OW14443   6.595   4.708   6.592
 4515SOL    HW114444   6.497   4.708   6.610
 4515SOL    HW214445   6.644   4.679   6.674
 4516SOL     OW14446   1.333   0.947   5.538
 4516SOL    HW114447   1.408   1.011   5.554
 4516SOL    HW214448   1.368   0.853   5.541
 4517SOL     OW14449   3.153   0.159   6.714
 4517SOL    HW114450   3.078   0.211   6.672
 4517SOL    HW214451   3.238   0.209   6.702
 4518SOL     OW14452   0.920   2.038   3.849
 4518SOL    HW114453   0.848   2.030   3.918
 4518SOL    HW214454   1.009   2.017   3.891
 4519SOL     OW14455   0.419   1.899   3.761
 4519SOL    HW114456   0.323   1.879   3.742
 4519SOL    HW214457   0.475   1.822   3.730
 4520SOL     OW14458   6.126   4.674   2.425
 4520SOL    HW114459   6.212   4.724   2.440
 4520SOL    HW214460   6.135   4.614   2.346
 4521SOL     OW14461   4.889   2.439   5.978
 4521SOL    HW114462   4.981   2.406   5.955
 4521SOL    HW214463   4.833   2.439   5.896
 4522SOL     OW14464   5.285   6.673   4.009
 4522SOL    HW114465   5.373   6.624   4.006
 4522SOL    HW214466   5.295   6.761   3.962
 4523SOL     OW14467   2.871   5.238   0.141
 4523SOL    HW114468   2.821   5.254   0.055
 4523SOL    HW214469   2.910   5.146   0.139
 4524SOL     OW14470   5.273   1.788   5.686
 4524SOL    HW114471   5.285   1.874   5.736
 4524SOL    HW214472   5.353   1.730   5.700
 4525SOL     OW14473   6.402   1.877   4.169
 4525SOL    HW114474   6.422   1.802   4.231
 4525SOL    HW214475   6.487   1.923   4.143
 4526SOL     OW14476   5.128   6.789   1.310
 4526SOL    HW114477   5.088   6.800   1.401
 4526SOL    HW214478   5.083   6.852   1.246
 4527SOL     OW14479   4.049   0.673   3.330
 4527SOL    HW114480   3.983   0.740   3.365
 4527SOL    HW214481   4.139   0.692   3.367
 4528SOL     OW14482   5.078   6.902   6.974
 4528SOL    HW114483   4.980   6.919   6.979
 4528SOL    HW214484   5.123   6.981   6.931
 4529SOL     OW14485   2.720   0.939   3.385
 4529SOL    HW114486   2.762   0.957   3.295
 4529SOL    HW214487   2.634   0.889   3.372
 4530SOL     OW14488   0.525   2.985   5.633
 4530SOL    HW114489   0.461   2.914   5.604
 4530SOL    HW214490   0.534   2.983   5.733
 4531SOL     OW14491   1.236   3.926   3.025
 4531SOL    HW114492   1.228   4.002   2.961
 4531SOL    HW214493   1.293   3.855   2.985
 4532SOL     OW14494   6.568   1.100   1.099
 4532SOL    HW114495   6.488   1.042   1.113
 4532SOL    HW214496   6.543   1.196   1.113
 4533SOL     OW14497   1.426   0.025   3.387
 4533SOL    HW114498   1.523   0.020   3.366
 4533SOL    HW214499   1.391   0.116   3.365
 4534SOL     OW14500   6.059   3.617   5.108
 4534SOL    HW114501   6.100   3.702   5.077
 4534SOL    HW214502   6.115   3.577   5.180
 4535SOL     OW14503   4.687   2.705   1.987
 4535SOL    HW114504   4.732   2.705   1.898
 4535SOL    HW214505   4.674   2.799   2.018
 4536SOL     OW14506   4.887   0.864   4.817
 4536SOL    HW114507   4.911   0.799   4.745
 4536SOL    HW214508   4.823   0.932   4.781
 4537SOL     OW14509   3.763   3.262   6.761
 4537SOL    HW114510   3.767   3.316   6.845
 4537SOL    HW214511   3.813   3.176   6.774
 4538SOL     OW14512   3.437   1.400   3.278
 4538SOL    HW114513   3.536   1.407   3.288
 4538SOL    HW214514   3.392   1.449   3.353
 4539SOL     OW14515   2.855   2.059   3.646
 4539SOL    HW114516   2.763   2.056   3.607
 4539SOL    HW214517   2.906   2.136   3.608
 4540SOL     OW14518   3.727   3.702   4.177
 4540SOL    HW114519   3.685   3.731   4.090
 4540SOL    HW214520   3.656   3.694   4.247
 4541SOL     OW14521   5.421   0.690   0.043
 4541SOL    HW114522   5.414   0.662   0.139
 4541SOL    HW214523   5.329   0.696   0.004
 4542SOL     OW14524   6.260   5.765   1.606
 4542SOL    HW114525   6.251   5.690   1.541
 4542SOL    HW214526   6.175   5.817   1.609
 4543SOL     OW14527   4.958   1.575   0.690
 4543SOL    HW114528   4.958   1.478   0.713
 4543SOL    HW214529   4.865   1.604   0.668
 4544SOL     OW14530   2.171   6.330   6.878
 4544SOL    HW114531   2.253   6.280   6.907
 4544SOL    HW214532   2.179   6.355   6.782
 4545SOL     OW14533   4.194   2.348   5.445
 4545SOL    HW114534   4.108   2.326   5.400
 4545SOL    HW214535   4.218   2.273   5.508
 4546SOL     OW14536   0.726   6.714   5.820
 4546SOL    HW114537   0.819   6.742   5.794
 4546SOL    HW214538   0.660   6.761   5.762
 4547SOL     OW14539   5.492   2.404   1.352
 4547SOL    HW114540   5.497   2.314   1.396
 4547SOL    HW214541   5.412   2.409   1.294
 4548SOL     OW14542   0.583   4.449   3.850
 4548SOL    HW114543   0.492   4.421   3.820
 4548SOL    HW214544   0.583   4.461   3.949
 4549SOL     OW14545   7.023   2.916   3.292
 4549SOL    HW114546   7.002   3.014   3.286
 4549SOL    HW214547   0.094   2.905   3.324
 4550SOL     OW14548   0.902   6.381   3.733
 4550SOL    HW114549   0.955   6.306   3.691
 4550SOL    HW214550   0.964   6.443   3.781
 4551SOL     OW14551   0.554   2.796   4.971
 4551SOL    HW114552   0.459   2.765   4.983
 4551SOL    HW214553   0.554   2.888   4.933
 4552SOL     OW14554   0.597   3.222   5.499
 4552SOL    HW114555   0.526   3.227   5.429
 4552SOL    HW214556   0.595   3.132   5.542
 4553SOL     OW14557   4.438   4.945   0.317
 4553SOL    HW114558   4.453   5.004   0.238
 4553SOL    HW214559   4.412   4.853   0.285
 4554SOL     OW14560   4.331   0.396   2.494
 4554SOL    HW114561   4.381   0.347   2.566
 4554SOL    HW214562   4.283   0.473   2.534
 4555SOL     OW14563   4.498   2.215   6.582
 4555SOL    HW114564   4.429   2.173   6.642
 4555SOL    HW214565   4.456   2.241   6.496
 4556SOL     OW14566   4.003   0.766   3.657
 4556SOL    HW114567   4.015   0.668   3.643
 4556SOL    HW214568   3.922   0.797   3.608
 4557SOL     OW14569   5.080   0.297   5.132
 4557SOL    HW114570   5.123   0.302   5.222
 4557SOL    HW214571   5.149   0.311   5.061
 4558SOL     OW14572   6.224   3.691   6.301
 4558SOL    HW114573   6.294   3.646   6.245
 4558SOL    HW214574   6.169   3.622   6.347
 4559SOL     OW14575   1.494   6.108   1.140
 4559SOL    HW114576   1.588   6.094   1.172
 4559SOL    HW214577   1.431   6.101   1.218
 4560SOL     OW14578   4.907   3.691   3.250
 4560SOL    HW114579   5.002   3.710   3.227
 4560SOL    HW214580   4.898   3.595   3.279
 4561SOL     OW14581   2.967   1.207   0.209
 4561SOL    HW114582   3.041   1.274   0.210
 4561SOL    HW214583   2.982   1.140   0.283
 4562SOL     OW14584   3.083   5.788   5.783
 4562SOL    HW114585   3.129   5.706   5.817
 4562SOL    HW214586   3.149   5.848   5.738
 4563SOL     OW14587   5.891   2.642   0.105
 4563SOL    HW114588   5.901   2.666   0.009
 4563SOL    HW214589   5.854   2.549   0.113
 4564SOL     OW14590   0.876   5.236   0.626
 4564SOL    HW114591   0.783   5.272   0.640
 4564SOL    HW214592   0.877   5.138   0.646
 4565SOL     OW14593   0.493   1.858   4.887
 4565SOL    HW114594   0.502   1.767   4.928
 4565SOL    HW214595   0.582   1.904   4.889
 4566SOL     OW14596   6.912   0.090   6.613
 4566SOL    HW114597   6.936   0.133   6.527
 4566SOL    HW214598   6.994   0.077   6.669
 4567SOL     OW14599   0.372   0.343   0.821
 4567SOL    HW114600   0.455   0.384   0.858
 4567SOL    HW214601   0.293   0.373   0.875
 4568SOL     OW14602   2.611   4.765   5.632
 4568SOL    HW114603   2.652   4.686   5.678
 4568SOL    HW214604   2.679   4.838   5.625
 4569SOL     OW14605   0.993   1.690   4.456
 4569SOL    HW114606   0.960   1.701   4.363
 4569SOL    HW214607   1.066   1.756   4.474
 4570SOL     OW14608   7.011   5.904   3.163
 4570SOL    HW114609   0.032   5.820   3.192
 4570SOL    HW214610   6.969   5.891   3.073
 4571SOL     OW14611   2.956   3.695   4.796
 4571SOL    HW114612   2.949   3.693   4.697
 4571SOL    HW214613   3.017   3.622   4.827
 4572SOL     OW14614   0.192   6.989   0.567
 4572SOL    HW114615   0.140   6.916   0.612
 4572SOL    HW214616   0.240   0.019   0.636
 4573SOL     OW14617   5.796   5.947   1.446
 4573SOL    HW114618   5.865   5.963   1.516
 4573SOL    HW214619   5.707   5.934   1.490
 4574SOL     OW14620   0.047   4.911   1.241
 4574SOL    HW114621   7.009   4.859   1.300
 4574SOL    HW214622   0.117   4.849   1.204
 4575SOL     OW14623   6.120   1.924   0.296
 4575SOL    HW114624   6.038   1.869   0.306
 4575SOL    HW214625   6.133   1.980   0.379
 4576SOL     OW14626   3.098   5.796   6.683
 4576SOL    HW114627   3.074   5.704   6.654
 4576SOL    HW214628   3.156   5.839   6.614
 4577SOL     OW14629   0.829   3.610   3.334
 4577SOL    HW114630   0.764   3.646   3.267
 4577SOL    HW214631   0.870   3.685   3.385
 4578SOL     OW14632   0.644   3.574   3.726
 4578SOL    HW114633   0.689   3.534   3.646
 4578SOL    HW214634   0.702   3.646   3.765
 4579SOL     OW14635   4.417   1.813   2.697
 4579SOL    HW114636   4.429   1.714   2.692
 4579SOL    HW214637   4.388   1.839   2.789
 4580SOL     OW14638   5.846   5.234   0.816
 4580SOL    HW114639   5.888   5.325   0.820
 4580SOL    HW214640   5.889   5.174   0.883
 4581SOL     OW14641   3.133   4.919   3.622
 4581SOL    HW114642   3.224   4.961   3.618
 4581SOL    HW214643   3.112   4.876   3.534
 4582SOL     OW14644   5.358   6.326   3.790
 4582SOL    HW114645   5.329   6.420   3.769
 4582SOL    HW214646   5.409   6.326   3.876
 4583SOL     OW14647   3.019   1.969   5.033
 4583SOL    HW114648   3.069   2.056   5.034
 4583SOL    HW214649   3.006   1.939   4.938
 4584SOL     OW14650   0.168   5.759   5.587
 4584SOL    HW114651   0.185   5.662   5.605
 4584SOL    HW214652   0.145   5.771   5.490
 4585SOL     OW14653   3.246   6.521   2.943
 4585SOL    HW114654   3.179   6.573   2.889
 4585SOL    HW214655   3.305   6.469   2.881
 4586SOL     OW14656   3.121   5.078   1.153
 4586SOL    HW114657   3.160   5.160   1.111
 4586SOL    HW214658   3.109   5.094   1.251
 4587SOL     OW14659   4.137   3.504   1.761
 4587SOL    HW114660   4.127   3.549   1.849
 4587SOL    HW214661   4.229   3.464   1.754
 4588SOL     OW14662   4.100   3.730   4.737
 4588SOL    HW114663   4.162   3.694   4.668
 4588SOL    HW214664   4.006   3.726   4.703
 4589SOL     OW14665   6.172   2.091   2.521
 4589SOL    HW114666   6.097   2.028   2.541
 4589SOL    HW214667   6.149   2.182   2.555
 4590SOL     OW14668   4.215   6.179   2.895
 4590SOL    HW114669   4.199   6.237   2.975
 4590SOL    HW214670   4.192   6.084   2.917
 4591SOL     OW14671   6.342   5.744   5.744
 4591SOL    HW114672   6.334   5.740   5.644
 4591SOL    HW214673   6.324   5.837   5.775
 4592SOL     OW14674   4.435   2.922   0.934
 4592SOL    HW114675   4.444   2.881   0.844
 4592SOL    HW214676   4.345   2.964   0.944
 4593SOL     OW14677   4.230   5.583   3.250
 4593SOL    HW114678   4.155   5.593   3.185
 4593SOL    HW214679   4.317   5.591   3.202
 4594SOL     OW14680   3.499   2.083   2.353
 4594SOL    HW114681   3.482   2.150   2.280
 4594SOL    HW214682   3.421   2.082   2.416
 4595SOL     OW14683   3.679   2.946   6.410
 4595SOL    HW114684   3.732   2.862   6.416
 4595SOL    HW214685   3.588   2.931   6.447
 4596SOL     OW14686   5.781   6.108   2.232
 4596SOL    HW114687   5.725   6.187   2.207
 4596SOL    HW214688   5.810   6.060   2.150
 4597SOL     OW14689   5.433   5.225   6.566
 4597SOL    HW114690   5.406   5.243   6.661
 4597SOL    HW214691   5.492   5.298   6.534
 4598SOL     OW14692   1.696   5.131   6.377
 4598SOL    HW114693   1.604   5.134   6.416
 4598SOL    HW214694   1.709   5.043   6.330
 4599SOL     OW14695   0.954   3.874   1.197
 4599SOL    HW114696   1.010   3.797   1.229
 4599SOL    HW214697   1.014   3.952   1.179
 4600SOL     OW14698   2.684   5.362   6.382
 4600SOL    HW114699   2.782   5.341   6.386
 4600SOL    HW214700   2.638   5.320   6.460
 4601SOL     OW14701   1.497   0.694   5.275
 4601SOL    HW114702   1.404   0.728   5.285
 4601SOL    HW214703   1.516   0.627   5.346
 4602SOL     OW14704   1.274   6.670   1.085
 4602SOL    HW114705   1.211   6.655   1.008
 4602SOL    HW214706   1.368   6.657   1.053
 4603SOL     OW14707   3.571   6.495   1.891
 4603SOL    HW114708   3.535   6.435   1.820
 4603SOL    HW214709   3.513   6.576   1.899
 4604SOL     OW14710   3.918   0.234   1.762
 4604SOL    HW114711   3.948   0.231   1.857
 4604SOL    HW214712   3.984   0.286   1.707
 4605SOL     OW14713   4.772   0.458   4.154
 4605SOL    HW114714   4.742   0.362   4.160
 4605SOL    HW214715   4.764   0.490   4.059
 4606SOL     OW14716   0.098   6.424   3.474
 4606SOL    HW114717   0.077   6.514   3.513
 4606SOL    HW214718   0.156   6.435   3.394
 4607SOL     OW14719   2.486   2.619   1.258
 4607SOL    HW114720   2.574   2.622   1.305
 4607SOL    HW214721   2.438   2.534   1.283
 4608SOL     OW14722   1.768   5.003   5.333
 4608SOL    HW114723   1.677   4.962   5.332
 4608SOL    HW214724   1.775   5.071   5.260
 4609SOL     OW14725   4.169   5.676   6.400
 4609SOL    HW114726   4.203   5.737   6.471
 4609SOL    HW214727   4.113   5.728   6.336
 4610SOL     OW14728   6.654   2.541   0.346
 4610SOL    HW114729   6.590   2.465   0.356
 4610SOL    HW214730   6.741   2.507   0.310
 4611SOL     OW14731   6.516   4.256   6.964
 4611SOL    HW114732   6.565   4.266   0.027
 4611SOL    HW214733   6.575   4.288   6.890
 4612SOL     OW14734   2.088   5.678   6.721
 4612SOL    HW114735   2.067   5.771   6.691
 4612SOL    HW214736   2.172   5.647   6.676
 4613SOL     OW14737   2.577   4.941   2.711
 4613SOL    HW114738   2.570   5.039   2.725
 4613SOL    HW214739   2.672   4.913   2.714
 4614SOL     OW14740   1.791   5.476   6.963
 4614SOL    HW114741   1.880   5.434   6.945
 4614SOL    HW214742   1.774   5.478   0.038
 4615SOL     OW14743   1.639   1.483   0.808
 4615SOL    HW114744   1.570   1.543   0.848
 4615SOL    HW214745   1.696   1.536   0.744
 4616SOL     OW14746   6.501   0.330   6.858
 4616SOL    HW114747   6.475   0.295   6.768
 4616SOL    HW214748   6.433   0.301   6.926
 4617SOL     OW14749   0.724   2.437   2.822
 4617SOL    HW114750   0.643   2.440   2.764
 4617SOL    HW214751   0.793   2.378   2.780
 4618SOL     OW14752   1.402   2.132   5.504
 4618SOL    HW114753   1.348   2.059   5.545
 4618SOL    HW214754   1.468   2.166   5.571
 4619SOL     OW14755   4.195   0.374   3.750
 4619SOL    HW114756   4.247   0.422   3.681
 4619SOL    HW214757   4.252   0.361   3.832
 4620SOL     OW14758   3.794   4.208   0.128
 4620SOL    HW114759   3.802   4.118   0.086
 4620SOL    HW214760   3.863   4.217   0.200
 4621SOL     OW14761   6.592   1.599   5.140
 4621SOL    HW114762   6.534   1.537   5.193
 4621SOL    HW214763   6.568   1.693   5.161
 4622SOL     OW14764   1.357   2.726   0.949
 4622SOL    HW114765   1.401   2.638   0.934
 4622SOL    HW214766   1.338   2.737   1.047
 4623SOL     OW14767   7.016   5.014   0.977
 4623SOL    HW114768   0.038   4.973   1.056
 4623SOL    HW214769   6.935   4.960   0.953
 4624SOL     OW14770   4.622   0.940   3.903
 4624SOL    HW114771   4.603   1.029   3.943
 4624SOL    HW214772   4.707   0.944   3.850
 4625SOL     OW14773   1.381   4.607   6.981
 4625SOL    HW114774   1.480   4.607   6.966
 4625SOL    HW214775   1.335   4.652   6.904
 4626SOL     OW14776   6.415   4.635   1.789
 4626SOL    HW114777   6.357   4.625   1.708
 4626SOL    HW214778   6.412   4.551   1.843
 4627SOL     OW14779   3.857   6.077   5.949
 4627SOL    HW114780   3.830   6.160   5.999
 4627SOL    HW214781   3.776   6.023   5.928
 4628SOL     OW14782   6.339   4.750   2.220
 4628SOL    HW114783   6.259   4.689   2.215
 4628SOL    HW214784   6.345   4.789   2.312
 4629SOL     OW14785   1.892   4.763   6.176
 4629SOL    HW114786   1.821   4.768   6.106
 4629SOL    HW214787   1.935   4.673   6.173
 4630SOL     OW14788   2.991   5.897   3.707
 4630SOL    HW114789   2.909   5.908   3.651
 4630SOL    HW214790   3.002   5.801   3.730
 4631SOL     OW14791   2.048   6.624   3.608
 4631SOL    HW114792   2.137   6.629   3.564
 4631SOL    HW214793   1.982   6.677   3.556
 4632SOL     OW14794   4.104   5.366   4.038
 4632SOL    HW114795   4.138   5.271   4.041
 4632SOL    HW214796   4.174   5.427   4.074
 4633SOL     OW14797   6.781   2.308   5.354
 4633SOL    HW114798   6.702   2.247   5.354
 4633SOL    HW214799   6.773   2.372   5.277
 4634SOL     OW14800   2.796   4.528   0.397
 4634SOL    HW114801   2.804   4.504   0.494
 4634SOL    HW214802   2.860   4.474   0.343
 4635SOL     OW14803   5.838   3.333   2.744
 4635SOL    HW114804   5.838   3.285   2.831
 4635SOL    HW214805   5.834   3.432   2.761
 4636SOL     OW14806   2.733   5.269   6.912
 4636SOL    HW114807   2.809   5.306   6.859
 4636SOL    HW214808   2.739   5.169   6.913
 4637SOL     OW14809   1.174   0.720   6.868
 4637SOL    HW114810   1.161   0.795   6.932
 4637SOL    HW214811   1.090   0.706   6.815
 4638SOL     OW14812   3.764   2.964   6.057
 4638SOL    HW114813   3.755   3.022   5.976
 4638SOL    HW214814   3.674   2.953   6.100
 4639SOL     OW14815   0.848   4.119   6.153
 4639SOL    HW114816   0.768   4.141   6.098
 4639SOL    HW214817   0.822   4.058   6.228
 4640SOL     OW14818   4.973   4.377   4.085
 4640SOL    HW114819   4.946   4.472   4.101
 4640SOL    HW214820   4.940   4.320   4.160
 4641SOL     OW14821   2.813   5.071   4.410
 4641SOL    HW114822   2.898   5.028   4.380
 4641SOL    HW214823   2.796   5.153   4.356
 4642SOL     OW14824   6.728   5.273   4.907
 4642SOL    HW114825   6.717   5.356   4.852
 4642SOL    HW214826   6.738   5.194   4.846
 4643SOL     OW14827   4.521   2.288   1.000
 4643SOL    HW114828   4.476   2.237   0.927
 4643SOL    HW214829   4.536   2.382   0.971
 4644SOL     OW14830   1.279   5.233   4.719
 4644SOL    HW114831   1.278   5.323   4.762
 4644SOL    HW214832   1.339   5.235   4.639
 4645SOL     OW14833   2.147   6.281   4.583
 4645SOL    HW114834   2.088   6.340   4.639
 4645SOL    HW214835   2.198   6.338   4.518
 4646SOL     OW14836   2.704   0.283   2.231
 4646SOL    HW114837   2.630   0.228   2.191
 4646SOL    HW214838   2.734   0.351   2.165
 4647SOL     OW14839   0.762   6.894   3.305
 4647SOL    HW114840   0.786   6.963   3.372
 4647SOL    HW214841   0.735   6.938   3.219
 4648SOL     OW14842   3.474   6.795   2.621
 4648SOL    HW114843   3.534   6.876   2.617
 4648SOL    HW214844   3.488   6.739   2.539
 4649SOL     OW14845   4.909   1.190   5.843
 4649SOL    HW114846   4.993   1.179   5.790
 4649SOL    HW214847   4.839   1.234   5.787
 4650SOL     OW14848   3.918   6.467   2.881
 4650SOL    HW114849   3.931   6.375   2.917
 4650SOL    HW214850   3.823   6.478   2.851
 4651SOL     OW14851   0.362   2.559   1.814
 4651SOL    HW114852   0.355   2.459   1.808
 4651SOL    HW214853   0.280   2.600   1.774
 4652SOL     OW14854   0.708   0.217   3.208
 4652SOL    HW114855   0.683   0.126   3.176
 4652SOL    HW214856   0.634   0.281   3.186
 4653SOL     OW14857   6.864   6.406   6.994
 4653SOL    HW114858   6.860   6.372   6.900
 4653SOL    HW214859   6.775   6.394   0.014
 4654SOL     OW14860   0.807   6.996   0.255
 4654SOL    HW114861   0.893   7.022   0.300
 4654SOL    HW214862   0.783   0.041   0.186
 4655SOL     OW14863   0.599   4.895   2.749
 4655SOL    HW114864   0.567   4.819   2.692
 4655SOL    HW214865   0.533   4.913   2.821
 4656SOL     OW14866   0.984   0.613   3.245
 4656SOL    HW114867   0.959   0.520   3.220
 4656SOL    HW214868   0.918   0.649   3.311
 4657SOL     OW14869   4.789   6.948   1.444
 4657SOL    HW114870   4.791   6.855   1.408
 4657SOL    HW214871   4.733   6.949   1.528
 4658SOL     OW14872   4.215   0.073   2.705
 4658SOL    HW114873   4.123   0.078   2.667
 4658SOL    HW214874   4.282   0.090   2.633
 4659SOL     OW14875   1.572   3.188   5.017
 4659SOL    HW114876   1.603   3.101   5.054
 4659SOL    HW214877   1.637   3.221   4.949
 4660SOL     OW14878   1.199   2.080   5.265
 4660SOL    HW114879   1.269   2.057   5.333
 4660SOL    HW214880   1.217   2.171   5.228
 4661SOL     OW14881   3.518   4.238   4.558
 4661SOL    HW114882   3.421   4.260   4.549
 4661SOL    HW214883   3.538   4.217   4.654
 4662SOL     OW14884   5.107   0.500   5.530
 4662SOL    HW114885   5.185   0.549   5.492
 4662SOL    HW214886   5.075   0.548   5.612
 4663SOL     OW14887   0.205   2.010   1.974
 4663SOL    HW114888   0.244   2.091   2.017
 4663SOL    HW214889   0.156   2.036   1.891
 4664SOL     OW14890   2.355   2.941   6.502
 4664SOL    HW114891   2.403   2.861   6.465
 4664SOL    HW214892   2.417   3.018   6.507
 4665SOL     OW14893   5.210   0.352   6.136
 4665SOL    HW114894   5.171   0.270   6.094
 4665SOL    HW214895   5.266   0.400   6.069
 4666SOL     OW14896   2.270   1.880   0.154
 4666SOL    HW114897   2.357   1.926   0.141
 4666SOL    HW214898   2.254   1.866   0.252
 4667SOL     OW14899   0.052   4.974   6.393
 4667SOL    HW114900   0.148   4.977   6.363
 4667SOL    HW214901   7.018   5.020   6.325
 4668SOL     OW14902   7.003   1.566   4.417
 4668SOL    HW114903   6.942   1.535   4.490
 4668SOL    HW214904   0.011   1.487   4.364
 4669SOL     OW14905   1.905   6.414   0.243
 4669SOL    HW114906   1.810   6.412   0.213
 4669SOL    HW214907   1.917   6.350   0.319
 4670SOL     OW14908   3.258   1.038   4.648
 4670SOL    HW114909   3.279   1.114   4.710
 4670SOL    HW214910   3.159   1.032   4.634
 4671SOL     OW14911   6.297   2.880   1.693
 4671SOL    HW114912   6.375   2.858   1.636
 4671SOL    HW214913   6.213   2.852   1.648
 4672SOL     OW14914   1.780   3.757   5.695
 4672SOL    HW114915   1.693   3.806   5.704
 4672SOL    HW214916   1.856   3.821   5.706
 4673SOL     OW14917   3.575   0.625   1.422
 4673SOL    HW114918   3.526   0.582   1.345
 4673SOL    HW214919   3.670   0.640   1.396
 4674SOL     OW14920   5.408   5.594   5.458
 4674SOL    HW114921   5.412   5.556   5.366
 4674SOL    HW214922   5.434   5.691   5.455
 4675SOL     OW14923   1.269   3.565   0.848
 4675SOL    HW114924   1.305   3.656   0.831
 4675SOL    HW214925   1.341   3.507   0.887
 4676SOL     OW14926   1.065   6.178   3.605
 4676SOL    HW114927   1.150   6.199   3.557
 4676SOL    HW214928   1.084   6.116   3.681
 4677SOL     OW14929   1.662   1.352   1.093
 4677SOL    HW114930   1.625   1.417   1.026
 4677SOL    HW214931   1.634   1.379   1.185
 4678SOL     OW14932   2.201   3.898   2.507
 4678SOL    HW114933   2.133   3.829   2.534
 4678SOL    HW214934   2.248   3.932   2.589
 4679SOL     OW14935   5.149   6.370   1.958
 4679SOL    HW114936   5.157   6.396   2.054
 4679SOL    HW214937   5.237   6.336   1.926
 4680SOL     OW14938   3.825   1.336   1.423
 4680SOL    HW114939   3.918   1.322   1.457
 4680SOL    HW214940   3.803   1.434   1.425
 4681SOL     OW14941   5.045   4.458   6.986
 4681SOL    HW114942   4.959   4.474   6.936
 4681SOL    HW214943   5.092   4.379   6.945
 4682SOL     OW14944   4.305   3.495   6.444
 4682SOL    HW114945   4.229   3.431   6.432
 4682SOL    HW214946   4.377   3.474   6.378
 4683SOL     OW14947   5.441   4.545   3.263
 4683SOL    HW114948   5.423   4.538   3.165
 4683SOL    HW214949   5.509   4.616   3.280
 4684SOL     OW14950   4.117   6.114   6.777
 4684SOL    HW114951   4.082   6.071   6.861
 4684SOL    HW214952   4.192   6.176   6.801
 4685SOL     OW14953   2.092   3.822   6.082
 4685SOL    HW114954   2.045   3.735   6.088
 4685SOL    HW214955   2.025   3.896   6.070
 4686SOL     OW14956   3.335   6.235   0.550
 4686SOL    HW114957   3.238   6.209   0.552
 4686SOL    HW214958   3.343   6.330   0.520
 4687SOL     OW14959   3.258   1.795   3.130
 4687SOL    HW114960   3.193   1.795   3.054
 4687SOL    HW214961   3.333   1.731   3.109
 4688SOL     OW14962   5.581   2.474   5.725
 4688SOL    HW114963   5.543   2.483   5.633
 4688SOL    HW214964   5.605   2.565   5.760
 4689SOL     OW14965   5.521   0.073   1.528
 4689SOL    HW114966   5.609   0.046   1.566
 4689SOL    HW214967   5.511   0.173   1.536
 4690SOL     OW14968   1.921   1.365   1.108
 4690SOL    HW114969   1.945   1.276   1.146
 4690SOL    HW214970   1.821   1.374   1.103
 4691SOL     OW14971   5.096   4.385   0.571
 4691SOL    HW114972   5.082   4.297   0.615
 4691SOL    HW214973   5.026   4.400   0.501
 4692SOL     OW14974   6.481   4.429   3.078
 4692SOL    HW114975   6.529   4.360   3.025
 4692SOL    HW214976   6.538   4.459   3.154
 4693SOL     OW14977   1.699   0.952   4.197
 4693SOL    HW114978   1.667   0.896   4.272
 4693SOL    HW214979   1.799   0.950   4.193
 4694SOL     OW14980   2.175   1.800   0.519
 4694SOL    HW114981   2.205   1.713   0.479
 4694SOL    HW214982   2.102   1.839   0.462
 4695SOL     OW14983   1.829   5.610   0.721
 4695SOL    HW114984   1.810   5.550   0.644
 4695SOL    HW214985   1.810   5.562   0.807
 4696SOL     OW14986   0.827   4.935   5.857
 4696SOL    HW114987   0.796   4.948   5.951
 4696SOL    HW214988   0.824   5.023   5.808
 4697SOL     OW14989   1.083   3.730   1.869
 4697SOL    HW114990   1.025   3.759   1.946
 4697SOL    HW214991   1.156   3.797   1.855
 4698SOL     OW14992   4.592   0.296   3.484
 4698SOL    HW114993   4.625   0.243   3.562
 4698SOL    HW214994   4.511   0.347   3.511
 4699SOL     OW14995   0.468   0.537   2.194
 4699SOL    HW114996   0.388   0.503   2.144
 4699SOL    HW214997   0.469   0.496   2.286
 4700SOL     OW14998   6.675   1.945   2.399
 4700SOL    HW114999   6.677   1.869   2.464
 4700SOL    HW215000   6.581   1.974   2.383
 4701SOL     OW15001   3.182   1.797   2.086
 4701SOL    HW115002   3.169   1.853   2.168
 4701SOL    HW215003   3.232   1.850   2.017
 4702SOL     OW15004   4.818   4.875   0.251
 4702SOL    HW115005   4.907   4.884   0.207
 4702SOL    HW215006   4.807   4.947   0.320
 4703SOL     OW15007   1.260   5.553   2.465
 4703SOL    HW115008   1.203   5.634   2.462
 4703SOL    HW215009   1.337   5.563   2.402
 4704SOL     OW15010   0.489   6.266   5.470
 4704SOL    HW115011   0.526   6.270   5.378
 4704SOL    HW215012   0.530   6.338   5.526
 4705SOL     OW15013   3.124   2.935   1.031
 4705SOL    HW115014   3.196   2.952   0.964
 4705SOL    HW215015   3.122   2.837   1.054
 4706SOL     OW15016   1.125   0.089   0.939
 4706SOL    HW115017   1.167   0.136   1.017
 4706SOL    HW215018   1.025   0.091   0.949
 4707SOL     OW15019   1.703   6.370   1.051
 4707SOL    HW115020   1.767   6.370   1.128
 4707SOL    HW215021   1.694   6.277   1.016
 4708SOL     OW15022   1.639   1.641   4.872
 4708SOL    HW115023   1.546   1.656   4.840
 4708SOL    HW215024   1.669   1.549   4.844
 4709SOL     OW15025   4.968   5.005   5.062
 4709SOL    HW115026   4.943   5.086   5.116
 4709SOL    HW215027   5.068   4.995   5.062
 4710SOL     OW15028   5.623   6.328   4.382
 4710SOL    HW115029   5.647   6.248   4.327
 4710SOL    HW215030   5.554   6.383   4.334
 4711SOL     OW15031   6.173   2.741   3.296
 4711SOL    HW115032   6.106   2.729   3.222
 4711SOL    HW215033   6.126   2.750   3.383
 4712SOL     OW15034   4.421   4.285   5.975
 4712SOL    HW115035   4.397   4.327   6.062
 4712SOL    HW215036   4.361   4.207   5.957
 4713SOL     OW15037   5.062   5.092   1.117
 4713SOL    HW115038   5.093   5.105   1.212
 4713SOL    HW215039   5.091   5.170   1.062
 4714SOL     OW15040   6.493   1.905   6.752
 4714SOL    HW115041   6.570   1.843   6.765
 4714SOL    HW215042   6.410   1.852   6.736
 4715SOL     OW15043   6.279   1.912   1.504
 4715SOL    HW115044   6.226   1.924   1.421
 4715SOL    HW215045   6.353   1.979   1.506
 4716SOL     OW15046   4.362   5.321   5.380
 4716SOL    HW115047   4.426   5.254   5.342
 4716SOL    HW215048   4.373   5.408   5.334
 4717SOL     OW15049   2.390   5.891   5.914
 4717SOL    HW115050   2.290   5.886   5.916
 4717SOL    HW215051   2.424   5.837   5.838
 4718SOL     OW15052   5.251   2.779   1.332
 4718SOL    HW115053   5.339   2.741   1.306
 4718SOL    HW215054   5.178   2.731   1.284
 4719SOL     OW15055   6.040   3.597   3.576
 4719SOL    HW115056   6.092   3.532   3.631
 4719SOL    HW215057   6.097   3.677   3.556
 4720SOL     OW15058   2.980   4.988   0.066
 4720SOL    HW115059   3.027   4.966   0.151
 4720SOL    HW215060   3.044   4.978   7.013
 4721SOL     OW15061   6.115   3.184   1.547
 4721SOL    HW115062   6.164   3.262   1.507
 4721SOL    HW215063   6.113   3.109   1.481
 4722SOL     OW15064   0.984   4.771   0.175
 4722SOL    HW115065   1.040   4.700   0.132
 4722SOL    HW215066   0.891   4.767   0.137
 4723SOL     OW15067   3.359   4.403   5.364
 4723SOL    HW115068   3.260   4.405   5.350
 4723SOL    HW215069   3.386   4.315   5.403
 4724SOL     OW15070   7.005   6.415   3.878
 4724SOL    HW115071   6.989   6.323   3.913
 4724SOL    HW215072   0.078   6.438   3.888
 4725SOL     OW15073   6.019   5.049   0.535
 4725SOL    HW115074   6.080   5.090   0.602
 4725SOL    HW215075   5.927   5.045   0.572
 4726SOL     OW15076   1.958   2.742   5.443
 4726SOL    HW115077   2.051   2.719   5.417
 4726SOL    HW215078   1.903   2.658   5.450
 4727SOL     OW15079   0.654   5.628   0.550
 4727SOL    HW115080   0.720   5.653   0.479
 4727SOL    HW215081   0.702   5.589   0.629
 4728SOL     OW15082   6.002   1.681   2.905
 4728SOL    HW115083   6.020   1.596   2.854
 4728SOL    HW215084   5.968   1.658   2.996
 4729SOL     OW15085   4.831   0.180   0.070
 4729SOL    HW115086   4.753   0.242   0.065
 4729SOL    HW215087   4.909   0.221   0.024
 4730SOL     OW15088   3.884   6.781   4.673
 4730SOL    HW115089   3.835   6.864   4.699
 4730SOL    HW215090   3.837   6.736   4.597
 4731SOL     OW15091   3.035   0.767   0.627
 4731SOL    HW115092   3.010   0.781   0.723
 4731SOL    HW215093   2.983   0.690   0.590
 4732SOL     OW15094   0.782   3.453   5.248
 4732SOL    HW115095   0.809   3.370   5.297
 4732SOL    HW215096   0.807   3.533   5.302
 4733SOL     OW15097   1.959   4.350   2.992
 4733SOL    HW115098   1.900   4.279   3.031
 4733SOL    HW215099   1.902   4.426   2.960
 4734SOL     OW15100   4.976   3.244   6.425
 4734SOL    HW115101   4.982   3.173   6.495
 4734SOL    HW215102   5.043   3.316   6.444
 4735SOL     OW15103   0.305   6.071   3.745
 4735SOL    HW115104   0.360   6.115   3.674
 4735SOL    HW215105   0.362   6.053   3.825
 4736SOL     OW15106   6.514   2.127   3.940
 4736SOL    HW115107   6.513   2.027   3.935
 4736SOL    HW215108   6.600   2.161   3.902
 4737SOL     OW15109   1.959   4.199   0.434
 4737SOL    HW115110   1.859   4.195   0.441
 4737SOL    HW215111   2.000   4.183   0.524
 4738SOL     OW15112   3.228   6.931   3.745
 4738SOL    HW115113   3.320   6.960   3.721
 4738SOL    HW215114   3.232   6.868   3.824
 4739SOL     OW15115   6.632   2.602   4.572
 4739SOL    HW115116   6.553   2.622   4.514
 4739SOL    HW215117   6.670   2.513   4.547
 4740SOL     OW15118   0.791   0.732   1.292
 4740SOL    HW115119   0.863   0.709   1.227
 4740SOL    HW215120   0.747   0.817   1.263
 4741SOL     OW15121   4.506   4.656   1.081
 4741SOL    HW115122   4.501   4.640   0.983
 4741SOL    HW215123   4.469   4.577   1.130
 4742SOL     OW15124   2.876   5.487   1.586
 4742SOL    HW115125   2.788   5.473   1.540
 4742SOL    HW215126   2.898   5.584   1.589
 4743SOL     OW15127   2.624   1.123   5.536
 4743SOL    HW115128   2.573   1.162   5.460
 4743SOL    HW215129   2.713   1.168   5.544
 4744SOL     OW15130   2.069   2.408   5.329
 4744SOL    HW115131   2.126   2.434   5.407
 4744SOL    HW215132   2.103   2.323   5.289
 4745SOL     OW15133   3.209   5.140   5.947
 4745SOL    HW115134   3.241   5.120   5.855
 4745SOL    HW215135   3.111   5.120   5.953
 4746SOL     OW15136   5.862   5.568   0.598
 4746SOL    HW115137   5.791   5.549   0.531
 4746SOL    HW215138   5.861   5.496   0.669
 4747SOL     OW15139   0.145   2.972   0.037
 4747SOL    HW115140   0.131   2.942   0.131
 4747SOL    HW215141   0.068   2.940   7.004
 4748SOL     OW15142   1.195   0.465   1.622
 4748SOL    HW115143   1.169   0.525   1.697
 4748SOL    HW215144   1.133   0.480   1.545
 4749SOL     OW15145   2.803   6.922   6.713
 4749SOL    HW115146   2.771   6.940   6.806
 4749SOL    HW215147   2.799   7.007   6.659
 4750SOL     OW15148   0.018   1.408   4.150
 4750SOL    HW115149   0.107   1.453   4.162
 4750SOL    HW215150   6.975   1.475   4.116
 4751SOL     OW15151   2.106   3.894   6.836
 4751SOL    HW115152   2.122   3.804   6.795
 4751SOL    HW215153   2.188   3.951   6.824
 4752SOL     OW15154   2.702   6.238   1.133
 4752SOL    HW115155   2.703   6.251   1.034
 4752SOL    HW215156   2.744   6.318   1.177
 4753SOL     OW15157   5.575   0.071   4.605
 4753SOL    HW115158   5.651   0.032   4.552
 4753SOL    HW215159   5.488   0.050   4.560
 4754SOL     OW15160   6.318   0.803   6.420
 4754SOL    HW115161   6.340   0.892   6.459
 4754SOL    HW215162   6.221   0.800   6.396
 4755SOL     OW15163   2.981   0.766   6.221
 4755SOL    HW115164   2.931   0.725   6.145
 4755SOL    HW215165   2.934   0.746   6.307
 4756SOL     OW15166   5.676   2.200   1.696
 4756SOL    HW115167   5.693   2.261   1.773
 4756SOL    HW215168   5.732   2.118   1.705
 4757SOL     OW15169   2.394   2.362   2.247
 4757SOL    HW115170   2.401   2.262   2.250
 4757SOL    HW215171   2.459   2.399   2.181
 4758SOL     OW15172   4.179   5.945   5.266
 4758SOL    HW115173   4.095   5.895   5.288
 4758SOL    HW215174   4.168   6.042   5.288
 4759SOL     OW15175   5.262   5.699   5.014
 4759SOL    HW115176   5.185   5.753   5.047
 4759SOL    HW215177   5.346   5.732   5.057
 4760SOL     OW15178   2.544   1.554   1.412
 4760SOL    HW115179   2.516   1.458   1.419
 4760SOL    HW215180   2.569   1.588   1.503
 4761SOL     OW15181   6.330   0.226   6.378
 4761SOL    HW115182   6.349   0.319   6.411
 4761SOL    HW215183   6.253   0.229   6.314
 4762SOL     OW15184   2.333   4.355   2.279
 4762SOL    HW115185   2.277   4.429   2.317
 4762SOL    HW215186   2.427   4.365   2.310
 4763SOL     OW15187   6.197   5.986   2.899
 4763SOL    HW115188   6.275   5.985   2.961
 4763SOL    HW215189   6.212   6.055   2.827
 4764SOL     OW15190   4.558   3.745   5.350
 4764SOL    HW115191   4.586   3.679   5.280
 4764SOL    HW215192   4.640   3.781   5.395
 4765SOL     OW15193   4.824   6.610   4.968
 4765SOL    HW115194   4.856   6.610   5.063
 4765SOL    HW215195   4.747   6.673   4.959
 4766SOL     OW15196   3.218   0.653   3.436
 4766SOL    HW115197   3.161   0.723   3.395
 4766SOL    HW215198   3.162   0.575   3.462
 4767SOL     OW15199   4.374   6.485   1.084
 4767SOL    HW115200   4.436   6.407   1.079
 4767SOL    HW215201   4.333   6.501   0.994
 4768SOL     OW15202   5.557   2.025   4.861
 4768SOL    HW115203   5.466   2.038   4.820
 4768SOL    HW215204   5.600   1.944   4.821
 4769SOL     OW15205   3.611   5.668   1.578
 4769SOL    HW115206   3.552   5.700   1.652
 4769SOL    HW215207   3.615   5.737   1.506
 4770SOL     OW15208   2.309   0.618   3.022
 4770SOL    HW115209   2.404   0.636   3.000
 4770SOL    HW215210   2.262   0.584   2.940
 4771SOL     OW15211   3.416   4.542   5.776
 4771SOL    HW115212   3.450   4.451   5.752
 4771SOL    HW215213   3.458   4.571   5.862
 4772SOL     OW15214   2.676   6.672   1.282
 4772SOL    HW115215   2.676   6.663   1.182
 4772SOL    HW215216   2.585   6.651   1.317
 4773SOL     OW15217   0.308   5.464   4.363
 4773SOL    HW115218   0.394   5.516   4.362
 4773SOL    HW215219   0.268   5.469   4.454
 4774SOL     OW15220   0.758   3.027   2.099
 4774SOL    HW115221   0.761   3.075   2.186
 4774SOL    HW215222   0.851   3.016   2.064
 4775SOL     OW15223   5.427   0.442   3.454
 4775SOL    HW115224   5.434   0.355   3.502
 4775SOL    HW215225   5.506   0.454   3.394
 4776SOL     OW15226   2.484   6.680   3.021
 4776SOL    HW115227   2.542   6.685   2.939
 4776SOL    HW215228   2.388   6.690   2.994
 4777SOL     OW15229   2.549   4.148   1.454
 4777SOL    HW115230   2.605   4.077   1.412
 4777SOL    HW215231   2.585   4.238   1.431
 4778SOL     OW15232   5.426   2.446   1.930
 4778SOL    HW115233   5.371   2.363   1.945
 4778SOL    HW215234   5.429   2.499   2.014
 4779SOL     OW15235   6.445   0.089   2.525
 4779SOL    HW115236   6.428   0.067   2.622
 4779SOL    HW215237   6.528   0.042   2.495
 4780SOL     OW15238   0.462   0.838   5.866
 4780SOL    HW115239   0.447   0.767   5.934
 4780SOL    HW215240   0.500   0.919   5.910
 4781SOL     OW15241   2.708   5.862   1.644
 4781SOL    HW115242   2.768   5.924   1.695
 4781SOL    HW215243   2.755   5.832   1.561
 4782SOL     OW15244   4.816   6.954   6.943
 4782SOL    HW115245   4.731   6.902   6.953
 4782SOL    HW215246   4.809   0.016   6.993
 4783SOL     OW15247   4.372   4.519   0.481
 4783SOL    HW115248   4.324   4.582   0.542
 4783SOL    HW215249   4.443   4.470   0.533
 4784SOL     OW15250   6.124   5.206   5.625
 4784SOL    HW115251   6.122   5.297   5.666
 4784SOL    HW215252   6.154   5.140   5.694
 4785SOL     OW15253   6.677   6.253   1.122
 4785SOL    HW115254   6.660   6.212   1.211
 4785SOL    HW215255   6.760   6.309   1.126
 4786SOL     OW15256   1.783   2.402   2.696
 4786SOL    HW115257   1.784   2.367   2.602
 4786SOL    HW215258   1.812   2.329   2.758
 4787SOL     OW15259   3.417   2.002   3.724
 4787SOL    HW115260   3.483   1.950   3.669
 4787SOL    HW215261   3.368   2.066   3.665
 4788SOL     OW15262   1.241   5.912   6.000
 4788SOL    HW115263   1.151   5.905   5.959
 4788SOL    HW215264   1.261   6.008   6.020
 4789SOL     OW15265   5.156   0.611   6.998
 4789SOL    HW115266   5.075   0.627   6.942
 4789SOL    HW215267   5.205   0.531   6.964
 4790SOL     OW15268   5.636   3.461   6.715
 4790SOL    HW115269   5.641   3.432   6.811
 4790SOL    HW215270   5.667   3.387   6.656
 4791SOL     OW15271   6.082   1.044   1.851
 4791SOL    HW115272   6.032   1.127   1.826
 4791SOL    HW215273   6.071   1.026   1.949
 4792SOL     OW15274   2.032   2.724   3.019
 4792SOL    HW115275   1.948   2.761   3.058
 4792SOL    HW215276   2.096   2.700   3.093
 4793SOL     OW15277   1.098   0.599   5.922
 4793SOL    HW115278   1.182   0.641   5.888
 4793SOL    HW215279   1.116   0.505   5.948
 4794SOL     OW15280   3.755   0.563   2.701
 4794SOL    HW115281   3.673   0.530   2.748
 4794SOL    HW215282   3.790   0.643   2.749
 4795SOL     OW15283   6.693   2.457   4.127
 4795SOL    HW115284   6.598   2.431   4.114
 4795SOL    HW215285   6.713   2.539   4.073
 4796SOL     OW15286   4.840   2.515   0.287
 4796SOL    HW115287   4.849   2.603   0.240
 4796SOL    HW215288   4.820   2.443   0.219
 4797SOL     OW15289   1.630   5.985   5.166
 4797SOL    HW115290   1.625   5.942   5.076
 4797SOL    HW215291   1.724   6.009   5.187
 4798SOL     OW15292   0.585   4.316   5.430
 4798SOL    HW115293   0.582   4.404   5.383
 4798SOL    HW215294   0.513   4.257   5.394
 4799SOL     OW15295   5.296   1.725   5.382
 4799SOL    HW115296   5.389   1.732   5.347
 4799SOL    HW215297   5.288   1.777   5.467
 4800SOL     OW15298   3.424   3.335   5.847
 4800SOL    HW115299   3.438   3.333   5.748
 4800SOL    HW215300   3.398   3.427   5.875
 4801SOL     OW15301   2.240   2.293   0.460
 4801SOL    HW115302   2.297   2.307   0.379
 4801SOL    HW215303   2.299   2.290   0.541
 4802SOL     OW15304   1.325   6.437   2.307
 4802SOL    HW115305   1.299   6.526   2.269
 4802SOL    HW215306   1.287   6.364   2.250
 4803SOL     OW15307   0.777   6.757   0.889
 4803SOL    HW115308   0.832   6.677   0.915
 4803SOL    HW215309   0.715   6.732   0.814
 4804SOL     OW15310   4.051   5.470   6.644
 4804SOL    HW115311   3.956   5.448   6.619
 4804SOL    HW215312   4.105   5.484   6.561
 4805SOL     OW15313   6.847   0.086   0.675
 4805SOL    HW115314   6.766   0.055   0.625
 4805SOL    HW215315   6.881   0.011   0.731
 4806SOL     OW15316   6.802   3.799   3.793
 4806SOL    HW115317   6.728   3.862   3.818
 4806SOL    HW215318   6.829   3.816   3.698
 4807SOL     OW15319   1.072   5.480   1.071
 4807SOL    HW115320   1.066   5.558   1.008
 4807SOL    HW215321   1.142   5.499   1.140
 4808SOL     OW15322   5.695   3.570   0.675
 4808SOL    HW115323   5.791   3.549   0.693
 4808SOL    HW215324   5.638   3.495   0.709
 4809SOL     OW15325   3.415   4.257   6.960
 4809SOL    HW115326   3.448   4.266   6.865
 4809SOL    HW215327   3.493   4.244   7.021
 4810SOL     OW15328   1.224   4.880   0.990
 4810SOL    HW115329   1.248   4.940   0.914
 4810SOL    HW215330   1.272   4.793   0.980
 4811SOL     OW15331   2.671   4.892   2.309
 4811SOL    HW115332   2.622   4.830   2.371
 4811SOL    HW215333   2.684   4.980   2.354
 4812SOL     OW15334   6.894   4.865   5.566
 4812SOL    HW115335   6.895   4.959   5.601
 4812SOL    HW215336   6.805   4.824   5.583
 4813SOL     OW15337   4.735   1.086   2.837
 4813SOL    HW115338   4.683   1.129   2.764
 4813SOL    HW215339   4.672   1.050   2.906
 4814SOL     OW15340   6.130   4.911   0.336
 4814SOL    HW115341   6.174   4.996   0.310
 4814SOL    HW215342   6.080   4.924   0.422
 4815SOL     OW15343   4.946   5.209   2.727
 4815SOL    HW115344   4.953   5.136   2.659
 4815SOL    HW215345   4.866   5.193   2.785
 4816SOL     OW15346   5.468   5.161   3.491
 4816SOL    HW115347   5.524   5.134   3.413
 4816SOL    HW215348   5.521   5.150   3.576
 4817SOL     OW15349   0.892   2.262   6.100
 4817SOL    HW115350   0.832   2.212   6.038
 4817SOL    HW215351   0.836   2.306   6.171
 4818SOL     OW15352   0.820   0.030   3.513
 4818SOL    HW115353   0.728   0.042   3.551
 4818SOL    HW215354   0.888   0.060   3.580
 4819SOL     OW15355   1.318   3.294   0.300
 4819SOL    HW115356   1.247   3.234   0.262
 4819SOL    HW215357   1.400   3.289   0.243
 4820SOL     OW15358   6.918   2.943   2.071
 4820SOL    HW115359   6.977   3.013   2.033
 4820SOL    HW215360   6.851   2.915   2.003
 4821SOL     OW15361   0.927   6.131   1.677
 4821SOL    HW115362   0.894   6.218   1.642
 4821SOL    HW215363   0.962   6.076   1.602
 4822SOL     OW15364   1.781   4.237   4.044
 4822SOL    HW115365   1.813   4.212   4.136
 4822SOL    HW215366   1.854   4.284   3.995
 4823SOL     OW15367   1.062   2.065   2.679
 4823SOL    HW115368   1.007   2.148   2.668
 4823SOL    HW215369   1.151   2.089   2.717
 4824SOL     OW15370   5.179   1.343   5.141
 4824SOL    HW115371   5.097   1.294   5.112
 4824SOL    HW215372   5.161   1.389   5.228
 4825SOL     OW15373   0.961   0.944   4.225
 4825SOL    HW115374   1.005   1.012   4.283
 4825SOL    HW215375   0.878   0.911   4.269
 4826SOL     OW15376   5.023   0.547   1.205
 4826SOL    HW115377   4.987   0.556   1.112
 4826SOL    HW215378   5.049   0.452   1.222
 4827SOL     OW15379   6.427   1.300   0.011
 4827SOL    HW115380   6.374   1.384   0.016
 4827SOL    HW215381   6.525   1.321   0.015
 4828SOL     OW15382   4.290   0.082   1.763
 4828SOL    HW115383   4.306   0.153   1.694
 4828SOL    HW215384   4.293   0.124   1.854
 4829SOL     OW15385   3.820   6.858   6.556
 4829SOL    HW115386   3.875   6.869   6.473
 4829SOL    HW215387   3.861   6.789   6.615
 4830SOL     OW15388   3.917   5.885   3.755
 4830SOL    HW115389   3.944   5.927   3.842
 4830SOL    HW215390   3.974   5.921   3.681
 4831SOL     OW15391   3.240   5.694   6.027
 4831SOL    HW115392   3.224   5.636   5.947
 4831SOL    HW215393   3.322   5.750   6.012
 4832SOL     OW15394   3.321   3.537   4.609
 4832SOL    HW115395   3.278   3.553   4.520
 4832SOL    HW215396   3.347   3.624   4.650
 4833SOL     OW15397   5.684   2.034   4.101
 4833SOL    HW115398   5.733   2.077   4.026
 4833SOL    HW215399   5.651   1.944   4.071
 4834SOL     OW15400   2.794   5.380   2.855
 4834SOL    HW115401   2.695   5.386   2.868
 4834SOL    HW215402   2.827   5.293   2.890
 4835SOL     OW15403   6.389   3.960   6.101
 4835SOL    HW115404   6.372   3.937   6.005
 4835SOL    HW215405   6.302   3.974   6.148
 4836SOL     OW15406   4.791   1.275   5.269
 4836SOL    HW115407   4.736   1.254   5.350
 4836SOL    HW215408   4.749   1.350   5.219
 4837SOL     OW15409   6.402   2.856   3.574
 4837SOL    HW115410   6.461   2.777   3.557
 4837SOL    HW215411   6.451   2.940   3.555
 4838SOL     OW15412   1.208   5.165   6.086
 4838SOL    HW115413   1.129   5.187   6.028
 4838SOL    HW215414   1.189   5.196   6.179
 4839SOL     OW15415   1.153   2.672   6.629
 4839SOL    HW115416   1.232   2.615   6.651
 4839SOL    HW215417   1.085   2.618   6.580
 4840SOL     OW15418   5.418   4.050   5.169
 4840SOL    HW115419   5.392   3.970   5.114
 4840SOL    HW215420   5.517   4.053   5.178
 4841SOL     OW15421   3.130   5.192   3.673
 4841SOL    HW115422   3.048   5.244   3.697
 4841SOL    HW215423   3.108   5.094   3.671
 4842SOL     OW15424   2.717   5.123   3.227
 4842SOL    HW115425   2.706   5.031   3.264
 4842SOL    HW215426   2.764   5.180   3.295
 4843SOL     OW15427   0.339   2.922   2.298
 4843SOL    HW115428   0.414   2.988   2.286
 4843SOL    HW215429   0.297   2.936   2.388
 4844SOL     OW15430   0.909   4.730   5.115
 4844SOL    HW115431   0.971   4.770   5.047
 4844SOL    HW215432   0.826   4.698   5.070
 4845SOL     OW15433   4.515   4.629   5.178
 4845SOL    HW115434   4.566   4.555   5.223
 4845SOL    HW215435   4.465   4.592   5.100
 4846SOL     OW15436   0.624   2.142   4.317
 4846SOL    HW115437   0.667   2.183   4.397
 4846SOL    HW215438   0.613   2.044   4.332
 4847SOL     OW15439   2.683   6.890   5.422
 4847SOL    HW115440   2.670   6.806   5.369
 4847SOL    HW215441   2.754   6.875   5.491
 4848SOL     OW15442   1.836   1.038   3.875
 4848SOL    HW115443   1.802   1.127   3.904
 4848SOL    HW215444   1.936   1.037   3.880
 4849SOL     OW15445   1.578   0.412   0.271
 4849SOL    HW115446   1.478   0.408   0.274
 4849SOL    HW215447   1.607   0.441   0.180
 4850SOL     OW15448   4.611   0.769   1.407
 4850SOL    HW115449   4.669   0.709   1.352
 4850SOL    HW215450   4.618   0.863   1.373
 4851SOL     OW15451   3.567   5.693   0.305
 4851SOL    HW115452   3.549   5.694   0.207
 4851SOL    HW215453   3.485   5.665   0.354
 4852SOL     OW15454   3.597   6.011   4.906
 4852SOL    HW115455   3.602   5.991   5.004
 4852SOL    HW215456   3.592   5.926   4.855
 4853SOL     OW15457   3.190   0.716   2.764
 4853SOL    HW115458   3.194   0.772   2.682
 4853SOL    HW215459   3.184   0.619   2.738
 4854SOL     OW15460   5.423   6.311   1.856
 4854SOL    HW115461   5.457   6.373   1.785
 4854SOL    HW215462   5.499   6.275   1.909
 4855SOL     OW15463   0.267   4.022   4.965
 4855SOL    HW115464   0.261   4.017   4.865
 4855SOL    HW215465   0.289   3.932   5.002
 4856SOL     OW15466   0.497   3.577   2.938
 4856SOL    HW115467   0.558   3.551   2.863
 4856SOL    HW215468   0.454   3.494   2.975
 4857SOL     OW15469   2.826   2.132   4.340
 4857SOL    HW115470   2.916   2.148   4.383
 4857SOL    HW215471   2.791   2.219   4.304
 4858SOL     OW15472   0.410   0.163   5.011
 4858SOL    HW115473   0.377   0.157   4.917
 4858SOL    HW215474   0.360   0.098   5.068
 4859SOL     OW15475   0.902   5.440   2.095
 4859SOL    HW115476   0.853   5.509   2.148
 4859SOL    HW215477   0.944   5.373   2.156
 4860SOL     OW15478   4.644   5.471   0.333
 4860SOL    HW115479   4.668   5.476   0.236
 4860SOL    HW215480   4.725   5.446   0.386
 4861SOL     OW15481   6.704   4.705   5.687
 4861SOL    HW115482   6.618   4.655   5.692
 4861SOL    HW215483   6.744   4.711   5.779
 4862SOL     OW15484   2.957   4.870   5.059
 4862SOL    HW115485   2.916   4.781   5.036
 4862SOL    HW215486   2.917   4.902   5.145
 4863SOL     OW15487   4.915   3.227   2.768
 4863SOL    HW115488   5.013   3.213   2.753
 4863SOL    HW215489   4.865   3.203   2.685
 4864SOL     OW15490   3.073   1.561   2.006
 4864SOL    HW115491   2.980   1.576   2.039
 4864SOL    HW215492   3.128   1.642   2.022
 4865SOL     OW15493   3.276   5.096   5.682
 4865SOL    HW115494   3.183   5.076   5.652
 4865SOL    HW215495   3.341   5.042   5.628
 4866SOL     OW15496   6.321   5.113   2.037
 4866SOL    HW115497   6.344   5.171   1.959
 4866SOL    HW215498   6.405   5.074   2.076
 4867SOL     OW15499   5.087   5.393   2.876
 4867SOL    HW115500   5.027   5.472   2.866
 4867SOL    HW215501   5.052   5.318   2.820
 4868SOL     OW15502   0.543   5.353   0.980
 4868SOL    HW115503   0.454   5.320   1.012
 4868SOL    HW215504   0.613   5.333   1.049
 4869SOL     OW15505   0.038   1.886   0.300
 4869SOL    HW115506   0.044   1.975   0.255
 4869SOL    HW215507   0.107   1.881   0.373
 4870SOL     OW15508   4.069   6.387   1.925
 4870SOL    HW115509   4.092   6.290   1.913
 4870SOL    HW215510   4.151   6.439   1.945
 4871SOL     OW15511   1.220   1.873   3.261
 4871SOL    HW115512   1.135   1.822   3.273
 4871SOL    HW215513   1.282   1.854   3.336
 4872SOL     OW15514   1.109   0.379   2.815
 4872SOL    HW115515   1.022   0.372   2.863
 4872SOL    HW215516   1.144   0.473   2.822
 4873SOL     OW15517   0.142   5.089   4.618
 4873SOL    HW115518   0.099   5.177   4.600
 4873SOL    HW215519   0.138   5.069   4.716
 4874SOL     OW15520   5.158   3.775   3.183
 4874SOL    HW115521   5.159   3.772   3.083
 4874SOL    HW215522   5.225   3.710   3.219
 4875SOL     OW15523   5.908   1.455   1.202
 4875SOL    HW115524   5.840   1.528   1.191
 4875SOL    HW215525   5.880   1.394   1.276
 4876SOL     OW15526   5.833   0.626   6.100
 4876SOL    HW115527   5.779   0.693   6.151
 4876SOL    HW215528   5.774   0.550   6.071
 4877SOL     OW15529   6.315   1.723   0.826
 4877SOL    HW115530   6.405   1.683   0.843
 4877SOL    HW215531   6.312   1.816   0.862
 4878SOL     OW15532   0.205   1.713   1.845
 4878SOL    HW115533   0.153   1.777   1.902
 4878SOL    HW215534   0.276   1.669   1.901
 4879SOL     OW15535   4.193   4.738   3.666
 4879SOL    HW115536   4.185   4.778   3.574
 4879SOL    HW215537   4.290   4.729   3.690
 4880SOL     OW15538   5.727   1.051   0.037
 4880SOL    HW115539   5.660   1.125   0.050
 4880SOL    HW215540   5.777   1.066   6.976
 4881SOL     OW15541   2.891   6.346   6.105
 4881SOL    HW115542   2.980   6.343   6.060
 4881SOL    HW215543   2.904   6.346   6.205
 4882SOL     OW15544   5.875   1.536   5.293
 4882SOL    HW115545   5.945   1.564   5.226
 4882SOL    HW215546   5.893   1.442   5.322
 4883SOL     OW15547   6.204   4.313   2.095
 4883SOL    HW115548   6.243   4.268   2.015
 4883SOL    HW215549   6.185   4.246   2.166
 4884SOL     OW15550   3.692   6.695   1.614
 4884SOL    HW115551   3.788   6.678   1.590
 4884SOL    HW215552   3.688   6.736   1.705
 4885SOL     OW15553   1.946   6.604   1.066
 4885SOL    HW115554   1.927   6.700   1.088
 4885SOL    HW215555   1.980   6.558   1.148
 4886SOL     OW15556   6.490   6.919   6.654
 4886SOL    HW115557   6.562   6.954   6.715
 4886SOL    HW215558   6.433   6.854   6.705
 4887SOL     OW15559   7.023   2.148   3.642
 4887SOL    HW115560   0.034   2.207   3.715
 4887SOL    HW215561   7.012   2.055   3.677
 4888SOL     OW15562   1.843   6.235   3.191
 4888SOL    HW115563   1.796   6.269   3.273
 4888SOL    HW215564   1.799   6.272   3.110
 4889SOL     OW15565   1.290   2.079   0.144
 4889SOL    HW115566   1.315   2.091   0.048
 4889SOL    HW215567   1.289   1.981   0.166
 4890SOL     OW15568   0.492   0.896   4.058
 4890SOL    HW115569   0.480   0.984   4.012
 4890SOL    HW215570   0.537   0.910   4.146
 4891SOL     OW15571   0.958   4.857   0.421
 4891SOL    HW115572   0.947   4.820   0.329
 4891SOL    HW215573   1.054   4.851   0.448
 4892SOL     OW15574   1.449   5.803   1.423
 4892SOL    HW115575   1.478   5.761   1.337
 4892SOL    HW215576   1.424   5.732   1.488
 4893SOL     OW15577   6.828   4.137   6.620
 4893SOL    HW115578   6.814   4.069   6.548
 4893SOL    HW215579   6.792   4.102   6.707
 4894SOL     OW15580   1.652   0.512   3.194
 4894SOL    HW115581   1.700   0.566   3.124
 4894SOL    HW215582   1.574   0.466   3.152
 4895SOL     OW15583   0.757   3.279   0.194
 4895SOL    HW115584   0.830   3.249   0.133
 4895SOL    HW215585   0.762   3.378   0.207
 4896SOL     OW15586   3.541   4.995   4.598
 4896SOL    HW115587   3.517   4.923   4.532
 4896SOL    HW215588   3.637   4.986   4.623
 4897SOL     OW15589   3.505   5.544   6.603
 4897SOL    HW115590   3.555   5.620   6.645
 4897SOL    HW215591   3.411   5.544   6.636
 4898SOL     OW15592   5.501   2.456   5.444
 4898SOL    HW115593   5.454   2.368   5.447
 4898SOL    HW215594   5.580   2.449   5.383
 4899SOL     OW15595   5.895   4.545   3.055
 4899SOL    HW115596   5.908   4.457   3.101
 4899SOL    HW215597   5.859   4.530   2.963
 4900SOL     OW15598   0.464   6.735   5.419
 4900SOL    HW115599   0.387   6.679   5.450
 4900SOL    HW215600   0.511   6.773   5.499
 4901SOL     OW15601   0.872   0.204   4.305
 4901SOL    HW115602   0.956   0.187   4.356
 4901SOL    HW215603   0.883   0.172   4.211
 4902SOL     OW15604   2.420   4.786   1.884
 4902SOL    HW115605   2.399   4.809   1.979
 4902SOL    HW215606   2.462   4.695   1.881
 4903SOL     OW15607   3.854   6.675   6.812
 4903SOL    HW115608   3.869   6.576   6.803
 4903SOL    HW215609   3.778   6.691   6.875
 4904SOL     OW15610   1.643   5.820   4.070
 4904SOL    HW115611   1.550   5.857   4.081
 4904SOL    HW215612   1.683   5.855   3.986
 4905SOL     OW15613   4.922   2.698   2.169
 4905SOL    HW115614   4.945   2.601   2.179
 4905SOL    HW215615   4.831   2.706   2.127
 4906SOL     OW15616   4.674   0.167   0.497
 4906SOL    HW115617   4.588   0.119   0.516
 4906SOL    HW215618   4.717   0.127   0.416
 4907SOL     OW15619   4.196   6.896   3.866
 4907SOL    HW115620   4.281   6.938   3.833
 4907SOL    HW215621   4.218   6.832   3.940
 4908SOL     OW15622   3.558   5.855   6.421
 4908SOL    HW115623   3.647   5.827   6.456
 4908SOL    HW215624   3.552   5.955   6.420
 4909SOL     OW15625   6.170   6.706   5.541
 4909SOL    HW115626   6.254   6.709   5.487
 4909SOL    HW215627   6.194   6.708   5.639
 4910SOL     OW15628   5.233   0.626   5.323
 4910SOL    HW115629   5.262   0.587   5.236
 4910SOL    HW215630   5.257   0.724   5.325
 4911SOL     OW15631   0.324   2.357   5.946
 4911SOL    HW115632   0.361   2.384   6.034
 4911SOL    HW215633   0.399   2.339   5.882
 4912SOL     OW15634   3.671   2.054   2.575
 4912SOL    HW115635   3.729   2.132   2.551
 4912SOL    HW215636   3.597   2.046   2.509
 4913SOL     OW15637   3.600   4.140   3.576
 4913SOL    HW115638   3.688   4.138   3.529
 4913SOL    HW215639   3.527   4.156   3.509
 4914SOL     OW15640   2.834   0.265   3.810
 4914SOL    HW115641   2.787   0.310   3.734
 4914SOL    HW215642   2.894   0.194   3.775
 4915SOL     OW15643   4.289   6.379   4.626
 4915SOL    HW115644   4.355   6.418   4.563
 4915SOL    HW215645   4.208   6.349   4.576
 4916SOL     OW15646   2.973   2.277   3.568
 4916SOL    HW115647   3.049   2.342   3.567
 4916SOL    HW215648   2.900   2.310   3.509
 4917SOL     OW15649   2.023   3.777   0.810
 4917SOL    HW115650   2.107   3.752   0.858
 4917SOL    HW215651   1.944   3.760   0.869
 4918SOL     OW15652   2.631   0.598   2.354
 4918SOL    HW115653   2.632   0.675   2.290
 4918SOL    HW215654   2.690   0.525   2.320
 4919SOL     OW15655   1.654   1.786   2.532
 4919SOL    HW115656   1.663   1.688   2.520
 4919SOL    HW215657   1.565   1.807   2.572
 4920SOL     OW15658   4.549   0.871   0.398
 4920SOL    HW115659   4.593   0.787   0.366
 4920SOL    HW215660   4.449   0.860   0.393
 4921SOL     OW15661   2.401   4.335   1.788
 4921SOL    HW115662   2.360   4.366   1.874
 4921SOL    HW215663   2.340   4.360   1.712
 4922SOL     OW15664   1.581   3.115   5.357
 4922SOL    HW115665   1.665   3.061   5.351
 4922SOL    HW215666   1.507   3.067   5.310
 4923SOL     OW15667   5.175   0.269   2.158
 4923SOL    HW115668   5.240   0.317   2.099
 4923SOL    HW215669   5.141   0.331   2.229
 4924SOL     OW15670   1.376   3.923   4.243
 4924SOL    HW115671   1.423   3.849   4.291
 4924SOL    HW215672   1.435   4.003   4.239
 4925SOL     OW15673   4.619   6.688   1.140
 4925SOL    HW115674   4.551   6.743   1.189
 4925SOL    HW215675   4.604   6.698   1.041
 4926SOL     OW15676   5.656   2.769   1.973
 4926SOL    HW115677   5.633   2.731   1.884
 4926SOL    HW215678   5.588   2.739   2.040
 4927SOL     OW15679   3.559   2.906   2.499
 4927SOL    HW115680   3.657   2.923   2.500
 4927SOL    HW215681   3.527   2.883   2.591
 4928SOL     OW15682   0.841   6.774   6.616
 4928SOL    HW115683   0.763   6.787   6.556
 4928SOL    HW215684   0.866   6.861   6.659
 4929SOL     OW15685   1.520   4.868   4.703
 4929SOL    HW115686   1.544   4.940   4.769
 4929SOL    HW215687   1.515   4.908   4.612
 4930SOL     OW15688   0.860   1.924   0.158
 4930SOL    HW115689   0.865   2.023   0.144
 4930SOL    HW215690   0.764   1.896   0.158
 4931SOL     OW15691   0.735   0.117   0.033
 4931SOL    HW115692   0.791   0.174   6.996
 4931SOL    HW215693   0.664   0.173   0.076
 4932SOL     OW15694   2.720   2.582   1.461
 4932SOL    HW115695   2.796   2.624   1.411
 4932SOL    HW215696   2.741   2.581   1.559
 4933SOL     OW15697   2.337   1.420   4.383
 4933SOL    HW115698   2.303   1.353   4.448
 4933SOL    HW215699   2.265   1.487   4.363
 4934SOL     OW15700   0.101   5.190   3.598
 4934SOL    HW115701   0.054   5.176   3.685
 4934SOL    HW215702   0.192   5.148   3.602
 4935SOL     OW15703   2.359   0.976   6.420
 4935SOL    HW115704   2.284   0.939   6.475
 4935SOL    HW215705   2.382   1.068   6.452
 4936SOL     OW15706   3.263   5.289   1.646
 4936SOL    HW115707   3.295   5.383   1.636
 4936SOL    HW215708   3.285   5.237   1.564
 4937SOL     OW15709   0.703   3.682   6.198
 4937SOL    HW115710   0.793   3.714   6.227
 4937SOL    HW215711   0.639   3.759   6.198
 4938SOL     OW15712   3.117   4.390   0.993
 4938SOL    HW115713   3.080   4.391   0.900
 4938SOL    HW215714   3.055   4.438   1.054
 4939SOL     OW15715   1.564   1.558   1.646
 4939SOL    HW115716   1.470   1.568   1.678
 4939SOL    HW215717   1.584   1.461   1.632
 4940SOL     OW15718   6.885   2.659   4.410
 4940SOL    HW115719   6.866   2.703   4.322
 4940SOL    HW215720   6.838   2.571   4.414
 4941SOL     OW15721   3.996   2.554   5.406
 4941SOL    HW115722   4.058   2.528   5.480
 4941SOL    HW215723   4.049   2.570   5.322
 4942SOL     OW15724   5.424   2.949   3.556
 4942SOL    HW115725   5.517   2.953   3.593
 4942SOL    HW215726   5.359   2.981   3.625
 4943SOL     OW15727   5.456   3.249   6.489
 4943SOL    HW115728   5.510   3.176   6.532
 4943SOL    HW215729   5.399   3.209   6.417
 4944SOL     OW15730   1.716   4.695   0.642
 4944SOL    HW115731   1.717   4.603   0.604
 4944SOL    HW215732   1.793   4.747   0.605
 4945SOL     OW15733   1.947   1.321   5.051
 4945SOL    HW115734   2.044   1.344   5.059
 4945SOL    HW215735   1.925   1.303   4.955
 4946SOL     OW15736   0.993   4.109   6.990
 4946SOL    HW115737   0.904   4.073   7.017
 4946SOL    HW215738   1.008   4.197   0.013
 4947SOL     OW15739   2.151   0.640   1.790
 4947SOL    HW115740   2.118   0.620   1.698
 4947SOL    HW215741   2.105   0.722   1.825
 4948SOL     OW15742   1.780   2.080   2.087
 4948SOL    HW115743   1.868   2.119   2.063
 4948SOL    HW215744   1.780   2.053   2.183
 4949SOL     OW15745   6.994   3.635   5.893
 4949SOL    HW115746   6.955   3.636   5.801
 4949SOL    HW215747   0.034   3.712   5.903
 4950SOL     OW15748   2.575   4.420   5.454
 4950SOL    HW115749   2.520   4.340   5.427
 4950SOL    HW215750   2.542   4.453   5.543
 4951SOL     OW15751   5.884   6.392   3.654
 4951SOL    HW115752   5.895   6.417   3.750
 4951SOL    HW215753   5.920   6.300   3.638
 4952SOL     OW15754   6.757   0.139   6.376
 4952SOL    HW115755   6.815   0.141   6.294
 4952SOL    HW215756   6.661   0.141   6.348
 4953SOL     OW15757   1.236   1.713   4.994
 4953SOL    HW115758   1.226   1.812   4.990
 4953SOL    HW215759   1.148   1.669   4.980
 4954SOL     OW15760   2.327   4.064   5.463
 4954SOL    HW115761   2.402   4.126   5.440
 4954SOL    HW215762   2.285   4.030   5.378
 4955SOL     OW15763   3.144   5.828   0.072
 4955SOL    HW115764   3.199   5.747   0.094
 4955SOL    HW215765   3.049   5.801   0.056
 4956SOL     OW15766   2.599   0.269   5.107
 4956SOL    HW115767   2.674   0.335   5.101
 4956SOL    HW215768   2.595   0.232   5.200
 4957SOL     OW15769   6.540   4.183   6.583
 4957SOL    HW115770   6.498   4.185   6.492
 4957SOL    HW215771   6.634   4.150   6.575
 4958SOL     OW15772   2.382   0.286   5.924
 4958SOL    HW115773   2.407   0.219   5.854
 4958SOL    HW215774   2.436   0.369   5.910
 4959SOL     OW15775   6.760   2.199   1.585
 4959SOL    HW115776   6.838   2.157   1.538
 4959SOL    HW215777   6.778   2.204   1.683
 4960SOL     OW15778   4.160   5.028   3.751
 4960SOL    HW115779   4.192   5.064   3.664
 4960SOL    HW215780   4.168   4.929   3.751
 4961SOL     OW15781   2.944   0.876   6.863
 4961SOL    HW115782   2.913   0.944   6.930
 4961SOL    HW215783   2.960   0.922   6.775
 4962SOL     OW15784   6.477   3.440   0.956
 4962SOL    HW115785   6.570   3.404   0.948
 4962SOL    HW215786   6.411   3.366   0.940
 4963SOL     OW15787   0.455   4.408   0.620
 4963SOL    HW115788   0.398   4.446   0.548
 4963SOL    HW215789   0.551   4.428   0.600
 4964SOL     OW15790   2.986   6.835   4.605
 4964SOL    HW115791   3.085   6.843   4.599
 4964SOL    HW215792   2.963   6.775   4.682
 4965SOL     OW15793   1.139   6.804   2.864
 4965SOL    HW115794   1.054   6.843   2.899
 4965SOL    HW215795   1.148   6.710   2.896
 4966SOL     OW15796   3.201   6.414   4.711
 4966SOL    HW115797   3.298   6.433   4.722
 4966SOL    HW215798   3.181   6.322   4.747
 4967SOL     OW15799   4.105   4.617   5.435
 4967SOL    HW115800   4.060   4.659   5.514
 4967SOL    HW215801   4.078   4.520   5.429
 4968SOL     OW15802   0.212   0.854   4.153
 4968SOL    HW115803   0.191   0.871   4.249
 4968SOL    HW215804   0.306   0.883   4.134
 4969SOL     OW15805   0.519   6.717   2.022
 4969SOL    HW115806   0.461   6.763   2.089
 4969SOL    HW215807   0.615   6.721   2.052
 4970SOL     OW15808   1.714   0.801   1.684
 4970SOL    HW115809   1.667   0.713   1.678
 4970SOL    HW215810   1.650   0.875   1.666
 4971SOL     OW15811   6.677   5.850   2.621
 4971SOL    HW115812   6.610   5.787   2.583
 4971SOL    HW215813   6.631   5.917   2.678
 4972SOL     OW15814   1.548   3.959   1.168
 4972SOL    HW115815   1.512   4.024   1.234
 4972SOL    HW215816   1.549   3.867   1.209
 4973SOL     OW15817   0.176   0.310   1.266
 4973SOL    HW115818   0.162   0.351   1.176
 4973SOL    HW215819   0.089   0.305   1.315
 4974SOL     OW15820   4.213   3.762   6.354
 4974SOL    HW115821   4.157   3.688   6.390
 4974SOL    HW215822   4.283   3.787   6.421
 4975SOL     OW15823   5.485   3.809   0.753
 4975SOL    HW115824   5.461   3.715   0.731
 4975SOL    HW215825   5.544   3.811   0.833
 4976SOL     OW15826   0.535   0.531   4.435
 4976SOL    HW115827   0.564   0.485   4.352
 4976SOL    HW215828   0.544   0.469   4.513
 4977SOL     OW15829   3.090   4.299   6.776
 4977SOL    HW115830   3.154   4.334   6.708
 4977SOL    HW215831   2.997   4.305   6.740
 4978SOL     OW15832   5.048   4.330   5.273
 4978SOL    HW115833   5.118   4.350   5.341
 4978SOL    HW215834   4.998   4.247   5.299
 4979SOL     OW15835   1.515   6.810   6.579
 4979SOL    HW115836   1.471   6.855   6.501
 4979SOL    HW215837   1.558   6.725   6.548
 4980SOL     OW15838   6.694   4.635   2.990
 4980SOL    HW115839   6.622   4.581   2.945
 4980SOL    HW215840   6.736   4.580   3.062
 4981SOL     OW15841   3.421   4.926   2.023
 4981SOL    HW115842   3.372   4.910   2.108
 4981SOL    HW215843   3.469   4.842   1.997
 4982SOL     OW15844   4.580   1.773   6.609
 4982SOL    HW115845   4.619   1.850   6.559
 4982SOL    HW215846   4.492   1.748   6.570
 4983SOL     OW15847   6.255   5.200   4.045
 4983SOL    HW115848   6.329   5.135   4.032
 4983SOL    HW215849   6.186   5.186   3.973
 4984SOL     OW15850   4.433   4.534   3.544
 4984SOL    HW115851   4.449   4.601   3.471
 4984SOL    HW215852   4.407   4.582   3.628
 4985SOL     OW15853   5.271   5.945   2.738
 4985SOL    HW115854   5.189   5.926   2.792
 4985SOL    HW215855   5.266   5.896   2.651
 4986SOL     OW15856   0.116   4.511   1.875
 4986SOL    HW115857   0.066   4.569   1.811
 4986SOL    HW215858   0.154   4.567   1.949
 4987SOL     OW15859   0.874   6.895   2.369
 4987SOL    HW115860   0.858   6.987   2.332
 4987SOL    HW215861   0.861   6.896   2.468
 4988SOL     OW15862   5.813   0.546   3.908
 4988SOL    HW115863   5.740   0.543   3.840
 4988SOL    HW215864   5.902   0.547   3.861
 4989SOL     OW15865   5.431   0.742   1.990
 4989SOL    HW115866   5.375   0.804   1.934
 4989SOL    HW215867   5.493   0.691   1.930
 4990SOL     OW15868   3.958   1.759   0.063
 4990SOL    HW115869   3.901   1.765   0.145
 4990SOL    HW215870   4.049   1.726   0.088
 4991SOL     OW15871   0.430   5.921   4.353
 4991SOL    HW115872   0.477   5.889   4.270
 4991SOL    HW215873   0.332   5.907   4.344
 4992SOL     OW15874   6.552   0.811   3.231
 4992SOL    HW115875   6.613   0.786   3.306
 4992SOL    HW215876   6.538   0.910   3.231
 4993SOL     OW15877   4.798   6.930   5.172
 4993SOL    HW115878   4.863   6.914   5.246
 4993SOL    HW215879   4.818   7.017   5.128
 4994SOL     OW15880   2.056   5.028   5.344
 4994SOL    HW115881   2.047   4.943   5.292
 4994SOL    HW215882   1.968   5.076   5.346
 4995SOL     OW15883   0.776   0.546   4.580
 4995SOL    HW115884   0.794   0.516   4.673
 4995SOL    HW215885   0.688   0.593   4.576
 4996SOL     OW15886   0.253   1.575   4.263
 4996SOL    HW115887   0.345   1.600   4.294
 4996SOL    HW215888   0.186   1.602   4.332
 4997SOL     OW15889   3.623   2.279   1.481
 4997SOL    HW115890   3.621   2.187   1.441
 4997SOL    HW215891   3.621   2.272   1.581
 4998SOL     OW15892   1.434   3.557   3.362
 4998SOL    HW115893   1.474   3.473   3.324
 4998SOL    HW215894   1.466   3.636   3.310
 4999SOL     OW15895   0.884   3.475   4.982
 4999SOL    HW115896   0.862   3.456   5.078
 4999SOL    HW215897   0.976   3.513   4.976
 5000SOL     OW15898   3.079   6.162   3.537
 5000SOL    HW115899   3.055   6.259   3.544
 5000SOL    HW215900   3.102   6.127   3.628
 5001SOL     OW15901   0.689   5.585   2.532
 5001SOL    HW115902   0.742   5.662   2.567
 5001SOL    HW215903   0.595   5.591   2.567
 5002SOL     OW15904   1.048   4.742   2.095
 5002SOL    HW115905   1.147   4.741   2.088
 5002SOL    HW215906   1.016   4.836   2.102
 5003SOL     OW15907   4.094   5.710   2.887
 5003SOL    HW115908   4.080   5.665   2.798
 5003SOL    HW215909   4.040   5.663   2.957
 5004SOL     OW15910   3.205   5.563   6.263
 5004SOL    HW115911   3.171   5.480   6.219
 5004SOL    HW215912   3.236   5.628   6.194
 5005SOL     OW15913   2.402   3.296   6.270
 5005SOL    HW115914   2.411   3.301   6.171
 5005SOL    HW215915   2.467   3.230   6.307
 5006SOL     OW15916   5.439   1.313   2.329
 5006SOL    HW115917   5.366   1.295   2.395
 5006SOL    HW215918   5.461   1.410   2.330
 5007SOL     OW15919   6.795   0.393   0.407
 5007SOL    HW115920   6.719   0.347   0.361
 5007SOL    HW215921   6.759   0.463   0.469
 5008SOL     OW15922   6.563   5.848   1.472
 5008SOL    HW115923   6.619   5.878   1.550
 5008SOL    HW215924   6.497   5.919   1.449
 5009SOL     OW15925   0.708   2.630   0.275
 5009SOL    HW115926   0.739   2.646   0.181
 5009SOL    HW215927   0.783   2.648   0.338
 5010SOL     OW15928   3.491   2.325   0.721
 5010SOL    HW115929   3.445   2.269   0.790
 5010SOL    HW215930   3.566   2.274   0.680
 5011SOL     OW15931   1.400   4.172   0.616
 5011SOL    HW115932   1.475   4.123   0.661
 5011SOL    HW215933   1.406   4.160   0.517
 5012SOL     OW15934   5.902   3.344   5.848
 5012SOL    HW115935   5.966   3.269   5.861
 5012SOL    HW215936   5.941   3.411   5.784
 5013SOL     OW15937   6.010   0.400   5.462
 5013SOL    HW115938   5.985   0.389   5.365
 5013SOL    HW215939   5.982   0.319   5.513
 5014SOL     OW15940   6.626   4.305   0.175
 5014SOL    HW115941   6.661   4.225   0.223
 5014SOL    HW215942   6.562   4.353   0.234
 5015SOL     OW15943   5.382   0.757   4.775
 5015SOL    HW115944   5.355   0.772   4.679
 5015SOL    HW215945   5.391   0.659   4.792
 5016SOL     OW15946   1.094   3.161   5.252
 5016SOL    HW115947   1.073   3.106   5.171
 5016SOL    HW215948   1.013   3.168   5.309
 5017SOL     OW15949   1.011   2.677   1.287
 5017SOL    HW115950   0.939   2.612   1.312
 5017SOL    HW215951   1.033   2.735   1.365
 5018SOL     OW15952   0.918   4.990   2.051
 5018SOL    HW115953   0.968   5.067   2.012
 5018SOL    HW215954   0.874   4.939   1.977
 5019SOL     OW15955   1.713   5.728   5.296
 5019SOL    HW115956   1.663   5.712   5.381
 5019SOL    HW215957   1.747   5.822   5.294
 5020SOL     OW15958   0.289   6.447   5.046
 5020SOL    HW115959   0.266   6.426   4.951
 5020SOL    HW215960   0.363   6.515   5.048
 5021SOL     OW15961   1.367   0.428   1.356
 5021SOL    HW115962   1.452   0.377   1.342
 5021SOL    HW215963   1.297   0.366   1.394
 5022SOL     OW15964   6.939   2.726   1.529
 5022SOL    HW115965   6.860   2.715   1.589
 5022SOL    HW215966   6.940   2.820   1.493
 5023SOL     OW15967   0.080   4.270   1.659
 5023SOL    HW115968   0.129   4.272   1.746
 5023SOL    HW215969   0.047   4.177   1.641
 5024SOL     OW15970   5.487   5.047   0.805
 5024SOL    HW115971   5.473   5.072   0.901
 5024SOL    HW215972   5.457   4.953   0.790
 5025SOL     OW15973   3.848   1.568   3.692
 5025SOL    HW115974   3.903   1.637   3.738
 5025SOL    HW215975   3.773   1.539   3.751
 5026SOL     OW15976   6.640   5.020   4.743
 5026SOL    HW115977   6.638   4.976   4.833
 5026SOL    HW215978   6.725   4.996   4.697
 5027SOL     OW15979   5.808   0.196   1.374
 5027SOL    HW115980   5.895   0.148   1.362
 5027SOL    HW215981   5.825   0.294   1.382
 5028SOL     OW15982   6.994   2.018   3.273
 5028SOL    HW115983   6.929   1.953   3.311
 5028SOL    HW215984   0.020   2.063   3.347
 5029SOL     OW15985   6.440   3.086   2.184
 5029SOL    HW115986   6.494   3.003   2.199
 5029SOL    HW215987   6.468   3.129   2.099
 5030SOL     OW15988   6.942   5.970   6.183
 5030SOL    HW115989   6.873   5.897   6.180
 5030SOL    HW215990   6.905   6.047   6.234
 5031SOL     OW15991   6.875   1.126   5.396
 5031SOL    HW115992   6.780   1.109   5.421
 5031SOL    HW215993   6.878   1.162   5.302
 5032SOL     OW15994   3.005   2.012   6.403
 5032SOL    HW115995   3.096   2.052   6.413
 5032SOL    HW215996   2.938   2.085   6.392
 5033SOL     OW15997   2.170   1.083   0.131
 5033SOL    HW115998   2.091   1.135   0.097
 5033SOL    HW215999   2.140   1.022   0.204
 5034SOL     OW16000   4.930   6.988   4.167
 5034SOL    HW116001   4.901   6.948   4.254
 5034SOL    HW216002   4.862   0.031   4.137
 5035SOL     OW16003   0.780   4.041   5.325
 5035SOL    HW116004   0.770   4.044   5.226
 5035SOL    HW216005   0.818   4.128   5.358
 5036SOL     OW16006   6.467   5.084   6.145
 5036SOL    HW116007   6.497   5.123   6.232
 5036SOL    HW216008   6.368   5.093   6.137
 5037SOL     OW16009   4.498   4.394   1.483
 5037SOL    HW116010   4.564   4.422   1.413
 5037SOL    HW216011   4.535   4.413   1.573
 5038SOL     OW16012   4.009   3.217   4.263
 5038SOL    HW116013   4.082   3.280   4.238
 5038SOL    HW216014   3.978   3.168   4.181
 5039SOL     OW16015   2.319   3.478   5.525
 5039SOL    HW116016   2.261   3.449   5.449
 5039SOL    HW216017   2.284   3.564   5.563
 5040SOL     OW16018   0.734   5.482   5.147
 5040SOL    HW116019   0.736   5.581   5.161
 5040SOL    HW216020   0.677   5.461   5.068
 5041SOL     OW16021   1.260   2.284   2.380
 5041SOL    HW116022   1.171   2.330   2.380
 5041SOL    HW216023   1.271   2.235   2.293
 5042SOL     OW16024   6.292   3.127   0.517
 5042SOL    HW116025   6.380   3.165   0.543
 5042SOL    HW216026   6.306   3.051   0.453
 5043SOL     OW16027   4.362   0.986   0.048
 5043SOL    HW116028   4.365   0.887   0.063
 5043SOL    HW216029   4.455   1.022   0.040
 5044SOL     OW16030   0.947   5.835   1.475
 5044SOL    HW116031   0.894   5.905   1.428
 5044SOL    HW216032   0.893   5.751   1.481
 5045SOL     OW16033   6.476   5.499   6.097
 5045SOL    HW116034   6.441   5.591   6.115
 5045SOL    HW216035   6.506   5.493   6.002
 5046SOL     OW16036   3.859   3.587   3.481
 5046SOL    HW116037   3.833   3.584   3.578
 5046SOL    HW216038   3.813   3.513   3.432
 5047SOL     OW16039   2.152   3.727   2.891
 5047SOL    HW116040   2.178   3.666   2.966
 5047SOL    HW216041   2.170   3.822   2.917
 5048SOL     OW16042   1.150   0.643   4.769
 5048SOL    HW116043   1.209   0.702   4.824
 5048SOL    HW216044   1.144   0.553   4.811
 5049SOL     OW16045   5.347   1.424   6.548
 5049SOL    HW116046   5.426   1.364   6.532
 5049SOL    HW216047   5.324   1.424   6.646
 5050SOL     OW16048   1.947   1.334   6.656
 5050SOL    HW116049   2.026   1.276   6.680
 5050SOL    HW216050   1.947   1.416   6.713
 5051SOL     OW16051   4.385   4.399   1.160
 5051SOL    HW116052   4.437   4.319   1.190
 5051SOL    HW216053   4.288   4.383   1.175
 5052SOL     OW16054   3.510   2.040   6.202
 5052SOL    HW116055   3.423   2.064   6.159
 5052SOL    HW216056   3.507   2.066   6.298
 5053SOL     OW16057   0.656   5.144   3.190
 5053SOL    HW116058   0.592   5.084   3.237
 5053SOL    HW216059   0.655   5.234   3.232
 5054SOL     OW16060   3.463   4.677   5.513
 5054SOL    HW116061   3.391   4.613   5.486
 5054SOL    HW216062   3.453   4.700   5.610
 5055SOL     OW16063   0.971   2.259   5.617
 5055SOL    HW116064   0.929   2.311   5.691
 5055SOL    HW216065   0.974   2.315   5.534
 5056SOL     OW16066   5.178   3.941   5.321
 5056SOL    HW116067   5.246   3.959   5.249
 5056SOL    HW216068   5.097   3.996   5.305
 5057SOL     OW16069   0.513   6.865   2.334
 5057SOL    HW116070   0.488   6.953   2.293
 5057SOL    HW216071   0.594   6.829   2.288
 5058SOL     OW16072   3.613   4.784   6.949
 5058SOL    HW116073   3.609   4.841   6.866
 5058SOL    HW216074   3.613   4.843   0.006
 5059SOL     OW16075   6.762   0.548   3.249
 5059SOL    HW116076   6.693   0.518   3.183
 5059SOL    HW216077   6.829   0.606   3.202
 5060SOL     OW16078   6.314   2.285   6.437
 5060SOL    HW116079   6.295   2.364   6.379
 5060SOL    HW216080   6.331   2.315   6.530
 5061SOL     OW16081   4.477   2.456   0.197
 5061SOL    HW116082   4.447   2.386   0.262
 5061SOL    HW216083   4.488   2.415   0.107
 5062SOL     OW16084   6.616   0.068   2.164
 5062SOL    HW116085   6.630   0.032   2.256
 5062SOL    HW216086   6.606   7.016   2.100
 5063SOL     OW16087   0.325   6.280   1.776
 5063SOL    HW116088   0.409   6.284   1.721
 5063SOL    HW216089   0.247   6.299   1.717
 5064SOL     OW16090   4.859   2.866   0.730
 5064SOL    HW116091   4.943   2.919   0.723
 5064SOL    HW216092   4.789   2.907   0.671
 5065SOL     OW16093   3.434   0.316   5.487
 5065SOL    HW116094   3.501   0.241   5.487
 5065SOL    HW216095   3.459   0.383   5.417
 5066SOL     OW16096   5.235   3.924   2.255
 5066SOL    HW116097   5.316   3.982   2.245
 5066SOL    HW216098   5.232   3.888   2.348
 5067SOL     OW16099   5.475   1.246   0.581
 5067SOL    HW116100   5.418   1.311   0.530
 5067SOL    HW216101   5.536   1.296   0.642
 5068SOL     OW16102   2.404   4.560   0.880
 5068SOL    HW116103   2.368   4.484   0.826
 5068SOL    HW216104   2.462   4.617   0.823
 5069SOL     OW16105   1.200   4.012   2.309
 5069SOL    HW116106   1.228   4.097   2.354
 5069SOL    HW216107   1.210   3.935   2.373
 5070SOL     OW16108   4.895   3.348   3.654
 5070SOL    HW116109   4.994   3.333   3.657
 5070SOL    HW216110   4.855   3.295   3.579
 5071SOL     OW16111   4.378   2.375   4.832
 5071SOL    HW116112   4.346   2.356   4.739
 5071SOL    HW216113   4.306   2.420   4.884
 5072SOL     OW16114   0.464   5.446   0.384
 5072SOL    HW116115   0.548   5.482   0.424
 5072SOL    HW216116   0.394   5.437   0.454
 5073SOL     OW16117   6.869   6.465   2.624
 5073SOL    HW116118   6.777   6.427   2.640
 5073SOL    HW216119   6.937   6.407   2.669
 5074SOL     OW16120   3.222   4.078   0.062
 5074SOL    HW116121   3.229   4.081   0.162
 5074SOL    HW216122   3.261   4.161   0.023
 5075SOL     OW16123   0.376   1.105   5.724
 5075SOL    HW116124   0.435   1.032   5.758
 5075SOL    HW216125   0.325   1.073   5.644
 5076SOL     OW16126   4.107   1.267   1.451
 5076SOL    HW116127   4.193   1.220   1.432
 5076SOL    HW216128   4.065   1.229   1.534
 5077SOL     OW16129   1.440   2.111   3.517
 5077SOL    HW116130   1.491   2.163   3.448
 5077SOL    HW216131   1.495   2.035   3.549
 5078SOL     OW16132   1.024   1.650   3.286
 5078SOL    HW116133   0.939   1.675   3.240
 5078SOL    HW216134   1.023   1.553   3.310
 5079SOL     OW16135   2.455   4.682   5.920
 5079SOL    HW116136   2.553   4.694   5.934
 5079SOL    HW216137   2.422   4.605   5.975
 5080SOL     OW16138   5.541   6.522   5.181
 5080SOL    HW116139   5.627   6.473   5.198
 5080SOL    HW216140   5.484   6.468   5.118
 5081SOL     OW16141   3.364   3.838   3.060
 5081SOL    HW116142   3.458   3.835   3.093
 5081SOL    HW216143   3.343   3.753   3.011
 5082SOL     OW16144   5.249   6.609   5.278
 5082SOL    HW116145   5.331   6.661   5.303
 5082SOL    HW216146   5.204   6.655   5.201
 5083SOL     OW16147   2.014   6.651   2.134
 5083SOL    HW116148   1.935   6.690   2.181
 5083SOL    HW216149   2.039   6.564   2.177
 5084SOL     OW16150   1.570   4.689   4.067
 5084SOL    HW116151   1.482   4.658   4.102
 5084SOL    HW216152   1.556   4.766   4.005
 5085SOL     OW16153   5.235   1.751   6.784
 5085SOL    HW116154   5.166   1.759   6.712
 5085SOL    HW216155   5.204   1.801   6.865
 5086SOL     OW16156   6.303   4.444   4.055
 5086SOL    HW116157   6.338   4.466   4.145
 5086SOL    HW216158   6.378   4.439   3.989
 5087SOL     OW16159   6.622   6.129   3.777
 5087SOL    HW116160   6.591   6.041   3.740
 5087SOL    HW216161   6.634   6.194   3.702
 5088SOL     OW16162   6.302   1.232   6.327
 5088SOL    HW116163   6.294   1.201   6.232
 5088SOL    HW216164   6.233   1.301   6.345
 5089SOL     OW16165   6.514   3.554   3.445
 5089SOL    HW116166   6.464   3.556   3.532
 5089SOL    HW216167   6.575   3.633   3.439
 5090SOL     OW16168   2.015   4.173   1.346
 5090SOL    HW116169   1.920   4.151   1.327
 5090SOL    HW216170   2.024   4.270   1.368
 5091SOL     OW16171   1.063   6.151   2.452
 5091SOL    HW116172   1.011   6.070   2.478
 5091SOL    HW216173   1.027   6.187   2.366
 5092SOL     OW16174   3.684   2.571   1.737
 5092SOL    HW116175   3.646   2.549   1.647
 5092SOL    HW216176   3.695   2.487   1.790
 5093SOL     OW16177   0.968   2.214   1.802
 5093SOL    HW116178   0.946   2.118   1.820
 5093SOL    HW216179   1.062   2.221   1.769
 5094SOL     OW16180   0.803   0.414   5.600
 5094SOL    HW116181   0.823   0.412   5.698
 5094SOL    HW216182   0.871   0.360   5.550
 5095SOL     OW16183   1.035   0.471   4.515
 5095SOL    HW116184   0.936   0.475   4.500
 5095SOL    HW216185   1.068   0.562   4.541
 5096SOL     OW16186   4.805   3.346   0.759
 5096SOL    HW116187   4.827   3.284   0.684
 5096SOL    HW216188   4.753   3.298   0.829
 5097SOL     OW16189   1.603   0.668   6.075
 5097SOL    HW116190   1.569   0.713   5.993
 5097SOL    HW216191   1.539   0.596   6.102
 5098SOL     OW16192   0.657   0.456   1.756
 5098SOL    HW116193   0.631   0.493   1.845
 5098SOL    HW216194   0.735   0.508   1.720
 5099SOL     OW16195   0.698   0.454   6.084
 5099SOL    HW116196   0.605   0.424   6.105
 5099SOL    HW216197   0.751   0.460   6.169
 5100SOL     OW16198   4.949   0.132   6.229
 5100SOL    HW116199   5.006   0.122   6.147
 5100SOL    HW216200   5.007   0.123   6.310
 5101SOL     OW16201   5.129   6.342   6.964
 5101SOL    HW116202   5.114   6.424   6.908
 5101SOL    HW216203   5.115   6.364   0.037
 5102SOL     OW16204   5.818   0.660   5.333
 5102SOL    HW116205   5.908   0.688   5.365
 5102SOL    HW216206   5.749   0.727   5.362
 5103SOL     OW16207   0.309   0.686   3.970
 5103SOL    HW116208   0.398   0.730   3.960
 5103SOL    HW216209   0.247   0.747   4.018
 5104SOL     OW16210   1.806   6.878   1.252
 5104SOL    HW116211   1.768   6.952   1.196
 5104SOL    HW216212   1.734   6.812   1.273
 5105SOL     OW16213   4.389   3.946   6.829
 5105SOL    HW116214   4.382   3.915   6.924
 5105SOL    HW216215   4.474   3.996   6.816
 5106SOL     OW16216   3.558   0.033   2.575
 5106SOL    HW116217   3.561   0.058   2.672
 5106SOL    HW216218   3.530   0.112   2.521
 5107SOL     OW16219   2.951   0.833   0.216
 5107SOL    HW116220   2.999   0.895   0.279
 5107SOL    HW216221   2.864   0.874   0.189
 5108SOL     OW16222   3.332   4.053   3.834
 5108SOL    HW116223   3.272   4.036   3.757
 5108SOL    HW216224   3.414   4.101   3.803
 5109SOL     OW16225   0.771   1.764   1.052
 5109SOL    HW116226   0.745   1.698   0.982
 5109SOL    HW216227   0.754   1.857   1.019
 5110SOL     OW16228   1.785   6.494   6.082
 5110SOL    HW116229   1.799   6.434   6.003
 5110SOL    HW216230   1.749   6.582   6.050
 5111SOL     OW16231   0.619   0.918   6.466
 5111SOL    HW116232   0.667   1.003   6.445
 5111SOL    HW216233   0.618   0.860   6.385
 5112SOL     OW16234   0.048   6.665   3.551
 5112SOL    HW116235   0.117   6.666   3.624
 5112SOL    HW216236   0.053   6.750   3.499
 5113SOL     OW16237   0.349   0.687   0.577
 5113SOL    HW116238   0.256   0.663   0.550
 5113SOL    HW216239   0.373   0.776   0.538
 5114SOL     OW16240   3.204   4.052   0.336
 5114SOL    HW116241   3.114   4.095   0.345
 5114SOL    HW216242   3.248   4.049   0.426
 5115SOL     OW16243   1.525   4.222   5.922
 5115SOL    HW116244   1.609   4.242   5.871
 5115SOL    HW216245   1.542   4.147   5.985
 5116SOL     OW16246   5.234   5.121   6.307
 5116SOL    HW116247   5.164   5.050   6.313
 5116SOL    HW216248   5.289   5.121   6.390
 5117SOL     OW16249   2.046   4.820   3.643
 5117SOL    HW116250   2.030   4.816   3.544
 5117SOL    HW216251   2.135   4.779   3.664
 5118SOL     OW16252   4.884   6.478   0.954
 5118SOL    HW116253   4.814   6.477   1.025
 5118SOL    HW216254   4.975   6.475   0.997
 5119SOL     OW16255   5.297   0.451   1.985
 5119SOL    HW116256   5.243   0.534   1.997
 5119SOL    HW216257   5.301   0.426   1.888
 5120SOL     OW16258   6.242   1.415   3.000
 5120SOL    HW116259   6.167   1.450   2.943
 5120SOL    HW216260   6.215   1.328   3.041
 5121SOL     OW16261   0.592   3.260   6.320
 5121SOL    HW116262   0.584   3.343   6.265
 5121SOL    HW216263   0.664   3.272   6.389
 5122SOL     OW16264   2.890   0.777   3.543
 5122SOL    HW116265   2.798   0.805   3.516
 5122SOL    HW216266   2.914   0.818   3.631
 5123SOL     OW16267   5.403   3.625   3.588
 5123SOL    HW116268   5.307   3.645   3.605
 5123SOL    HW216269   5.460   3.677   3.652
 5124SOL     OW16270   2.756   6.116   6.736
 5124SOL    HW116271   2.755   6.017   6.743
 5124SOL    HW216272   2.851   6.149   6.738
 5125SOL     OW16273   0.400   3.728   4.058
 5125SOL    HW116274   0.417   3.655   4.125
 5125SOL    HW216275   0.385   3.688   3.968
 5126SOL     OW16276   6.254   5.387   6.162
 5126SOL    HW116277   6.344   5.415   6.128
 5126SOL    HW216278   6.241   5.290   6.145
 5127SOL     OW16279   5.643   4.130   6.919
 5127SOL    HW116280   5.613   4.123   7.014
 5127SOL    HW216281   5.676   4.041   6.888
 5128SOL     OW16282   1.560   0.808   6.824
 5128SOL    HW116283   1.602   0.863   6.896
 5128SOL    HW216284   1.628   0.785   6.755
 5129SOL     OW16285   5.518   0.374   2.781
 5129SOL    HW116286   5.610   0.355   2.748
 5129SOL    HW216287   5.515   0.360   2.880
 5130SOL     OW16288   0.789   5.240   4.582
 5130SOL    HW116289   0.764   5.237   4.485
 5130SOL    HW216290   0.756   5.157   4.627
 5131SOL     OW16291   2.994   4.853   3.858
 5131SOL    HW116292   3.025   4.875   3.765
 5131SOL    HW216293   3.031   4.764   3.885
 5132SOL     OW16294   3.282   1.841   6.384
 5132SOL    HW116295   3.298   1.826   6.286
 5132SOL    HW216296   3.183   1.851   6.400
 5133SOL     OW16297   3.466   5.510   6.330
 5133SOL    HW116298   3.496   5.498   6.425
 5133SOL    HW216299   3.368   5.528   6.329
 5134SOL     OW16300   6.541   6.715   1.643
 5134SOL    HW116301   6.509   6.767   1.564
 5134SOL    HW216302   6.469   6.713   1.712
 5135SOL     OW16303   6.588   3.372   2.664
 5135SOL    HW116304   6.650   3.376   2.585
 5135SOL    HW216305   6.497   3.344   2.633
 5136SOL     OW16306   0.678   0.768   6.176
 5136SOL    HW116307   0.597   0.824   6.195
 5136SOL    HW216308   0.672   0.682   6.227
 5137SOL     OW16309   5.133   2.637   5.136
 5137SOL    HW116310   5.203   2.611   5.203
 5137SOL    HW216311   5.045   2.599   5.164
 5138SOL     OW16312   3.865   3.921   4.215
 5138SOL    HW116313   3.930   3.905   4.289
 5138SOL    HW216314   3.807   3.840   4.204
 5139SOL     OW16315   1.794   0.723   4.955
 5139SOL    HW116316   1.714   0.755   5.004
 5139SOL    HW216317   1.779   0.732   4.856
 5140SOL     OW16318   4.069   1.804   5.868
 5140SOL    HW116319   4.098   1.836   5.778
 5140SOL    HW216320   4.149   1.777   5.921
 5141SOL     OW16321   6.646   3.117   1.842
 5141SOL    HW116322   6.692   3.206   1.850
 5141SOL    HW216323   6.608   3.107   1.750
 5142SOL     OW16324   6.503   6.518   3.487
 5142SOL    HW116325   6.529   6.562   3.573
 5142SOL    HW216326   6.584   6.503   3.430
 5143SOL     OW16327   0.845   4.630   4.241
 5143SOL    HW116328   0.836   4.545   4.189
 5143SOL    HW216329   0.765   4.641   4.300
 5144SOL     OW16330   1.814   3.497   6.838
 5144SOL    HW116331   1.899   3.468   6.793
 5144SOL    HW216332   1.837   3.544   6.924
 5145SOL     OW16333   3.241   6.276   6.373
 5145SOL    HW116334   3.276   6.222   6.296
 5145SOL    HW216335   3.271   6.371   6.363
 5146SOL     OW16336   4.430   4.496   5.424
 5146SOL    HW116337   4.390   4.417   5.471
 5146SOL    HW216338   4.525   4.476   5.401
 5147SOL     OW16339   4.878   3.601   3.753
 5147SOL    HW116340   4.881   3.504   3.727
 5147SOL    HW216341   4.882   3.657   3.671
 5148SOL     OW16342   0.294   0.622   1.670
 5148SOL    HW116343   0.199   0.631   1.700
 5148SOL    HW216344   0.308   0.530   1.633
 5149SOL     OW16345   5.610   4.372   3.643
 5149SOL    HW116346   5.524   4.322   3.653
 5149SOL    HW216347   5.609   4.452   3.704
 5150SOL     OW16348   1.289   5.122   3.596
 5150SOL    HW116349   1.285   5.214   3.635
 5150SOL    HW216350   1.274   5.054   3.668
 5151SOL     OW16351   5.774   4.847   1.651
 5151SOL    HW116352   5.718   4.782   1.702
 5151SOL    HW216353   5.866   4.811   1.641
 5152SOL     OW16354   2.009   0.283   6.650
 5152SOL    HW116355   1.964   0.224   6.716
 5152SOL    HW216356   2.007   0.240   6.560
 5153SOL     OW16357   1.975   1.106   0.989
 5153SOL    HW116358   2.003   1.195   0.953
 5153SOL    HW216359   1.938   1.051   0.915
 5154SOL     OW16360   1.211   2.951   6.670
 5154SOL    HW116361   1.267   2.981   6.593
 5154SOL    HW216362   1.172   2.861   6.649
 5155SOL     OW16363   2.210   1.674   0.834
 5155SOL    HW116364   2.196   1.642   0.741
 5155SOL    HW216365   2.209   1.597   0.897
 5156SOL     OW16366   5.552   5.245   5.223
 5156SOL    HW116367   5.473   5.222   5.166
 5156SOL    HW216368   5.551   5.189   5.306
 5157SOL     OW16369   4.146   1.747   2.112
 5157SOL    HW116370   4.081   1.797   2.170
 5157SOL    HW216371   4.239   1.777   2.134
 5158SOL     OW16372   3.797   1.093   2.216
 5158SOL    HW116373   3.766   1.152   2.141
 5158SOL    HW216374   3.721   1.036   2.247
 5159SOL     OW16375   5.855   3.778   6.526
 5159SOL    HW116376   5.909   3.853   6.488
 5159SOL    HW216377   5.790   3.745   6.457
 5160SOL     OW16378   6.757   6.651   3.067
 5160SOL    HW116379   6.751   6.658   3.167
 5160SOL    HW216380   6.711   6.729   3.025
 5161SOL     OW16381   0.714   3.006   0.119
 5161SOL    HW116382   0.709   3.029   0.216
 5161SOL    HW216383   0.800   2.958   0.101
 5162SOL     OW16384   0.135   6.392   2.726
 5162SOL    HW116385   0.151   6.482   2.767
 5162SOL    HW216386   0.075   6.338   2.785
 5163SOL     OW16387   3.021   5.644   1.935
 5163SOL    HW116388   3.043   5.559   1.888
 5163SOL    HW216389   3.067   5.720   1.889
 5164SOL     OW16390   2.752   3.183   0.908
 5164SOL    HW116391   2.702   3.255   0.860
 5164SOL    HW216392   2.707   3.165   0.996
 5165SOL     OW16393   1.649   4.947   6.725
 5165SOL    HW116394   1.748   4.935   6.714
 5165SOL    HW216395   1.603   4.861   6.705
 5166SOL     OW16396   2.170   5.605   1.727
 5166SOL    HW116397   2.237   5.585   1.799
 5166SOL    HW216398   2.109   5.678   1.758
 5167SOL     OW16399   5.434   3.736   5.664
 5167SOL    HW116400   5.521   3.771   5.700
 5167SOL    HW216401   5.425   3.765   5.568
 5168SOL     OW16402   4.666   2.204   2.300
 5168SOL    HW116403   4.656   2.278   2.367
 5168SOL    HW216404   4.675   2.243   2.208
 5169SOL     OW16405   3.928   0.867   3.925
 5169SOL    HW116406   3.897   0.784   3.971
 5169SOL    HW216407   3.994   0.843   3.854
 5170SOL     OW16408   1.307   3.725   6.551
 5170SOL    HW116409   1.403   3.751   6.558
 5170SOL    HW216410   1.297   3.628   6.571
 5171SOL     OW16411   1.971   5.505   5.892
 5171SOL    HW116412   1.926   5.514   5.981
 5171SOL    HW216413   2.019   5.417   5.888
 5172SOL     OW16414   1.074   4.381   3.929
 5172SOL    HW116415   0.988   4.424   3.902
 5172SOL    HW216416   1.103   4.417   4.018
 5173SOL     OW16417   4.805   3.472   5.948
 5173SOL    HW116418   4.834   3.562   5.915
 5173SOL    HW216419   4.780   3.415   5.870
 5174SOL     OW16420   1.749   6.992   3.423
 5174SOL    HW116421   1.770   0.043   3.486
 5174SOL    HW216422   1.784   7.013   3.332
 5175SOL     OW16423   2.919   4.572   0.075
 5175SOL    HW116424   3.017   4.550   0.073
 5175SOL    HW216425   2.885   4.576   7.005
 5176SOL     OW16426   5.862   5.310   6.735
 5176SOL    HW116427   5.910   5.397   6.727
 5176SOL    HW216428   5.828   5.282   6.645
 5177SOL     OW16429   4.720   0.279   1.165
 5177SOL    HW116430   4.736   0.188   1.203
 5177SOL    HW216431   4.668   0.271   1.080
 5178SOL     OW16432   0.829   3.789   1.592
 5178SOL    HW116433   0.795   3.702   1.557
 5178SOL    HW216434   0.782   3.811   1.677
 5179SOL     OW16435   5.568   4.520   2.701
 5179SOL    HW116436   5.537   4.431   2.667
 5179SOL    HW216437   5.495   4.588   2.690
 5180SOL     OW16438   2.381   6.621   1.380
 5180SOL    HW116439   2.364   6.539   1.326
 5180SOL    HW216440   2.378   6.598   1.477
 5181SOL     OW16441   0.052   0.718   6.508
 5181SOL    HW116442   0.055   0.817   6.502
 5181SOL    HW216443   7.002   0.690   6.570
 5182SOL     OW16444   4.255   4.771   3.380
 5182SOL    HW116445   4.224   4.681   3.349
 5182SOL    HW216446   4.354   4.769   3.395
 5183SOL     OW16447   3.866   1.806   3.472
 5183SOL    HW116448   3.806   1.797   3.552
 5183SOL    HW216449   3.822   1.763   3.393
 5184SOL     OW16450   2.188   2.229   3.974
 5184SOL    HW116451   2.205   2.327   3.972
 5184SOL    HW216452   2.228   2.190   4.057
 5185SOL     OW16453   5.322   0.625   2.239
 5185SOL    HW116454   5.395   0.556   2.244
 5185SOL    HW216455   5.340   0.687   2.163
 5186SOL     OW16456   6.897   2.908   5.723
 5186SOL    HW116457   6.925   3.004   5.729
 5186SOL    HW216458   6.902   2.866   5.813
 5187SOL     OW16459   2.287   5.094   4.967
 5187SOL    HW116460   2.276   5.050   4.878
 5187SOL    HW216461   2.254   5.033   5.039
 5188SOL     OW16462   6.882   6.261   1.775
 5188SOL    HW116463   6.859   6.206   1.855
 5188SOL    HW216464   6.831   6.347   1.777
 5189SOL     OW16465   5.759   0.614   6.426
 5189SOL    HW116466   5.736   0.711   6.434
 5189SOL    HW216467   5.855   0.604   6.400
 5190SOL     OW16468   2.147   2.957   2.069
 5190SOL    HW116469   2.193   2.937   1.982
 5190SOL    HW216470   2.116   3.052   2.069
 5191SOL     OW16471   2.839   5.612   2.411
 5191SOL    HW116472   2.865   5.543   2.479
 5191SOL    HW216473   2.820   5.568   2.324
 5192SOL     OW16474   1.781   5.755   1.433
 5192SOL    HW116475   1.828   5.677   1.391
 5192SOL    HW216476   1.697   5.775   1.382
 5193SOL     OW16477   5.400   0.615   6.749
 5193SOL    HW116478   5.379   0.536   6.808
 5193SOL    HW216479   5.498   0.614   6.726
 5194SOL     OW16480   4.044   2.021   0.032
 5194SOL    HW116481   3.999   1.932   0.022
 5194SOL    HW216482   4.112   2.016   0.106
 5195SOL     OW16483   0.462   0.514   3.428
 5195SOL    HW116484   0.533   0.503   3.498
 5195SOL    HW216485   0.400   0.587   3.455
 5196SOL     OW16486   4.149   6.833   3.256
 5196SOL    HW116487   4.187   6.801   3.168
 5196SOL    HW216488   4.050   6.841   3.248
 5197SOL     OW16489   1.338   4.089   5.790
 5197SOL    HW116490   1.249   4.097   5.834
 5197SOL    HW216491   1.403   4.149   5.835
 5198SOL     OW16492   5.091   5.874   2.985
 5198SOL    HW116493   4.998   5.905   2.964
 5198SOL    HW216494   5.088   5.814   3.065
 5199SOL     OW16495   6.794   4.857   0.949
 5199SOL    HW116496   6.808   4.762   0.979
 5199SOL    HW216497   6.750   4.856   0.858
 5200SOL     OW16498   0.383   4.129   5.422
 5200SOL    HW116499   0.432   4.042   5.422
 5200SOL    HW216500   0.310   4.126   5.353
 5201SOL     OW16501   1.544   6.123   3.710
 5201SOL    HW116502   1.581   6.043   3.756
 5201SOL    HW216503   1.519   6.100   3.616
 5202SOL     OW16504   6.589   3.439   0.142
 5202SOL    HW116505   6.521   3.388   0.195
 5202SOL    HW216506   6.543   3.499   0.078
 5203SOL     OW16507   0.568   2.921   6.913
 5203SOL    HW116508   0.640   2.894   6.849
 5203SOL    HW216509   0.610   2.959   6.996
 5204SOL     OW16510   4.340   4.973   0.551
 5204SOL    HW116511   4.279   5.053   0.548
 5204SOL    HW216512   4.392   4.969   0.465
 5205SOL     OW16513   1.982   0.219   1.429
 5205SOL    HW116514   1.990   0.294   1.364
 5205SOL    HW216515   1.984   0.131   1.381
 5206SOL     OW16516   6.933   4.359   6.881
 5206SOL    HW116517   6.840   4.329   6.862
 5206SOL    HW216518   6.956   4.437   6.822
 5207SOL     OW16519   1.321   5.647   4.305
 5207SOL    HW116520   1.262   5.575   4.343
 5207SOL    HW216521   1.412   5.610   4.288
 5208SOL     OW16522   4.079   0.733   0.244
 5208SOL    HW116523   4.004   0.737   0.178
 5208SOL    HW216524   4.051   0.781   0.328
 5209SOL     OW16525   5.955   5.893   3.169
 5209SOL    HW116526   5.965   5.902   3.070
 5209SOL    HW216527   5.871   5.939   3.199
 5210SOL     OW16528   5.286   3.572   4.615
 5210SOL    HW116529   5.345   3.651   4.633
 5210SOL    HW216530   5.312   3.497   4.676
 5211SOL     OW16531   3.306   3.246   4.019
 5211SOL    HW116532   3.285   3.331   4.067
 5211SOL    HW216533   3.257   3.243   3.932
 5212SOL     OW16534   6.956   2.619   0.299
 5212SOL    HW116535   6.972   2.559   0.378
 5212SOL    HW216536   6.952   2.714   0.330
 5213SOL     OW16537   5.277   2.689   5.950
 5213SOL    HW116538   5.267   2.592   5.973
 5213SOL    HW216539   5.331   2.736   6.019
 5214SOL     OW16540   5.392   2.210   5.424
 5214SOL    HW116541   5.457   2.183   5.494
 5214SOL    HW216542   5.317   2.143   5.420
 5215SOL     OW16543   5.429   4.208   3.366
 5215SOL    HW116544   5.448   4.294   3.412
 5215SOL    HW216545   5.450   4.131   3.427
 5216SOL     OW16546   5.154   5.039   1.393
 5216SOL    HW116547   5.247   5.016   1.421
 5216SOL    HW216548   5.096   4.958   1.401
 5217SOL     OW16549   3.114   5.277   3.992
 5217SOL    HW116550   3.075   5.366   3.969
 5217SOL    HW216551   3.054   5.230   4.056
 5218SOL     OW16552   1.966   0.240   4.389
 5218SOL    HW116553   1.893   0.183   4.351
 5218SOL    HW216554   2.052   0.220   4.342
 5219SOL     OW16555   3.902   0.120   6.449
 5219SOL    HW116556   3.934   0.213   6.429
 5219SOL    HW216557   3.959   0.054   6.401
 5220SOL     OW16558   1.352   5.519   1.876
 5220SOL    HW116559   1.259   5.532   1.913
 5220SOL    HW216560   1.354   5.435   1.822
 5221SOL     OW16561   5.375   1.840   4.556
 5221SOL    HW116562   5.345   1.900   4.630
 5221SOL    HW216563   5.383   1.746   4.590
 5222SOL     OW16564   2.397   0.472   4.040
 5222SOL    HW116565   2.484   0.464   4.087
 5222SOL    HW216566   2.323   0.443   4.102
 5223SOL     OW16567   4.701   0.024   1.226
 5223SOL    HW116568   4.756   7.019   1.305
 5223SOL    HW216569   4.605   0.002   1.244
 5224SOL     OW16570   6.834   2.818   2.643
 5224SOL    HW116571   6.786   2.890   2.693
 5224SOL    HW216572   6.912   2.786   2.697
 5225SOL     OW16573   6.945   0.689   3.070
 5225SOL    HW116574   6.979   0.776   3.103
 5225SOL    HW216575   7.011   0.649   3.006
 5226SOL     OW16576   0.688   6.311   4.322
 5226SOL    HW116577   0.614   6.281   4.383
 5226SOL    HW216578   0.656   6.388   4.266
 5227SOL     OW16579   6.786   4.985   3.679
 5227SOL    HW116580   6.690   5.010   3.669
 5227SOL    HW216581   6.828   4.978   3.589
 5228SOL     OW16582   6.170   2.147   0.486
 5228SOL    HW116583   6.097   2.097   0.532
 5228SOL    HW216584   6.173   2.241   0.520
 5229SOL     OW16585   1.178   4.360   6.779
 5229SOL    HW116586   1.218   4.415   6.705
 5229SOL    HW216587   1.251   4.321   6.835
 5230SOL     OW16588   0.447   0.072   0.959
 5230SOL    HW116589   0.486   7.020   1.011
 5230SOL    HW216590   0.519   0.120   0.910
 5231SOL     OW16591   3.271   2.940   4.608
 5231SOL    HW116592   3.228   2.972   4.693
 5231SOL    HW216593   3.236   2.993   4.531
 5232SOL     OW16594   3.740   2.260   6.492
 5232SOL    HW116595   3.780   2.319   6.422
 5232SOL    HW216596   3.806   2.246   6.565
 5233SOL     OW16597   6.613   6.204   1.399
 5233SOL    HW116598   6.645   6.183   1.492
 5233SOL    HW216599   6.613   6.304   1.386
 5234SOL     OW16600   3.232   0.586   0.489
 5234SOL    HW116601   3.200   0.643   0.564
 5234SOL    HW216602   3.295   0.517   0.524
 5235SOL     OW16603   1.495   2.835   0.628
 5235SOL    HW116604   1.408   2.812   0.673
 5235SOL    HW216605   1.480   2.913   0.567
 5236SOL     OW16606   5.522   2.658   1.501
 5236SOL    HW116607   5.506   2.562   1.478
 5236SOL    HW216608   5.479   2.679   1.588
 5237SOL     OW16609   2.919   2.052   5.473
 5237SOL    HW116610   2.888   1.982   5.408
 5237SOL    HW216611   2.977   2.118   5.424
 5238SOL     OW16612   1.446   5.201   0.293
 5238SOL    HW116613   1.483   5.289   0.324
 5238SOL    HW216614   1.446   5.198   0.193
 5239SOL     OW16615   3.387   3.822   4.564
 5239SOL    HW116616   3.348   3.908   4.598
 5239SOL    HW216617   3.412   3.833   4.467
 5240SOL     OW16618   3.067   1.799   5.253
 5240SOL    HW116619   2.991   1.852   5.216
 5240SOL    HW216620   3.150   1.817   5.200
 5241SOL     OW16621   0.705   6.111   6.807
 5241SOL    HW116622   0.684   6.029   6.755
 5241SOL    HW216623   0.704   6.190   6.746
 5242SOL     OW16624   6.260   1.345   5.511
 5242SOL    HW116625   6.168   1.320   5.540
 5242SOL    HW216626   6.327   1.294   5.565
 5243SOL     OW16627   0.767   6.095   0.632
 5243SOL    HW116628   0.768   6.165   0.703
 5243SOL    HW216629   0.826   6.123   0.556
 5244SOL     OW16630   4.282   3.811   5.681
 5244SOL    HW116631   4.362   3.856   5.719
 5244SOL    HW216632   4.300   3.785   5.586
 5245SOL     OW16633   4.527   3.881   5.819
 5245SOL    HW116634   4.575   3.800   5.785
 5245SOL    HW216635   4.520   3.876   5.919
 5246SOL     OW16636   0.277   3.905   2.671
 5246SOL    HW116637   0.180   3.899   2.695
 5246SOL    HW216638   0.333   3.889   2.752
 5247SOL     OW16639   0.620   6.190   0.067
 5247SOL    HW116640   0.665   6.131   7.024
 5247SOL    HW216641   0.645   6.161   0.159
 5248SOL     OW16642   5.615   0.512   5.582
 5248SOL    HW116643   5.578   0.601   5.558
 5248SOL    HW216644   5.704   0.523   5.626
 5249SOL     OW16645   0.933   4.948   4.523
 5249SOL    HW116646   0.839   4.974   4.545
 5249SOL    HW216647   0.993   4.971   4.599
 5250SOL     OW16648   0.134   1.342   6.270
 5250SOL    HW116649   0.051   1.392   6.245
 5250SOL    HW216650   0.185   1.393   6.339
 5251SOL     OW16651   0.219   2.826   1.177
 5251SOL    HW116652   0.251   2.758   1.110
 5251SOL    HW216653   0.126   2.854   1.154
 5252SOL     OW16654   2.059   5.494   1.279
 5252SOL    HW116655   2.037   5.444   1.195
 5252SOL    HW216656   1.999   5.461   1.353
 5253SOL     OW16657   5.771   3.276   4.512
 5253SOL    HW116658   5.744   3.191   4.467
 5253SOL    HW216659   5.718   3.287   4.596
 5254SOL     OW16660   4.722   1.312   3.351
 5254SOL    HW116661   4.665   1.267   3.283
 5254SOL    HW216662   4.735   1.251   3.430
 5255SOL     OW16663   4.109   0.063   4.407
 5255SOL    HW116664   4.103   0.020   4.317
 5255SOL    HW216665   4.023   0.049   4.457
 5256SOL     OW16666   4.649   1.330   3.001
 5256SOL    HW116667   4.608   1.335   2.910
 5256SOL    HW216668   4.580   1.299   3.067
 5257SOL     OW16669   3.763   6.852   1.818
 5257SOL    HW116670   3.854   6.823   1.846
 5257SOL    HW216671   3.720   6.905   1.892
 5258SOL     OW16672   4.981   3.871   1.857
 5258SOL    HW116673   4.952   3.958   1.897
 5258SOL    HW216674   5.055   3.832   1.911
 5259SOL     OW16675   4.712   6.126   2.363
 5259SOL    HW116676   4.664   6.146   2.449
 5259SOL    HW216677   4.665   6.172   2.287
 5260SOL     OW16678   4.905   3.609   0.857
 5260SOL    HW116679   4.876   3.541   0.790
 5260SOL    HW216680   4.978   3.570   0.914
 5261SOL     OW16681   1.339   2.461   5.512
 5261SOL    HW116682   1.335   2.369   5.474
 5261SOL    HW216683   1.363   2.527   5.440
 5262SOL     OW16684   2.692   0.358   2.651
 5262SOL    HW116685   2.746   0.333   2.570
 5262SOL    HW216686   2.695   0.284   2.718
 5263SOL     OW16687   1.771   0.218   6.106
 5263SOL    HW116688   1.800   0.231   6.201
 5263SOL    HW216689   1.735   0.126   6.094
 5264SOL     OW16690   6.524   1.388   1.060
 5264SOL    HW116691   6.579   1.407   1.141
 5264SOL    HW216692   6.427   1.399   1.082
 5265SOL     OW16693   5.651   4.021   2.472
 5265SOL    HW116694   5.622   4.051   2.563
 5265SOL    HW216695   5.733   3.964   2.480
 5266SOL     OW16696   2.610   6.315   1.644
 5266SOL    HW116697   2.685   6.258   1.676
 5266SOL    HW216698   2.539   6.319   1.715
 5267SOL     OW16699   4.304   4.756   5.913
 5267SOL    HW116700   4.274   4.688   5.981
 5267SOL    HW216701   4.293   4.717   5.821
 5268SOL     OW16702   6.339   5.805   4.939
 5268SOL    HW116703   6.328   5.875   4.868
 5268SOL    HW216704   6.251   5.788   4.983
 5269SOL     OW16705   2.091   5.520   3.595
 5269SOL    HW116706   2.076   5.571   3.680
 5269SOL    HW216707   2.189   5.514   3.578
 5270SOL     OW16708   5.047   2.092   1.354
 5270SOL    HW116709   5.048   2.078   1.453
 5270SOL    HW216710   5.112   2.030   1.311
 5271SOL     OW16711   4.162   5.056   4.735
 5271SOL    HW116712   4.113   4.972   4.711
 5271SOL    HW216713   4.255   5.052   4.697
 5272SOL     OW16714   1.125   5.992   4.275
 5272SOL    HW116715   1.153   6.040   4.191
 5272SOL    HW216716   1.205   5.981   4.335
 5273SOL     OW16717   1.067   2.818   3.652
 5273SOL    HW116718   1.034   2.895   3.706
 5273SOL    HW216719   1.115   2.753   3.711
 5274SOL     OW16720   6.411   4.692   3.448
 5274SOL    HW116721   6.488   4.715   3.508
 5274SOL    HW216722   6.393   4.769   3.387
 5275SOL     OW16723   3.120   0.354   6.334
 5275SOL    HW116724   3.159   0.444   6.314
 5275SOL    HW216725   3.190   0.284   6.324
 5276SOL     OW16726   0.089   6.511   0.469
 5276SOL    HW116727   0.119   6.580   0.403
 5276SOL    HW216728   0.037   6.440   0.421
 5277SOL     OW16729   2.036   1.672   3.117
 5277SOL    HW116730   2.042   1.738   3.042
 5277SOL    HW216731   2.036   1.721   3.205
 5278SOL     OW16732   5.314   6.428   6.079
 5278SOL    HW116733   5.300   6.343   6.027
 5278SOL    HW216734   5.341   6.405   6.172
 5279SOL     OW16735   1.016   5.873   6.980
 5279SOL    HW116736   1.069   5.931   6.918
 5279SOL    HW216737   0.957   5.813   6.928
 5280SOL     OW16738   3.808   6.326   5.266
 5280SOL    HW116739   3.869   6.272   5.324
 5280SOL    HW216740   3.859   6.399   5.221
 5281SOL     OW16741   0.823   0.826   4.575
 5281SOL    HW116742   0.899   0.891   4.573
 5281SOL    HW216743   0.855   0.738   4.540
 5282SOL     OW16744   2.057   0.408   2.410
 5282SOL    HW116745   1.967   0.425   2.450
 5282SOL    HW216746   2.104   0.495   2.394
 5283SOL     OW16747   1.433   0.663   3.791
 5283SOL    HW116748   1.456   0.608   3.872
 5283SOL    HW216749   1.487   0.747   3.791
 5284SOL     OW16750   4.861   2.236   2.719
 5284SOL    HW116751   4.912   2.228   2.805
 5284SOL    HW216752   4.825   2.146   2.694
 5285SOL     OW16753   1.415   3.960   3.865
 5285SOL    HW116754   1.460   3.912   3.940
 5285SOL    HW216755   1.332   4.004   3.898
 5286SOL     OW16756   6.302   3.237   0.941
 5286SOL    HW116757   6.260   3.231   1.032
 5286SOL    HW216758   6.258   3.172   0.879
 5287SOL     OW16759   2.834   5.181   2.074
 5287SOL    HW116760   2.742   5.142   2.070
 5287SOL    HW216761   2.840   5.247   2.148
 5288SOL     OW16762   4.802   0.165   2.866
 5288SOL    HW116763   4.880   0.115   2.829
 5288SOL    HW216764   4.829   0.260   2.884
 5289SOL     OW16765   1.988   4.837   0.092
 5289SOL    HW116766   2.074   4.799   0.127
 5289SOL    HW216767   2.003   4.871   7.023
 5290SOL     OW16768   1.772   4.148   5.437
 5290SOL    HW116769   1.709   4.070   5.427
 5290SOL    HW216770   1.775   4.199   5.351
 5291SOL     OW16771   3.416   4.242   5.667
 5291SOL    HW116772   3.460   4.179   5.731
 5291SOL    HW216773   3.321   4.213   5.652
 5292SOL     OW16774   5.567   4.567   6.367
 5292SOL    HW116775   5.662   4.565   6.400
 5292SOL    HW216776   5.565   4.606   6.274
 5293SOL     OW16777   2.195   6.022   4.559
 5293SOL    HW116778   2.167   5.959   4.632
 5293SOL    HW216779   2.148   6.109   4.571
 5294SOL     OW16780   4.492   1.452   5.410
 5294SOL    HW116781   4.559   1.507   5.360
 5294SOL    HW216782   4.537   1.371   5.448
 5295SOL     OW16783   3.836   0.540   3.694
 5295SOL    HW116784   3.776   0.617   3.717
 5295SOL    HW216785   3.795   0.485   3.622
 5296SOL     OW16786   3.705   3.857   0.354
 5296SOL    HW116787   3.801   3.862   0.378
 5296SOL    HW216788   3.696   3.835   0.257
 5297SOL     OW16789   2.230   3.506   0.693
 5297SOL    HW116790   2.245   3.586   0.752
 5297SOL    HW216791   2.257   3.529   0.599
 5298SOL     OW16792   2.234   6.139   6.536
 5298SOL    HW116793   2.202   6.109   6.446
 5298SOL    HW216794   2.203   6.232   6.553
 5299SOL     OW16795   2.798   2.521   0.945
 5299SOL    HW116796   2.896   2.519   0.925
 5299SOL    HW216797   2.770   2.615   0.965
 5300SOL     OW16798   0.664   4.890   0.855
 5300SOL    HW116799   0.641   4.827   0.930
 5300SOL    HW216800   0.686   4.980   0.893
 5301SOL     OW16801   4.097   0.782   6.827
 5301SOL    HW116802   4.100   0.805   6.730
 5301SOL    HW216803   4.133   0.690   6.841
 5302SOL     OW16804   5.622   6.394   3.610
 5302SOL    HW116805   5.720   6.415   3.607
 5302SOL    HW216806   5.609   6.295   3.612
 5303SOL     OW16807   0.037   5.099   4.865
 5303SOL    HW116808   0.017   5.192   4.894
 5303SOL    HW216809   0.110   5.062   4.923
 5304SOL     OW16810   5.809   0.893   0.230
 5304SOL    HW116811   5.786   0.943   0.147
 5304SOL    HW216812   5.908   0.901   0.247
 5305SOL     OW16813   0.906   5.507   2.732
 5305SOL    HW116814   0.915   5.498   2.633
 5305SOL    HW216815   0.997   5.499   2.774
 5306SOL     OW16816   0.604   4.731   5.512
 5306SOL    HW116817   0.690   4.766   5.550
 5306SOL    HW216818   0.558   4.676   5.582
 5307SOL     OW16819   4.428   1.906   0.327
 5307SOL    HW116820   4.519   1.865   0.315
 5307SOL    HW216821   4.366   1.837   0.365
 5308SOL     OW16822   1.318   4.577   2.031
 5308SOL    HW116823   1.354   4.540   1.946
 5308SOL    HW216824   1.287   4.502   2.090
 5309SOL     OW16825   3.688   4.884   2.146
 5309SOL    HW116826   3.649   4.818   2.082
 5309SOL    HW216827   3.788   4.883   2.138
 5310SOL     OW16828   6.454   3.715   2.217
 5310SOL    HW116829   6.553   3.700   2.211
 5310SOL    HW216830   6.422   3.764   2.136
 5311SOL     OW16831   5.648   6.804   6.595
 5311SOL    HW116832   5.610   6.868   6.662
 5311SOL    HW216833   5.595   6.720   6.594
 5312SOL     OW16834   0.291   5.338   1.835
 5312SOL    HW116835   0.235   5.370   1.758
 5312SOL    HW216836   0.246   5.260   1.878
 5313SOL     OW16837   1.114   4.108   5.932
 5313SOL    HW116838   1.026   4.059   5.932
 5313SOL    HW216839   1.168   4.079   6.011
 5314SOL     OW16840   4.240   6.669   0.569
 5314SOL    HW116841   4.154   6.717   0.584
 5314SOL    HW216842   4.256   6.659   0.470
 5315SOL     OW16843   5.190   3.102   2.733
 5315SOL    HW116844   5.202   3.068   2.826
 5315SOL    HW216845   5.216   3.031   2.668
 5316SOL     OW16846   1.190   3.889   5.305
 5316SOL    HW116847   1.190   3.923   5.400
 5316SOL    HW216848   1.257   3.815   5.296
 5317SOL     OW16849   6.208   1.692   5.814
 5317SOL    HW116850   6.292   1.710   5.763
 5317SOL    HW216851   6.229   1.634   5.893
 5318SOL     OW16852   0.615   2.828   0.473
 5318SOL    HW116853   0.539   2.783   0.519
 5318SOL    HW216854   0.645   2.772   0.396
 5319SOL     OW16855   4.496   6.008   1.111
 5319SOL    HW116856   4.550   6.090   1.092
 5319SOL    HW216857   4.399   6.028   1.097
 5320SOL     OW16858   4.404   5.294   0.793
 5320SOL    HW116859   4.346   5.364   0.834
 5320SOL    HW216860   4.374   5.276   0.700
 5321SOL     OW16861   2.134   4.465   5.102
 5321SOL    HW116862   2.101   4.388   5.047
 5321SOL    HW216863   2.060   4.498   5.161
 5322SOL     OW16864   5.483   6.697   0.047
 5322SOL    HW116865   5.468   6.743   6.984
 5322SOL    HW216866   5.511   6.603   0.030
 5323SOL     OW16867   3.534   1.492   5.612
 5323SOL    HW116868   3.499   1.557   5.680
 5323SOL    HW216869   3.590   1.423   5.657
 5324SOL     OW16870   3.212   2.479   0.632
 5324SOL    HW116871   3.200   2.519   0.541
 5324SOL    HW216872   3.291   2.521   0.677
 5325SOL     OW16873   4.338   0.955   4.119
 5325SOL    HW116874   4.350   0.974   4.022
 5325SOL    HW216875   4.378   1.030   4.173
 5326SOL     OW16876   6.731   5.514   3.189
 5326SOL    HW116877   6.805   5.451   3.167
 5326SOL    HW216878   6.761   5.576   3.262
 5327SOL     OW16879   6.030   2.843   4.913
 5327SOL    HW116880   5.937   2.865   4.943
 5327SOL    HW216881   6.095   2.860   4.987
 5328SOL     OW16882   3.386   3.879   6.227
 5328SOL    HW116883   3.468   3.822   6.226
 5328SOL    HW216884   3.371   3.917   6.136
 5329SOL     OW16885   0.780   5.191   6.545
 5329SOL    HW116886   0.751   5.102   6.580
 5329SOL    HW216887   0.756   5.199   6.449
 5330SOL     OW16888   4.087   3.848   0.010
 5330SOL    HW116889   4.141   3.789   6.974
 5330SOL    HW216890   4.141   3.873   0.090
 5331SOL     OW16891   5.883   1.693   6.169
 5331SOL    HW116892   5.812   1.746   6.124
 5331SOL    HW216893   5.937   1.753   6.229
 5332SOL     OW16894   1.241   3.010   1.589
 5332SOL    HW116895   1.302   3.082   1.556
 5332SOL    HW216896   1.205   3.035   1.679
 5333SOL     OW16897   0.773   0.982   3.013
 5333SOL    HW116898   0.742   0.952   2.923
 5333SOL    HW216899   0.702   1.037   3.057
 5334SOL     OW16900   3.267   0.368   4.554
 5334SOL    HW116901   3.350   0.318   4.578
 5334SOL    HW216902   3.284   0.424   4.472
 5335SOL     OW16903   0.007   5.773   0.628
 5335SOL    HW116904   6.979   5.688   0.637
 5335SOL    HW216905   0.082   5.760   0.563
 5336SOL     OW16906   2.155   3.132   2.569
 5336SOL    HW116907   2.183   3.064   2.501
 5336SOL    HW216908   2.107   3.086   2.644
 5337SOL     OW16909   5.110   4.556   0.790
 5337SOL    HW116910   5.085   4.506   0.708
 5337SOL    HW216911   5.201   4.527   0.820
 5338SOL     OW16912   5.701   1.372   0.409
 5338SOL    HW116913   5.749   1.397   0.326
 5338SOL    HW216914   5.739   1.423   0.486
 5339SOL     OW16915   6.523   1.250   3.964
 5339SOL    HW116916   6.491   1.228   4.056
 5339SOL    HW216917   6.561   1.342   3.963
 5340SOL     OW16918   5.356   4.512   0.848
 5340SOL    HW116919   5.395   4.486   0.936
 5340SOL    HW216920   5.375   4.441   0.780
 5341SOL     OW16921   3.967   2.881   6.567
 5341SOL    HW116922   4.024   2.917   6.493
 5341SOL    HW216923   3.960   2.781   6.559
 5342SOL     OW16924   3.563   0.419   4.297
 5342SOL    HW116925   3.639   0.374   4.251
 5342SOL    HW216926   3.504   0.462   4.229
 5343SOL     OW16927   3.323   3.515   4.144
 5343SOL    HW116928   3.305   3.594   4.085
 5343SOL    HW216929   3.274   3.526   4.230
 5344SOL     OW16930   2.042   2.183   2.564
 5344SOL    HW116931   2.083   2.274   2.562
 5344SOL    HW216932   1.953   2.185   2.519
 5345SOL     OW16933   4.169   6.583   1.687
 5345SOL    HW116934   4.246   6.548   1.741
 5345SOL    HW216935   4.100   6.511   1.676
 5346SOL     OW16936   3.300   6.540   4.314
 5346SOL    HW116937   3.276   6.636   4.304
 5346SOL    HW216938   3.312   6.498   4.224
 5347SOL     OW16939   0.326   2.562   2.084
 5347SOL    HW116940   0.259   2.636   2.089
 5347SOL    HW216941   0.359   2.554   1.990
 5348SOL     OW16942   0.421   1.449   0.726
 5348SOL    HW116943   0.450   1.362   0.688
 5348SOL    HW216944   0.328   1.441   0.764
 5349SOL     OW16945   1.186   2.345   0.170
 5349SOL    HW116946   1.223   2.412   0.107
 5349SOL    HW216947   1.238   2.260   0.162
 5350SOL     OW16948   1.724   6.983   5.979
 5350SOL    HW116949   1.787   6.928   6.034
 5350SOL    HW216950   1.665   6.923   5.925
 5351SOL     OW16951   5.476   5.623   1.868
 5351SOL    HW116952   5.513   5.563   1.939
 5351SOL    HW216953   5.499   5.587   1.778
 5352SOL     OW16954   1.698   5.784   4.379
 5352SOL    HW116955   1.611   5.774   4.330
 5352SOL    HW216956   1.746   5.865   4.346
 5353SOL     OW16957   3.249   5.922   4.526
 5353SOL    HW116958   3.288   5.894   4.438
 5353SOL    HW216959   3.161   5.967   4.511
 5354SOL     OW16960   1.937   5.357   1.948
 5354SOL    HW116961   1.968   5.452   1.953
 5354SOL    HW216962   1.983   5.303   2.020
 5355SOL     OW16963   4.724   2.376   3.903
 5355SOL    HW116964   4.687   2.444   3.840
 5355SOL    HW216965   4.779   2.422   3.973
 5356SOL     OW16966   5.787   4.405   1.652
 5356SOL    HW116967   5.724   4.462   1.599
 5356SOL    HW216968   5.856   4.365   1.591
 5357SOL     OW16969   3.171   6.961   0.880
 5357SOL    HW116970   3.269   6.947   0.893
 5357SOL    HW216971   3.153   6.979   0.783
 5358SOL     OW16972   4.184   1.420   1.060
 5358SOL    HW116973   4.174   1.459   0.968
 5358SOL    HW216974   4.268   1.365   1.063
 5359SOL     OW16975   2.012   1.983   0.010
 5359SOL    HW116976   2.002   2.077   0.042
 5359SOL    HW216977   2.091   1.940   0.054
 5360SOL     OW16978   4.487   6.387   5.297
 5360SOL    HW116979   4.446   6.433   5.219
 5360SOL    HW216980   4.415   6.359   5.361
 5361SOL     OW16981   2.477   6.867   4.652
 5361SOL    HW116982   2.552   6.828   4.599
 5361SOL    HW216983   2.393   6.816   4.633
 5362SOL     OW16984   5.084   4.434   3.622
 5362SOL    HW116985   5.063   4.522   3.663
 5362SOL    HW216986   5.169   4.441   3.570
 5363SOL     OW16987   0.718   6.603   6.061
 5363SOL    HW116988   0.812   6.605   6.093
 5363SOL    HW216989   0.708   6.662   5.981
 5364SOL     OW16990   0.142   5.801   1.357
 5364SOL    HW116991   0.122   5.771   1.451
 5364SOL    HW216992   0.190   5.889   1.360
 5365SOL     OW16993   3.826   3.384   0.004
 5365SOL    HW116994   3.796   3.410   0.096
 5365SOL    HW216995   3.914   3.336   0.011
 5366SOL     OW16996   5.280   5.255   1.705
 5366SOL    HW116997   5.235   5.191   1.767
 5366SOL    HW216998   5.234   5.253   1.616
 5367SOL     OW16999   0.341   5.194   0.648
 5367SOL    HW117000   0.333   5.292   0.629
 5367SOL    HW217001   0.270   5.168   0.714
 5368SOL     OW17002   4.929   0.694   3.127
 5368SOL    HW117003   4.874   0.758   3.181
 5368SOL    HW217004   5.019   0.735   3.110
 5369SOL     OW17005   3.270   6.702   3.171
 5369SOL    HW117006   3.270   6.669   3.265
 5369SOL    HW217007   3.259   6.624   3.109
 5370SOL     OW17008   4.093   2.961   1.458
 5370SOL    HW117009   4.124   3.014   1.537
 5370SOL    HW217010   4.085   2.865   1.484
 5371SOL     OW17011   1.777   3.524   4.176
 5371SOL    HW117012   1.680   3.512   4.199
 5371SOL    HW217013   1.832   3.519   4.260
 5372SOL     OW17014   2.357   5.714   3.490
 5372SOL    HW117015   2.314   5.636   3.445
 5372SOL    HW217016   2.382   5.782   3.421
 5373SOL     OW17017   3.187   5.199   4.522
 5373SOL    HW117018   3.204   5.296   4.509
 5373SOL    HW217019   3.211   5.173   4.616
 5374SOL     OW17020   0.721   3.554   0.196
 5374SOL    HW117021   0.819   3.560   0.216
 5374SOL    HW217022   0.674   3.633   0.235
 5375SOL     OW17023   1.850   4.520   4.790
 5375SOL    HW117024   1.808   4.577   4.719
 5375SOL    HW217025   1.933   4.478   4.753
 5376SOL     OW17026   1.694   2.966   0.772
 5376SOL    HW117027   1.636   2.926   0.701
 5376SOL    HW217028   1.720   2.894   0.837
 5377SOL     OW17029   6.981   6.745   1.189
 5377SOL    HW117030   6.993   6.755   1.288
 5377SOL    HW217031   6.896   6.790   1.161
 5378SOL     OW17032   6.937   0.349   1.391
 5378SOL    HW117033   6.877   0.328   1.314
 5378SOL    HW217034   6.889   0.332   1.477
 5379SOL     OW17035   0.810   5.290   5.337
 5379SOL    HW117036   0.777   5.344   5.260
 5379SOL    HW217037   0.760   5.203   5.341
 5380SOL     OW17038   1.815   1.186   3.373
 5380SOL    HW117039   1.880   1.116   3.403
 5380SOL    HW217040   1.864   1.271   3.357
 5381SOL     OW17041   5.897   4.169   0.591
 5381SOL    HW117042   5.920   4.264   0.570
 5381SOL    HW217043   5.803   4.164   0.625
 5382SOL     OW17044   3.320   0.453   1.946
 5382SOL    HW117045   3.415   0.484   1.932
 5382SOL    HW217046   3.264   0.530   1.974
 5383SOL     OW17047   2.597   2.689   5.273
 5383SOL    HW117048   2.541   2.692   5.190
 5383SOL    HW217049   2.603   2.781   5.312
 5384SOL     OW17050   5.921   0.408   4.136
 5384SOL    HW117051   5.874   0.405   4.224
 5384SOL    HW217052   5.857   0.385   4.062
 5385SOL     OW17053   2.970   3.380   3.428
 5385SOL    HW117054   2.890   3.394   3.486
 5385SOL    HW217055   2.999   3.284   3.433
 5386SOL     OW17056   4.206   0.306   4.369
 5386SOL    HW117057   4.168   0.314   4.277
 5386SOL    HW217058   4.184   0.216   4.407
 5387SOL     OW17059   2.756   5.935   3.567
 5387SOL    HW117060   2.704   5.850   3.573
 5387SOL    HW217061   2.795   5.943   3.475
 5388SOL     OW17062   5.803   0.157   3.313
 5388SOL    HW117063   5.835   0.252   3.307
 5388SOL    HW217064   5.874   0.096   3.276
 5389SOL     OW17065   5.699   0.626   1.609
 5389SOL    HW117066   5.695   0.612   1.510
 5389SOL    HW217067   5.788   0.661   1.635
 5390SOL     OW17068   4.734   4.709   3.786
 5390SOL    HW117069   4.811   4.648   3.805
 5390SOL    HW217070   4.764   4.783   3.726
 5391SOL     OW17071   1.794   2.084   1.104
 5391SOL    HW117072   1.826   2.179   1.115
 5391SOL    HW217073   1.871   2.022   1.115
 5392SOL     OW17074   5.971   3.586   0.945
 5392SOL    HW117075   6.010   3.574   1.036
 5392SOL    HW217076   6.036   3.634   0.886
 5393SOL     OW17077   5.418   6.712   6.163
 5393SOL    HW117078   5.334   6.702   6.111
 5393SOL    HW217079   5.440   6.809   6.173
 5394SOL     OW17080   6.751   3.772   6.720
 5394SOL    HW117081   6.712   3.848   6.773
 5394SOL    HW217082   6.692   3.752   6.642
 5395SOL     OW17083   5.048   1.253   1.811
 5395SOL    HW117084   5.111   1.284   1.882
 5395SOL    HW217085   5.075   1.290   1.723
 5396SOL     OW17086   4.950   4.203   2.647
 5396SOL    HW117087   4.866   4.229   2.694
 5396SOL    HW217088   4.935   4.117   2.598
 5397SOL     OW17089   6.688   2.828   1.927
 5397SOL    HW117090   6.677   2.927   1.917
 5397SOL    HW217091   6.604   2.788   1.963
 5398SOL     OW17092   3.184   1.848   2.683
 5398SOL    HW117093   3.195   1.894   2.595
 5398SOL    HW217094   3.219   1.906   2.756
 5399SOL     OW17095   2.215   5.936   6.961
 5399SOL    HW117096   2.307   5.924   6.924
 5399SOL    HW217097   2.181   6.028   6.939
 5400SOL     OW17098   2.821   3.990   0.838
 5400SOL    HW117099   2.809   3.994   0.739
 5400SOL    HW217100   2.911   4.029   0.862
 5401SOL     OW17101   5.748   3.605   1.746
 5401SOL    HW117102   5.757   3.664   1.666
 5401SOL    HW217103   5.789   3.515   1.726
 5402SOL     OW17104   2.504   4.919   1.660
 5402SOL    HW117105   2.484   4.853   1.732
 5402SOL    HW217106   2.541   5.002   1.700
 5403SOL     OW17107   6.251   2.892   6.323
 5403SOL    HW117108   6.206   2.972   6.283
 5403SOL    HW217109   6.202   2.809   6.298
 5404SOL     OW17110   0.587   1.420   2.980
 5404SOL    HW117111   0.494   1.401   2.950
 5404SOL    HW217112   0.634   1.474   2.910
 5405SOL     OW17113   5.978   5.436   0.019
 5405SOL    HW117114   5.916   5.365   0.051
 5405SOL    HW217115   5.971   5.516   0.078
 5406SOL     OW17116   2.207   1.267   6.739
 5406SOL    HW117117   2.228   1.349   6.792
 5406SOL    HW217118   2.214   1.186   6.798
 5407SOL     OW17119   4.741   3.062   1.039
 5407SOL    HW117120   4.754   2.974   0.995
 5407SOL    HW217121   4.645   3.089   1.033
 5408SOL     OW17122   3.482   1.511   6.589
 5408SOL    HW117123   3.487   1.605   6.622
 5408SOL    HW217124   3.409   1.503   6.521
 5409SOL     OW17125   5.177   0.774   3.726
 5409SOL    HW117126   5.264   0.762   3.679
 5409SOL    HW217127   5.107   0.717   3.683
 5410SOL     OW17128   2.912   2.247   1.464
 5410SOL    HW117129   2.859   2.310   1.407
 5410SOL    HW217130   2.913   2.157   1.420
 5411SOL     OW17131   6.681   5.239   5.500
 5411SOL    HW117132   6.680   5.339   5.508
 5411SOL    HW217133   6.607   5.201   5.556
 5412SOL     OW17134   4.920   1.642   0.265
 5412SOL    HW117135   4.916   1.645   0.165
 5412SOL    HW217136   4.952   1.551   0.294
 5413SOL     OW17137   2.767   1.839   1.192
 5413SOL    HW117138   2.676   1.871   1.219
 5413SOL    HW217139   2.766   1.812   1.096
 5414SOL     OW17140   4.762   2.134   4.863
 5414SOL    HW117141   4.675   2.133   4.912
 5414SOL    HW217142   4.772   2.048   4.812
 5415SOL     OW17143   1.399   5.894   0.947
 5415SOL    HW117144   1.314   5.853   0.983
 5415SOL    HW217145   1.402   5.991   0.971
 5416SOL     OW17146   4.701   5.357   5.949
 5416SOL    HW117147   4.782   5.313   5.987
 5416SOL    HW217148   4.645   5.394   6.023
 5417SOL     OW17149   4.034   6.741   5.562
 5417SOL    HW117150   4.023   6.657   5.614
 5417SOL    HW217151   4.013   6.724   5.466
 5418SOL     OW17152   3.501   6.961   3.684
 5418SOL    HW117153   3.495   6.862   3.680
 5418SOL    HW217154   3.583   6.988   3.734
 5419SOL     OW17155   3.574   5.352   0.405
 5419SOL    HW117156   3.483   5.385   0.380
 5419SOL    HW217157   3.571   5.254   0.423
 5420SOL     OW17158   1.615   2.597   2.609
 5420SOL    HW117159   1.695   2.540   2.627
 5420SOL    HW217160   1.574   2.626   2.695
 5421SOL     OW17161   2.279   2.571   2.356
 5421SOL    HW117162   2.329   2.498   2.310
 5421SOL    HW217163   2.243   2.635   2.288
 5422SOL     OW17164   0.552   5.175   0.395
 5422SOL    HW117165   0.545   5.197   0.492
 5422SOL    HW217166   0.516   5.251   0.341
 5423SOL     OW17167   6.122   2.934   6.830
 5423SOL    HW117168   6.167   2.853   6.867
 5423SOL    HW217169   6.125   2.931   6.730
 5424SOL     OW17170   5.743   3.044   3.889
 5424SOL    HW117171   5.839   3.061   3.913
 5424SOL    HW217172   5.722   3.090   3.803
 5425SOL     OW17173   4.106   1.181   4.426
 5425SOL    HW117174   4.189   1.236   4.438
 5425SOL    HW217175   4.027   1.231   4.461
 5426SOL     OW17176   6.515   5.670   4.156
 5426SOL    HW117177   6.453   5.592   4.148
 5426SOL    HW217178   6.512   5.724   4.072
 5427SOL     OW17179   4.827   4.651   0.069
 5427SOL    HW117180   4.795   4.728   0.125
 5427SOL    HW217181   4.918   4.671   0.035
 5428SOL     OW17182   0.206   6.683   1.063
 5428SOL    HW117183   0.273   6.715   1.130
 5428SOL    HW217184   0.114   6.700   1.098
 5429SOL     OW17185   2.163   2.335   6.634
 5429SOL    HW117186   2.144   2.259   6.572
 5429SOL    HW217187   2.079   2.386   6.650
 5430SOL     OW17188   0.290   3.080   6.103
 5430SOL    HW117189   0.288   2.987   6.066
 5430SOL    HW217190   0.257   3.078   6.198
 5431SOL     OW17191   2.974   6.243   0.128
 5431SOL    HW117192   3.034   6.185   0.073
 5431SOL    HW217193   2.941   6.320   0.072
 5432SOL     OW17194   5.453   6.808   6.839
 5432SOL    HW117195   5.425   6.740   6.772
 5432SOL    HW217196   5.401   6.892   6.825
 5433SOL     OW17197   0.428   1.388   4.632
 5433SOL    HW117198   0.345   1.431   4.667
 5433SOL    HW217199   0.417   1.289   4.630
 5434SOL     OW17200   3.585   0.834   5.600
 5434SOL    HW117201   3.554   0.805   5.509
 5434SOL    HW217202   3.506   0.843   5.660
 5435SOL     OW17203   5.887   0.781   1.752
 5435SOL    HW117204   5.954   0.765   1.824
 5435SOL    HW217205   5.814   0.839   1.787
 5436SOL     OW17206   5.147   3.816   4.232
 5436SOL    HW117207   5.051   3.791   4.240
 5436SOL    HW217208   5.201   3.734   4.213
 5437SOL     OW17209   2.911   4.549   6.827
 5437SOL    HW117210   2.868   4.470   6.783
 5437SOL    HW217211   3.010   4.544   6.815
 5438SOL     OW17212   6.548   3.191   2.881
 5438SOL    HW117213   6.572   3.257   2.810
 5438SOL    HW217214   6.605   3.109   2.870
 5439SOL     OW17215   0.735   2.222   0.356
 5439SOL    HW117216   0.711   2.312   0.394
 5439SOL    HW217217   0.800   2.235   0.281
 5440SOL     OW17218   0.698   0.977   1.254
 5440SOL    HW117219   0.679   1.040   1.329
 5440SOL    HW217220   0.774   1.012   1.199
 5441SOL     OW17221   4.574   2.201   3.141
 5441SOL    HW117222   4.527   2.155   3.217
 5441SOL    HW217223   4.510   2.214   3.065
 5442SOL     OW17224   3.281   5.921   4.027
 5442SOL    HW117225   3.278   6.005   3.973
 5442SOL    HW217226   3.201   5.918   4.088
 5443SOL     OW17227   2.827   0.912   4.249
 5443SOL    HW117228   2.842   0.971   4.170
 5443SOL    HW217229   2.756   0.845   4.228
 5444SOL     OW17230   1.205   0.713   4.215
 5444SOL    HW117231   1.164   0.799   4.245
 5444SOL    HW217232   1.144   0.668   4.150
 5445SOL     OW17233   6.105   4.050   3.551
 5445SOL    HW117234   6.074   4.144   3.536
 5445SOL    HW217235   6.132   4.038   3.646
 5446SOL     OW17236   6.616   4.902   5.052
 5446SOL    HW117237   6.664   4.826   5.096
 5446SOL    HW217238   6.637   4.987   5.100
 5447SOL     OW17239   2.865   2.010   6.772
 5447SOL    HW117240   2.831   1.968   6.688
 5447SOL    HW217241   2.935   1.951   6.812
 5448SOL     OW17242   4.554   2.834   5.342
 5448SOL    HW117243   4.509   2.923   5.337
 5448SOL    HW217244   4.496   2.770   5.393
 5449SOL     OW17245   1.524   3.067   6.291
 5449SOL    HW117246   1.500   3.125   6.369
 5449SOL    HW217247   1.622   3.076   6.272
 5450SOL     OW17248   1.379   0.284   1.753
 5450SOL    HW117249   1.448   0.236   1.699
 5450SOL    HW217250   1.339   0.358   1.699
 5451SOL     OW17251   1.499   6.666   3.578
 5451SOL    HW117252   1.436   6.589   3.569
 5451SOL    HW217253   1.447   6.751   3.580
 5452SOL     OW17254   2.563   4.737   6.807
 5452SOL    HW117255   2.478   4.739   6.859
 5452SOL    HW217256   2.614   4.822   6.822
 5453SOL     OW17257   5.681   4.419   1.290
 5453SOL    HW117258   5.760   4.361   1.308
 5453SOL    HW217259   5.697   4.511   1.326
 5454SOL     OW17260   0.009   4.114   6.796
 5454SOL    HW117261   7.017   4.208   6.827
 5454SOL    HW217262   6.992   4.102   6.705
 5455SOL     OW17263   6.368   3.346   0.313
 5455SOL    HW117264   6.306   3.301   0.377
 5455SOL    HW217265   6.400   3.432   0.352
 5456SOL     OW17266   3.558   6.918   6.889
 5456SOL    HW117267   3.620   6.856   6.937
 5456SOL    HW217268   3.487   6.950   6.951
 5457SOL     OW17269   5.957   2.320   0.235
 5457SOL    HW117270   6.040   2.265   0.250
 5457SOL    HW217271   5.933   2.366   0.321
 5458SOL     OW17272   0.241   4.938   6.923
 5458SOL    HW117273   0.230   5.025   6.971
 5458SOL    HW217274   0.210   4.863   6.983
 5459SOL     OW17275   2.656   4.581   6.615
 5459SOL    HW117276   2.691   4.627   6.533
 5459SOL    HW217277   2.627   4.649   6.682
 5460SOL     OW17278   2.776   7.020   2.643
 5460SOL    HW117279   2.799   0.037   2.554
 5460SOL    HW217280   2.754   0.069   2.708
 5461SOL     OW17281   5.785   6.384   5.187
 5461SOL    HW117282   5.786   6.330   5.271
 5461SOL    HW217283   5.869   6.438   5.181
 5462SOL     OW17284   0.901   0.998   6.664
 5462SOL    HW117285   0.970   1.037   6.725
 5462SOL    HW217286   0.811   1.008   6.707
 5463SOL     OW17287   6.266   2.049   0.014
 5463SOL    HW117288   6.244   2.078   0.107
 5463SOL    HW217289   6.209   2.099   6.973
 5464SOL     OW17290   1.273   0.954   4.013
 5464SOL    HW117291   1.238   0.861   3.999
 5464SOL    HW217292   1.197   1.019   4.014
 5465SOL     OW17293   4.028   6.549   3.299
 5465SOL    HW117294   4.122   6.570   3.328
 5465SOL    HW217295   3.995   6.622   3.238
 5466SOL     OW17296   5.859   4.610   5.442
 5466SOL    HW117297   5.860   4.563   5.530
 5466SOL    HW217298   5.927   4.570   5.382
 5467SOL     OW17299   5.156   2.743   3.079
 5467SOL    HW117300   5.166   2.684   3.159
 5467SOL    HW217301   5.144   2.686   2.998
 5468SOL     OW17302   5.064   2.048   4.464
 5468SOL    HW117303   5.145   2.101   4.491
 5468SOL    HW217304   4.987   2.110   4.451
 5469SOL     OW17305   3.857   4.583   6.603
 5469SOL    HW117306   3.844   4.588   6.504
 5469SOL    HW217307   3.938   4.637   6.628
 5470SOL     OW17308   3.164   5.891   2.575
 5470SOL    HW117309   3.249   5.838   2.579
 5470SOL    HW217310   3.159   5.952   2.654
 5471SOL     OW17311   5.259   6.976   2.549
 5471SOL    HW117312   5.325   0.007   2.602
 5471SOL    HW217313   5.307   6.905   2.499
 5472SOL     OW17314   3.871   3.570   5.829
 5472SOL    HW117315   3.966   3.583   5.801
 5472SOL    HW217316   3.850   3.472   5.830
 5473SOL     OW17317   0.554   3.309   3.492
 5473SOL    HW117318   0.464   3.344   3.520
 5473SOL    HW217319   0.554   3.209   3.499
 5474SOL     OW17320   1.175   4.785   4.081
 5474SOL    HW117321   1.207   4.690   4.076
 5474SOL    HW217322   1.178   4.815   4.177
 5475SOL     OW17323   2.277   2.315   1.025
 5475SOL    HW117324   2.324   2.305   0.937
 5475SOL    HW217325   2.258   2.411   1.041
 5476SOL     OW17326   2.229   3.893   5.815
 5476SOL    HW117327   2.325   3.908   5.841
 5476SOL    HW217328   2.175   3.878   5.898
 5477SOL     OW17329   2.024   4.196   3.376
 5477SOL    HW117330   2.049   4.157   3.465
 5477SOL    HW217331   2.096   4.176   3.310
 5478SOL     OW17332   4.459   4.796   5.435
 5478SOL    HW117333   4.542   4.797   5.378
 5478SOL    HW217334   4.471   4.861   5.511
 5479SOL     OW17335   4.998   1.298   6.086
 5479SOL    HW117336   4.956   1.270   5.999
 5479SOL    HW217337   4.926   1.314   6.154
 5480SOL     OW17338   0.313   3.510   3.518
 5480SOL    HW117339   0.248   3.540   3.448
 5480SOL    HW217340   0.355   3.590   3.561
 5481SOL     OW17341   3.687   0.947   4.067
 5481SOL    HW117342   3.706   1.029   4.122
 5481SOL    HW217343   3.773   0.910   4.033
 5482SOL     OW17344   3.803   4.570   1.671
 5482SOL    HW117345   3.802   4.486   1.616
 5482SOL    HW217346   3.713   4.585   1.712
 5483SOL     OW17347   0.488   2.602   5.719
 5483SOL    HW117348   0.537   2.516   5.732
 5483SOL    HW217349   0.468   2.644   5.807
 5484SOL     OW17350   4.543   0.952   4.858
 5484SOL    HW117351   4.567   0.998   4.773
 5484SOL    HW217352   4.493   1.015   4.917
 5485SOL     OW17353   4.301   0.397   5.553
 5485SOL    HW117354   4.382   0.367   5.604
 5485SOL    HW217355   4.219   0.357   5.594
 5486SOL     OW17356   2.752   6.040   5.391
 5486SOL    HW117357   2.771   6.138   5.404
 5486SOL    HW217358   2.803   6.006   5.313
 5487SOL     OW17359   2.963   3.757   6.495
 5487SOL    HW117360   3.011   3.840   6.520
 5487SOL    HW217361   3.019   3.677   6.516
 5488SOL     OW17362   6.552   0.890   0.636
 5488SOL    HW117363   6.483   0.902   0.565
 5488SOL    HW217364   6.531   0.949   0.714
 5489SOL     OW17365   6.137   3.506   1.928
 5489SOL    HW117366   6.203   3.483   1.999
 5489SOL    HW217367   6.183   3.555   1.854
 5490SOL     OW17368   1.604   0.148   2.180
 5490SOL    HW117369   1.509   0.156   2.211
 5490SOL    HW217370   1.645   0.240   2.177
 5491SOL     OW17371   0.358   2.931   0.789
 5491SOL    HW117372   0.258   2.931   0.791
 5491SOL    HW217373   0.389   2.975   0.704
 5492SOL     OW17374   1.150   3.055   5.769
 5492SOL    HW117375   1.180   3.030   5.860
 5492SOL    HW217376   1.168   3.152   5.753
 5493SOL     OW17377   4.155   3.637   2.218
 5493SOL    HW117378   4.250   3.607   2.218
 5493SOL    HW217379   4.116   3.625   2.309
 5494SOL     OW17380   6.617   3.981   5.169
 5494SOL    HW117381   6.553   4.057   5.156
 5494SOL    HW217382   6.583   3.900   5.122
 5495SOL     OW17383   5.651   0.863   1.181
 5495SOL    HW117384   5.703   0.946   1.202
 5495SOL    HW217385   5.711   0.795   1.141
 5496SOL     OW17386   4.690   0.503   3.887
 5496SOL    HW117387   4.596   0.508   3.919
 5496SOL    HW217388   4.708   0.577   3.822
 5497SOL     OW17389   0.218   1.440   5.560
 5497SOL    HW117390   0.310   1.472   5.586
 5497SOL    HW217391   0.150   1.506   5.592
 5498SOL     OW17392   0.178   4.853   1.597
 5498SOL    HW117393   0.124   4.937   1.588
 5498SOL    HW217394   0.275   4.877   1.605
 5499SOL     OW17395   0.671   0.503   3.615
 5499SOL    HW117396   0.694   0.495   3.712
 5499SOL    HW217397   0.738   0.451   3.561
 5500SOL     OW17398   1.368   0.658   0.050
 5500SOL    HW117399   1.445   0.605   0.015
 5500SOL    HW217400   1.293   0.657   7.007
 5501SOL     OW17401   3.993   2.156   0.701
 5501SOL    HW117402   3.968   2.094   0.776
 5501SOL    HW217403   4.030   2.241   0.739
 5502SOL     OW17404   5.272   3.880   6.470
 5502SOL    HW117405   5.331   3.934   6.531
 5502SOL    HW217406   5.325   3.852   6.390
 5503SOL     OW17407   0.461   4.154   1.223
 5503SOL    HW117408   0.512   4.129   1.141
 5503SOL    HW217409   0.516   4.215   1.280
 5504SOL     OW17410   4.342   1.564   5.822
 5504SOL    HW117411   4.415   1.593   5.760
 5504SOL    HW217412   4.379   1.498   5.888
 5505SOL     OW17413   2.330   4.224   3.829
 5505SOL    HW117414   2.406   4.160   3.816
 5505SOL    HW217415   2.318   4.279   3.746
 5506SOL     OW17416   6.805   3.346   7.023
 5506SOL    HW117417   6.729   3.362   0.063
 5506SOL    HW217418   6.770   3.335   6.930
 5507SOL     OW17419   3.777   0.799   6.070
 5507SOL    HW117420   3.824   0.757   6.148
 5507SOL    HW217421   3.845   0.840   6.008
 5508SOL     OW17422   1.193   1.012   0.369
 5508SOL    HW117423   1.096   1.034   0.367
 5508SOL    HW217424   1.234   1.029   0.279
 5509SOL     OW17425   0.600   5.832   0.960
 5509SOL    HW117426   0.555   5.906   0.911
 5509SOL    HW217427   0.547   5.748   0.949
 5510SOL     OW17428   5.188   5.444   6.528
 5510SOL    HW117429   5.284   5.431   6.506
 5510SOL    HW217430   5.155   5.365   6.580
 5511SOL     OW17431   0.810   1.153   5.309
 5511SOL    HW117432   0.871   1.145   5.230
 5511SOL    HW217433   0.844   1.224   5.370
 5512SOL     OW17434   3.719   1.187   1.116
 5512SOL    HW117435   3.790   1.256   1.130
 5512SOL    HW217436   3.643   1.205   1.178
 5513SOL     OW17437   3.080   4.818   6.139
 5513SOL    HW117438   3.085   4.823   6.238
 5513SOL    HW217439   2.985   4.824   6.110
 5514SOL     OW17440   3.849   6.797   5.079
 5514SOL    HW117441   3.762   6.780   5.033
 5514SOL    HW217442   3.874   6.893   5.068
 5515SOL     OW17443   1.826   5.801   1.970
 5515SOL    HW117444   1.770   5.734   1.921
 5515SOL    HW217445   1.810   5.792   2.069
 5516SOL     OW17446   2.384   2.691   5.077
 5516SOL    HW117447   2.294   2.649   5.070
 5516SOL    HW217448   2.374   2.791   5.073
 5517SOL     OW17449   1.703   3.460   2.294
 5517SOL    HW117450   1.783   3.492   2.344
 5517SOL    HW217451   1.662   3.537   2.245
 5518SOL     OW17452   6.204   5.012   5.820
 5518SOL    HW117453   6.147   4.946   5.771
 5518SOL    HW217454   6.291   4.970   5.843
 5519SOL     OW17455   5.005   2.958   3.567
 5519SOL    HW117456   5.036   2.914   3.483
 5519SOL    HW217457   5.074   3.022   3.599
 5520SOL     OW17458   5.417   6.089   2.585
 5520SOL    HW117459   5.389   6.185   2.591
 5520SOL    HW217460   5.365   6.035   2.651
 5521SOL     OW17461   5.400   5.786   1.427
 5521SOL    HW117462   5.377   5.692   1.453
 5521SOL    HW217463   5.316   5.835   1.402
 5522SOL     OW17464   6.529   5.301   1.636
 5522SOL    HW117465   6.596   5.311   1.563
 5522SOL    HW217466   6.518   5.389   1.683
 5523SOL     OW17467   5.152   0.689   2.837
 5523SOL    HW117468   5.166   0.716   2.932
 5523SOL    HW217469   5.237   0.653   2.799
 5524SOL     OW17470   3.867   0.185   5.428
 5524SOL    HW117471   3.777   0.165   5.468
 5524SOL    HW217472   3.927   0.106   5.439
 5525SOL     OW17473   6.960   3.031   0.621
 5525SOL    HW117474   6.875   3.083   0.619
 5525SOL    HW217475   6.946   2.944   0.667
 5526SOL     OW17476   4.750   4.239   3.052
 5526SOL    HW117477   4.839   4.283   3.045
 5526SOL    HW217478   4.752   4.168   3.122
 5527SOL     OW17479   4.840   3.319   3.955
 5527SOL    HW117480   4.867   3.325   3.859
 5527SOL    HW217481   4.744   3.291   3.961
 5528SOL     OW17482   0.935   1.566   1.635
 5528SOL    HW117483   1.013   1.561   1.697
 5528SOL    HW217484   0.851   1.580   1.688
 5529SOL     OW17485   2.358   6.991   3.619
 5529SOL    HW117486   2.351   6.947   3.709
 5529SOL    HW217487   2.266   7.007   3.583
 5530SOL     OW17488   6.758   2.670   2.280
 5530SOL    HW117489   6.774   2.590   2.223
 5530SOL    HW217490   6.846   2.710   2.306
 5531SOL     OW17491   3.763   4.372   1.441
 5531SOL    HW117492   3.806   4.283   1.446
 5531SOL    HW217493   3.764   4.405   1.346
 5532SOL     OW17494   1.859   2.646   0.386
 5532SOL    HW117495   1.783   2.696   0.344
 5532SOL    HW217496   1.826   2.596   0.466
 5533SOL     OW17497   5.056   1.469   4.234
 5533SOL    HW117498   5.073   1.535   4.308
 5533SOL    HW217499   5.112   1.387   4.250
 5534SOL     OW17500   0.963   1.205   5.804
 5534SOL    HW117501   0.983   1.170   5.713
 5534SOL    HW217502   0.978   1.134   5.872
 5535SOL     OW17503   0.640   1.364   2.576
 5535SOL    HW117504   0.679   1.365   2.484
 5535SOL    HW217505   0.645   1.271   2.612
 5536SOL     OW17506   3.562   0.591   4.507
 5536SOL    HW117507   3.627   0.656   4.466
 5536SOL    HW217508   3.530   0.527   4.437
 5537SOL     OW17509   3.715   1.396   2.477
 5537SOL    HW117510   3.704   1.456   2.398
 5537SOL    HW217511   3.800   1.342   2.467
 5538SOL     OW17512   4.657   5.717   4.607
 5538SOL    HW117513   4.577   5.697   4.663
 5538SOL    HW217514   4.638   5.692   4.512
 5539SOL     OW17515   1.945   3.126   1.002
 5539SOL    HW117516   2.011   3.128   1.077
 5539SOL    HW217517   1.859   3.086   1.033
 5540SOL     OW17518   4.879   4.955   3.636
 5540SOL    HW117519   4.978   4.945   3.645
 5540SOL    HW217520   4.849   5.033   3.691
 5541SOL     OW17521   4.311   1.919   6.343
 5541SOL    HW117522   4.304   1.826   6.306
 5541SOL    HW217523   4.250   1.928   6.422
 5542SOL     OW17524   3.941   3.746   6.065
 5542SOL    HW117525   3.879   3.691   6.007
 5542SOL    HW217526   4.023   3.693   6.086
 5543SOL     OW17527   6.246   3.883   6.514
 5543SOL    HW117528   6.255   3.825   6.433
 5543SOL    HW217529   6.289   3.839   6.592
 5544SOL     OW17530   5.564   0.744   5.846
 5544SOL    HW117531   5.594   0.655   5.878
 5544SOL    HW217532   5.643   0.795   5.812
 5545SOL     OW17533   4.229   2.250   2.577
 5545SOL    HW117534   4.296   2.183   2.611
 5545SOL    HW217535   4.186   2.214   2.495
 5546SOL     OW17536   1.856   5.081   5.849
 5546SOL    HW117537   1.926   5.114   5.786
 5546SOL    HW217538   1.808   5.159   5.889
 5547SOL     OW17539   3.260   5.617   5.486
 5547SOL    HW117540   3.269   5.535   5.542
 5547SOL    HW217541   3.241   5.592   5.391
 5548SOL     OW17542   6.030   3.687   5.464
 5548SOL    HW117543   6.021   3.753   5.538
 5548SOL    HW217544   6.125   3.687   5.431
 5549SOL     OW17545   3.529   4.928   6.695
 5549SOL    HW117546   3.576   5.015   6.682
 5549SOL    HW217547   3.439   4.944   6.736
 5550SOL     OW17548   2.268   5.903   1.375
 5550SOL    HW117549   2.194   5.857   1.424
 5550SOL    HW217550   2.345   5.918   1.437
 5551SOL     OW17551   1.522   1.044   3.277
 5551SOL    HW117552   1.586   1.031   3.353
 5551SOL    HW217553   1.442   1.094   3.309
 5552SOL     OW17554   0.000   1.845   0.832
 5552SOL    HW117555   7.006   1.759   0.783
 5552SOL    HW217556   6.937   1.884   0.863
 5553SOL     OW17557   4.112   6.526   0.219
 5553SOL    HW117558   4.212   6.526   0.224
 5553SOL    HW217559   4.083   6.473   0.139
 5554SOL     OW17560   2.864   2.219   5.169
 5554SOL    HW117561   2.950   2.269   5.160
 5554SOL    HW217562   2.815   2.223   5.082
 5555SOL     OW17563   0.366   5.487   3.334
 5555SOL    HW117564   0.395   5.406   3.384
 5555SOL    HW217565   0.340   5.559   3.398
 5556SOL     OW17566   0.872   2.038   5.130
 5556SOL    HW117567   0.927   2.087   5.061
 5556SOL    HW217568   0.890   2.077   5.220
 5557SOL     OW17569   2.110   6.148   3.671
 5557SOL    HW117570   2.117   6.056   3.633
 5557SOL    HW217571   2.066   6.208   3.605
 5558SOL     OW17572   5.515   2.709   4.918
 5558SOL    HW117573   5.502   2.615   4.948
 5558SOL    HW217574   5.604   2.718   4.873
 5559SOL     OW17575   2.049   0.458   0.893
 5559SOL    HW117576   2.010   0.366   0.901
 5559SOL    HW217577   1.976   0.525   0.886
 5560SOL     OW17578   0.333   1.200   3.593
 5560SOL    HW117579   0.377   1.224   3.680
 5560SOL    HW217580   0.349   1.272   3.526
 5561SOL     OW17581   1.469   3.247   3.519
 5561SOL    HW117582   1.423   3.168   3.559
 5561SOL    HW217583   1.423   3.331   3.548
 5562SOL     OW17584   2.245   3.011   5.796
 5562SOL    HW117585   2.247   3.033   5.893
 5562SOL    HW217586   2.223   2.914   5.784
 5563SOL     OW17587   4.559   6.563   2.663
 5563SOL    HW117588   4.533   6.473   2.698
 5563SOL    HW217589   4.478   6.608   2.626
 5564SOL     OW17590   5.096   4.016   1.631
 5564SOL    HW117591   5.184   3.969   1.617
 5564SOL    HW217592   5.047   3.971   1.706
 5565SOL     OW17593   3.657   2.238   5.491
 5565SOL    HW117594   3.594   2.312   5.469
 5565SOL    HW217595   3.750   2.264   5.466
 5566SOL     OW17596   1.899   5.136   1.294
 5566SOL    HW117597   1.888   5.235   1.300
 5566SOL    HW217598   1.967   5.106   1.361
 5567SOL     OW17599   1.543   5.668   1.229
 5567SOL    HW117600   1.557   5.579   1.272
 5567SOL    HW217601   1.585   5.667   1.138
 5568SOL     OW17602   4.627   1.341   1.633
 5568SOL    HW117603   4.591   1.355   1.541
 5568SOL    HW217604   4.552   1.318   1.695
 5569SOL     OW17605   3.844   1.593   1.062
 5569SOL    HW117606   3.849   1.499   1.096
 5569SOL    HW217607   3.833   1.656   1.139
 5570SOL     OW17608   6.310   4.494   5.550
 5570SOL    HW117609   6.352   4.508   5.640
 5570SOL    HW217610   6.379   4.460   5.486
 5571SOL     OW17611   6.794   5.616   0.600
 5571SOL    HW117612   6.700   5.638   0.624
 5571SOL    HW217613   6.819   5.527   0.639
 5572SOL     OW17614   4.347   2.341   6.377
 5572SOL    HW117615   4.419   2.337   6.308
 5572SOL    HW217616   4.303   2.431   6.374
 5573SOL     OW17617   0.886   3.740   0.894
 5573SOL    HW117618   0.873   3.766   0.990
 5573SOL    HW217619   0.929   3.650   0.890
 5574SOL     OW17620   0.645   6.249   4.972
 5574SOL    HW117621   0.684   6.209   4.889
 5574SOL    HW217622   0.616   6.343   4.953
 5575SOL     OW17623   0.884   1.137   0.462
 5575SOL    HW117624   0.840   1.218   0.502
 5575SOL    HW217625   0.911   1.074   0.534
 5576SOL     OW17626   5.505   6.240   0.349
 5576SOL    HW117627   5.480   6.327   0.307
 5576SOL    HW217628   5.519   6.171   0.277
 5577SOL     OW17629   2.022   4.060   5.453
 5577SOL    HW117630   1.925   4.081   5.451
 5577SOL    HW217631   2.067   4.099   5.373
 5578SOL     OW17632   4.446   2.969   0.307
 5578SOL    HW117633   4.390   2.996   0.228
 5578SOL    HW217634   4.433   3.035   0.381
 5579SOL     OW17635   5.257   3.718   6.972
 5579SOL    HW117636   5.300   3.628   6.984
 5579SOL    HW217637   5.317   3.777   6.919
 5580SOL     OW17638   5.423   1.030   0.409
 5580SOL    HW117639   5.420   1.118   0.457
 5580SOL    HW217640   5.443   0.957   0.474
 5581SOL     OW17641   2.068   1.038   6.205
 5581SOL    HW117642   2.039   1.075   6.116
 5581SOL    HW217643   2.063   1.110   6.274
 5582SOL     OW17644   3.503   3.355   3.649
 5582SOL    HW117645   3.589   3.307   3.630
 5582SOL    HW217646   3.461   3.384   3.563
 5583SOL     OW17647   3.824   0.333   1.264
 5583SOL    HW117648   3.883   0.353   1.343
 5583SOL    HW217649   3.821   0.235   1.248
 5584SOL     OW17650   6.802   3.581   3.108
 5584SOL    HW117651   6.758   3.566   3.020
 5584SOL    HW217652   6.750   3.647   3.161
 5585SOL     OW17653   6.166   0.369   4.419
 5585SOL    HW117654   6.262   0.388   4.396
 5585SOL    HW217655   6.157   0.357   4.518
 5586SOL     OW17656   2.247   0.956   5.625
 5586SOL    HW117657   2.295   1.008   5.696
 5586SOL    HW217658   2.246   0.860   5.650
 5587SOL     OW17659   3.822   0.599   4.043
 5587SOL    HW117660   3.727   0.605   4.014
 5587SOL    HW217661   3.869   0.529   3.991
 5588SOL     OW17662   2.441   0.114   5.699
 5588SOL    HW117663   2.524   0.139   5.650
 5588SOL    HW217664   2.362   0.154   5.654
 5589SOL     OW17665   4.334   2.902   5.842
 5589SOL    HW117666   4.402   2.945   5.901
 5589SOL    HW217667   4.345   2.935   5.748
 5590SOL     OW17668   0.407   5.750   4.591
 5590SOL    HW117669   0.448   5.794   4.510
 5590SOL    HW217670   0.460   5.669   4.616
 5591SOL     OW17671   5.541   0.378   0.300
 5591SOL    HW117672   5.573   0.292   0.339
 5591SOL    HW217673   5.511   0.439   0.374
 5592SOL     OW17674   1.884   3.039   2.672
 5592SOL    HW117675   1.892   3.079   2.581
 5592SOL    HW217676   1.852   3.108   2.737
 5593SOL     OW17677   2.004   2.411   5.929
 5593SOL    HW117678   2.036   2.495   5.973
 5593SOL    HW217679   1.912   2.389   5.962
 5594SOL     OW17680   2.304   0.631   0.812
 5594SOL    HW117681   2.336   0.573   0.738
 5594SOL    HW217682   2.285   0.575   0.893
 5595SOL     OW17683   0.054   2.399   5.995
 5595SOL    HW117684   0.154   2.396   6.005
 5595SOL    HW217685   0.030   2.479   5.939
 5596SOL     OW17686   5.037   0.322   3.048
 5596SOL    HW117687   4.960   0.385   3.036
 5596SOL    HW217688   5.122   0.374   3.056
 5597SOL     OW17689   6.672   1.036   6.079
 5597SOL    HW117690   6.707   1.128   6.100
 5597SOL    HW217691   6.705   0.971   6.147
 5598SOL     OW17692   6.443   1.782   3.673
 5598SOL    HW117693   6.466   1.718   3.600
 5598SOL    HW217694   6.504   1.861   3.670
 5599SOL     OW17695   4.879   3.786   2.757
 5599SOL    HW117696   4.873   3.830   2.667
 5599SOL    HW217697   4.958   3.724   2.758
 5600SOL     OW17698   2.372   1.197   2.561
 5600SOL    HW117699   2.471   1.210   2.552
 5600SOL    HW217700   2.324   1.279   2.528
 5601SOL     OW17701   5.557   3.208   5.439
 5601SOL    HW117702   5.552   3.251   5.349
 5601SOL    HW217703   5.520   3.271   5.508
 5602SOL     OW17704   0.226   2.308   3.337
 5602SOL    HW117705   0.241   2.267   3.247
 5602SOL    HW217706   0.203   2.237   3.403
 5603SOL     OW17707   4.304   2.308   4.583
 5603SOL    HW117708   4.249   2.330   4.502
 5603SOL    HW217709   4.348   2.219   4.571
 5604SOL     OW17710   0.367   0.122   3.814
 5604SOL    HW117711   0.351   0.193   3.746
 5604SOL    HW217712   0.315   0.142   3.897
 5605SOL     OW17713   2.967   5.995   4.546
 5605SOL    HW117714   2.901   6.007   4.472
 5605SOL    HW217715   2.945   5.911   4.596
 5606SOL     OW17716   4.701   2.101   0.652
 5606SOL    HW117717   4.680   2.175   0.588
 5606SOL    HW217718   4.733   2.139   0.739
 5607SOL     OW17719   6.249   2.703   1.923
 5607SOL    HW117720   6.165   2.650   1.940
 5607SOL    HW217721   6.233   2.767   1.848
 5608SOL     OW17722   4.225   0.990   3.355
 5608SOL    HW117723   4.285   1.064   3.386
 5608SOL    HW217724   4.132   1.026   3.343
 5609SOL     OW17725   6.571   6.847   0.872
 5609SOL    HW117726   6.550   6.770   0.813
 5609SOL    HW217727   6.670   6.865   0.871
 5610SOL     OW17728   5.061   4.494   0.257
 5610SOL    HW117729   5.161   4.498   0.261
 5610SOL    HW217730   5.032   4.490   0.161
 5611SOL     OW17731   7.016   5.067   1.545
 5611SOL    HW117732   6.961   4.992   1.508
 5611SOL    HW217733   0.010   5.133   1.472
 5612SOL     OW17734   2.922   0.835   0.865
 5612SOL    HW117735   2.970   0.850   0.951
 5612SOL    HW217736   2.844   0.774   0.881
 5613SOL     OW17737   6.667   5.524   5.521
 5613SOL    HW117738   6.746   5.583   5.535
 5613SOL    HW217739   6.631   5.538   5.428
 5614SOL     OW17740   6.179   1.976   4.274
 5614SOL    HW117741   6.125   1.908   4.324
 5614SOL    HW217742   6.268   1.936   4.250
 5615SOL     OW17743   0.419   3.327   3.020
 5615SOL    HW117744   0.504   3.308   3.070
 5615SOL    HW217745   0.341   3.322   3.083
 5616SOL     OW17746   1.856   3.242   2.863
 5616SOL    HW117747   1.952   3.268   2.858
 5616SOL    HW217748   1.835   3.208   2.954
 5617SOL     OW17749   2.216   5.039   6.621
 5617SOL    HW117750   2.239   5.076   6.531
 5617SOL    HW217751   2.199   4.940   6.614
 5618SOL     OW17752   6.703   5.817   3.651
 5618SOL    HW117753   6.740   5.844   3.740
 5618SOL    HW217754   6.757   5.861   3.578
 5619SOL     OW17755   3.498   3.154   4.283
 5619SOL    HW117756   3.506   3.143   4.184
 5619SOL    HW217757   3.527   3.070   4.329
 5620SOL     OW17758   4.951   4.565   5.674
 5620SOL    HW117759   4.883   4.594   5.742
 5620SOL    HW217760   4.920   4.593   5.583
 5621SOL     OW17761   1.583   2.394   5.209
 5621SOL    HW117762   1.590   2.374   5.112
 5621SOL    HW217763   1.502   2.349   5.246
 5622SOL     OW17764   5.030   5.810   5.079
 5622SOL    HW117765   4.948   5.824   5.022
 5622SOL    HW217766   5.008   5.831   5.174
 5623SOL     OW17767   5.182   6.282   4.161
 5623SOL    HW117768   5.201   6.378   4.141
 5623SOL    HW217769   5.156   6.272   4.257
 5624SOL     OW17770   6.769   4.768   4.515
 5624SOL    HW117771   6.813   4.811   4.594
 5624SOL    HW217772   6.831   4.699   4.476
 5625SOL     OW17773   1.257   5.940   4.910
 5625SOL    HW117774   1.273   5.966   5.005
 5625SOL    HW217775   1.240   6.022   4.856
 5626SOL     OW17776   1.822   4.004   4.590
 5626SOL    HW117777   1.849   3.945   4.667
 5626SOL    HW217778   1.897   4.066   4.568
 5627SOL     OW17779   1.184   5.374   0.021
 5627SOL    HW117780   1.252   5.300   0.028
 5627SOL    HW217781   1.155   5.400   0.113
 5628SOL     OW17782   2.442   2.804   1.063
 5628SOL    HW117783   2.368   2.862   1.095
 5628SOL    HW217784   2.462   2.734   1.131
 5629SOL     OW17785   5.193   3.713   1.460
 5629SOL    HW117786   5.237   3.628   1.489
 5629SOL    HW217787   5.224   3.788   1.519
 5630SOL     OW17788   2.631   3.820   6.928
 5630SOL    HW117789   2.609   3.735   6.976
 5630SOL    HW217790   2.660   3.799   6.835
 5631SOL     OW17791   4.650   1.031   1.666
 5631SOL    HW117792   4.688   1.107   1.719
 5631SOL    HW217793   4.684   0.945   1.703
 5632SOL     OW17794   5.655   0.008   6.064
 5632SOL    HW117795   5.684   0.056   6.147
 5632SOL    HW217796   5.557   0.025   6.049
 5633SOL     OW17797   0.780   5.193   5.706
 5633SOL    HW117798   0.784   5.135   5.625
 5633SOL    HW217799   0.687   5.228   5.718
 5634SOL     OW17800   2.954   6.890   0.234
 5634SOL    HW117801   3.016   6.957   0.193
 5634SOL    HW217802   2.970   6.800   0.193
 5635SOL     OW17803   2.435   0.340   6.832
 5635SOL    HW117804   2.522   0.323   6.877
 5635SOL    HW217805   2.388   0.252   6.817
 5636SOL     OW17806   6.121   1.645   5.558
 5636SOL    HW117807   6.146   1.661   5.653
 5636SOL    HW217808   6.163   1.560   5.526
 5637SOL     OW17809   4.999   6.574   4.457
 5637SOL    HW117810   5.073   6.624   4.503
 5637SOL    HW217811   4.911   6.604   4.493
 5638SOL     OW17812   5.107   5.369   0.964
 5638SOL    HW117813   5.079   5.446   0.906
 5638SOL    HW217814   5.200   5.342   0.941
 5639SOL     OW17815   0.487   0.387   1.512
 5639SOL    HW117816   0.544   0.414   1.590
 5639SOL    HW217817   0.455   0.469   1.464
 5640SOL     OW17818   2.900   5.839   3.307
 5640SOL    HW117819   2.939   5.928   3.282
 5640SOL    HW217820   2.964   5.766   3.284
 5641SOL     OW17821   0.359   4.233   4.021
 5641SOL    HW117822   0.292   4.161   4.036
 5641SOL    HW217823   0.402   4.258   4.108
 5642SOL     OW17824   1.689   4.481   0.468
 5642SOL    HW117825   1.707   4.383   0.466
 5642SOL    HW217826   1.594   4.497   0.496
 5643SOL     OW17827   4.380   2.040   4.553
 5643SOL    HW117828   4.306   1.977   4.532
 5643SOL    HW217829   4.457   2.024   4.490
 5644SOL     OW17830   4.674   1.530   5.213
 5644SOL    HW117831   4.641   1.567   5.127
 5644SOL    HW217832   4.763   1.570   5.235
 5645SOL     OW17833   5.854   5.647   3.562
 5645SOL    HW117834   5.846   5.553   3.596
 5645SOL    HW217835   5.885   5.707   3.636
 5646SOL     OW17836   0.529   6.424   3.558
 5646SOL    HW117837   0.504   6.454   3.650
 5646SOL    HW217838   0.512   6.325   3.550
 5647SOL     OW17839   6.204   5.469   6.840
 5647SOL    HW117840   6.160   5.537   6.781
 5647SOL    HW217841   6.147   5.453   6.920
 5648SOL     OW17842   2.006   1.863   3.958
 5648SOL    HW117843   1.926   1.920   3.980
 5648SOL    HW217844   2.048   1.896   3.874
 5649SOL     OW17845   1.000   1.038   5.124
 5649SOL    HW117846   1.099   1.047   5.131
 5649SOL    HW217847   0.968   0.966   5.187
 5650SOL     OW17848   6.683   4.931   6.472
 5650SOL    HW117849   6.772   4.967   6.498
 5650SOL    HW217850   6.663   4.850   6.527
 5651SOL     OW17851   6.940   1.188   1.936
 5651SOL    HW117852   6.989   1.159   2.019
 5651SOL    HW217853   6.946   1.287   1.926
 5652SOL     OW17854   4.717   5.586   1.746
 5652SOL    HW117855   4.644   5.587   1.677
 5652SOL    HW217856   4.790   5.524   1.717
 5653SOL     OW17857   0.111   5.775   5.326
 5653SOL    HW117858   0.158   5.854   5.285
 5653SOL    HW217859   0.139   5.692   5.278
 5654SOL     OW17860   6.786   0.479   5.491
 5654SOL    HW117861   6.842   0.399   5.469
 5654SOL    HW217862   6.703   0.450   5.539
 5655SOL     OW17863   0.622   3.440   4.000
 5655SOL    HW117864   0.533   3.422   4.042
 5655SOL    HW217865   0.620   3.410   3.904
 5656SOL     OW17866   3.552   3.383   0.768
 5656SOL    HW117867   3.491   3.352   0.841
 5656SOL    HW217868   3.576   3.479   0.783
 5657SOL     OW17869   3.720   0.190   1.586
 5657SOL    HW117870   3.758   0.098   1.575
 5657SOL    HW217871   3.775   0.242   1.651
 5658SOL     OW17872   3.785   6.869   5.612
 5658SOL    HW117873   3.879   6.899   5.597
 5658SOL    HW217874   3.757   6.810   5.537
 5659SOL     OW17875   3.083   3.795   2.680
 5659SOL    HW117876   3.100   3.891   2.658
 5659SOL    HW217877   3.161   3.739   2.651
 5660SOL     OW17878   4.616   0.404   6.730
 5660SOL    HW117879   4.638   0.316   6.688
 5660SOL    HW217880   4.518   0.420   6.726
 5661SOL     OW17881   0.009   6.045   4.452
 5661SOL    HW117882   6.969   6.037   4.375
 5661SOL    HW217883   7.011   6.127   4.505
 5662SOL     OW17884   2.362   4.625   4.062
 5662SOL    HW117885   2.293   4.696   4.047
 5662SOL    HW217886   2.436   4.663   4.118
 5663SOL     OW17887   1.029   3.909   0.720
 5663SOL    HW117888   0.970   3.846   0.770
 5663SOL    HW217889   1.030   3.885   0.623
 5664SOL     OW17890   0.002   4.569   2.488
 5664SOL    HW117891   6.989   4.476   2.483
 5664SOL    HW217892   6.982   4.625   2.418
 5665SOL     OW17893   2.305   3.036   6.055
 5665SOL    HW117894   2.328   3.133   6.057
 5665SOL    HW217895   2.386   2.982   6.078
 5666SOL     OW17896   4.944   5.690   0.482
 5666SOL    HW117897   4.986   5.743   0.556
 5666SOL    HW217898   4.985   5.717   0.395
 5667SOL     OW17899   6.733   5.159   3.019
 5667SOL    HW117900   6.784   5.202   3.092
 5667SOL    HW217901   6.737   5.059   3.030
 5668SOL     OW17902   4.913   2.217   6.190
 5668SOL    HW117903   4.829   2.268   6.176
 5668SOL    HW217904   4.991   2.272   6.160
 5669SOL     OW17905   0.828   4.898   6.115
 5669SOL    HW117906   0.734   4.865   6.104
 5669SOL    HW217907   0.892   4.832   6.075
 5670SOL     OW17908   0.477   3.224   4.597
 5670SOL    HW117909   0.515   3.267   4.515
 5670SOL    HW217910   0.532   3.251   4.677
 5671SOL     OW17911   2.176   0.439   6.814
 5671SOL    HW117912   2.132   0.379   6.747
 5671SOL    HW217913   2.272   0.415   6.822
 5672SOL     OW17914   5.146   4.091   5.850
 5672SOL    HW117915   5.201   4.126   5.774
 5672SOL    HW217916   5.205   4.070   5.928
 5673SOL     OW17917   0.296   0.341   2.107
 5673SOL    HW117918   0.282   0.332   2.205
 5673SOL    HW217919   0.305   0.250   2.066
 5674SOL     OW17920   6.755   3.285   1.472
 5674SOL    HW117921   6.691   3.360   1.492
 5674SOL    HW217922   6.831   3.320   1.417
 5675SOL     OW17923   4.496   2.456   5.430
 5675SOL    HW117924   4.562   2.456   5.355
 5675SOL    HW217925   4.523   2.388   5.499
 5676SOL     OW17926   1.926   6.927   1.650
 5676SOL    HW117927   1.899   7.005   1.707
 5676SOL    HW217928   2.010   6.887   1.687
 5677SOL     OW17929   6.347   0.848   3.672
 5677SOL    HW117930   6.354   0.876   3.767
 5677SOL    HW217931   6.400   0.911   3.615
 5678SOL     OW17932   3.600   0.115   2.826
 5678SOL    HW117933   3.551   0.189   2.871
 5678SOL    HW217934   3.668   0.077   2.889
 5679SOL     OW17935   2.055   6.693   5.041
 5679SOL    HW117936   1.997   6.621   5.080
 5679SOL    HW217937   2.097   6.746   5.115
 5680SOL     OW17938   1.645   5.598   6.453
 5680SOL    HW117939   1.637   5.597   6.354
 5680SOL    HW217940   1.715   5.532   6.481
 5681SOL     OW17941   1.365   1.992   6.562
 5681SOL    HW117942   1.319   2.059   6.504
 5681SOL    HW217943   1.297   1.938   6.611
 5682SOL     OW17944   1.758   2.401   6.032
 5682SOL    HW117945   1.730   2.465   5.959
 5682SOL    HW217946   1.721   2.432   6.119
 5683SOL     OW17947   3.402   2.873   6.447
 5683SOL    HW117948   3.327   2.907   6.390
 5683SOL    HW217949   3.387   2.901   6.542
 5684SOL     OW17950   3.844   3.570   3.774
 5684SOL    HW117951   3.787   3.613   3.844
 5684SOL    HW217952   3.850   3.472   3.792
 5685SOL     OW17953   0.370   4.674   2.475
 5685SOL    HW117954   0.465   4.657   2.502
 5685SOL    HW217955   0.342   4.607   2.407
 5686SOL     OW17956   3.899   6.846   0.888
 5686SOL    HW117957   3.986   6.845   0.938
 5686SOL    HW217958   3.880   6.754   0.854
 5687SOL     OW17959   5.485   4.309   5.214
 5687SOL    HW117960   5.473   4.214   5.185
 5687SOL    HW217961   5.576   4.341   5.188
 5688SOL     OW17962   5.492   2.169   1.495
 5688SOL    HW117963   5.568   2.200   1.552
 5688SOL    HW217964   5.520   2.085   1.447
 5689SOL     OW17965   4.958   1.328   0.790
 5689SOL    HW117966   5.002   1.371   0.869
 5689SOL    HW217967   4.862   1.309   0.812
 5690SOL     OW17968   4.508   5.942   0.676
 5690SOL    HW117969   4.603   5.956   0.648
 5690SOL    HW217970   4.504   5.883   0.756
 5691SOL     OW17971   2.671   6.801   2.537
 5691SOL    HW117972   2.703   6.860   2.611
 5691SOL    HW217973   2.749   6.763   2.488
 5692SOL     OW17974   6.667   2.514   5.947
 5692SOL    HW117975   6.732   2.461   6.001
 5692SOL    HW217976   6.699   2.520   5.853
 5693SOL     OW17977   4.592   2.588   2.679
 5693SOL    HW117978   4.629   2.631   2.761
 5693SOL    HW217979   4.656   2.599   2.603
 5694SOL     OW17980   0.255   1.020   3.419
 5694SOL    HW117981   0.168   1.062   3.394
 5694SOL    HW217982   0.295   1.069   3.496
 5695SOL     OW17983   1.152   2.420   3.587
 5695SOL    HW117984   1.173   2.423   3.685
 5695SOL    HW217985   1.055   2.436   3.574
 5696SOL     OW17986   2.559   1.471   5.217
 5696SOL    HW117987   2.492   1.399   5.196
 5696SOL    HW217988   2.628   1.435   5.279
 5697SOL     OW17989   6.758   2.393   0.808
 5697SOL    HW117990   6.756   2.473   0.868
 5697SOL    HW217991   6.667   2.376   0.771
 5698SOL     OW17992   1.000   2.971   2.018
 5698SOL    HW117993   1.095   2.961   2.047
 5698SOL    HW217994   0.961   2.880   2.001
 5699SOL     OW17995   6.122   1.009   4.674
 5699SOL    HW117996   6.048   1.048   4.728
 5699SOL    HW217997   6.122   0.909   4.685
 5700SOL     OW17998   1.454   6.226   4.991
 5700SOL    HW117999   1.400   6.231   4.907
 5700SOL    HW218000   1.420   6.151   5.048
 5701SOL     OW18001   0.432   6.009   2.133
 5701SOL    HW118002   0.385   5.984   2.217
 5701SOL    HW218003   0.409   6.103   2.108
 5702SOL     OW18004   1.816   6.277   6.281
 5702SOL    HW118005   1.791   6.345   6.211
 5702SOL    HW218006   1.824   6.187   6.238
 5703SOL     OW18007   4.419   4.642   0.210
 5703SOL    HW118008   4.401   4.636   0.308
 5703SOL    HW218009   4.418   4.550   0.170
 5704SOL     OW18010   4.566   5.505   3.309
 5704SOL    HW118011   4.534   5.516   3.215
 5704SOL    HW218012   4.509   5.437   3.355
 5705SOL     OW18013   5.922   0.307   1.078
 5705SOL    HW118014   5.847   0.360   1.117
 5705SOL    HW218015   5.893   0.212   1.065
 5706SOL     OW18016   1.812   1.607   0.596
 5706SOL    HW118017   1.859   1.694   0.611
 5706SOL    HW218018   1.759   1.612   0.511
 5707SOL     OW18019   1.706   0.518   6.401
 5707SOL    HW118020   1.736   0.499   6.495
 5707SOL    HW218021   1.778   0.567   6.352
 5708SOL     OW18022   5.044   6.667   2.533
 5708SOL    HW118023   5.102   6.697   2.608
 5708SOL    HW218024   4.948   6.686   2.556
 5709SOL     OW18025   0.738   6.605   3.322
 5709SOL    HW118026   0.652   6.563   3.353
 5709SOL    HW218027   0.720   6.698   3.291
 5710SOL     OW18028   2.943   3.248   5.642
 5710SOL    HW118029   3.018   3.233   5.577
 5710SOL    HW218030   2.910   3.342   5.634
 5711SOL     OW18031   5.118   1.225   3.679
 5711SOL    HW118032   5.172   1.165   3.738
 5711SOL    HW218033   5.037   1.257   3.728
 5712SOL     OW18034   6.760   0.015   5.536
 5712SOL    HW118035   6.828   6.968   5.522
 5712SOL    HW218036   6.669   6.997   5.544
 5713SOL     OW18037   0.014   2.653   2.276
 5713SOL    HW118038   0.054   2.736   2.235
 5713SOL    HW218039   0.020   2.578   2.210
 5714SOL     OW18040   1.372   0.359   6.614
 5714SOL    HW118041   1.409   0.367   6.522
 5714SOL    HW218042   1.358   0.450   6.653
 5715SOL     OW18043   1.604   6.474   2.784
 5715SOL    HW118044   1.551   6.391   2.766
 5715SOL    HW218045   1.550   6.554   2.759
 5716SOL     OW18046   1.360   3.841   6.101
 5716SOL    HW118047   1.454   3.832   6.067
 5716SOL    HW218048   1.340   3.937   6.119
 5717SOL     OW18049   0.724   4.322   1.137
 5717SOL    HW118050   0.682   4.351   1.223
 5717SOL    HW218051   0.808   4.375   1.121
 5718SOL     OW18052   1.766   4.860   6.403
 5718SOL    HW118053   1.817   4.824   6.324
 5718SOL    HW218054   1.676   4.817   6.406
 5719SOL     OW18055   3.355   0.460   6.533
 5719SOL    HW118056   3.375   0.476   6.437
 5719SOL    HW218057   3.355   0.361   6.551
 5720SOL     OW18058   0.967   5.369   5.088
 5720SOL    HW118059   0.965   5.270   5.069
 5720SOL    HW218060   0.875   5.399   5.114
 5721SOL     OW18061   0.823   2.998   0.411
 5721SOL    HW118062   0.801   3.091   0.440
 5721SOL    HW218063   0.747   2.937   0.434
 5722SOL     OW18064   5.403   0.549   5.081
 5722SOL    HW118065   5.481   0.545   5.144
 5722SOL    HW218066   5.373   0.456   5.061
 5723SOL     OW18067   3.904   5.386   0.215
 5723SOL    HW118068   3.816   5.340   0.205
 5723SOL    HW218069   3.908   5.433   0.304
 5724SOL     OW18070   5.194   2.392   5.970
 5724SOL    HW118071   5.200   2.379   6.069
 5724SOL    HW218072   5.267   2.340   5.925
 5725SOL     OW18073   5.191   5.247   4.358
 5725SOL    HW118074   5.120   5.273   4.292
 5725SOL    HW218075   5.276   5.229   4.310
 5726SOL     OW18076   5.675   3.822   5.778
 5726SOL    HW118077   5.695   3.734   5.822
 5726SOL    HW218078   5.731   3.893   5.819
 5727SOL     OW18079   5.975   2.058   2.940
 5727SOL    HW118080   5.983   2.156   2.919
 5727SOL    HW218081   5.960   2.046   3.038
 5728SOL     OW18082   6.432   1.452   5.306
 5728SOL    HW118083   6.485   1.504   5.372
 5728SOL    HW218084   6.376   1.385   5.354
 5729SOL     OW18085   6.761   1.944   6.487
 5729SOL    HW118086   6.683   1.896   6.527
 5729SOL    HW218087   6.845   1.892   6.505
 5730SOL     OW18088   4.236   6.128   5.024
 5730SOL    HW118089   4.277   6.211   4.985
 5730SOL    HW218090   4.238   6.134   5.123
 5731SOL     OW18091   1.993   6.739   4.667
 5731SOL    HW118092   1.956   6.787   4.746
 5731SOL    HW218093   1.934   6.662   4.644
 5732SOL     OW18094   6.112   4.592   4.506
 5732SOL    HW118095   6.135   4.496   4.493
 5732SOL    HW218096   6.190   4.640   4.547
 5733SOL     OW18097   3.282   0.756   0.245
 5733SOL    HW118098   3.248   0.836   0.294
 5733SOL    HW218099   3.286   0.678   0.307
 5734SOL     OW18100   1.778   6.965   5.627
 5734SOL    HW118101   1.845   7.002   5.561
 5734SOL    HW218102   1.826   6.934   5.709
 5735SOL     OW18103   3.977   0.611   2.861
 5735SOL    HW118104   3.919   0.529   2.864
 5735SOL    HW218105   4.042   0.602   2.785
 5736SOL     OW18106   4.794   4.647   6.330
 5736SOL    HW118107   4.793   4.655   6.430
 5736SOL    HW218108   4.742   4.723   6.291
 5737SOL     OW18109   5.180   5.900   1.351
 5737SOL    HW118110   5.129   5.954   1.418
 5737SOL    HW218111   5.116   5.851   1.291
 5738SOL     OW18112   3.808   1.292   6.664
 5738SOL    HW118113   3.805   1.193   6.675
 5738SOL    HW218114   3.871   1.331   6.730
 5739SOL     OW18115   2.058   0.125   5.773
 5739SOL    HW118116   2.070   0.104   5.870
 5739SOL    HW218117   2.036   0.222   5.763
 5740SOL     OW18118   5.330   3.351   0.870
 5740SOL    HW118119   5.377   3.392   0.949
 5740SOL    HW218120   5.235   3.333   0.894
 5741SOL     OW18121   0.829   3.930   4.359
 5741SOL    HW118122   0.889   3.978   4.295
 5741SOL    HW218123   0.737   3.970   4.355
 5742SOL     OW18124   3.908   0.057   3.497
 5742SOL    HW118125   3.849   0.065   3.417
 5742SOL    HW218126   3.966   0.139   3.505
 5743SOL     OW18127   4.036   4.176   5.582
 5743SOL    HW118128   4.013   4.079   5.590
 5743SOL    HW218129   4.000   4.212   5.496
 5744SOL     OW18130   5.775   0.310   3.003
 5744SOL    HW118131   5.807   0.317   2.909
 5744SOL    HW218132   5.677   0.292   3.004
 5745SOL     OW18133   2.507   2.621   3.903
 5745SOL    HW118134   2.428   2.560   3.909
 5745SOL    HW218135   2.520   2.650   3.809
 5746SOL     OW18136   3.580   0.586   3.066
 5746SOL    HW118137   3.635   0.670   3.061
 5746SOL    HW218138   3.521   0.590   3.146
 5747SOL     OW18139   1.510   6.033   1.831
 5747SOL    HW118140   1.447   6.092   1.780
 5747SOL    HW218141   1.597   6.027   1.782
 5748SOL     OW18142   0.220   5.708   0.444
 5748SOL    HW118143   0.257   5.641   0.508
 5748SOL    HW218144   0.295   5.764   0.408
 5749SOL     OW18145   1.858   6.978   5.275
 5749SOL    HW118146   1.937   7.014   5.324
 5749SOL    HW218147   1.785   0.023   5.274
 5750SOL     OW18148   6.938   4.287   4.383
 5750SOL    HW118149   6.878   4.237   4.446
 5750SOL    HW218150   0.009   4.278   4.414
 5751SOL     OW18151   2.214   4.116   4.316
 5751SOL    HW118152   2.195   4.162   4.230
 5751SOL    HW218153   2.246   4.023   4.299
 5752SOL     OW18154   5.383   6.953   0.952
 5752SOL    HW118155   5.331   6.891   1.010
 5752SOL    HW218156   5.338   6.962   0.863
 5753SOL     OW18157   2.756   4.040   5.305
 5753SOL    HW118158   2.833   4.104   5.307
 5753SOL    HW218159   2.695   4.064   5.229
 5754SOL     OW18160   1.429   6.512   1.502
 5754SOL    HW118161   1.378   6.557   1.575
 5754SOL    HW218162   1.487   6.440   1.540
 5755SOL     OW18163   2.338   2.422   6.827
 5755SOL    HW118164   2.312   2.341   6.878
 5755SOL    HW218165   2.291   2.423   6.739
 5756SOL     OW18166   6.812   6.788   1.667
 5756SOL    HW118167   6.715   6.765   1.674
 5756SOL    HW218168   6.836   6.856   1.736
 5757SOL     OW18169   6.628   6.044   4.125
 5757SOL    HW118170   6.600   6.040   4.221
 5757SOL    HW218171   6.592   6.127   4.083
 5758SOL     OW18172   1.802   6.755   3.165
 5758SOL    HW118173   1.778   6.851   3.151
 5758SOL    HW218174   1.835   6.716   3.079
 5759SOL     OW18175   4.375   6.772   1.643
 5759SOL    HW118176   4.394   6.774   1.544
 5759SOL    HW218177   4.298   6.710   1.660
 5760SOL     OW18178   6.613   3.458   2.155
 5760SOL    HW118179   6.659   3.546   2.166
 5760SOL    HW218180   6.658   3.406   2.082
 5761SOL     OW18181   5.266   5.736   4.740
 5761SOL    HW118182   5.254   5.731   4.839
 5761SOL    HW218183   5.218   5.817   4.705
 5762SOL     OW18184   5.363   4.377   0.525
 5762SOL    HW118185   5.390   4.333   0.439
 5762SOL    HW218186   5.265   4.361   0.542
 5763SOL     OW18187   5.204   6.998   0.381
 5763SOL    HW118188   5.161   0.042   0.441
 5763SOL    HW218189   5.140   6.925   0.361
 5764SOL     OW18190   4.473   5.389   3.731
 5764SOL    HW118191   4.439   5.351   3.817
 5764SOL    HW218192   4.427   5.475   3.712
 5765SOL     OW18193   6.319   4.945   0.775
 5765SOL    HW118194   6.323   4.858   0.726
 5765SOL    HW218195   6.312   5.020   0.710
 5766SOL     OW18196   1.399   1.670   4.763
 5766SOL    HW118197   1.349   1.702   4.843
 5766SOL    HW218198   1.334   1.636   4.695
 5767SOL     OW18199   1.833   0.505   0.349
 5767SOL    HW118200   1.862   0.469   0.260
 5767SOL    HW218201   1.737   0.480   0.365
 5768SOL     OW18202   7.018   6.852   3.198
 5768SOL    HW118203   6.988   6.899   3.281
 5768SOL    HW218204   0.075   6.899   3.161
 5769SOL     OW18205   2.035   5.194   6.791
 5769SOL    HW118206   2.116   5.169   6.739
 5769SOL    HW218207   1.956   5.198   6.729
 5770SOL     OW18208   1.009   6.162   0.488
 5770SOL    HW118209   0.979   6.229   0.419
 5770SOL    HW218210   1.076   6.100   0.447
 5771SOL     OW18211   2.231   5.880   3.883
 5771SOL    HW118212   2.287   5.909   3.805
 5771SOL    HW218213   2.286   5.881   3.966
 5772SOL     OW18214   4.861   0.708   1.887
 5772SOL    HW118215   4.788   0.641   1.901
 5772SOL    HW218216   4.872   0.726   1.790
 5773SOL     OW18217   4.785   1.957   2.648
 5773SOL    HW118218   4.776   1.984   2.552
 5773SOL    HW218219   4.696   1.930   2.683
 5774SOL     OW18220   1.741   0.308   4.795
 5774SOL    HW118221   1.692   0.382   4.750
 5774SOL    HW218222   1.707   0.220   4.762
 5775SOL     OW18223   0.835   5.842   2.548
 5775SOL    HW118224   0.762   5.868   2.484
 5775SOL    HW218225   0.873   5.923   2.591
 5776SOL     OW18226   1.758   0.687   3.004
 5776SOL    HW118227   1.708   0.720   2.925
 5776SOL    HW218228   1.850   0.660   2.977
 5777SOL     OW18229   1.368   0.279   3.334
 5777SOL    HW118230   1.379   0.346   3.260
 5777SOL    HW218231   1.339   0.326   3.417
 5778SOL     OW18232   1.185   1.361   0.153
 5778SOL    HW118233   1.264   1.302   0.167
 5778SOL    HW218234   1.181   1.388   0.057
 5779SOL     OW18235   4.754   2.489   6.894
 5779SOL    HW118236   4.833   2.452   6.943
 5779SOL    HW218237   4.739   2.437   6.810
 5780SOL     OW18238   5.946   5.589   4.870
 5780SOL    HW118239   5.956   5.513   4.935
 5780SOL    HW218240   5.891   5.559   4.792
 5781SOL     OW18241   6.440   4.593   5.213
 5781SOL    HW118242   6.389   4.661   5.160
 5781SOL    HW218243   6.432   4.503   5.170
 5782SOL     OW18244   0.693   1.360   0.145
 5782SOL    HW118245   0.603   1.401   0.132
 5782SOL    HW218246   0.713   1.351   0.242
 5783SOL     OW18247   1.575   1.641   2.226
 5783SOL    HW118248   1.673   1.660   2.239
 5783SOL    HW218249   1.523   1.725   2.236
 5784SOL     OW18250   0.287   5.887   6.690
 5784SOL    HW118251   0.233   5.817   6.737
 5784SOL    HW218252   0.291   5.969   6.746
 5785SOL     OW18253   2.701   1.820   0.384
 5785SOL    HW118254   2.780   1.881   0.384
 5785SOL    HW218255   2.653   1.828   0.471
 5786SOL     OW18256   6.457   4.041   0.352
 5786SOL    HW118257   6.546   4.054   0.309
 5786SOL    HW218258   6.395   3.996   0.287
 5787SOL     OW18259   1.913   1.537   5.834
 5787SOL    HW118260   1.992   1.551   5.893
 5787SOL    HW218261   1.907   1.610   5.767
 5788SOL     OW18262   2.640   1.335   2.664
 5788SOL    HW118263   2.586   1.285   2.731
 5788SOL    HW218264   2.654   1.278   2.583
 5789SOL     OW18265   3.684   5.119   6.081
 5789SOL    HW118266   3.724   5.137   5.991
 5789SOL    HW218267   3.727   5.037   6.120
 5790SOL     OW18268   0.384   3.489   4.180
 5790SOL    HW118269   0.429   3.425   4.243
 5790SOL    HW218270   0.285   3.478   4.188
 5791SOL     OW18271   3.477   0.029   1.940
 5791SOL    HW118272   3.456   7.016   1.849
 5791SOL    HW218273   3.456   6.984   2.009
 5792SOL     OW18274   0.324   2.381   2.804
 5792SOL    HW118275   0.310   2.342   2.895
 5792SOL    HW218276   0.242   2.365   2.749
 5793SOL     OW18277   5.712   1.277   3.681
 5793SOL    HW118278   5.664   1.189   3.675
 5793SOL    HW218279   5.710   1.322   3.592
 5794SOL     OW18280   3.707   2.165   0.636
 5794SOL    HW118281   3.804   2.146   0.651
 5794SOL    HW218282   3.689   2.169   0.537
 5795SOL     OW18283   5.797   5.469   5.548
 5795SOL    HW118284   5.874   5.408   5.529
 5795SOL    HW218285   5.747   5.436   5.628
 5796SOL     OW18286   3.991   1.066   0.277
 5796SOL    HW118287   3.925   0.992   0.291
 5796SOL    HW218288   3.943   1.150   0.254
 5797SOL     OW18289   3.929   1.612   4.528
 5797SOL    HW118290   4.010   1.587   4.474
 5797SOL    HW218291   3.924   1.552   4.608
 5798SOL     OW18292   0.653   4.235   5.695
 5798SOL    HW118293   0.723   4.165   5.700
 5798SOL    HW218294   0.630   4.252   5.599
 5799SOL     OW18295   5.515   1.017   3.815
 5799SOL    HW118296   5.555   0.926   3.831
 5799SOL    HW218297   5.519   1.038   3.717
 5800SOL     OW18298   5.488   6.319   0.790
 5800SOL    HW118299   5.467   6.286   0.697
 5800SOL    HW218300   5.406   6.360   0.830
 5801SOL     OW18301   1.149   2.184   4.538
 5801SOL    HW118302   1.221   2.199   4.471
 5801SOL    HW218303   1.126   2.270   4.584
 5802SOL     OW18304   0.720   4.680   0.067
 5802SOL    HW118305   0.632   4.694   0.022
 5802SOL    HW218306   0.705   4.658   0.164
 5803SOL     OW18307   1.593   4.738   1.617
 5803SOL    HW118308   1.685   4.727   1.656
 5803SOL    HW218309   1.597   4.725   1.518
 5804SOL     OW18310   5.896   4.325   3.735
 5804SOL    HW118311   5.945   4.323   3.822
 5804SOL    HW218312   5.810   4.273   3.744
 5805SOL     OW18313   3.914   4.514   0.044
 5805SOL    HW118314   3.978   4.473   7.002
 5805SOL    HW218315   3.965   4.551   0.121
 5806SOL     OW18316   0.404   6.513   6.740
 5806SOL    HW118317   0.486   6.565   6.764
 5806SOL    HW218318   0.427   6.416   6.731
 5807SOL     OW18319   1.647   3.940   1.978
 5807SOL    HW118320   1.636   3.843   1.956
 5807SOL    HW218321   1.613   3.957   2.071
 5808SOL     OW18322   5.673   4.317   3.000
 5808SOL    HW118323   5.740   4.249   3.028
 5808SOL    HW218324   5.711   4.373   2.927
 5809SOL     OW18325   0.278   2.442   5.044
 5809SOL    HW118326   0.194   2.474   5.001
 5809SOL    HW218327   0.357   2.481   4.996
 5810SOL     OW18328   2.795   0.637   3.942
 5810SOL    HW118329   2.866   0.688   3.893
 5810SOL    HW218330   2.750   0.697   4.008
 5811SOL     OW18331   2.945   0.317   4.886
 5811SOL    HW118332   2.944   0.326   4.986
 5811SOL    HW218333   2.947   0.408   4.845
 5812SOL     OW18334   4.963   0.314   4.507
 5812SOL    HW118335   5.022   0.353   4.578
 5812SOL    HW218336   4.876   0.287   4.547
 5813SOL     OW18337   1.401   1.568   6.851
 5813SOL    HW118338   1.416   1.666   6.859
 5813SOL    HW218339   1.481   1.524   6.811
 5814SOL     OW18340   6.010   4.364   0.978
 5814SOL    HW118341   6.062   4.325   0.902
 5814SOL    HW218342   6.055   4.341   1.065
 5815SOL     OW18343   4.333   2.341   3.944
 5815SOL    HW118344   4.262   2.270   3.944
 5815SOL    HW218345   4.386   2.337   3.859
 5816SOL     OW18346   4.888   6.313   0.338
 5816SOL    HW118347   4.875   6.348   0.431
 5816SOL    HW218348   4.936   6.381   0.283
 5817SOL     OW18349   5.192   3.265   5.538
 5817SOL    HW118350   5.200   3.310   5.449
 5817SOL    HW218351   5.170   3.169   5.525
 5818SOL     OW18352   6.917   6.192   4.797
 5818SOL    HW118353   7.003   6.147   4.821
 5818SOL    HW218354   6.840   6.131   4.819
 5819SOL     OW18355   4.430   0.405   0.200
 5819SOL    HW118356   4.451   0.383   0.296
 5819SOL    HW218357   4.495   0.359   0.141
 5820SOL     OW18358   4.445   7.019   3.797
 5820SOL    HW118359   4.397   7.023   3.710
 5820SOL    HW218360   4.541   6.995   3.782
 5821SOL     OW18361   1.424   0.027   2.538
 5821SOL    HW118362   1.345   7.003   2.500
 5821SOL    HW218363   1.399   0.069   2.625
 5822SOL     OW18364   0.504   1.850   2.124
 5822SOL    HW118365   0.476   1.765   2.169
 5822SOL    HW218366   0.481   1.847   2.027
 5823SOL     OW18367   0.945   0.552   6.207
 5823SOL    HW118368   0.952   0.579   6.111
 5823SOL    HW218369   0.912   0.630   6.261
 5824SOL     OW18370   6.943   6.194   2.756
 5824SOL    HW118371   6.936   6.115   2.695
 5824SOL    HW218372   6.869   6.192   2.822
 5825SOL     OW18373   2.549   2.017   5.481
 5825SOL    HW118374   2.454   2.048   5.478
 5825SOL    HW218375   2.557   1.927   5.439
 5826SOL     OW18376   0.178   5.551   5.138
 5826SOL    HW118377   0.100   5.515   5.187
 5826SOL    HW218378   0.166   5.536   5.040
 5827SOL     OW18379   1.625   5.170   4.775
 5827SOL    HW118380   1.616   5.103   4.849
 5827SOL    HW218381   1.707   5.149   4.722
 5828SOL     OW18382   0.082   3.131   1.986
 5828SOL    HW118383   0.097   3.230   1.986
 5828SOL    HW218384   0.141   3.088   1.917
 5829SOL     OW18385   2.682   1.648   3.014
 5829SOL    HW118386   2.737   1.582   2.961
 5829SOL    HW218387   2.635   1.600   3.088
 5830SOL     OW18388   3.788   0.456   5.383
 5830SOL    HW118389   3.875   0.502   5.363
 5830SOL    HW218390   3.806   0.360   5.404
 5831SOL     OW18391   6.860   0.337   3.974
 5831SOL    HW118392   6.795   0.283   3.920
 5831SOL    HW218393   6.926   0.381   3.912
 5832SOL     OW18394   4.066   3.999   5.253
 5832SOL    HW118395   4.102   4.083   5.292
 5832SOL    HW218396   4.042   3.935   5.327
 5833SOL     OW18397   3.679   3.262   4.677
 5833SOL    HW118398   3.735   3.206   4.738
 5833SOL    HW218399   3.712   3.253   4.583
 5834SOL     OW18400   6.032   1.920   0.990
 5834SOL    HW118401   5.995   2.007   1.022
 5834SOL    HW218402   5.974   1.845   1.023
 5835SOL     OW18403   5.139   2.692   2.762
 5835SOL    HW118404   5.232   2.729   2.762
 5835SOL    HW218405   5.113   2.667   2.669
 5836SOL     OW18406   2.525   6.669   3.285
 5836SOL    HW118407   2.485   6.671   3.194
 5836SOL    HW218408   2.560   6.577   3.304
 5837SOL     OW18409   4.221   4.601   6.134
 5837SOL    HW118410   4.234   4.514   6.181
 5837SOL    HW218411   4.240   4.677   6.197
 5838SOL     OW18412   2.307   1.238   6.063
 5838SOL    HW118413   2.390   1.285   6.035
 5838SOL    HW218414   2.273   1.278   6.149
 5839SOL     OW18415   0.773   3.015   2.403
 5839SOL    HW118416   0.861   3.059   2.422
 5839SOL    HW218417   0.787   2.918   2.383
 5840SOL     OW18418   1.544   5.255   6.628
 5840SOL    HW118419   1.643   5.259   6.642
 5840SOL    HW218420   1.519   5.164   6.595
 5841SOL     OW18421   5.952   2.546   2.413
 5841SOL    HW118422   5.991   2.496   2.336
 5841SOL    HW218423   5.871   2.597   2.383
 5842SOL     OW18424   4.456   3.383   1.710
 5842SOL    HW118425   4.419   3.435   1.633
 5842SOL    HW218426   4.535   3.432   1.748
 5843SOL     OW18427   2.208   4.074   2.296
 5843SOL    HW118428   2.278   4.137   2.264
 5843SOL    HW218429   2.234   4.037   2.385
 5844SOL     OW18430   0.111   6.991   5.916
 5844SOL    HW118431   0.123   6.912   5.855
 5844SOL    HW218432   0.047   6.966   5.989
 5845SOL     OW18433   1.167   0.673   2.795
 5845SOL    HW118434   1.239   0.675   2.865
 5845SOL    HW218435   1.198   0.723   2.714
 5846SOL     OW18436   6.457   3.169   4.512
 5846SOL    HW118437   6.358   3.159   4.503
 5846SOL    HW218438   6.502   3.084   4.483
 5847SOL     OW18439   2.068   1.868   2.329
 5847SOL    HW118440   2.118   1.818   2.259
 5847SOL    HW218441   2.097   1.837   2.420
 5848SOL     OW18442   2.488   4.518   3.198
 5848SOL    HW118443   2.579   4.512   3.157
 5848SOL    HW218444   2.476   4.608   3.239
 5849SOL     OW18445   6.731   0.796   6.191
 5849SOL    HW118446   6.750   0.744   6.274
 5849SOL    HW218447   6.809   0.790   6.129
 5850SOL     OW18448   0.953   3.350   2.109
 5850SOL    HW118449   0.945   3.268   2.166
 5850SOL    HW218450   1.021   3.412   2.148
 5851SOL     OW18451   5.042   3.447   2.955
 5851SOL    HW118452   4.987   3.398   2.888
 5851SOL    HW218453   5.000   3.438   3.046
 5852SOL     OW18454   5.165   6.191   2.979
 5852SOL    HW118455   5.114   6.108   2.956
 5852SOL    HW218456   5.139   6.222   3.071
 5853SOL     OW18457   3.228   5.985   5.608
 5853SOL    HW118458   3.198   6.075   5.577
 5853SOL    HW218459   3.259   5.931   5.529
 5854SOL     OW18460   6.644   3.578   5.939
 5854SOL    HW118461   6.645   3.493   5.992
 5854SOL    HW218462   6.624   3.655   6.000
 5855SOL     OW18463   0.536   0.571   4.895
 5855SOL    HW118464   0.535   0.518   4.810
 5855SOL    HW218465   0.556   0.510   4.972
 5856SOL     OW18466   2.122   5.273   3.828
 5856SOL    HW118467   2.138   5.178   3.855
 5856SOL    HW218468   2.170   5.291   3.742
 5857SOL     OW18469   5.930   2.873   5.345
 5857SOL    HW118470   5.897   2.877   5.251
 5857SOL    HW218471   5.860   2.911   5.407
 5858SOL     OW18472   2.637   2.429   2.098
 5858SOL    HW118473   2.623   2.513   2.045
 5858SOL    HW218474   2.733   2.401   2.090
 5859SOL     OW18475   5.096   6.687   0.918
 5859SOL    HW118476   5.031   6.645   0.981
 5859SOL    HW218477   5.186   6.691   0.961
 5860SOL     OW18478   2.195   3.732   1.889
 5860SOL    HW118479   2.164   3.638   1.904
 5860SOL    HW218480   2.292   3.731   1.864
 5861SOL     OW18481   5.211   1.304   3.980
 5861SOL    HW118482   5.111   1.300   3.978
 5861SOL    HW218483   5.248   1.231   3.923
 5862SOL     OW18484   4.697   5.125   3.375
 5862SOL    HW118485   4.775   5.188   3.369
 5862SOL    HW218486   4.616   5.175   3.407
 5863SOL     OW18487   3.234   0.574   5.131
 5863SOL    HW118488   3.307   0.608   5.072
 5863SOL    HW218489   3.201   0.486   5.096
 5864SOL     OW18490   4.031   4.025   1.689
 5864SOL    HW118491   3.934   4.003   1.693
 5864SOL    HW218492   4.085   3.943   1.705
 5865SOL     OW18493   5.182   0.370   4.244
 5865SOL    HW118494   5.149   0.381   4.150
 5865SOL    HW218495   5.103   0.361   4.305
 5866SOL     OW18496   3.690   6.169   6.371
 5866SOL    HW118497   3.642   6.160   6.459
 5866SOL    HW218498   3.767   6.105   6.369
 5867SOL     OW18499   0.507   3.322   1.008
 5867SOL    HW118500   0.548   3.294   0.921
 5867SOL    HW218501   0.448   3.248   1.041
 5868SOL     OW18502   6.780   0.617   4.728
 5868SOL    HW118503   6.763   0.710   4.695
 5868SOL    HW218504   6.748   0.608   4.822
 5869SOL     OW18505   1.715   5.609   3.715
 5869SOL    HW118506   1.780   5.586   3.788
 5869SOL    HW218507   1.756   5.587   3.627
 5870SOL     OW18508   4.666   5.589   5.113
 5870SOL    HW118509   4.672   5.573   5.212
 5870SOL    HW218510   4.577   5.630   5.092
 5871SOL     OW18511   4.378   3.631   0.380
 5871SOL    HW118512   4.478   3.619   0.384
 5871SOL    HW218513   4.349   3.689   0.456
 5872SOL     OW18514   4.097   5.165   7.003
 5872SOL    HW118515   4.129   5.123   0.065
 5872SOL    HW218516   4.036   5.242   0.000
 5873SOL     OW18517   2.317   2.819   0.584
 5873SOL    HW118518   2.375   2.797   0.663
 5873SOL    HW218519   2.252   2.744   0.569
 5874SOL     OW18520   3.135   2.653   1.096
 5874SOL    HW118521   3.155   2.617   1.005
 5874SOL    HW218522   3.220   2.664   1.147
 5875SOL     OW18523   4.084   1.431   0.597
 5875SOL    HW118524   4.059   1.467   0.506
 5875SOL    HW218525   4.074   1.332   0.597
 5876SOL     OW18526   3.425   2.859   6.719
 5876SOL    HW118527   3.492   2.789   6.696
 5876SOL    HW218528   3.355   2.820   6.778
 5877SOL     OW18529   6.258   6.742   0.859
 5877SOL    HW118530   6.167   6.749   0.900
 5877SOL    HW218531   6.250   6.708   0.765
 5878SOL     OW18532   5.433   5.783   2.939
 5878SOL    HW118533   5.519   5.829   2.962
 5878SOL    HW218534   5.375   5.846   2.886
 5879SOL     OW18535   3.228   3.138   5.886
 5879SOL    HW118536   3.299   3.208   5.882
 5879SOL    HW218537   3.221   3.092   5.797
 5880SOL     OW18538   4.471   4.132   5.716
 5880SOL    HW118539   4.475   4.036   5.743
 5880SOL    HW218540   4.513   4.189   5.786
 5881SOL     OW18541   1.083   6.529   2.613
 5881SOL    HW118542   1.114   6.434   2.613
 5881SOL    HW218543   1.122   6.578   2.691
 5882SOL     OW18544   0.951   6.808   5.698
 5882SOL    HW118545   0.952   6.723   5.645
 5882SOL    HW218546   0.911   6.881   5.642
 5883SOL     OW18547   0.291   2.295   0.529
 5883SOL    HW118548   0.195   2.325   0.523
 5883SOL    HW218549   0.333   2.302   0.439
 5884SOL     OW18550   6.551   0.704   4.424
 5884SOL    HW118551   6.579   0.619   4.470
 5884SOL    HW218552   6.600   0.781   4.464
 5885SOL     OW18553   0.810   5.568   0.779
 5885SOL    HW118554   0.891   5.621   0.807
 5885SOL    HW218555   0.736   5.586   0.843
 5886SOL     OW18556   1.160   3.251   3.614
 5886SOL    HW118557   1.212   3.336   3.614
 5886SOL    HW218558   1.063   3.272   3.628
 5887SOL     OW18559   2.648   1.785   1.918
 5887SOL    HW118560   2.717   1.832   1.974
 5887SOL    HW218561   2.586   1.852   1.878
 5888SOL     OW18562   2.875   6.936   0.945
 5888SOL    HW118563   2.903   0.007   0.929
 5888SOL    HW218564   2.933   6.896   1.016
 5889SOL     OW18565   0.068   1.711   1.246
 5889SOL    HW118566   0.126   1.634   1.218
 5889SOL    HW218567   0.057   1.709   1.346
 5890SOL     OW18568   1.763   6.694   2.253
 5890SOL    HW118569   1.715   6.642   2.325
 5890SOL    HW218570   1.733   6.789   2.255
 5891SOL     OW18571   3.060   3.530   0.385
 5891SOL    HW118572   3.063   3.630   0.386
 5891SOL    HW218573   3.003   3.498   0.461
 5892SOL     OW18574   0.438   4.539   1.081
 5892SOL    HW118575   0.429   4.508   0.986
 5892SOL    HW218576   0.478   4.466   1.136
 5893SOL     OW18577   1.342   4.959   1.371
 5893SOL    HW118578   1.264   4.938   1.312
 5893SOL    HW218579   1.427   4.939   1.322
 5894SOL     OW18580   0.734   5.762   5.279
 5894SOL    HW118581   0.691   5.850   5.259
 5894SOL    HW218582   0.695   5.724   5.363
 5895SOL     OW18583   6.306   3.227   4.194
 5895SOL    HW118584   6.305   3.155   4.124
 5895SOL    HW218585   6.371   3.298   4.167
 5896SOL     OW18586   5.476   1.124   1.678
 5896SOL    HW118587   5.441   1.216   1.663
 5896SOL    HW218588   5.493   1.080   1.590
 5897SOL     OW18589   4.475   1.780   1.714
 5897SOL    HW118590   4.450   1.736   1.800
 5897SOL    HW218591   4.392   1.816   1.670
 5898SOL     OW18592   2.392   1.779   5.845
 5898SOL    HW118593   2.390   1.721   5.764
 5898SOL    HW218594   2.317   1.845   5.841
 5899SOL     OW18595   0.308   5.157   5.864
 5899SOL    HW118596   0.293   5.239   5.918
 5899SOL    HW218597   0.221   5.129   5.822
 5900SOL     OW18598   0.486   5.251   2.984
 5900SOL    HW118599   0.536   5.242   3.070
 5900SOL    HW218600   0.541   5.302   2.918
 5901SOL     OW18601   0.837   0.678   0.438
 5901SOL    HW118602   0.879   0.736   0.368
 5901SOL    HW218603   0.903   0.610   0.469
 5902SOL     OW18604   5.693   3.650   4.618
 5902SOL    HW118605   5.787   3.627   4.644
 5902SOL    HW218606   5.630   3.603   4.679
 5903SOL     OW18607   5.436   3.060   6.953
 5903SOL    HW118608   5.416   2.962   6.954
 5903SOL    HW218609   5.531   3.074   6.924
 5904SOL     OW18610   1.464   4.281   1.173
 5904SOL    HW118611   1.478   4.235   1.261
 5904SOL    HW218612   1.534   4.250   1.108
 5905SOL     OW18613   5.341   0.862   3.276
 5905SOL    HW118614   5.345   0.808   3.360
 5905SOL    HW218615   5.301   0.952   3.296
 5906SOL     OW18616   5.540   1.730   5.250
 5906SOL    HW118617   5.558   1.634   5.227
 5906SOL    HW218618   5.627   1.775   5.273
 5907SOL     OW18619   1.709   0.341   0.708
 5907SOL    HW118620   1.757   0.414   0.758
 5907SOL    HW218621   1.655   0.287   0.773
 5908SOL     OW18622   4.890   3.639   0.260
 5908SOL    HW118623   4.954   3.704   0.219
 5908SOL    HW218624   4.799   3.652   0.220
 5909SOL     OW18625   0.886   4.323   5.433
 5909SOL    HW118626   0.918   4.389   5.366
 5909SOL    HW218627   0.792   4.343   5.459
 5910SOL     OW18628   1.231   4.016   0.869
 5910SOL    HW118629   1.150   3.969   0.832
 5910SOL    HW218630   1.210   4.113   0.882
 5911SOL     OW18631   0.204   5.759   6.133
 5911SOL    HW118632   0.184   5.797   6.223
 5911SOL    HW218633   0.121   5.721   6.093
 5912SOL     OW18634   6.004   3.558   6.376
 5912SOL    HW118635   5.981   3.524   6.285
 5912SOL    HW218636   5.946   3.637   6.398
 5913SOL     OW18637   2.206   2.736   5.767
 5913SOL    HW118638   2.135   2.737   5.837
 5913SOL    HW218639   2.230   2.642   5.744
 5914SOL     OW18640   2.810   5.614   0.229
 5914SOL    HW118641   2.827   5.705   0.267
 5914SOL    HW218642   2.739   5.619   0.160
 5915SOL     OW18643   5.539   3.091   2.498
 5915SOL    HW118644   5.540   3.190   2.484
 5915SOL    HW218645   5.611   3.048   2.444
 5916SOL     OW18646   4.884   0.462   5.766
 5916SOL    HW118647   4.802   0.481   5.711
 5916SOL    HW218648   4.922   0.374   5.738
 5917SOL     OW18649   3.316   2.947   3.399
 5917SOL    HW118650   3.301   3.016   3.470
 5917SOL    HW218651   3.292   2.986   3.310
 5918SOL     OW18652   1.578   3.567   4.567
 5918SOL    HW118653   1.550   3.614   4.651
 5918SOL    HW218654   1.677   3.555   4.567
 5919SOL     OW18655   2.938   1.918   0.755
 5919SOL    HW118656   2.926   1.994   0.819
 5919SOL    HW218657   2.979   1.840   0.803
 5920SOL     OW18658   3.782   0.101   6.767
 5920SOL    HW118659   3.807   0.018   6.718
 5920SOL    HW218660   3.759   0.173   6.702
 5921SOL     OW18661   3.747   5.356   5.156
 5921SOL    HW118662   3.795   5.301   5.224
 5921SOL    HW218663   3.673   5.408   5.201
 5922SOL     OW18664   6.358   4.904   3.290
 5922SOL    HW118665   6.270   4.948   3.311
 5922SOL    HW218666   6.425   4.974   3.266
 5923SOL     OW18667   6.709   0.733   3.444
 5923SOL    HW118668   6.794   0.774   3.479
 5923SOL    HW218669   6.733   0.658   3.383
 5924SOL     OW18670   5.686   2.514   5.267
 5924SOL    HW118671   5.624   2.519   5.189
 5924SOL    HW218672   5.743   2.432   5.259
 5925SOL     OW18673   4.648   5.912   3.131
 5925SOL    HW118674   4.695   5.924   3.219
 5925SOL    HW218675   4.713   5.926   3.056
 5926SOL     OW18676   3.409   5.070   1.747
 5926SOL    HW118677   3.433   5.021   1.830
 5926SOL    HW218678   3.347   5.145   1.769
 5927SOL     OW18679   2.363   5.040   1.398
 5927SOL    HW118680   2.382   4.969   1.466
 5927SOL    HW218681   2.447   5.092   1.379
 5928SOL     OW18682   2.309   0.855   2.190
 5928SOL    HW118683   2.408   0.858   2.197
 5928SOL    HW218684   2.270   0.941   2.223
 5929SOL     OW18685   0.835   6.233   5.779
 5929SOL    HW118686   0.912   6.233   5.714
 5929SOL    HW218687   0.868   6.213   5.871
 5930SOL     OW18688   6.060   1.336   4.369
 5930SOL    HW118689   6.054   1.351   4.271
 5930SOL    HW218690   6.072   1.239   4.388
 5931SOL     OW18691   6.300   5.131   2.331
 5931SOL    HW118692   6.324   5.143   2.234
 5931SOL    HW218693   6.372   5.172   2.388
 5932SOL     OW18694   2.070   6.434   0.920
 5932SOL    HW118695   2.088   6.361   0.985
 5932SOL    HW218696   2.032   6.513   0.969
 5933SOL     OW18697   0.077   3.971   2.196
 5933SOL    HW118698   0.106   3.996   2.288
 5933SOL    HW218699   0.069   4.053   2.140
 5934SOL     OW18700   4.096   3.468   3.208
 5934SOL    HW118701   4.051   3.549   3.169
 5934SOL    HW218702   4.174   3.497   3.263
 5935SOL     OW18703   3.848   4.016   4.475
 5935SOL    HW118704   3.772   3.972   4.427
 5935SOL    HW218705   3.928   3.956   4.474
 5936SOL     OW18706   4.099   4.000   6.507
 5936SOL    HW118707   4.019   4.026   6.453
 5936SOL    HW218708   4.079   3.916   6.558
 5937SOL     OW18709   0.900   3.497   1.747
 5937SOL    HW118710   0.848   3.488   1.832
 5937SOL    HW218711   0.961   3.576   1.753
 5938SOL     OW18712   1.564   5.230   3.498
 5938SOL    HW118713   1.470   5.201   3.479
 5938SOL    HW218714   1.570   5.262   3.593
 5939SOL     OW18715   3.127   0.536   3.036
 5939SOL    HW118716   3.071   0.579   3.107
 5939SOL    HW218717   3.076   0.534   2.950
 5940SOL     OW18718   3.881   6.699   2.127
 5940SOL    HW118719   3.930   6.684   2.041
 5940SOL    HW218720   3.810   6.769   2.114
 5941SOL     OW18721   6.135   4.534   2.210
 5941SOL    HW118722   6.161   4.444   2.176
 5941SOL    HW218723   6.089   4.585   2.138
 5942SOL     OW18724   4.255   2.774   6.584
 5942SOL    HW118725   4.353   2.762   6.600
 5942SOL    HW218726   4.204   2.720   6.650
 5943SOL     OW18727   2.654   6.341   0.188
 5943SOL    HW118728   2.646   6.425   0.242
 5943SOL    HW218729   2.567   6.293   0.188
 5944SOL     OW18730   5.506   1.391   1.859
 5944SOL    HW118731   5.423   1.382   1.805
 5944SOL    HW218732   5.492   1.349   1.949
 5945SOL     OW18733   6.697   4.703   5.226
 5945SOL    HW118734   6.629   4.631   5.231
 5945SOL    HW218735   6.675   4.776   5.291
 5946SOL     OW18736   3.283   3.986   5.933
 5946SOL    HW118737   3.351   3.976   5.860
 5946SOL    HW218738   3.204   3.928   5.912
 5947SOL     OW18739   4.177   3.039   1.702
 5947SOL    HW118740   4.273   3.027   1.727
 5947SOL    HW218741   4.144   3.127   1.735
 5948SOL     OW18742   4.042   5.312   3.148
 5948SOL    HW118743   3.985   5.233   3.125
 5948SOL    HW218744   4.064   5.310   3.245
 5949SOL     OW18745   3.694   4.564   1.101
 5949SOL    HW118746   3.699   4.630   1.176
 5949SOL    HW218747   3.606   4.572   1.055
 5950SOL     OW18748   5.779   2.232   4.638
 5950SOL    HW118749   5.717   2.290   4.586
 5950SOL    HW218750   5.778   2.140   4.600
 5951SOL     OW18751   1.053   6.499   4.786
 5951SOL    HW118752   1.053   6.443   4.870
 5951SOL    HW218753   0.999   6.581   4.802
 5952SOL     OW18754   6.402   5.941   3.704
 5952SOL    HW118755   6.404   5.867   3.637
 5952SOL    HW218756   6.339   6.012   3.673
 5953SOL     OW18757   0.042   3.389   5.166
 5953SOL    HW118758   0.110   3.393   5.092
 5953SOL    HW218759   0.035   3.295   5.199
 5954SOL     OW18760   0.000   4.616   5.715
 5954SOL    HW118761   7.000   4.709   5.690
 5954SOL    HW218762   0.056   4.575   5.642
 5955SOL     OW18763   5.879   5.795   2.297
 5955SOL    HW118764   5.854   5.851   2.218
 5955SOL    HW218765   5.868   5.847   2.381
 5956SOL     OW18766   4.030   1.932   0.472
 5956SOL    HW118767   4.003   1.937   0.569
 5956SOL    HW218768   3.973   1.865   0.425
 5957SOL     OW18769   4.901   6.765   6.139
 5957SOL    HW118770   4.994   6.777   6.105
 5957SOL    HW218771   4.904   6.711   6.224
 5958SOL     OW18772   6.496   6.402   2.098
 5958SOL    HW118773   6.469   6.493   2.128
 5958SOL    HW218774   6.564   6.365   2.161
 5959SOL     OW18775   3.375   2.025   5.496
 5959SOL    HW118776   3.306   1.954   5.496
 5959SOL    HW218777   3.372   2.076   5.410
 5960SOL     OW18778   3.533   0.449   4.007
 5960SOL    HW118779   3.558   0.439   3.911
 5960SOL    HW218780   3.490   0.365   4.040
 5961SOL     OW18781   4.130   1.007   3.639
 5961SOL    HW118782   4.071   0.929   3.663
 5961SOL    HW218783   4.225   0.979   3.648
 5962SOL     OW18784   5.272   5.287   2.405
 5962SOL    HW118785   5.195   5.226   2.387
 5962SOL    HW218786   5.249   5.349   2.481
 5963SOL     OW18787   3.578   3.775   3.769
 5963SOL    HW118788   3.510   3.701   3.774
 5963SOL    HW218789   3.617   3.778   3.678
 5964SOL     OW18790   6.873   5.661   6.143
 5964SOL    HW118791   6.910   5.661   6.236
 5964SOL    HW218792   6.773   5.670   6.147
 5965SOL     OW18793   1.775   2.208   6.885
 5965SOL    HW118794   1.779   2.260   6.800
 5965SOL    HW218795   1.803   2.113   6.868
 5966SOL     OW18796   3.132   5.738   4.990
 5966SOL    HW118797   3.057   5.673   4.976
 5966SOL    HW218798   3.186   5.744   4.905
 5967SOL     OW18799   4.060   6.108   2.412
 5967SOL    HW118800   4.087   6.084   2.505
 5967SOL    HW218801   3.982   6.171   2.415
 5968SOL     OW18802   6.233   1.871   3.236
 5968SOL    HW118803   6.315   1.918   3.268
 5968SOL    HW218804   6.209   1.905   3.145
 5969SOL     OW18805   6.443   3.037   4.780
 5969SOL    HW118806   6.484   3.071   4.695
 5969SOL    HW218807   6.357   3.086   4.797
 5970SOL     OW18808   0.812   3.625   2.347
 5970SOL    HW118809   0.727   3.669   2.317
 5970SOL    HW218810   0.881   3.633   2.275
 5971SOL     OW18811   1.515   6.875   3.060
 5971SOL    HW118812   1.468   6.946   3.007
 5971SOL    HW218813   1.614   6.887   3.049
 5972SOL     OW18814   4.599   6.467   0.415
 5972SOL    HW118815   4.668   6.447   0.485
 5972SOL    HW218816   4.640   6.458   0.324
 5973SOL     OW18817   1.982   5.100   2.478
 5973SOL    HW118818   1.944   5.192   2.461
 5973SOL    HW218819   1.936   5.034   2.419
 5974SOL     OW18820   5.972   4.269   6.147
 5974SOL    HW118821   5.888   4.215   6.155
 5974SOL    HW218822   6.014   4.253   6.058
 5975SOL     OW18823   4.051   2.420   1.095
 5975SOL    HW118824   4.004   2.396   1.180
 5975SOL    HW218825   4.125   2.485   1.115
 5976SOL     OW18826   3.047   3.140   4.554
 5976SOL    HW118827   2.996   3.203   4.613
 5976SOL    HW218828   3.111   3.192   4.497
 5977SOL     OW18829   1.288   4.306   1.615
 5977SOL    HW118830   1.311   4.360   1.696
 5977SOL    HW218831   1.199   4.262   1.629
 5978SOL     OW18832   4.976   4.365   3.076
 5978SOL    HW118833   4.995   4.407   3.165
 5978SOL    HW218834   5.059   4.368   3.020
 5979SOL     OW18835   6.396   0.306   3.290
 5979SOL    HW118836   6.411   0.344   3.382
 5979SOL    HW218837   6.394   0.206   3.295
 5980SOL     OW18838   4.073   4.359   6.833
 5980SOL    HW118839   4.120   4.273   6.814
 5980SOL    HW218840   4.122   4.434   6.790
 5981SOL     OW18841   6.968   1.869   1.856
 5981SOL    HW118842   7.007   1.869   1.764
 5981SOL    HW218843   6.949   1.963   1.883
 5982SOL     OW18844   6.266   1.752   6.716
 5982SOL    HW118845   6.274   1.655   6.738
 5982SOL    HW218846   6.170   1.778   6.711
 5983SOL     OW18847   2.092   1.502   4.234
 5983SOL    HW118848   2.061   1.450   4.154
 5983SOL    HW218849   2.020   1.565   4.262
 5984SOL     OW18850   0.268   6.565   4.480
 5984SOL    HW118851   0.301   6.613   4.399
 5984SOL    HW218852   0.254   6.468   4.459
 5985SOL     OW18853   5.707   2.210   3.659
 5985SOL    HW118854   5.788   2.250   3.618
 5985SOL    HW218855   5.729   2.177   3.751
 5986SOL     OW18856   2.999   3.215   3.907
 5986SOL    HW118857   2.930   3.278   3.871
 5986SOL    HW218858   2.981   3.199   4.004
 5987SOL     OW18859   4.421   0.737   4.980
 5987SOL    HW118860   4.499   0.799   4.968
 5987SOL    HW218861   4.450   0.643   4.961
 5988SOL     OW18862   4.141   6.925   4.716
 5988SOL    HW118863   4.041   6.925   4.713
 5988SOL    HW218864   4.174   6.830   4.709
 5989SOL     OW18865   2.608   6.337   6.807
 5989SOL    HW118866   2.571   6.393   6.732
 5989SOL    HW218867   2.645   6.252   6.770
 5990SOL     OW18868   3.769   4.268   0.632
 5990SOL    HW118869   3.736   4.311   0.548
 5990SOL    HW218870   3.814   4.181   0.610
 5991SOL     OW18871   4.232   5.033   5.018
 5991SOL    HW118872   4.298   5.099   5.054
 5991SOL    HW218873   4.222   5.046   4.919
 5992SOL     OW18874   3.427   1.030   4.437
 5992SOL    HW118875   3.368   1.005   4.514
 5992SOL    HW218876   3.520   1.048   4.471
 5993SOL     OW18877   3.585   6.591   5.128
 5993SOL    HW118878   3.578   6.497   5.160
 5993SOL    HW218879   3.605   6.593   5.030
 5994SOL     OW18880   6.085   2.483   1.859
 5994SOL    HW118881   5.992   2.519   1.849
 5994SOL    HW218882   6.091   2.394   1.814
 5995SOL     OW18883   0.545   4.845   1.292
 5995SOL    HW118884   0.515   4.885   1.379
 5995SOL    HW218885   0.470   4.850   1.226
 5996SOL     OW18886   0.469   5.755   6.532
 5996SOL    HW118887   0.403   5.811   6.582
 5996SOL    HW218888   0.485   5.795   6.442
 5997SOL     OW18889   0.469   0.080   2.200
 5997SOL    HW118890   0.446   0.154   2.263
 5997SOL    HW218891   0.451   0.109   2.106
 5998SOL     OW18892   5.621   2.580   2.586
 5998SOL    HW118893   5.633   2.627   2.674
 5998SOL    HW218894   5.649   2.484   2.596
 5999SOL     OW18895   0.897   2.049   3.136
 5999SOL    HW118896   0.874   1.952   3.129
 5999SOL    HW218897   0.837   2.103   3.078
 6000SOL     OW18898   3.798   5.568   2.042
 6000SOL    HW118899   3.740   5.542   2.118
 6000SOL    HW218900   3.861   5.494   2.020
 6001SOL     OW18901   0.193   3.580   6.874
 6001SOL    HW118902   0.252   3.591   6.793
 6001SOL    HW218903   0.111   3.636   6.863
 6002SOL     OW18904   0.091   6.460   0.937
 6002SOL    HW118905   0.134   6.536   0.987
 6002SOL    HW218906   0.156   6.384   0.930
 6003SOL     OW18907   5.615   3.624   4.989
 6003SOL    HW118908   5.574   3.606   5.078
 6003SOL    HW218909   5.699   3.571   4.979
 6004SOL     OW18910   0.367   3.788   3.315
 6004SOL    HW118911   0.396   3.877   3.280
 6004SOL    HW218912   0.428   3.759   3.389
 6005SOL     OW18913   4.213   5.113   4.006
 6005SOL    HW118914   4.294   5.161   3.974
 6005SOL    HW218915   4.154   5.091   3.928
 6006SOL     OW18916   3.582   0.227   6.915
 6006SOL    HW118917   3.561   0.158   6.984
 6006SOL    HW218918   3.661   0.197   6.861
 6007SOL     OW18919   5.101   2.854   3.315
 6007SOL    HW118920   5.119   2.756   3.329
 6007SOL    HW218921   5.108   2.876   3.218
 6008SOL     OW18922   3.211   5.537   5.819
 6008SOL    HW118923   3.278   5.531   5.745
 6008SOL    HW218924   3.126   5.493   5.791
 6009SOL     OW18925   2.492   1.923   4.818
 6009SOL    HW118926   2.553   1.978   4.760
 6009SOL    HW218927   2.467   1.840   4.770
 6010SOL     OW18928   1.946   4.490   2.271
 6010SOL    HW118929   2.011   4.554   2.230
 6010SOL    HW218930   1.853   4.512   2.240
 6011SOL     OW18931   5.230   2.255   1.960
 6011SOL    HW118932   5.176   2.320   1.906
 6011SOL    HW218933   5.223   2.164   1.919
 6012SOL     OW18934   6.734   1.812   0.129
 6012SOL    HW118935   6.649   1.835   0.082
 6012SOL    HW218936   6.791   1.894   0.136
 6013SOL     OW18937   6.037   1.899   2.147
 6013SOL    HW118938   6.067   1.876   2.054
 6013SOL    HW218939   6.076   1.987   2.174
 6014SOL     OW18940   5.415   1.819   0.826
 6014SOL    HW118941   5.401   1.880   0.748
 6014SOL    HW218942   5.401   1.724   0.797
 6015SOL     OW18943   6.255   2.910   5.708
 6015SOL    HW118944   6.217   2.933   5.618
 6015SOL    HW218945   6.300   2.821   5.703
 6016SOL     OW18946   0.410   1.344   5.887
 6016SOL    HW118947   0.380   1.269   5.828
 6016SOL    HW218948   0.491   1.316   5.939
 6017SOL     OW18949   5.872   5.544   2.903
 6017SOL    HW118950   5.887   5.445   2.907
 6017SOL    HW218951   5.815   5.572   2.980
 6018SOL     OW18952   3.272   3.124   0.219
 6018SOL    HW118953   3.341   3.087   0.156
 6018SOL    HW218954   3.187   3.072   0.211
 6019SOL     OW18955   4.301   1.570   3.689
 6019SOL    HW118956   4.225   1.560   3.624
 6019SOL    HW218957   4.375   1.509   3.662
 6020SOL     OW18958   2.961   0.067   2.238
 6020SOL    HW118959   2.880   0.022   2.200
 6020SOL    HW218960   3.006   0.120   2.166
 6021SOL     OW18961   4.547   0.350   2.680
 6021SOL    HW118962   4.583   0.257   2.681
 6021SOL    HW218963   4.617   0.413   2.648
 6022SOL     OW18964   4.704   1.084   3.551
 6022SOL    HW118965   4.693   0.986   3.533
 6022SOL    HW218966   4.784   1.098   3.610
 6023SOL     OW18967   5.975   1.059   3.641
 6023SOL    HW118968   5.905   1.024   3.704
 6023SOL    HW218969   6.060   1.075   3.691
 6024SOL     OW18970   0.650   4.685   2.202
 6024SOL    HW118971   0.729   4.676   2.141
 6024SOL    HW218972   0.676   4.738   2.282
 6025SOL     OW18973   4.559   0.432   1.357
 6025SOL    HW118974   4.605   0.518   1.333
 6025SOL    HW218975   4.605   0.356   1.313
 6026SOL     OW18976   0.612   4.635   4.383
 6026SOL    HW118977   0.534   4.625   4.321
 6026SOL    HW218978   0.590   4.593   4.471
 6027SOL     OW18979   1.909   4.046   6.057
 6027SOL    HW118980   1.945   4.041   5.964
 6027SOL    HW218981   1.916   4.140   6.091
 6028SOL     OW18982   1.236   4.012   6.960
 6028SOL    HW118983   1.238   3.912   6.961
 6028SOL    HW218984   1.141   4.043   6.968
 6029SOL     OW18985   2.395   6.622   0.069
 6029SOL    HW118986   2.331   6.570   0.126
 6029SOL    HW218987   2.344   6.684   0.009
 6030SOL     OW18988   2.482   0.776   3.440
 6030SOL    HW118989   2.481   0.680   3.411
 6030SOL    HW218990   2.403   0.824   3.402
 6031SOL     OW18991   4.675   5.575   5.390
 6031SOL    HW118992   4.769   5.610   5.397
 6031SOL    HW218993   4.620   5.610   5.465
 6032SOL     OW18994   1.921   3.490   2.434
 6032SOL    HW118995   1.960   3.432   2.506
 6032SOL    HW218996   1.994   3.517   2.370
 6033SOL     OW18997   2.190   2.452   3.386
 6033SOL    HW118998   2.278   2.416   3.357
 6033SOL    HW218999   2.138   2.381   3.433
 6034SOL     OW19000   2.386   4.794   4.509
 6034SOL    HW119001   2.443   4.712   4.500
 6034SOL    HW219002   2.415   4.862   4.441
 6035SOL     OW19003   5.280   0.703   4.334
 6035SOL    HW119004   5.309   0.697   4.238
 6035SOL    HW219005   5.180   0.703   4.338
 6036SOL     OW19006   6.985   0.015   5.171
 6036SOL    HW119007   6.996   0.111   5.146
 6036SOL    HW219008   6.926   6.993   5.104
 6037SOL     OW19009   5.052   4.887   6.308
 6037SOL    HW119010   5.030   4.847   6.219
 6037SOL    HW219011   5.071   4.815   6.374
 6038SOL     OW19012   0.366   3.140   6.518
 6038SOL    HW119013   0.392   3.187   6.602
 6038SOL    HW219014   0.422   3.174   6.442
 6039SOL     OW19015   3.600   3.442   2.779
 6039SOL    HW119016   3.575   3.345   2.782
 6039SOL    HW219017   3.565   3.483   2.696
 6040SOL     OW19018   0.415   1.529   6.519
 6040SOL    HW119019   0.389   1.456   6.582
 6040SOL    HW219020   0.515   1.535   6.515
 6041SOL     OW19021   1.442   1.836   6.871
 6041SOL    HW119022   1.487   1.869   6.954
 6041SOL    HW219023   1.449   1.906   6.800
 6042SOL     OW19024   5.674   4.974   2.405
 6042SOL    HW119025   5.689   5.008   2.312
 6042SOL    HW219026   5.608   5.033   2.452
 6043SOL     OW19027   1.290   5.135   5.042
 6043SOL    HW119028   1.251   5.189   4.967
 6043SOL    HW219029   1.383   5.166   5.060
 6044SOL     OW19030   0.093   1.930   1.069
 6044SOL    HW119031   0.085   1.850   1.129
 6044SOL    HW219032   0.061   1.906   0.977
 6045SOL     OW19033   5.222   5.734   0.635
 6045SOL    HW119034   5.302   5.682   0.665
 6045SOL    HW219035   5.220   5.822   0.682
 6046SOL     OW19036   3.074   2.506   0.862
 6046SOL    HW119037   3.065   2.409   0.884
 6046SOL    HW219038   3.097   2.517   0.765
 6047SOL     OW19039   5.895   0.912   4.328
 6047SOL    HW119040   5.980   0.964   4.334
 6047SOL    HW219041   5.898   0.853   4.247
 6048SOL     OW19042   3.525   7.002   3.243
 6048SOL    HW119043   3.512   6.945   3.163
 6048SOL    HW219044   3.437   0.018   3.270
 6049SOL     OW19045   4.464   3.188   6.415
 6049SOL    HW119046   4.543   3.224   6.465
 6049SOL    HW219047   4.486   3.185   6.318
 6050SOL     OW19048   4.212   4.097   6.004
 6050SOL    HW119049   4.117   4.118   5.980
 6050SOL    HW219050   4.235   4.005   5.971
 6051SOL     OW19051   2.086   2.306   3.018
 6051SOL    HW119052   1.994   2.311   2.978
 6051SOL    HW219053   2.154   2.310   2.945
 6052SOL     OW19054   6.550   0.295   0.320
 6052SOL    HW119055   6.520   0.390   0.315
 6052SOL    HW219056   6.493   0.239   0.260
 6053SOL     OW19057   3.525   0.487   0.129
 6053SOL    HW119058   3.606   0.482   0.071
 6053SOL    HW219059   3.552   0.509   0.222
 6054SOL     OW19060   2.389   4.108   1.232
 6054SOL    HW119061   2.459   4.106   1.160
 6054SOL    HW219062   2.433   4.094   1.321
 6055SOL     OW19063   5.622   0.837   5.350
 6055SOL    HW119064   5.641   0.902   5.423
 6055SOL    HW219065   5.528   0.847   5.319
 6056SOL     OW19066   4.278   1.527   5.551
 6056SOL    HW119067   4.270   1.524   5.650
 6056SOL    HW219068   4.365   1.486   5.522
 6057SOL     OW19069   4.717   1.579   4.558
 6057SOL    HW119070   4.810   1.556   4.587
 6057SOL    HW219071   4.700   1.677   4.575
 6058SOL     OW19072   5.867   2.763   3.422
 6058SOL    HW119073   5.933   2.816   3.475
 6058SOL    HW219074   5.826   2.694   3.481
 6059SOL     OW19075   4.566   5.556   6.257
 6059SOL    HW119076   4.598   5.465   6.281
 6059SOL    HW219077   4.467   5.562   6.271
 6060SOL     OW19078   3.607   4.250   6.038
 6060SOL    HW119079   3.520   4.241   6.086
 6060SOL    HW219080   3.630   4.346   6.027
 6061SOL     OW19081   3.255   2.420   6.964
 6061SOL    HW119082   3.324   2.381   0.002
 6061SOL    HW219083   3.272   2.518   6.954
 6062SOL     OW19084   2.394   1.242   4.615
 6062SOL    HW119085   2.477   1.265   4.564
 6062SOL    HW219086   2.413   1.247   4.713
 6063SOL     OW19087   4.018   0.988   6.438
 6063SOL    HW119088   3.993   1.004   6.343
 6063SOL    HW219089   3.950   1.031   6.498
 6064SOL     OW19090   1.885   5.602   2.747
 6064SOL    HW119091   1.979   5.569   2.755
 6064SOL    HW219092   1.824   5.526   2.725
 6065SOL     OW19093   6.458   6.606   1.006
 6065SOL    HW119094   6.378   6.656   0.974
 6065SOL    HW219095   6.429   6.522   1.051
 6066SOL     OW19096   5.105   1.402   1.513
 6066SOL    HW119097   5.095   1.460   1.433
 6066SOL    HW219098   5.026   1.341   1.521
 6067SOL     OW19099   6.181   2.055   6.392
 6067SOL    HW119100   6.256   2.121   6.397
 6067SOL    HW219101   6.108   2.084   6.454
 6068SOL     OW19102   5.144   3.257   4.996
 6068SOL    HW119103   5.074   3.246   5.067
 6068SOL    HW219104   5.141   3.179   4.934
 6069SOL     OW19105   6.865   3.839   6.079
 6069SOL    HW119106   6.934   3.811   6.012
 6069SOL    HW219107   6.909   3.885   6.155
 6070SOL     OW19108   3.508   2.452   6.600
 6070SOL    HW119109   3.549   2.370   6.561
 6070SOL    HW219110   3.463   2.504   6.527
 6071SOL     OW19111   4.153   5.784   5.843
 6071SOL    HW119112   4.182   5.688   5.843
 6071SOL    HW219113   4.210   5.837   5.781
 6072SOL     OW19114   0.812   1.425   1.961
 6072SOL    HW119115   0.890   1.441   2.022
 6072SOL    HW219116   0.755   1.507   1.957
 6073SOL     OW19117   5.997   3.075   0.482
 6073SOL    HW119118   6.093   3.102   0.493
 6073SOL    HW219119   5.975   3.005   0.549
 6074SOL     OW19120   0.971   6.959   4.762
 6074SOL    HW119121   1.049   6.923   4.813
 6074SOL    HW219122   0.998   0.019   4.714
 6075SOL     OW19123   6.593   2.609   6.913
 6075SOL    HW119124   6.557   2.695   6.949
 6075SOL    HW219125   6.552   2.532   6.963
 6076SOL     OW19126   2.519   6.927   5.173
 6076SOL    HW119127   2.548   6.934   5.077
 6076SOL    HW219128   2.560   6.846   5.214
 6077SOL     OW19129   4.946   5.752   2.327
 6077SOL    HW119130   4.962   5.655   2.344
 6077SOL    HW219131   5.033   5.799   2.315
 6078SOL     OW19132   3.416   4.914   3.230
 6078SOL    HW119133   3.494   4.964   3.267
 6078SOL    HW219134   3.349   4.899   3.302
 6079SOL     OW19135   2.727   3.528   6.785
 6079SOL    HW119136   2.746   3.609   6.729
 6079SOL    HW219137   2.674   3.554   6.865
 6080SOL     OW19138   6.781   1.927   0.894
 6080SOL    HW119139   6.715   1.883   0.955
 6080SOL    HW219140   6.732   1.980   0.824
 6081SOL     OW19141   6.440   3.745   4.351
 6081SOL    HW119142   6.341   3.731   4.341
 6081SOL    HW219143   6.459   3.776   4.443
 6082SOL     OW19144   3.426   0.555   2.815
 6082SOL    HW119145   3.380   0.632   2.772
 6082SOL    HW219146   3.467   0.583   2.901
 6083SOL     OW19147   1.365   5.385   6.287
 6083SOL    HW119148   1.374   5.455   6.358
 6083SOL    HW219149   1.384   5.295   6.325
 6084SOL     OW19150   6.872   4.908   4.135
 6084SOL    HW119151   6.954   4.964   4.134
 6084SOL    HW219152   6.810   4.937   4.062
 6085SOL     OW19153   6.720   4.078   0.296
 6085SOL    HW119154   6.818   4.063   0.282
 6085SOL    HW219155   6.690   4.030   0.378
 6086SOL     OW19156   3.444   1.386   4.608
 6086SOL    HW119157   3.499   1.328   4.668
 6086SOL    HW219158   3.424   1.473   4.653
 6087SOL     OW19159   5.659   6.871   0.118
 6087SOL    HW119160   5.746   6.862   0.068
 6087SOL    HW219161   5.603   6.790   0.102
 6088SOL     OW19162   6.944   6.266   4.539
 6088SOL    HW119163   6.870   6.290   4.477
 6088SOL    HW219164   6.907   6.249   4.631
 6089SOL     OW19165   0.708   3.508   1.548
 6089SOL    HW119166   0.751   3.512   1.458
 6089SOL    HW219167   0.777   3.485   1.617
 6090SOL     OW19168   0.948   6.119   6.009
 6090SOL    HW119169   0.965   6.058   5.932
 6090SOL    HW219170   0.882   6.077   6.071
 6091SOL     OW19171   0.543   1.318   1.845
 6091SOL    HW119172   0.621   1.329   1.784
 6091SOL    HW219173   0.554   1.234   1.899
 6092SOL     OW19174   2.488   1.009   2.754
 6092SOL    HW119175   2.410   1.069   2.741
 6092SOL    HW219176   2.487   0.938   2.683
 6093SOL     OW19177   1.629   2.868   1.758
 6093SOL    HW119178   1.674   2.945   1.803
 6093SOL    HW219179   1.660   2.783   1.801
 6094SOL     OW19180   2.030   1.370   1.683
 6094SOL    HW119181   1.932   1.365   1.700
 6094SOL    HW219182   2.047   1.427   1.602
 6095SOL     OW19183   4.828   2.741   0.126
 6095SOL    HW119184   4.732   2.744   0.155
 6095SOL    HW219185   4.836   2.773   0.032
 6096SOL     OW19186   5.613   0.552   4.197
 6096SOL    HW119187   5.701   0.597   4.212
 6096SOL    HW219188   5.584   0.566   4.102
 6097SOL     OW19189   2.275   0.488   2.772
 6097SOL    HW119190   2.314   0.404   2.734
 6097SOL    HW219191   2.209   0.526   2.706
 6098SOL     OW19192   1.839   2.134   6.106
 6098SOL    HW119193   1.935   2.107   6.103
 6098SOL    HW219194   1.830   2.229   6.077
 6099SOL     OW19195   6.007   5.867   5.495
 6099SOL    HW119196   5.928   5.902   5.444
 6099SOL    HW219197   6.054   5.797   5.442
 6100SOL     OW19198   6.585   3.778   6.135
 6100SOL    HW119199   6.682   3.803   6.137
 6100SOL    HW219200   6.531   3.856   6.103
 6101SOL     OW19201   6.542   2.224   5.875
 6101SOL    HW119202   6.509   2.175   5.956
 6101SOL    HW219203   6.574   2.315   5.901
 6102SOL     OW19204   2.936   0.809   4.472
 6102SOL    HW119205   2.893   0.855   4.394
 6102SOL    HW219206   2.881   0.730   4.498
 6103SOL     OW19207   7.018   0.526   3.851
 6103SOL    HW119208   6.969   0.584   3.915
 6103SOL    HW219209   0.069   0.578   3.809
 6104SOL     OW19210   5.963   2.132   6.542
 6104SOL    HW119211   5.865   2.152   6.548
 6104SOL    HW219212   6.005   2.139   6.632
 6105SOL     OW19213   3.549   6.347   5.244
 6105SOL    HW119214   3.645   6.350   5.272
 6105SOL    HW219215   3.497   6.292   5.309
 6106SOL     OW19216   2.843   4.947   6.048
 6106SOL    HW119217   2.902   5.009   6.100
 6106SOL    HW219218   2.750   4.984   6.044
 6107SOL     OW19219   2.149   4.623   4.440
 6107SOL    HW119220   2.224   4.686   4.459
 6107SOL    HW219221   2.185   4.535   4.409
 6108SOL     OW19222   0.988   1.756   3.751
 6108SOL    HW119223   0.952   1.849   3.757
 6108SOL    HW219224   0.950   1.710   3.671
 6109SOL     OW19225   5.286   2.452   0.169
 6109SOL    HW119226   5.260   2.548   0.164
 6109SOL    HW219227   5.204   2.396   0.182
 6110SOL     OW19228   2.841   2.774   6.278
 6110SOL    HW119229   2.873   2.721   6.199
 6110SOL    HW219230   2.902   2.759   6.355
 6111SOL     OW19231   0.972   4.879   2.694
 6111SOL    HW119232   1.067   4.910   2.686
 6111SOL    HW219233   0.918   4.950   2.738
 6112SOL     OW19234   1.681   1.904   3.283
 6112SOL    HW119235   1.656   1.826   3.341
 6112SOL    HW219236   1.661   1.883   3.188
 6113SOL     OW19237   0.939   0.745   6.520
 6113SOL    HW119238   0.846   0.709   6.524
 6113SOL    HW219239   0.941   0.838   6.558
 6114SOL     OW19240   5.466   5.572   6.754
 6114SOL    HW119241   5.423   5.599   6.840
 6114SOL    HW219242   5.460   5.473   6.744
 6115SOL     OW19243   4.914   5.315   3.076
 6115SOL    HW119244   4.989   5.359   3.025
 6115SOL    HW219245   4.930   5.327   3.174
 6116SOL     OW19246   2.815   1.223   1.682
 6116SOL    HW119247   2.880   1.237   1.757
 6116SOL    HW219248   2.838   1.284   1.607
 6117SOL     OW19249   5.933   6.873   4.532
 6117SOL    HW119250   5.982   6.874   4.445
 6117SOL    HW219251   5.931   6.780   4.568
 6118SOL     OW19252   6.749   1.893   2.119
 6118SOL    HW119253   6.706   1.897   2.209
 6118SOL    HW219254   6.687   1.932   2.051
 6119SOL     OW19255   0.382   4.609   4.952
 6119SOL    HW119256   0.360   4.665   4.872
 6119SOL    HW219257   0.390   4.513   4.923
 6120SOL     OW19258   2.900   6.538   3.997
 6120SOL    HW119259   2.820   6.541   4.057
 6120SOL    HW219260   2.882   6.594   3.916
 6121SOL     OW19261   0.085   2.634   4.094
 6121SOL    HW119262   0.138   2.666   4.173
 6121SOL    HW219263   7.014   2.665   4.103
 6122SOL     OW19264   3.834   5.954   2.803
 6122SOL    HW119265   3.849   5.940   2.901
 6122SOL    HW219266   3.750   5.907   2.775
 6123SOL     OW19267   0.122   0.670   1.071
 6123SOL    HW119268   0.090   0.749   1.018
 6123SOL    HW219269   0.083   0.674   1.163
 6124SOL     OW19270   3.974   0.007   4.984
 6124SOL    HW119271   4.074   0.000   4.987
 6124SOL    HW219272   3.947   0.103   4.978
 6125SOL     OW19273   2.578   5.645   1.291
 6125SOL    HW119274   2.509   5.685   1.230
 6125SOL    HW219275   2.552   5.661   1.386
 6126SOL     OW19276   5.058   5.713   4.345
 6126SOL    HW119277   5.027   5.751   4.258
 6126SOL    HW219278   5.059   5.784   4.414
 6127SOL     OW19279   3.036   6.963   1.517
 6127SOL    HW119280   3.099   6.901   1.470
 6127SOL    HW219281   2.943   6.927   1.509
 6128SOL     OW19282   6.957   3.414   0.670
 6128SOL    HW119283   6.984   3.508   0.647
 6128SOL    HW219284   0.003   3.350   0.638
 6129SOL     OW19285   6.403   3.963   3.084
 6129SOL    HW119286   6.329   3.931   3.143
 6129SOL    HW219287   6.399   3.914   2.997
 6130SOL     OW19288   6.121   2.742   4.258
 6130SOL    HW119289   6.163   2.828   4.285
 6130SOL    HW219290   6.081   2.751   4.167
 6131SOL     OW19291   6.777   1.399   5.620
 6131SOL    HW119292   6.800   1.461   5.546
 6131SOL    HW219293   6.861   1.360   5.659
 6132SOL     OW19294   3.708   1.612   0.826
 6132SOL    HW119295   3.743   1.649   0.912
 6132SOL    HW219296   3.632   1.549   0.846
 6133SOL     OW19297   0.610   3.147   1.890
 6133SOL    HW119298   0.666   3.110   1.963
 6133SOL    HW219299   0.585   3.241   1.911
 6134SOL     OW19300   3.507   3.275   6.693
 6134SOL    HW119301   3.507   3.370   6.661
 6134SOL    HW219302   3.593   3.257   6.742
 6135SOL     OW19303   6.836   0.003   1.507
 6135SOL    HW119304   6.821   6.944   1.561
 6135SOL    HW219305   6.886   7.003   1.423
 6136SOL     OW19306   0.658   1.114   2.644
 6136SOL    HW119307   0.703   1.049   2.705
 6136SOL    HW219308   0.638   1.069   2.556
 6137SOL     OW19309   3.861   0.586   5.860
 6137SOL    HW119310   3.802   0.639   5.798
 6137SOL    HW219311   3.952   0.628   5.864
 6138SOL     OW19312   3.673   6.557   2.795
 6138SOL    HW119313   3.700   6.652   2.782
 6138SOL    HW219314   3.698   6.504   2.713
 6139SOL     OW19315   1.897   3.185   5.103
 6139SOL    HW119316   1.843   3.245   5.162
 6139SOL    HW219317   1.991   3.182   5.136
 6140SOL     OW19318   0.591   6.895   1.718
 6140SOL    HW119319   0.555   6.987   1.735
 6140SOL    HW219320   0.689   6.894   1.738
 6141SOL     OW19321   6.571   6.016   4.693
 6141SOL    HW119322   6.471   6.017   4.691
 6141SOL    HW219323   6.604   6.058   4.777
 6142SOL     OW19324   6.566   4.390   0.571
 6142SOL    HW119325   6.516   4.305   0.551
 6142SOL    HW219326   6.583   4.439   0.486
 6143SOL     OW19327   6.215   5.121   6.088
 6143SOL    HW119328   6.173   5.067   6.161
 6143SOL    HW219329   6.199   5.076   6.000
 6144SOL     OW19330   0.192   4.325   2.878
 6144SOL    HW119331   0.142   4.366   2.802
 6144SOL    HW219332   0.170   4.374   2.962
 6145SOL     OW19333   4.696   5.413   3.886
 6145SOL    HW119334   4.647   5.387   3.969
 6145SOL    HW219335   4.631   5.428   3.812
 6146SOL     OW19336   4.403   1.172   3.465
 6146SOL    HW119337   4.362   1.257   3.500
 6146SOL    HW219338   4.490   1.155   3.512
 6147SOL     OW19339   2.423   4.793   3.198
 6147SOL    HW119340   2.344   4.835   3.241
 6147SOL    HW219341   2.422   4.813   3.100
 6148SOL     OW19342   6.724   6.378   4.425
 6148SOL    HW119343   6.641   6.334   4.460
 6148SOL    HW219344   6.717   6.392   4.326
 6149SOL     OW19345   3.628   5.076   3.312
 6149SOL    HW119346   3.708   5.042   3.361
 6149SOL    HW219347   3.647   5.167   3.275
 6150SOL     OW19348   4.485   5.470   6.871
 6150SOL    HW119349   4.425   5.498   6.796
 6150SOL    HW219350   4.543   5.546   6.898
 6151SOL     OW19351   5.506   3.179   5.020
 6151SOL    HW119352   5.448   3.103   5.048
 6151SOL    HW219353   5.488   3.258   5.077
 6152SOL     OW19354   5.478   5.167   5.766
 6152SOL    HW119355   5.439   5.082   5.731
 6152SOL    HW219356   5.500   5.156   5.863
 6153SOL     OW19357   4.565   3.927   1.404
 6153SOL    HW119358   4.609   4.012   1.433
 6153SOL    HW219359   4.557   3.866   1.483
 6154SOL     OW19360   5.860   1.439   2.247
 6154SOL    HW119361   5.847   1.433   2.346
 6154SOL    HW219362   5.930   1.508   2.227
 6155SOL     OW19363   0.905   3.625   4.684
 6155SOL    HW119364   0.999   3.601   4.710
 6155SOL    HW219365   0.842   3.596   4.757
 6156SOL     OW19366   4.942   6.125   2.673
 6156SOL    HW119367   4.956   6.110   2.575
 6156SOL    HW219368   5.006   6.194   2.705
 6157SOL     OW19369   2.091   2.980   3.412
 6157SOL    HW119370   2.008   3.036   3.421
 6157SOL    HW219371   2.065   2.884   3.399
 6158SOL     OW19372   4.704   0.565   6.520
 6158SOL    HW119373   4.624   0.623   6.536
 6158SOL    HW219374   4.699   0.484   6.580
 6159SOL     OW19375   5.342   1.509   6.880
 6159SOL    HW119376   5.310   1.516   6.975
 6159SOL    HW219377   5.294   1.576   6.823
 6160SOL     OW19378   5.664   5.579   0.778
 6160SOL    HW119379   5.744   5.628   0.744
 6160SOL    HW219380   5.674   5.562   0.876
 6161SOL     OW19381   6.023   1.319   5.604
 6161SOL    HW119382   5.988   1.405   5.641
 6161SOL    HW219383   5.952   1.275   5.550
 6162SOL     OW19384   0.969   5.139   4.316
 6162SOL    HW119385   0.912   5.113   4.238
 6162SOL    HW219386   0.973   5.064   4.382
 6163SOL     OW19387   5.260   4.861   1.018
 6163SOL    HW119388   5.309   4.943   1.046
 6163SOL    HW219389   5.213   4.878   0.932
 6164SOL     OW19390   2.187   2.190   1.239
 6164SOL    HW119391   2.102   2.229   1.275
 6164SOL    HW219392   2.203   2.225   1.146
 6165SOL     OW19393   4.080   5.951   0.259
 6165SOL    HW119394   4.161   5.898   0.284
 6165SOL    HW219395   4.000   5.891   0.261
 6166SOL     OW19396   3.166   1.310   5.699
 6166SOL    HW119397   3.161   1.401   5.741
 6166SOL    HW219398   3.235   1.311   5.626
 6167SOL     OW19399   0.707   5.031   2.218
 6167SOL    HW119400   0.771   5.010   2.145
 6167SOL    HW219401   0.686   4.947   2.269
 6168SOL     OW19402   0.534   3.636   1.717
 6168SOL    HW119403   0.450   3.641   1.663
 6168SOL    HW219404   0.607   3.599   1.661
 6169SOL     OW19405   2.015   3.795   1.680
 6169SOL    HW119406   2.053   3.858   1.613
 6169SOL    HW219407   2.085   3.772   1.747
 6170SOL     OW19408   0.497   3.458   5.595
 6170SOL    HW119409   0.542   3.539   5.634
 6170SOL    HW219410   0.566   3.398   5.554
 6171SOL     OW19411   0.610   0.480   0.895
 6171SOL    HW119412   0.572   0.535   0.969
 6171SOL    HW219413   0.640   0.540   0.820
 6172SOL     OW19414   0.651   2.395   3.353
 6172SOL    HW119415   0.683   2.406   3.259
 6172SOL    HW219416   0.728   2.402   3.416
 6173SOL     OW19417   6.828   5.929   2.964
 6173SOL    HW119418   6.848   5.852   2.905
 6173SOL    HW219419   6.752   5.905   3.025
 6174SOL     OW19420   5.342   4.875   2.895
 6174SOL    HW119421   5.256   4.881   2.845
 6174SOL    HW219422   5.342   4.941   2.970
 6175SOL     OW19423   3.811   0.553   4.891
 6175SOL    HW119424   3.858   0.526   4.808
 6175SOL    HW219425   3.872   0.609   4.948
 6176SOL     OW19426   3.970   3.769   5.418
 6176SOL    HW119427   4.025   3.712   5.357
 6176SOL    HW219428   3.891   3.717   5.450
 6177SOL     OW19429   5.730   1.467   1.739
 6177SOL    HW119430   5.791   1.390   1.760
 6177SOL    HW219431   5.640   1.451   1.779
 6178SOL     OW19432   4.927   3.507   2.248
 6178SOL    HW119433   4.955   3.442   2.178
 6178SOL    HW219434   4.923   3.462   2.337
 6179SOL     OW19435   6.561   4.855   1.881
 6179SOL    HW119436   6.571   4.905   1.795
 6179SOL    HW219437   6.487   4.788   1.872
 6180SOL     OW19438   2.803   5.180   0.605
 6180SOL    HW119439   2.895   5.151   0.632
 6180SOL    HW219440   2.781   5.267   0.650
 6181SOL     OW19441   4.571   4.989   6.024
 6181SOL    HW119442   4.614   4.986   5.934
 6181SOL    HW219443   4.492   5.050   6.021
 6182SOL     OW19444   3.366   3.370   0.336
 6182SOL    HW119445   3.381   3.437   0.264
 6182SOL    HW219446   3.317   3.291   0.298
 6183SOL     OW19447   1.437   2.147   0.907
 6183SOL    HW119448   1.346   2.109   0.925
 6183SOL    HW219449   1.432   2.208   0.828
 6184SOL     OW19450   2.824   1.004   5.931
 6184SOL    HW119451   2.759   1.049   5.870
 6184SOL    HW219452   2.906   1.060   5.939
 6185SOL     OW19453   3.193   2.878   5.184
 6185SOL    HW119454   3.133   2.834   5.251
 6185SOL    HW219455   3.275   2.822   5.171
 6186SOL     OW19456   6.516   1.995   1.963
 6186SOL    HW119457   6.460   1.982   1.881
 6186SOL    HW219458   6.558   2.086   1.959
 6187SOL     OW19459   4.792   2.602   5.644
 6187SOL    HW119460   4.720   2.552   5.691
 6187SOL    HW219461   4.864   2.539   5.615
 6188SOL     OW19462   1.949   1.770   5.676
 6188SOL    HW119463   1.869   1.829   5.663
 6188SOL    HW219464   1.986   1.744   5.587
 6189SOL     OW19465   3.919   5.801   2.045
 6189SOL    HW119466   3.974   5.810   2.128
 6189SOL    HW219467   3.899   5.705   2.028
 6190SOL     OW19468   6.674   3.346   6.077
 6190SOL    HW119469   6.640   3.258   6.043
 6190SOL    HW219470   6.774   3.346   6.075
 6191SOL     OW19471   2.441   3.583   5.972
 6191SOL    HW119472   2.443   3.631   6.060
 6191SOL    HW219473   2.443   3.650   5.898
 6192SOL     OW19474   2.226   2.197   6.998
 6192SOL    HW119475   2.127   2.184   7.001
 6192SOL    HW219476   2.270   2.115   6.961
 6193SOL     OW19477   5.354   5.326   6.800
 6193SOL    HW119478   5.308   5.238   6.815
 6193SOL    HW219479   5.309   5.397   6.853
 6194SOL     OW19480   6.796   0.414   6.434
 6194SOL    HW119481   6.881   0.396   6.483
 6194SOL    HW219482   6.769   0.333   6.383
 6195SOL     OW19483   5.792   0.722   4.793
 6195SOL    HW119484   5.796   0.725   4.893
 6195SOL    HW219485   5.752   0.636   4.763
 6196SOL     OW19486   5.243   4.395   2.949
 6196SOL    HW119487   5.315   4.464   2.950
 6196SOL    HW219488   5.271   4.315   3.001
 6197SOL     OW19489   2.492   5.295   1.982
 6197SOL    HW119490   2.529   5.335   1.899
 6197SOL    HW219491   2.534   5.205   1.997
 6198SOL     OW19492   5.573   6.352   6.506
 6198SOL    HW119493   5.643   6.378   6.439
 6198SOL    HW219494   5.482   6.368   6.468
 6199SOL     OW19495   0.568   0.047   0.375
 6199SOL    HW119496   0.503   7.000   0.405
 6199SOL    HW219497   0.628   0.009   0.305
 6200SOL     OW19498   1.399   1.436   2.294
 6200SOL    HW119499   1.467   1.504   2.322
 6200SOL    HW219500   1.433   1.344   2.315
 6201SOL     OW19501   6.860   4.068   3.928
 6201SOL    HW119502   6.907   4.139   3.981
 6201SOL    HW219503   6.921   3.989   3.916
 6202SOL     OW19504   6.437   1.993   3.395
 6202SOL    HW119505   6.484   2.050   3.462
 6202SOL    HW219506   6.366   1.939   3.441
 6203SOL     OW19507   6.723   5.602   1.883
 6203SOL    HW119508   6.633   5.618   1.842
 6203SOL    HW219509   6.752   5.684   1.933
 6204SOL     OW19510   1.399   6.480   5.381
 6204SOL    HW119511   1.325   6.413   5.380
 6204SOL    HW219512   1.458   6.467   5.302
 6205SOL     OW19513   4.848   3.954   2.487
 6205SOL    HW119514   4.903   3.911   2.415
 6205SOL    HW219515   4.761   3.984   2.449
 6206SOL     OW19516   5.125   1.882   3.644
 6206SOL    HW119517   5.213   1.873   3.691
 6206SOL    HW219518   5.052   1.849   3.703
 6207SOL     OW19519   1.039   5.840   4.533
 6207SOL    HW119520   1.101   5.882   4.467
 6207SOL    HW219521   1.092   5.796   4.605
 6208SOL     OW19522   3.621   3.115   5.566
 6208SOL    HW119523   3.607   3.055   5.645
 6208SOL    HW219524   3.567   3.082   5.489
 6209SOL     OW19525   3.425   4.565   1.003
 6209SOL    HW119526   3.401   4.590   0.910
 6209SOL    HW219527   3.346   4.581   1.063
 6210SOL     OW19528   4.975   3.394   3.252
 6210SOL    HW119529   5.069   3.380   3.283
 6210SOL    HW219530   4.913   3.336   3.305
 6211SOL     OW19531   5.135   5.585   5.269
 6211SOL    HW119532   5.046   5.582   5.223
 6211SOL    HW219533   5.207   5.599   5.201
 6212SOL     OW19534   2.550   5.386   5.738
 6212SOL    HW119535   2.455   5.374   5.710
 6212SOL    HW219536   2.560   5.473   5.786
 6213SOL     OW19537   4.740   6.221   0.802
 6213SOL    HW119538   4.795   6.302   0.824
 6213SOL    HW219539   4.654   6.250   0.759
 6214SOL     OW19540   5.758   6.037   5.322
 6214SOL    HW119541   5.660   6.039   5.343
 6214SOL    HW219542   5.798   6.127   5.343
 6215SOL     OW19543   5.331   3.166   6.162
 6215SOL    HW119544   5.267   3.116   6.105
 6215SOL    HW219545   5.294   3.257   6.182
 6216SOL     OW19546   5.367   2.535   3.668
 6216SOL    HW119547   5.400   2.600   3.599
 6216SOL    HW219548   5.343   2.449   3.623
 6217SOL     OW19549   1.132   4.844   2.449
 6217SOL    HW119550   1.159   4.751   2.423
 6217SOL    HW219551   1.213   4.896   2.473
 6218SOL     OW19552   4.681   6.348   0.177
 6218SOL    HW119553   4.682   6.267   0.119
 6218SOL    HW219554   4.760   6.347   0.238
 6219SOL     OW19555   1.002   0.865   5.372
 6219SOL    HW119556   0.940   0.809   5.317
 6219SOL    HW219557   0.951   0.912   5.444
 6220SOL     OW19558   3.775   1.081   0.580
 6220SOL    HW119559   3.719   1.066   0.661
 6220SOL    HW219560   3.862   1.123   0.606
 6221SOL     OW19561   6.996   6.127   6.464
 6221SOL    HW119562   0.055   6.176   6.439
 6221SOL    HW219563   6.919   6.160   6.409
 6222SOL     OW19564   5.950   1.169   2.268
 6222SOL    HW119565   6.004   1.155   2.351
 6222SOL    HW219566   5.914   1.262   2.267
 6223SOL     OW19567   0.338   5.045   3.609
 6223SOL    HW119568   0.338   4.945   3.613
 6223SOL    HW219569   0.311   5.075   3.518
 6224SOL     OW19570   4.245   1.708   6.678
 6224SOL    HW119571   4.257   1.773   6.753
 6224SOL    HW219572   4.159   1.658   6.692
 6225SOL     OW19573   3.931   0.753   0.025
 6225SOL    HW119574   3.986   0.756   6.965
 6225SOL    HW219575   3.849   0.809   0.013
 6226SOL     OW19576   1.436   1.095   4.177
 6226SOL    HW119577   1.370   1.039   4.129
 6226SOL    HW219578   1.511   1.038   4.211
 6227SOL     OW19579   2.921   4.517   5.814
 6227SOL    HW119580   2.957   4.521   5.721
 6227SOL    HW219581   2.997   4.525   5.879
 6228SOL     OW19582   1.927   2.547   3.672
 6228SOL    HW119583   1.929   2.633   3.723
 6228SOL    HW219584   1.832   2.526   3.647
 6229SOL     OW19585   0.300   3.536   5.083
 6229SOL    HW119586   0.229   3.606   5.075
 6229SOL    HW219587   0.314   3.513   5.180
 6230SOL     OW19588   6.980   1.434   2.115
 6230SOL    HW119589   6.946   1.510   2.060
 6230SOL    HW219590   6.948   1.444   2.209
 6231SOL     OW19591   5.632   4.078   0.653
 6231SOL    HW119592   5.554   4.123   0.697
 6231SOL    HW219593   5.605   4.048   0.561
 6232SOL     OW19594   5.808   0.498   0.258
 6232SOL    HW119595   5.842   0.502   0.164
 6232SOL    HW219596   5.709   0.491   0.257
 6233SOL     OW19597   0.542   3.145   2.330
 6233SOL    HW119598   0.550   3.230   2.380
 6233SOL    HW219599   0.619   3.085   2.353
 6234SOL     OW19600   6.779   6.708   4.274
 6234SOL    HW119601   6.854   6.644   4.289
 6234SOL    HW219602   6.713   6.700   4.348
 6235SOL     OW19603   6.611   0.968   2.614
 6235SOL    HW119604   6.707   0.972   2.639
 6235SOL    HW219605   6.584   0.873   2.597
 6236SOL     OW19606   0.983   4.689   0.960
 6236SOL    HW119607   0.928   4.657   0.883
 6236SOL    HW219608   1.046   4.760   0.928
 6237SOL     OW19609   3.883   0.044   0.747
 6237SOL    HW119610   3.851   0.103   0.821
 6237SOL    HW219611   3.876   6.972   0.775
 6238SOL     OW19612   2.687   6.521   4.192
 6238SOL    HW119613   2.721   6.489   4.280
 6238SOL    HW219614   2.641   6.446   4.144
 6239SOL     OW19615   5.157   0.460   2.590
 6239SOL    HW119616   5.121   0.486   2.501
 6239SOL    HW219617   5.214   0.533   2.625
 6240SOL     OW19618   3.141   3.476   4.792
 6240SOL    HW119619   3.169   3.404   4.855
 6240SOL    HW219620   3.219   3.503   4.735
 6241SOL     OW19621   2.657   6.379   3.725
 6241SOL    HW119622   2.740   6.347   3.771
 6241SOL    HW219623   2.654   6.345   3.632
 6242SOL     OW19624   2.826   1.883   2.930
 6242SOL    HW119625   2.735   1.853   2.957
 6242SOL    HW219626   2.833   1.881   2.830
 6243SOL     OW19627   5.826   1.507   6.381
 6243SOL    HW119628   5.829   1.601   6.346
 6243SOL    HW219629   5.803   1.444   6.307
 6244SOL     OW19630   4.301   5.073   3.097
 6244SOL    HW119631   4.287   5.158   3.046
 6244SOL    HW219632   4.389   5.034   3.074
 6245SOL     OW19633   1.147   4.405   2.195
 6245SOL    HW119634   1.144   4.350   2.279
 6245SOL    HW219635   1.060   4.452   2.182
 6246SOL     OW19636   1.120   6.678   5.060
 6246SOL    HW119637   1.044   6.615   5.042
 6246SOL    HW219638   1.100   6.732   5.141
 6247SOL     OW19639   6.768   5.650   3.413
 6247SOL    HW119640   6.818   5.723   3.459
 6247SOL    HW219641   6.711   5.601   3.480
 6248SOL     OW19642   4.102   2.632   6.789
 6248SOL    HW119643   4.156   2.642   6.873
 6248SOL    HW219644   4.007   2.611   6.813
 6249SOL     OW19645   6.813   2.614   0.985
 6249SOL    HW119646   6.824   2.541   1.053
 6249SOL    HW219647   6.737   2.673   1.011
 6250SOL     OW19648   7.000   0.287   0.585
 6250SOL    HW119649   6.963   0.338   0.507
 6250SOL    HW219650   6.937   0.214   0.610
 6251SOL     OW19651   3.122   0.047   4.372
 6251SOL    HW119652   3.168   0.133   4.349
 6251SOL    HW219653   3.114   7.014   4.290
 6252SOL     OW19654   2.717   5.614   6.585
 6252SOL    HW119655   2.719   5.524   6.541
 6252SOL    HW219656   2.660   5.676   6.532
 6253SOL     OW19657   3.204   5.163   4.779
 6253SOL    HW119658   3.155   5.174   4.866
 6253SOL    HW219659   3.237   5.069   4.772
 6254SOL     OW19660   0.217   5.566   0.795
 6254SOL    HW119661   0.141   5.594   0.853
 6254SOL    HW219662   0.298   5.622   0.815
 6255SOL     OW19663   1.039   1.790   0.868
 6255SOL    HW119664   1.097   1.736   0.808
 6255SOL    HW219665   1.093   1.822   0.947
 6256SOL     OW19666   4.791   5.626   3.154
 6256SOL    HW119667   4.732   5.706   3.147
 6256SOL    HW219668   4.743   5.554   3.206
 6257SOL     OW19669   4.116   4.347   1.239
 6257SOL    HW119670   4.019   4.341   1.215
 6257SOL    HW219671   4.131   4.313   1.332
 6258SOL     OW19672   4.527   0.300   5.684
 6258SOL    HW119673   4.537   0.202   5.671
 6258SOL    HW219674   4.595   0.348   5.627
 6259SOL     OW19675   2.363   6.901   5.520
 6259SOL    HW119676   2.371   6.929   5.616
 6259SOL    HW219677   2.344   6.981   5.463
 6260SOL     OW19678   1.830   0.799   0.350
 6260SOL    HW119679   1.844   0.701   0.366
 6260SOL    HW219680   1.733   0.817   0.337
 6261SOL     OW19681   4.386   6.651   1.367
 6261SOL    HW119682   4.311   6.716   1.379
 6261SOL    HW219683   4.381   6.612   1.275
 6262SOL     OW19684   6.216   6.050   2.043
 6262SOL    HW119685   6.170   5.973   1.999
 6262SOL    HW219686   6.193   6.052   2.140
 6263SOL     OW19687   0.252   6.288   4.389
 6263SOL    HW119688   0.177   6.241   4.437
 6263SOL    HW219689   0.337   6.238   4.406
 6264SOL     OW19690   0.637   0.003   1.270
 6264SOL    HW119691   0.612   6.948   1.214
 6264SOL    HW219692   0.557   0.060   1.286
 6265SOL     OW19693   4.188   2.003   0.272
 6265SOL    HW119694   4.280   1.966   0.287
 6265SOL    HW219695   4.131   1.981   0.351
 6266SOL     OW19696   3.356   5.449   3.949
 6266SOL    HW119697   3.274   5.396   3.928
 6266SOL    HW219698   3.352   5.537   3.900
 6267SOL     OW19699   1.234   6.719   5.379
 6267SOL    HW119700   1.145   6.674   5.371
 6267SOL    HW219701   1.307   6.650   5.377
 6268SOL     OW19702   3.317   0.530   2.356
 6268SOL    HW119703   3.362   0.508   2.270
 6268SOL    HW219704   3.385   0.552   2.425
 6269SOL     OW19705   5.057   6.821   1.581
 6269SOL    HW119706   5.030   6.884   1.654
 6269SOL    HW219707   5.093   6.737   1.621
 6270SOL     OW19708   1.702   6.278   0.131
 6270SOL    HW119709   1.773   6.208   0.126
 6270SOL    HW219710   1.684   6.314   0.040
 6271SOL     OW19711   6.422   3.290   6.640
 6271SOL    HW119712   6.461   3.256   6.554
 6271SOL    HW219713   6.337   3.338   6.622
 6272SOL     OW19714   5.683   0.197   6.850
 6272SOL    HW119715   5.617   0.231   6.917
 6272SOL    HW219716   5.752   0.268   6.832
 6273SOL     OW19717   6.964   0.041   1.823
 6273SOL    HW119718   6.986   0.133   1.856
 6273SOL    HW219719   6.956   0.043   1.723
 6274SOL     OW19720   3.302   5.937   5.069
 6274SOL    HW119721   3.239   5.869   5.032
 6274SOL    HW219722   3.267   6.029   5.050
 6275SOL     OW19723   2.275   6.052   0.677
 6275SOL    HW119724   2.256   6.063   0.774
 6275SOL    HW219725   2.196   6.011   0.631
 6276SOL     OW19726   1.939   5.072   2.976
 6276SOL    HW119727   1.988   5.140   3.029
 6276SOL    HW219728   1.885   5.015   3.038
 6277SOL     OW19729   5.238   2.515   1.560
 6277SOL    HW119730   5.256   2.418   1.575
 6277SOL    HW219731   5.302   2.569   1.615
 6278SOL     OW19732   2.991   0.107   5.360
 6278SOL    HW119733   2.971   0.096   5.457
 6278SOL    HW219734   3.074   0.055   5.337
 6279SOL     OW19735   3.359   6.259   1.467
 6279SOL    HW119736   3.265   6.282   1.442
 6279SOL    HW219737   3.382   6.168   1.434
 6280SOL     OW19738   7.001   1.861   6.807
 6280SOL    HW119739   7.009   1.794   6.733
 6280SOL    HW219740   6.983   1.813   6.893
 6281SOL     OW19741   6.310   4.449   4.994
 6281SOL    HW119742   6.275   4.539   5.018
 6281SOL    HW219743   6.385   4.458   4.929
 6282SOL     OW19744   0.302   3.432   6.379
 6282SOL    HW119745   0.400   3.449   6.381
 6282SOL    HW219746   0.269   3.441   6.285
 6283SOL     OW19747   1.192   6.129   5.631
 6283SOL    HW119748   1.122   6.186   5.590
 6283SOL    HW219749   1.182   6.035   5.599
 6284SOL     OW19750   2.416   3.950   6.874
 6284SOL    HW119751   2.496   3.890   6.879
 6284SOL    HW219752   2.376   3.961   6.965
 6285SOL     OW19753   1.587   3.362   2.864
 6285SOL    HW119754   1.622   3.394   2.952
 6285SOL    HW219755   1.662   3.322   2.811
 6286SOL     OW19756   0.856   2.786   5.146
 6286SOL    HW119757   0.819   2.719   5.081
 6286SOL    HW219758   0.855   2.877   5.105
 6287SOL     OW19759   4.166   4.836   5.226
 6287SOL    HW119760   4.092   4.825   5.292
 6287SOL    HW219761   4.142   4.907   5.160
 6288SOL     OW19762   3.648   3.224   6.433
 6288SOL    HW119763   3.680   3.129   6.425
 6288SOL    HW219764   3.613   3.239   6.526
 6289SOL     OW19765   2.828   4.549   6.164
 6289SOL    HW119766   2.862   4.471   6.111
 6289SOL    HW219767   2.758   4.597   6.111
 6290SOL     OW19768   5.840   5.551   5.269
 6290SOL    HW119769   5.873   5.534   5.361
 6290SOL    HW219770   5.844   5.649   5.249
 6291SOL     OW19771   3.388   3.391   3.411
 6291SOL    HW119772   3.362   3.475   3.459
 6291SOL    HW219773   3.341   3.387   3.323
 6292SOL     OW19774   1.964   2.728   4.260
 6292SOL    HW119775   1.898   2.669   4.307
 6292SOL    HW219776   1.925   2.820   4.251
 6293SOL     OW19777   5.052   0.873   6.546
 6293SOL    HW119778   5.068   0.971   6.538
 6293SOL    HW219779   5.140   0.825   6.547
 6294SOL     OW19780   2.625   1.143   4.060
 6294SOL    HW119781   2.601   1.080   4.134
 6294SOL    HW219782   2.680   1.094   3.992
 6295SOL     OW19783   5.567   4.900   5.305
 6295SOL    HW119784   5.610   4.971   5.361
 6295SOL    HW219785   5.637   4.836   5.273
 6296SOL     OW19786   0.164   3.093   6.338
 6296SOL    HW119787   0.088   3.047   6.383
 6296SOL    HW219788   0.241   3.101   6.402
 6297SOL     OW19789   5.900   0.472   4.398
 6297SOL    HW119790   5.890   0.539   4.472
 6297SOL    HW219791   5.995   0.442   4.393
 6298SOL     OW19792   5.928   4.428   0.502
 6298SOL    HW119793   5.845   4.472   0.467
 6298SOL    HW219794   6.005   4.448   0.441
 6299SOL     OW19795   4.472   2.378   2.879
 6299SOL    HW119796   4.548   2.314   2.862
 6299SOL    HW219797   4.492   2.465   2.835
 6300SOL     OW19798   4.019   0.897   5.951
 6300SOL    HW119799   4.060   0.806   5.944
 6300SOL    HW219800   4.003   0.933   5.859
 6301SOL     OW19801   3.461   6.820   0.271
 6301SOL    HW119802   3.535   6.847   0.333
 6301SOL    HW219803   3.466   6.722   0.253
 6302SOL     OW19804   3.000   0.998   5.453
 6302SOL    HW119805   3.041   1.076   5.406
 6302SOL    HW219806   3.071   0.931   5.475
 6303SOL     OW19807   1.112   6.270   6.194
 6303SOL    HW119808   1.055   6.221   6.129
 6303SOL    HW219809   1.081   6.365   6.200
 6304SOL     OW19810   4.116   1.224   2.921
 6304SOL    HW119811   4.092   1.244   2.826
 6304SOL    HW219812   4.050   1.159   2.958
 6305SOL     OW19813   0.020   5.389   4.894
 6305SOL    HW119814   7.007   5.361   4.806
 6305SOL    HW219815   6.993   5.468   4.928
 6306SOL     OW19816   6.563   4.690   4.000
 6306SOL    HW119817   6.663   4.701   4.005
 6306SOL    HW219818   6.541   4.612   3.941
 6307SOL     OW19819   3.981   3.225   3.252
 6307SOL    HW119820   4.061   3.284   3.241
 6307SOL    HW219821   3.942   3.204   3.162
 6308SOL     OW19822   0.388   2.800   6.518
 6308SOL    HW119823   0.462   2.866   6.532
 6308SOL    HW219824   0.307   2.830   6.569
 6309SOL     OW19825   1.426   6.571   5.105
 6309SOL    HW119826   1.496   6.636   5.076
 6309SOL    HW219827   1.340   6.620   5.120
 6310SOL     OW19828   1.773   0.020   3.138
 6310SOL    HW119829   1.801   0.109   3.174
 6310SOL    HW219830   1.816   0.006   3.049
 6311SOL     OW19831   5.497   1.132   5.485
 6311SOL    HW119832   5.446   1.067   5.428
 6311SOL    HW219833   5.469   1.121   5.580
 6312SOL     OW19834   2.964   6.713   6.684
 6312SOL    HW119835   2.898   6.778   6.723
 6312SOL    HW219836   3.022   6.760   6.617
 6313SOL     OW19837   5.540   6.139   3.619
 6313SOL    HW119838   5.472   6.200   3.659
 6313SOL    HW219839   5.514   6.115   3.526
 6314SOL     OW19840   2.756   0.132   1.605
 6314SOL    HW119841   2.683   0.171   1.662
 6314SOL    HW219842   2.720   0.108   1.515
 6315SOL     OW19843   2.284   2.964   4.226
 6315SOL    HW119844   2.262   2.962   4.323
 6315SOL    HW219845   2.383   2.951   4.214
 6316SOL     OW19846   5.501   2.194   5.075
 6316SOL    HW119847   5.587   2.202   5.124
 6316SOL    HW219848   5.513   2.135   4.996
 6317SOL     OW19849   4.727   4.682   2.159
 6317SOL    HW119850   4.764   4.591   2.141
 6317SOL    HW219851   4.760   4.746   2.089
 6318SOL     OW19852   6.031   0.848   6.344
 6318SOL    HW119853   5.953   0.878   6.288
 6318SOL    HW219854   5.997   0.796   6.422
 6319SOL     OW19855   5.345   2.519   4.489
 6319SOL    HW119856   5.298   2.590   4.542
 6319SOL    HW219857   5.294   2.501   4.405
 6320SOL     OW19858   7.018   1.260   3.912
 6320SOL    HW119859   7.019   1.304   4.001
 6320SOL    HW219860   0.042   1.172   3.917
 6321SOL     OW19861   5.484   2.211   0.737
 6321SOL    HW119862   5.384   2.216   0.741
 6321SOL    HW219863   5.523   2.300   0.759
 6322SOL     OW19864   2.022   0.697   1.221
 6322SOL    HW119865   2.055   0.781   1.177
 6322SOL    HW219866   1.970   0.721   1.303
 6323SOL     OW19867   2.856   3.155   1.351
 6323SOL    HW119868   2.925   3.189   1.287
 6323SOL    HW219869   2.807   3.078   1.310
 6324SOL     OW19870   4.825   1.045   0.974
 6324SOL    HW119871   4.876   1.039   0.888
 6324SOL    HW219872   4.830   1.139   1.009
 6325SOL     OW19873   1.247   2.390   2.761
 6325SOL    HW119874   1.323   2.414   2.701
 6325SOL    HW219875   1.210   2.473   2.804
 6326SOL     OW19876   5.440   5.500   5.753
 6326SOL    HW119877   5.440   5.400   5.761
 6326SOL    HW219878   5.408   5.526   5.662
 6327SOL     OW19879   6.776   1.727   3.481
 6327SOL    HW119880   6.791   1.750   3.385
 6327SOL    HW219881   6.732   1.804   3.527
 6328SOL     OW19882   4.569   3.272   6.084
 6328SOL    HW119883   4.664   3.262   6.052
 6328SOL    HW219884   4.566   3.338   6.159
 6329SOL     OW19885   1.742   2.578   5.508
 6329SOL    HW119886   1.697   2.611   5.425
 6329SOL    HW219887   1.739   2.478   5.510
 6330SOL     OW19888   6.047   0.476   3.773
 6330SOL    HW119889   6.087   0.545   3.712
 6330SOL    HW219890   6.121   0.424   3.817
 6331SOL     OW19891   6.705   3.339   4.463
 6331SOL    HW119892   6.763   3.259   4.449
 6331SOL    HW219893   6.611   3.317   4.435
 6332SOL     OW19894   1.632   1.727   1.004
 6332SOL    HW119895   1.630   1.798   0.934
 6332SOL    HW219896   1.545   1.728   1.055
 6333SOL     OW19897   4.885   0.541   0.616
 6333SOL    HW119898   4.969   0.580   0.653
 6333SOL    HW219899   4.824   0.515   0.691
 6334SOL     OW19900   3.113   1.373   2.245
 6334SOL    HW119901   3.069   1.418   2.167
 6334SOL    HW219902   3.139   1.280   2.219
 6335SOL     OW19903   5.584   0.732   0.344
 6335SOL    HW119904   5.572   0.777   0.432
 6335SOL    HW219905   5.654   0.780   0.291
 6336SOL     OW19906   0.167   3.664   6.146
 6336SOL    HW119907   0.243   3.601   6.135
 6336SOL    HW219908   0.143   3.704   6.057
 6337SOL     OW19909   4.365   5.575   5.264
 6337SOL    HW119910   4.413   5.655   5.227
 6337SOL    HW219911   4.305   5.538   5.193
 6338SOL     OW19912   2.986   1.817   3.577
 6338SOL    HW119913   3.032   1.798   3.664
 6338SOL    HW219914   2.917   1.888   3.591
 6339SOL     OW19915   1.121   4.276   3.327
 6339SOL    HW119916   1.173   4.306   3.407
 6339SOL    HW219917   1.162   4.193   3.289
 6340SOL     OW19918   2.146   3.928   1.464
 6340SOL    HW119919   2.140   4.008   1.403
 6340SOL    HW219920   2.184   3.851   1.413
 6341SOL     OW19921   0.840   4.568   3.861
 6341SOL    HW119922   0.746   4.534   3.867
 6341SOL    HW219923   0.842   4.665   3.884
 6342SOL     OW19924   1.990   1.088   1.880
 6342SOL    HW119925   2.080   1.131   1.889
 6342SOL    HW219926   1.921   1.148   1.921
 6343SOL     OW19927   2.721   6.071   0.049
 6343SOL    HW119928   2.720   6.086   6.974
 6343SOL    HW219929   2.734   6.158   0.096
 6344SOL     OW19930   6.239   2.205   3.835
 6344SOL    HW119931   6.331   2.198   3.874
 6344SOL    HW219932   6.191   2.281   3.878
 6345SOL     OW19933   5.809   3.379   2.074
 6345SOL    HW119934   5.895   3.356   2.029
 6345SOL    HW219935   5.733   3.343   2.020
 6346SOL     OW19936   0.239   4.355   5.570
 6346SOL    HW119937   0.156   4.395   5.530
 6346SOL    HW219938   0.262   4.271   5.521
 6347SOL     OW19939   2.916   2.183   2.705
 6347SOL    HW119940   2.983   2.166   2.777
 6347SOL    HW219941   2.963   2.205   2.620
 6348SOL     OW19942   0.412   1.848   5.641
 6348SOL    HW119943   0.418   1.844   5.541
 6348SOL    HW219944   0.498   1.819   5.681
 6349SOL     OW19945   0.040   0.471   0.113
 6349SOL    HW119946   0.132   0.468   0.072
 6349SOL    HW219947   0.013   0.379   0.141
 6350SOL     OW19948   0.864   4.304   1.798
 6350SOL    HW119949   0.876   4.293   1.896
 6350SOL    HW219950   0.944   4.268   1.750
 6351SOL     OW19951   5.959   3.593   3.294
 6351SOL    HW119952   5.924   3.511   3.249
 6351SOL    HW219953   6.006   3.567   3.379
 6352SOL     OW19954   2.226   0.419   4.246
 6352SOL    HW119955   2.248   0.457   4.336
 6352SOL    HW219956   2.217   0.320   4.252
 6353SOL     OW19957   2.519   5.827   6.485
 6353SOL    HW119958   2.508   5.914   6.437
 6353SOL    HW219959   2.452   5.761   6.450
 6354SOL     OW19960   4.755   4.290   2.780
 6354SOL    HW119961   4.823   4.361   2.797
 6354SOL    HW219962   4.723   4.253   2.868
 6355SOL     OW19963   2.873   4.802   0.392
 6355SOL    HW119964   2.844   4.709   0.371
 6355SOL    HW219965   2.805   4.846   0.450
 6356SOL     OW19966   4.876   4.925   6.566
 6356SOL    HW119967   4.879   4.997   6.496
 6356SOL    HW219968   4.937   4.850   6.539
 6357SOL     OW19969   5.807   1.995   1.774
 6357SOL    HW119970   5.873   1.939   1.723
 6357SOL    HW219971   5.809   1.970   1.870
 6358SOL     OW19972   1.723   2.470   0.126
 6358SOL    HW119973   1.769   2.442   0.210
 6358SOL    HW219974   1.763   2.556   0.094
 6359SOL     OW19975   5.517   6.604   0.857
 6359SOL    HW119976   5.609   6.624   0.823
 6359SOL    HW219977   5.496   6.508   0.840
 6360SOL     OW19978   0.557   2.134   3.198
 6360SOL    HW119979   0.581   2.195   3.274
 6360SOL    HW219980   0.620   2.150   3.122
 6361SOL     OW19981   0.507   0.436   6.804
 6361SOL    HW119982   0.578   0.423   6.873
 6361SOL    HW219983   0.430   0.375   6.824
 6362SOL     OW19984   0.862   5.343   6.835
 6362SOL    HW119985   0.838   5.251   6.803
 6362SOL    HW219986   0.782   5.385   6.879
 6363SOL     OW19987   2.846   5.264   3.761
 6363SOL    HW119988   2.880   5.229   3.848
 6363SOL    HW219989   2.789   5.195   3.716
 6364SOL     OW19990   2.448   2.292   5.242
 6364SOL    HW119991   2.469   2.326   5.150
 6364SOL    HW219992   2.529   2.300   5.300
 6365SOL     OW19993   5.756   5.781   3.843
 6365SOL    HW119994   5.800   5.835   3.771
 6365SOL    HW219995   5.657   5.780   3.828
 6366SOL     OW19996   6.066   6.466   5.159
 6366SOL    HW119997   6.150   6.450   5.211
 6366SOL    HW219998   6.084   6.453   5.062
 6367SOL     OW19999   3.270   2.079   2.849
 6367SOL    HW120000   3.186   2.090   2.903
 6367SOL    HW220001   3.349   2.086   2.908
 6368SOL     OW20002   4.912   3.633   4.460
 6368SOL    HW120003   4.882   3.633   4.556
 6368SOL    HW220004   4.999   3.584   4.453
 6369SOL     OW20005   3.448   6.456   5.787
 6369SOL    HW120006   3.538   6.497   5.803
 6369SOL    HW220007   3.454   6.357   5.794
 6370SOL     OW20008   5.187   3.934   3.905
 6370SOL    HW120009   5.095   3.974   3.903
 6370SOL    HW220010   5.198   3.878   3.987
 6371SOL     OW20011   5.237   4.247   1.490
 6371SOL    HW120012   5.143   4.246   1.457
 6371SOL    HW220013   5.240   4.210   1.583
 6372SOL     OW20014   6.913   1.217   2.936
 6372SOL    HW120015   6.944   1.124   2.952
 6372SOL    HW220016   6.947   1.248   2.847
 6373SOL     OW20017   5.492   4.062   1.403
 6373SOL    HW120018   5.530   3.995   1.339
 6373SOL    HW220019   5.410   4.103   1.363
 6374SOL     OW20020   4.659   2.927   0.560
 6374SOL    HW120021   4.682   2.839   0.518
 6374SOL    HW220022   4.649   2.996   0.490
 6375SOL     OW20023   6.936   2.956   2.368
 6375SOL    HW120024   6.957   2.869   2.414
 6375SOL    HW220025   6.918   2.939   2.271
 6376SOL     OW20026   3.812   0.962   5.727
 6376SOL    HW120027   3.718   0.932   5.707
 6376SOL    HW220028   3.873   0.929   5.655
 6377SOL     OW20029   0.139   0.073   6.707
 6377SOL    HW120030   0.210   0.142   6.717
 6377SOL    HW220031   0.135   0.016   6.789
 6378SOL     OW20032   5.571   5.691   3.436
 6378SOL    HW120033   5.490   5.707   3.379
 6378SOL    HW220034   5.614   5.605   3.408
 6379SOL     OW20035   2.789   5.686   5.979
 6379SOL    HW120036   2.767   5.768   6.031
 6379SOL    HW220037   2.839   5.622   6.037
 6380SOL     OW20038   1.355   3.465   5.119
 6380SOL    HW120039   1.436   3.408   5.110
 6380SOL    HW220040   1.309   3.446   5.205
 6381SOL     OW20041   4.682   3.783   0.120
 6381SOL    HW120042   4.610   3.736   0.069
 6381SOL    HW220043   4.726   3.851   0.061
 6382SOL     OW20044   2.905   1.668   1.367
 6382SOL    HW120045   2.914   1.692   1.464
 6382SOL    HW220046   2.850   1.737   1.320
 6383SOL     OW20047   1.698   2.002   2.711
 6383SOL    HW120048   1.654   2.086   2.680
 6383SOL    HW220049   1.667   1.926   2.654
 6384SOL     OW20050   6.719   2.463   2.020
 6384SOL    HW120051   6.808   2.485   1.980
 6384SOL    HW220052   6.655   2.537   2.000
 6385SOL     OW20053   0.198   3.295   1.287
 6385SOL    HW120054   0.239   3.229   1.351
 6385SOL    HW220055   0.268   3.357   1.254
 6386SOL     OW20056   1.960   3.461   0.681
 6386SOL    HW120057   1.924   3.449   0.588
 6386SOL    HW220058   2.055   3.493   0.676
 6387SOL     OW20059   6.274   0.672   0.319
 6387SOL    HW120060   6.329   0.607   0.266
 6387SOL    HW220061   6.177   0.646   0.313
 6388SOL     OW20062   6.339   5.320   2.844
 6388SOL    HW120063   6.295   5.384   2.908
 6388SOL    HW220064   6.269   5.271   2.793
 6389SOL     OW20065   1.907   0.379   0.128
 6389SOL    HW120066   1.897   0.281   0.145
 6389SOL    HW220067   2.002   0.406   0.142
 6390SOL     OW20068   6.351   0.856   6.876
 6390SOL    HW120069   6.390   0.787   6.815
 6390SOL    HW220070   6.421   0.923   6.900
 6391SOL     OW20071   1.306   0.876   5.247
 6391SOL    HW120072   1.253   0.885   5.332
 6391SOL    HW220073   1.361   0.958   5.234
 6392SOL     OW20074   3.368   5.719   3.837
 6392SOL    HW120075   3.335   5.790   3.899
 6392SOL    HW220076   3.455   5.747   3.797
 6393SOL     OW20077   6.050   6.274   1.308
 6393SOL    HW120078   6.031   6.233   1.219
 6393SOL    HW220079   6.111   6.215   1.360
 6394SOL     OW20080   0.781   5.098   0.971
 6394SOL    HW120081   0.828   5.025   1.021
 6394SOL    HW220082   0.846   5.172   0.951
 6395SOL     OW20083   1.601   4.447   3.114
 6395SOL    HW120084   1.647   4.358   3.110
 6395SOL    HW220085   1.511   4.441   3.071
 6396SOL     OW20086   6.351   3.942   0.084
 6396SOL    HW120087   6.437   3.892   0.093
 6396SOL    HW220088   6.323   3.944   7.011
 6397SOL     OW20089   5.711   2.241   3.170
 6397SOL    HW120090   5.791   2.183   3.158
 6397SOL    HW220091   5.651   2.202   3.240
 6398SOL     OW20092   0.548   6.597   1.251
 6398SOL    HW120093   0.527   6.662   1.324
 6398SOL    HW220094   0.645   6.573   1.255
 6399SOL     OW20095   2.255   0.232   6.141
 6399SOL    HW120096   2.312   0.184   6.208
 6399SOL    HW220097   2.312   0.264   6.065
 6400SOL     OW20098   1.472   5.723   2.806
 6400SOL    HW120099   1.402   5.793   2.795
 6400SOL    HW220100   1.543   5.735   2.737
 6401SOL     OW20101   3.848   4.969   3.392
 6401SOL    HW120102   3.866   4.921   3.478
 6401SOL    HW220103   3.934   4.988   3.346
 6402SOL     OW20104   2.048   4.714   4.683
 6402SOL    HW120105   2.093   4.675   4.763
 6402SOL    HW220106   2.082   4.669   4.601
 6403SOL     OW20107   5.045   6.468   4.943
 6403SOL    HW120108   4.956   6.503   4.970
 6403SOL    HW220109   5.116   6.536   4.964
 6404SOL     OW20110   3.502   0.324   2.325
 6404SOL    HW120111   3.496   0.279   2.236
 6404SOL    HW220112   3.433   0.286   2.387
 6405SOL     OW20113   5.474   1.472   3.059
 6405SOL    HW120114   5.406   1.530   3.104
 6405SOL    HW220115   5.552   1.528   3.030
 6406SOL     OW20116   1.102   3.005   2.505
 6406SOL    HW120117   1.038   2.984   2.579
 6406SOL    HW220118   1.115   2.925   2.447
 6407SOL     OW20119   2.381   6.228   3.223
 6407SOL    HW120120   2.445   6.217   3.147
 6407SOL    HW220121   2.303   6.282   3.193
 6408SOL     OW20122   7.009   0.084   0.325
 6408SOL    HW120123   7.003   7.009   0.306
 6408SOL    HW220124   0.013   0.097   0.420
 6409SOL     OW20125   6.544   5.099   3.659
 6409SOL    HW120126   6.525   5.131   3.567
 6409SOL    HW220127   6.463   5.053   3.696
 6410SOL     OW20128   3.236   1.771   5.466
 6410SOL    HW120129   3.180   1.805   5.390
 6410SOL    HW220130   3.178   1.719   5.529
 6411SOL     OW20131   0.524   2.404   2.644
 6411SOL    HW120132   0.456   2.396   2.716
 6411SOL    HW220133   0.487   2.460   2.569
 6412SOL     OW20134   3.403   0.631   6.930
 6412SOL    HW120135   3.442   0.582   7.008
 6412SOL    HW220136   3.320   0.679   6.959
 6413SOL     OW20137   4.360   4.977   4.197
 6413SOL    HW120138   4.319   5.034   4.126
 6413SOL    HW220139   4.442   4.933   4.162
 6414SOL     OW20140   1.106   0.032   6.764
 6414SOL    HW120141   1.116   6.976   6.823
 6414SOL    HW220142   1.174   0.101   6.787
 6415SOL     OW20143   1.186   2.875   3.412
 6415SOL    HW120144   1.130   2.841   3.487
 6415SOL    HW220145   1.149   2.963   3.381
 6416SOL     OW20146   2.982   0.308   6.589
 6416SOL    HW120147   2.909   0.376   6.579
 6416SOL    HW220148   3.038   0.306   6.506
 6417SOL     OW20149   4.965   1.704   1.048
 6417SOL    HW120150   4.882   1.663   1.011
 6417SOL    HW220151   4.956   1.804   1.047
 6418SOL     OW20152   4.396   4.791   1.329
 6418SOL    HW120153   4.422   4.756   1.239
 6418SOL    HW220154   4.326   4.731   1.369
 6419SOL     OW20155   0.670   6.528   6.508
 6419SOL    HW120156   0.612   6.608   6.494
 6419SOL    HW220157   0.753   6.536   6.453
 6420SOL     OW20158   1.199   3.251   3.952
 6420SOL    HW120159   1.125   3.317   3.968
 6420SOL    HW220160   1.217   3.244   3.854
 6421SOL     OW20161   5.049   6.984   1.811
 6421SOL    HW120162   5.052   6.983   1.910
 6421SOL    HW220163   5.142   6.987   1.774
 6422SOL     OW20164   6.962   2.904   4.601
 6422SOL    HW120165   0.020   2.863   4.641
 6422SOL    HW220166   6.923   2.841   4.533
 6423SOL     OW20167   2.488   4.560   4.416
 6423SOL    HW120168   2.531   4.514   4.494
 6423SOL    HW220169   2.401   4.514   4.394
 6424SOL     OW20170   0.767   3.784   4.997
 6424SOL    HW120171   0.866   3.776   4.997
 6424SOL    HW220172   0.729   3.726   5.069
 6425SOL     OW20173   0.049   6.237   2.474
 6425SOL    HW120174   0.092   6.274   2.556
 6425SOL    HW220175   0.010   6.147   2.494
 6426SOL     OW20176   4.534   4.563   4.774
 6426SOL    HW120177   4.499   4.562   4.681
 6426SOL    HW220178   4.460   4.584   4.838
 6427SOL     OW20179   3.067   3.580   3.844
 6427SOL    HW120180   3.034   3.592   3.750
 6427SOL    HW220181   3.167   3.582   3.844
 6428SOL     OW20182   4.561   2.731   0.228
 6428SOL    HW120183   4.505   2.802   0.271
 6428SOL    HW220184   4.557   2.647   0.282
 6429SOL     OW20185   2.347   0.679   5.216
 6429SOL    HW120186   2.287   0.746   5.259
 6429SOL    HW220187   2.306   0.649   5.130
 6430SOL     OW20188   6.904   0.388   5.100
 6430SOL    HW120189   6.902   0.481   5.136
 6430SOL    HW220190   6.835   0.333   5.146
 6431SOL     OW20191   4.396   5.149   2.708
 6431SOL    HW120192   4.378   5.240   2.672
 6431SOL    HW220193   4.486   5.118   2.677
 6432SOL     OW20194   3.762   4.435   6.811
 6432SOL    HW120195   3.786   4.505   6.743
 6432SOL    HW220196   3.845   4.390   6.844
 6433SOL     OW20197   2.470   5.638   6.828
 6433SOL    HW120198   2.431   5.630   6.736
 6433SOL    HW220199   2.503   5.548   6.857
 6434SOL     OW20200   2.894   5.970   5.891
 6434SOL    HW120201   2.961   5.908   5.851
 6434SOL    HW220202   2.814   5.976   5.831
 6435SOL     OW20203   5.300   0.491   0.919
 6435SOL    HW120204   5.382   0.499   0.863
 6435SOL    HW220205   5.302   0.404   0.969
 6436SOL     OW20206   0.479   3.973   3.946
 6436SOL    HW120207   0.431   3.897   3.991
 6436SOL    HW220208   0.430   4.058   3.965
 6437SOL     OW20209   0.556   1.259   5.583
 6437SOL    HW120210   0.491   1.220   5.649
 6437SOL    HW220211   0.581   1.189   5.517
 6438SOL     OW20212   0.602   5.552   6.833
 6438SOL    HW120213   0.538   5.625   6.855
 6438SOL    HW220214   0.564   5.464   6.862
 6439SOL     OW20215   5.893   0.744   3.333
 6439SOL    HW120216   5.976   0.733   3.389
 6439SOL    HW220217   5.830   0.670   3.352
 6440SOL     OW20218   2.540   0.524   5.911
 6440SOL    HW120219   2.635   0.493   5.919
 6440SOL    HW220220   2.515   0.577   5.992
 6441SOL     OW20221   0.266   1.007   2.984
 6441SOL    HW120222   0.355   1.004   3.029
 6441SOL    HW220223   0.277   1.045   2.892
 6442SOL     OW20224   2.675   2.299   5.713
 6442SOL    HW120225   2.673   2.257   5.622
 6442SOL    HW220226   2.611   2.376   5.716
 6443SOL     OW20227   4.122   2.366   0.822
 6443SOL    HW120228   4.124   2.465   0.806
 6443SOL    HW220229   4.112   2.348   0.920
 6444SOL     OW20230   0.183   2.984   5.483
 6444SOL    HW120231   0.171   3.058   5.550
 6444SOL    HW220232   0.126   2.906   5.510
 6445SOL     OW20233   2.879   3.581   3.075
 6445SOL    HW120234   2.849   3.486   3.080
 6445SOL    HW220235   2.866   3.616   2.982
 6446SOL     OW20236   2.090   1.665   6.849
 6446SOL    HW120237   2.024   1.621   6.910
 6446SOL    HW220238   2.180   1.623   6.860
 6447SOL     OW20239   5.957   4.852   1.009
 6447SOL    HW120240   5.978   4.824   0.915
 6447SOL    HW220241   5.978   4.777   1.071
 6448SOL     OW20242   4.773   5.838   1.688
 6448SOL    HW120243   4.745   5.753   1.733
 6448SOL    HW220244   4.696   5.875   1.636
 6449SOL     OW20245   2.613   5.399   1.743
 6449SOL    HW120246   2.587   5.426   1.650
 6449SOL    HW220247   2.622   5.480   1.800
 6450SOL     OW20248   0.414   3.800   1.030
 6450SOL    HW120249   0.485   3.863   1.059
 6450SOL    HW220250   0.324   3.843   1.041
 6451SOL     OW20251   3.391   2.378   1.090
 6451SOL    HW120252   3.302   2.339   1.069
 6451SOL    HW220253   3.407   2.460   1.035
 6452SOL     OW20254   5.381   3.588   3.317
 6452SOL    HW120255   5.462   3.615   3.266
 6452SOL    HW220256   5.388   3.618   3.412
 6453SOL     OW20257   3.650   6.861   0.996
 6453SOL    HW120258   3.626   6.906   1.082
 6453SOL    HW220259   3.742   6.888   0.969
 6454SOL     OW20260   6.204   2.925   2.630
 6454SOL    HW120261   6.299   2.897   2.619
 6454SOL    HW220262   6.162   2.936   2.540
 6455SOL     OW20263   6.431   4.185   3.446
 6455SOL    HW120264   6.383   4.191   3.534
 6455SOL    HW220265   6.372   4.222   3.373
 6456SOL     OW20266   6.756   1.460   3.210
 6456SOL    HW120267   6.750   1.421   3.302
 6456SOL    HW220268   6.755   1.385   3.143
 6457SOL     OW20269   4.776   6.930   1.929
 6457SOL    HW120270   4.701   6.892   1.875
 6457SOL    HW220271   4.858   6.937   1.872
 6458SOL     OW20272   0.900   5.156   3.442
 6458SOL    HW120273   0.928   5.086   3.376
 6458SOL    HW220274   0.894   5.115   3.533
 6459SOL     OW20275   6.664   2.922   2.864
 6459SOL    HW120276   6.711   2.937   2.951
 6459SOL    HW220277   6.637   2.827   2.856
 6460SOL     OW20278   0.029   5.995   5.680
 6460SOL    HW120279   0.025   6.058   5.602
 6460SOL    HW220280   0.093   5.921   5.659
 6461SOL     OW20281   3.015   4.380   0.735
 6461SOL    HW120282   2.936   4.441   0.728
 6461SOL    HW220283   3.054   4.365   0.644
 6462SOL     OW20284   1.551   4.135   4.790
 6462SOL    HW120285   1.494   4.053   4.788
 6462SOL    HW220286   1.555   4.174   4.698
 6463SOL     OW20287   4.584   1.200   1.189
 6463SOL    HW120288   4.628   1.126   1.239
 6463SOL    HW220289   4.653   1.266   1.158
 6464SOL     OW20290   1.336   6.344   4.331
 6464SOL    HW120291   1.247   6.331   4.288
 6464SOL    HW220292   1.324   6.356   4.430
 6465SOL     OW20293   5.164   2.348   2.924
 6465SOL    HW120294   5.080   2.402   2.936
 6465SOL    HW220295   5.140   2.257   2.891
 6466SOL     OW20296   0.063   3.750   0.110
 6466SOL    HW120297   0.056   3.762   0.011
 6466SOL    HW220298   0.134   3.683   0.131
 6467SOL     OW20299   3.293   1.221   0.908
 6467SOL    HW120300   3.259   1.298   0.961
 6467SOL    HW220301   3.215   1.166   0.875
 6468SOL     OW20302   3.164   0.195   0.344
 6468SOL    HW120303   3.212   0.220   0.260
 6468SOL    HW220304   3.123   0.105   0.333
 6469SOL     OW20305   3.326   1.491   3.521
 6469SOL    HW120306   3.239   1.534   3.496
 6469SOL    HW220307   3.311   1.427   3.596
 6470SOL     OW20308   6.531   2.569   6.472
 6470SOL    HW120309   6.476   2.519   6.539
 6470SOL    HW220310   6.625   2.535   6.475
 6471SOL     OW20311   0.441   6.161   4.745
 6471SOL    HW120312   0.398   6.073   4.767
 6471SOL    HW220313   0.540   6.154   4.761
 6472SOL     OW20314   0.245   5.918   2.308
 6472SOL    HW120315   0.249   5.924   2.408
 6472SOL    HW220316   0.149   5.910   2.279
 6473SOL     OW20317   1.698   1.203   4.056
 6473SOL    HW120318   1.707   1.119   4.110
 6473SOL    HW220319   1.603   1.214   4.027
 6474SOL     OW20320   3.952   5.980   4.372
 6474SOL    HW120321   3.976   5.890   4.409
 6474SOL    HW220322   3.923   6.040   4.447
 6475SOL     OW20323   5.586   5.153   3.237
 6475SOL    HW120324   5.637   5.109   3.163
 6475SOL    HW220325   5.490   5.164   3.210
 6476SOL     OW20326   4.161   1.977   6.552
 6476SOL    HW120327   4.212   1.937   6.628
 6476SOL    HW220328   4.085   2.031   6.587
 6477SOL     OW20329   7.019   5.953   1.145
 6477SOL    HW120330   0.092   5.970   1.167
 6477SOL    HW220331   6.976   5.902   1.219
 6478SOL     OW20332   3.032   5.391   1.822
 6478SOL    HW120333   3.082   5.354   1.744
 6478SOL    HW220334   2.934   5.394   1.801
 6479SOL     OW20335   3.322   6.193   4.048
 6479SOL    HW120336   3.417   6.166   4.065
 6479SOL    HW220337   3.267   6.176   4.130
 6480SOL     OW20338   3.018   1.234   6.414
 6480SOL    HW120339   3.083   1.221   6.490
 6480SOL    HW220340   3.040   1.171   6.340
 6481SOL     OW20341   3.209   2.487   1.508
 6481SOL    HW120342   3.190   2.578   1.547
 6481SOL    HW220343   3.217   2.420   1.582
 6482SOL     OW20344   6.719   3.282   5.219
 6482SOL    HW120345   6.682   3.219   5.150
 6482SOL    HW220346   6.781   3.233   5.279
 6483SOL     OW20347   1.264   5.773   4.688
 6483SOL    HW120348   1.300   5.836   4.756
 6483SOL    HW220349   1.280   5.679   4.717
 6484SOL     OW20350   2.739   0.968   3.846
 6484SOL    HW120351   2.665   0.915   3.806
 6484SOL    HW220352   2.824   0.950   3.796
 6485SOL     OW20353   1.852   6.467   4.649
 6485SOL    HW120354   1.930   6.450   4.708
 6485SOL    HW220355   1.768   6.438   4.696
 6486SOL     OW20356   1.687   5.365   3.299
 6486SOL    HW120357   1.779   5.327   3.293
 6486SOL    HW220358   1.629   5.304   3.352
 6487SOL     OW20359   0.215   4.723   3.996
 6487SOL    HW120360   0.224   4.793   4.067
 6487SOL    HW220361   0.193   4.767   3.909
 6488SOL     OW20362   4.920   5.737   4.655
 6488SOL    HW120363   4.936   5.647   4.695
 6488SOL    HW220364   4.828   5.741   4.616
 6489SOL     OW20365   3.959   3.090   6.247
 6489SOL    HW120366   3.895   3.027   6.203
 6489SOL    HW220367   4.045   3.042   6.265
 6490SOL     OW20368   1.832   1.537   6.894
 6490SOL    HW120369   1.761   1.492   6.948
 6490SOL    HW220370   1.790   1.588   6.819
 6491SOL     OW20371   1.415   0.154   0.840
 6491SOL    HW120372   1.431   0.147   0.939
 6491SOL    HW220373   1.321   0.128   0.820
 6492SOL     OW20374   3.327   4.053   4.723
 6492SOL    HW120375   3.357   4.147   4.740
 6492SOL    HW220376   3.336   3.999   4.808
 6493SOL     OW20377   1.408   4.479   6.393
 6493SOL    HW120378   1.444   4.410   6.456
 6493SOL    HW220379   1.358   4.434   6.319
 6494SOL     OW20380   6.084   6.453   1.740
 6494SOL    HW120381   6.067   6.492   1.649
 6494SOL    HW220382   6.182   6.436   1.751
 6495SOL     OW20383   0.101   0.181   3.654
 6495SOL    HW120384   0.021   0.239   3.640
 6495SOL    HW220385   0.183   0.228   3.623
 6496SOL     OW20386   4.604   0.170   2.342
 6496SOL    HW120387   4.679   0.237   2.346
 6496SOL    HW220388   4.625   0.101   2.273
 6497SOL     OW20389   0.182   1.515   0.847
 6497SOL    HW120390   0.089   1.534   0.816
 6497SOL    HW220391   0.232   1.602   0.859
 6498SOL     OW20392   0.871   4.141   3.982
 6498SOL    HW120393   0.844   4.157   3.887
 6498SOL    HW220394   0.815   4.068   4.021
 6499SOL     OW20395   6.296   4.034   4.197
 6499SOL    HW120396   6.224   4.098   4.170
 6499SOL    HW220397   6.384   4.067   4.166
 6500SOL     OW20398   1.471   3.499   2.420
 6500SOL    HW120399   1.485   3.544   2.508
 6500SOL    HW220400   1.555   3.452   2.393
 6501SOL     OW20401   6.401   1.982   0.992
 6501SOL    HW120402   6.411   1.994   0.893
 6501SOL    HW220403   6.473   1.922   1.026
 6502SOL     OW20404   6.080   3.958   1.881
 6502SOL    HW120405   6.016   3.882   1.896
 6502SOL    HW220406   6.030   4.038   1.850
 6503SOL     OW20407   6.694   2.994   5.565
 6503SOL    HW120408   6.615   3.031   5.614
 6503SOL    HW220409   6.755   2.948   5.629
 6504SOL     OW20410   4.693   6.530   6.569
 6504SOL    HW120411   4.663   6.475   6.648
 6504SOL    HW220412   4.617   6.587   6.539
 6505SOL     OW20413   5.563   6.303   6.973
 6505SOL    HW120414   5.533   6.207   6.975
 6505SOL    HW220415   5.663   6.307   6.970
 6506SOL     OW20416   0.369   2.974   3.172
 6506SOL    HW120417   0.350   2.878   3.194
 6506SOL    HW220418   0.378   2.984   3.073
 6507SOL     OW20419   3.185   5.400   6.597
 6507SOL    HW120420   3.090   5.417   6.574
 6507SOL    HW220421   3.220   5.325   6.540
 6508SOL     OW20422   1.273   6.704   1.382
 6508SOL    HW120423   1.285   6.720   1.284
 6508SOL    HW220424   1.332   6.629   1.411
 6509SOL     OW20425   3.499   1.695   5.438
 6509SOL    HW120426   3.529   1.632   5.510
 6509SOL    HW220427   3.430   1.757   5.475
 6510SOL     OW20428   4.349   5.828   5.625
 6510SOL    HW120429   4.303   5.759   5.569
 6510SOL    HW220430   4.419   5.785   5.682
 6511SOL     OW20431   4.032   1.713   6.453
 6511SOL    HW120432   3.942   1.757   6.444
 6511SOL    HW220433   4.101   1.782   6.476
 6512SOL     OW20434   3.133   0.745   1.315
 6512SOL    HW120435   3.127   0.759   1.216
 6512SOL    HW220436   3.042   0.728   1.352
 6513SOL     OW20437   2.923   5.571   4.945
 6513SOL    HW120438   2.848   5.542   5.006
 6513SOL    HW220439   2.982   5.492   4.926
 6514SOL     OW20440   5.791   0.427   4.960
 6514SOL    HW120441   5.748   0.425   4.870
 6514SOL    HW220442   5.721   0.425   5.031
 6515SOL     OW20443   2.034   4.920   2.198
 6515SOL    HW120444   2.007   5.016   2.186
 6515SOL    HW220445   2.001   4.866   2.121
 6516SOL     OW20446   0.284   3.085   1.440
 6516SOL    HW120447   0.284   2.986   1.433
 6516SOL    HW220448   0.296   3.113   1.535
 6517SOL     OW20449   0.100   2.714   6.511
 6517SOL    HW120450   0.049   2.800   6.509
 6517SOL    HW220451   0.073   2.661   6.591
 6518SOL     OW20452   0.533   1.075   2.911
 6518SOL    HW120453   0.511   1.136   2.987
 6518SOL    HW220454   0.527   1.127   2.825
 6519SOL     OW20455   0.898   1.399   3.385
 6519SOL    HW120456   0.863   1.428   3.295
 6519SOL    HW220457   0.890   1.299   3.392
 6520SOL     OW20458   6.878   5.667   6.620
 6520SOL    HW120459   6.946   5.637   6.552
 6520SOL    HW220460   6.882   5.766   6.629
 6521SOL     OW20461   1.078   3.051   4.116
 6521SOL    HW120462   1.121   3.044   4.206
 6521SOL    HW220463   1.119   3.126   4.065
 6522SOL     OW20464   2.681   4.150   5.555
 6522SOL    HW120465   2.711   4.244   5.539
 6522SOL    HW220466   2.669   4.103   5.468
 6523SOL     OW20467   6.010   0.031   0.226
 6523SOL    HW120468   6.084   0.014   0.161
 6523SOL    HW220469   6.014   0.126   0.258
 6524SOL     OW20470   2.492   2.007   1.861
 6524SOL    HW120471   2.568   2.070   1.877
 6524SOL    HW220472   2.406   2.057   1.870
 6525SOL     OW20473   1.244   5.356   3.715
 6525SOL    HW120474   1.301   5.384   3.792
 6525SOL    HW220475   1.150   5.386   3.731
 6526SOL     OW20476   0.434   6.900   0.713
 6526SOL    HW120477   0.454   6.970   0.781
 6526SOL    HW220478   0.342   6.864   0.728
 6527SOL     OW20479   0.776   2.414   0.665
 6527SOL    HW120480   0.715   2.423   0.586
 6527SOL    HW220481   0.748   2.478   0.736
 6528SOL     OW20482   6.235   0.912   5.657
 6528SOL    HW120483   6.331   0.885   5.670
 6528SOL    HW220484   6.216   0.923   5.560
 6529SOL     OW20485   6.878   1.468   2.371
 6529SOL    HW120486   6.921   1.548   2.413
 6529SOL    HW220487   6.781   1.465   2.397
 6530SOL     OW20488   0.771   2.465   2.254
 6530SOL    HW120489   0.714   2.540   2.221
 6530SOL    HW220490   0.754   2.450   2.352
 6531SOL     OW20491   4.217   3.282   6.016
 6531SOL    HW120492   4.248   3.191   6.044
 6531SOL    HW220493   4.128   3.302   6.056
 6532SOL     OW20494   1.212   0.874   1.096
 6532SOL    HW120495   1.291   0.935   1.091
 6532SOL    HW220496   1.195   0.833   1.006
 6533SOL     OW20497   4.645   4.071   6.685
 6533SOL    HW120498   4.707   4.076   6.763
 6533SOL    HW220499   4.668   4.143   6.619
 6534SOL     OW20500   5.921   4.731   2.085
 6534SOL    HW120501   5.946   4.780   2.169
 6534SOL    HW220502   5.822   4.729   2.076
 6535SOL     OW20503   5.998   3.336   4.342
 6535SOL    HW120504   5.927   3.334   4.413
 6535SOL    HW220505   6.078   3.285   4.374
 6536SOL     OW20506   0.441   2.547   5.458
 6536SOL    HW120507   0.456   2.588   5.548
 6536SOL    HW220508   0.419   2.450   5.468
 6537SOL     OW20509   6.085   4.499   5.257
 6537SOL    HW120510   6.119   4.530   5.168
 6537SOL    HW220511   6.149   4.526   5.329
 6538SOL     OW20512   2.149   3.783   5.041
 6538SOL    HW120513   2.186   3.766   5.133
 6538SOL    HW220514   2.201   3.857   4.997
 6539SOL     OW20515   6.186   1.093   6.873
 6539SOL    HW120516   6.228   1.007   6.846
 6539SOL    HW220517   6.229   1.126   6.957
 6540SOL     OW20518   4.151   2.664   5.754
 6540SOL    HW120519   4.062   2.621   5.765
 6540SOL    HW220520   4.141   2.763   5.761
 6541SOL     OW20521   5.819   1.795   5.323
 6541SOL    HW120522   5.847   1.700   5.332
 6541SOL    HW220523   5.875   1.840   5.253
 6542SOL     OW20524   1.428   3.274   4.543
 6542SOL    HW120525   1.505   3.218   4.571
 6542SOL    HW220526   1.374   3.300   4.623
 6543SOL     OW20527   3.664   2.126   4.914
 6543SOL    HW120528   3.565   2.118   4.899
 6543SOL    HW220529   3.706   2.174   4.837
 6544SOL     OW20530   0.786   0.239   1.623
 6544SOL    HW120531   0.749   0.317   1.674
 6544SOL    HW220532   0.805   0.268   1.529
 6545SOL     OW20533   4.422   0.022   1.268
 6545SOL    HW120534   4.397   0.094   1.203
 6545SOL    HW220535   4.341   6.995   1.296
 6546SOL     OW20536   5.034   4.716   6.533
 6546SOL    HW120537   5.124   4.750   6.561
 6546SOL    HW220538   4.987   4.677   6.612
 6547SOL     OW20539   5.364   6.413   6.851
 6547SOL    HW120540   5.279   6.384   6.896
 6547SOL    HW220541   5.442   6.380   6.903
 6548SOL     OW20542   0.909   2.694   6.188
 6548SOL    HW120543   0.980   2.761   6.210
 6548SOL    HW220544   0.877   2.710   6.094
 6549SOL     OW20545   5.227   6.624   2.239
 6549SOL    HW120546   5.181   6.700   2.285
 6549SOL    HW220547   5.173   6.541   2.251
 6550SOL     OW20548   6.510   6.933   3.073
 6550SOL    HW120549   6.486   7.005   3.138
 6550SOL    HW220550   6.609   6.933   3.058
 6551SOL     OW20551   3.119   3.582   1.494
 6551SOL    HW120552   3.023   3.612   1.502
 6551SOL    HW220553   3.133   3.500   1.549
 6552SOL     OW20554   2.222   6.833   0.573
 6552SOL    HW120555   2.286   6.845   0.649
 6552SOL    HW220556   2.136   6.795   0.606
 6553SOL     OW20557   6.958   1.292   2.681
 6553SOL    HW120558   0.015   1.351   2.673
 6553SOL    HW220559   6.931   1.261   2.590
 6554SOL     OW20560   2.993   1.023   4.637
 6554SOL    HW120561   2.908   1.065   4.667
 6554SOL    HW220562   2.974   0.937   4.591
 6555SOL     OW20563   6.351   2.153   4.858
 6555SOL    HW120564   6.272   2.164   4.797
 6555SOL    HW220565   6.346   2.221   4.931
 6556SOL     OW20566   6.115   3.273   3.270
 6556SOL    HW120567   6.136   3.355   3.216
 6556SOL    HW220568   6.074   3.204   3.210
 6557SOL     OW20569   1.301   6.745   2.441
 6557SOL    HW120570   1.361   6.721   2.365
 6557SOL    HW220571   1.206   6.741   2.411
 6558SOL     OW20572   5.922   5.268   0.380
 6558SOL    HW120573   5.977   5.341   0.420
 6558SOL    HW220574   5.952   5.180   0.415
 6559SOL     OW20575   0.018   3.696   6.509
 6559SOL    HW120576   6.977   3.671   6.581
 6559SOL    HW220577   0.099   3.739   6.549
 6560SOL     OW20578   4.260   4.692   0.628
 6560SOL    HW120579   4.272   4.680   0.727
 6560SOL    HW220580   4.308   4.775   0.599
 6561SOL     OW20581   4.053   5.036   0.417
 6561SOL    HW120582   4.026   5.053   0.512
 6561SOL    HW220583   4.076   5.124   0.374
 6562SOL     OW20584   5.535   2.464   0.797
 6562SOL    HW120585   5.503   2.507   0.882
 6562SOL    HW220586   5.527   2.528   0.721
 6563SOL     OW20587   5.382   6.927   5.529
 6563SOL    HW120588   5.436   6.954   5.449
 6563SOL    HW220589   5.311   6.995   5.546
 6564SOL     OW20590   6.981   3.709   2.338
 6564SOL    HW120591   6.967   3.675   2.431
 6564SOL    HW220592   0.049   3.683   2.307
 6565SOL     OW20593   6.442   6.464   2.463
 6565SOL    HW120594   6.408   6.550   2.500
 6565SOL    HW220595   6.388   6.440   2.382
 6566SOL     OW20596   3.850   5.505   2.405
 6566SOL    HW120597   3.784   5.509   2.330
 6566SOL    HW220598   3.887   5.596   2.422
 6567SOL     OW20599   4.374   0.790   1.602
 6567SOL    HW120600   4.360   0.700   1.643
 6567SOL    HW220601   4.459   0.790   1.549
 6568SOL     OW20602   4.120   1.510   1.907
 6568SOL    HW120603   4.142   1.577   1.978
 6568SOL    HW220604   4.040   1.541   1.856
 6569SOL     OW20605   0.878   2.939   5.771
 6569SOL    HW120606   0.836   2.923   5.681
 6569SOL    HW220607   0.973   2.968   5.758
 6570SOL     OW20608   3.985   7.002   1.962
 6570SOL    HW120609   3.892   7.008   1.998
 6570SOL    HW220610   4.025   0.069   1.956
 6571SOL     OW20611   2.329   4.800   3.669
 6571SOL    HW120612   2.352   4.881   3.723
 6571SOL    HW220613   2.386   4.723   3.699
 6572SOL     OW20614   0.139   4.836   3.749
 6572SOL    HW120615   0.086   4.914   3.782
 6572SOL    HW220616   0.083   4.782   3.686
 6573SOL     OW20617   1.664   1.145   3.013
 6573SOL    HW120618   1.726   1.066   3.009
 6573SOL    HW220619   1.607   1.137   3.095
 6574SOL     OW20620   2.118   6.534   3.033
 6574SOL    HW120621   2.020   6.552   3.022
 6574SOL    HW220622   2.170   6.616   3.009
 6575SOL     OW20623   6.969   0.333   2.739
 6575SOL    HW120624   0.013   0.260   2.735
 6575SOL    HW220625   6.895   0.312   2.674
 6576SOL     OW20626   3.638   4.991   0.136
 6576SOL    HW120627   3.727   5.018   0.101
 6576SOL    HW220628   3.648   4.956   0.229
 6577SOL     OW20629   1.909   2.740   3.888
 6577SOL    HW120630   1.826   2.701   3.928
 6577SOL    HW220631   1.980   2.745   3.958
 6578SOL     OW20632   1.273   5.128   1.094
 6578SOL    HW120633   1.285   5.031   1.074
 6578SOL    HW220634   1.266   5.179   1.009
 6579SOL     OW20635   6.892   1.093   3.658
 6579SOL    HW120636   6.805   1.107   3.705
 6579SOL    HW220637   6.961   1.153   3.698
 6580SOL     OW20638   1.150   0.440   0.171
 6580SOL    HW120639   1.235   0.395   0.144
 6580SOL    HW220640   1.166   0.538   0.179
 6581SOL     OW20641   1.669   1.615   0.284
 6581SOL    HW120642   1.614   1.582   0.208
 6581SOL    HW220643   1.614   1.675   0.342
 6582SOL     OW20644   6.539   0.237   2.889
 6582SOL    HW120645   6.522   0.141   2.866
 6582SOL    HW220646   6.511   0.294   2.812
 6583SOL     OW20647   4.372   0.036   6.073
 6583SOL    HW120648   4.406   0.130   6.084
 6583SOL    HW220649   4.314   0.031   5.992
 6584SOL     OW20650   3.858   2.589   0.986
 6584SOL    HW120651   3.790   2.588   1.060
 6584SOL    HW220652   3.939   2.537   1.014
 6585SOL     OW20653   6.518   0.041   0.722
 6585SOL    HW120654   6.535   6.982   0.777
 6585SOL    HW220655   6.441   0.091   0.761
 6586SOL     OW20656   6.356   2.288   6.101
 6586SOL    HW120657   6.421   2.220   6.136
 6586SOL    HW220658   6.353   2.366   6.164
 6587SOL     OW20659   1.421   4.425   5.436
 6587SOL    HW120660   1.368   4.508   5.417
 6587SOL    HW220661   1.500   4.448   5.492
 6588SOL     OW20662   0.347   3.345   0.660
 6588SOL    HW120663   0.296   3.421   0.700
 6588SOL    HW220664   0.283   3.274   0.629
 6589SOL     OW20665   6.350   1.203   1.408
 6589SOL    HW120666   6.443   1.207   1.371
 6589SOL    HW220667   6.348   1.137   1.484
 6590SOL     OW20668   0.785   0.733   5.218
 6590SOL    HW120669   0.702   0.686   5.247
 6590SOL    HW220670   0.844   0.670   5.168
 6591SOL     OW20671   5.114   5.474   4.512
 6591SOL    HW120672   5.147   5.397   4.457
 6591SOL    HW220673   5.088   5.549   4.451
 6592SOL     OW20674   4.946   0.220   3.281
 6592SOL    HW120675   4.985   0.299   3.329
 6592SOL    HW220676   4.968   0.227   3.184
 6593SOL     OW20677   2.803   2.190   2.268
 6593SOL    HW120678   2.756   2.230   2.347
 6593SOL    HW220679   2.845   2.263   2.215
 6594SOL     OW20680   3.690   1.648   5.890
 6594SOL    HW120681   3.718   1.742   5.877
 6594SOL    HW220682   3.770   1.589   5.891
 6595SOL     OW20683   2.137   2.391   4.712
 6595SOL    HW120684   2.104   2.351   4.626
 6595SOL    HW220685   2.162   2.318   4.775
 6596SOL     OW20686   5.222   5.463   2.627
 6596SOL    HW120687   5.258   5.514   2.705
 6596SOL    HW220688   5.123   5.478   2.620
 6597SOL     OW20689   1.112   5.175   1.334
 6597SOL    HW120690   1.175   5.165   1.412
 6597SOL    HW220691   1.160   5.150   1.250
 6598SOL     OW20692   1.893   4.610   4.087
 6598SOL    HW120693   1.795   4.628   4.080
 6598SOL    HW220694   1.908   4.527   4.142
 6599SOL     OW20695   5.716   5.886   6.650
 6599SOL    HW120696   5.798   5.910   6.598
 6599SOL    HW220697   5.677   5.969   6.690
 6600SOL     OW20698   4.794   0.853   5.356
 6600SOL    HW120699   4.719   0.827   5.417
 6600SOL    HW220700   4.819   0.948   5.374
 6601SOL     OW20701   1.072   2.827   3.131
 6601SOL    HW120702   1.091   2.779   3.217
 6601SOL    HW220703   0.973   2.838   3.120
 6602SOL     OW20704   2.607   0.054   1.376
 6602SOL    HW120705   2.684   0.020   1.321
 6602SOL    HW220706   2.527   7.021   1.360
 6603SOL     OW20707   0.531   3.275   4.323
 6603SOL    HW120708   0.629   3.291   4.338
 6603SOL    HW220709   0.518   3.211   4.248
 6604SOL     OW20710   2.458   0.376   1.971
 6604SOL    HW120711   2.388   0.334   2.028
 6604SOL    HW220712   2.519   0.431   2.028
 6605SOL     OW20713   6.004   5.756   1.909
 6605SOL    HW120714   5.986   5.717   2.000
 6605SOL    HW220715   5.999   5.684   1.840
 6606SOL     OW20716   1.300   4.115   3.236
 6606SOL    HW120717   1.377   4.086   3.292
 6606SOL    HW220718   1.269   4.038   3.180
 6607SOL     OW20719   5.916   4.628   4.334
 6607SOL    HW120720   5.905   4.725   4.313
 6607SOL    HW220721   6.000   4.615   4.387
 6608SOL     OW20722   6.832   6.856   0.018
 6608SOL    HW120723   6.791   6.897   6.960
 6608SOL    HW220724   6.849   6.927   0.086
 6609SOL     OW20725   4.823   1.994   5.994
 6609SOL    HW120726   4.823   2.088   6.027
 6609SOL    HW220727   4.789   1.933   6.066
 6610SOL     OW20728   2.511   5.948   0.529
 6610SOL    HW120729   2.552   5.907   0.611
 6610SOL    HW220730   2.425   5.993   0.554
 6611SOL     OW20731   4.946   2.492   3.517
 6611SOL    HW120732   4.940   2.585   3.481
 6611SOL    HW220733   4.968   2.495   3.615
 6612SOL     OW20734   6.091   2.161   6.070
 6612SOL    HW120735   6.185   2.194   6.079
 6612SOL    HW220736   6.091   2.072   6.026
 6613SOL     OW20737   5.299   0.844   6.308
 6613SOL    HW120738   5.390   0.846   6.267
 6613SOL    HW220739   5.300   0.786   6.390
 6614SOL     OW20740   4.518   5.950   1.670
 6614SOL    HW120741   4.508   6.022   1.602
 6614SOL    HW220742   4.564   5.987   1.751
 6615SOL     OW20743   3.092   5.657   0.320
 6615SOL    HW120744   3.084   5.747   0.277
 6615SOL    HW220745   3.003   5.628   0.355
 6616SOL     OW20746   4.252   0.475   6.130
 6616SOL    HW120747   4.324   0.476   6.060
 6616SOL    HW220748   4.273   0.543   6.200
 6617SOL     OW20749   3.940   0.426   3.373
 6617SOL    HW120750   3.998   0.355   3.413
 6617SOL    HW220751   3.993   0.510   3.363
 6618SOL     OW20752   0.781   1.519   3.163
 6618SOL    HW120753   0.752   1.613   3.148
 6618SOL    HW220754   0.722   1.456   3.113
 6619SOL     OW20755   4.473   0.094   4.044
 6619SOL    HW120756   4.467   0.026   4.117
 6619SOL    HW220757   4.444   0.053   3.957
 6620SOL     OW20758   1.035   3.920   3.728
 6620SOL    HW120759   1.090   3.917   3.812
 6620SOL    HW220760   0.994   4.011   3.718
 6621SOL     OW20761   3.499   3.048   4.736
 6621SOL    HW120762   3.405   3.052   4.702
 6621SOL    HW220763   3.543   3.137   4.723
 6622SOL     OW20764   6.233   5.683   0.940
 6622SOL    HW120765   6.290   5.707   1.018
 6622SOL    HW220766   6.195   5.766   0.900
 6623SOL     OW20767   3.378   4.092   5.265
 6623SOL    HW120768   3.433   4.115   5.184
 6623SOL    HW220769   3.281   4.102   5.244
 6624SOL     OW20770   0.955   2.447   4.855
 6624SOL    HW120771   1.014   2.476   4.780
 6624SOL    HW220772   0.866   2.493   4.848
 6625SOL     OW20773   6.138   3.182   5.815
 6625SOL    HW120774   6.151   3.087   5.788
 6625SOL    HW220775   6.170   3.242   5.742
 6626SOL     OW20776   2.768   0.190   4.621
 6626SOL    HW120777   2.798   0.120   4.686
 6626SOL    HW220778   2.846   0.245   4.592
 6627SOL     OW20779   1.327   5.993   4.500
 6627SOL    HW120780   1.407   6.051   4.511
 6627SOL    HW220781   1.339   5.909   4.552
 6628SOL     OW20782   4.953   5.720   4.081
 6628SOL    HW120783   5.015   5.796   4.063
 6628SOL    HW220784   4.979   5.641   4.025
 6629SOL     OW20785   4.876   5.747   6.744
 6629SOL    HW120786   4.951   5.680   6.743
 6629SOL    HW220787   4.869   5.790   6.654
 6630SOL     OW20788   2.807   1.219   2.076
 6630SOL    HW120789   2.736   1.283   2.045
 6630SOL    HW220790   2.887   1.227   2.016
 6631SOL     OW20791   1.183   5.421   5.677
 6631SOL    HW120792   1.106   5.386   5.625
 6631SOL    HW220793   1.236   5.344   5.714
 6632SOL     OW20794   1.231   0.602   1.200
 6632SOL    HW120795   1.266   0.692   1.173
 6632SOL    HW220796   1.297   0.558   1.261
 6633SOL     OW20797   2.951   5.122   6.201
 6633SOL    HW120798   2.958   5.084   6.293
 6633SOL    HW220799   2.977   5.218   6.203
 6634SOL     OW20800   5.269   2.040   5.803
 6634SOL    HW120801   5.324   2.111   5.847
 6634SOL    HW220802   5.180   2.078   5.778
 6635SOL     OW20803   4.607   4.576   2.750
 6635SOL    HW120804   4.540   4.649   2.742
 6635SOL    HW220805   4.680   4.604   2.812
 6636SOL     OW20806   2.862   0.218   2.442
 6636SOL    HW120807   2.775   0.233   2.395
 6636SOL    HW220808   2.924   0.168   2.382
 6637SOL     OW20809   1.771   0.562   0.870
 6637SOL    HW120810   1.785   0.642   0.813
 6637SOL    HW220811   1.710   0.585   0.946
 6638SOL     OW20812   3.122   3.941   3.602
 6638SOL    HW120813   3.172   3.943   3.516
 6638SOL    HW220814   3.067   3.858   3.608
 6639SOL     OW20815   4.351   2.622   0.558
 6639SOL    HW120816   4.285   2.628   0.632
 6639SOL    HW220817   4.351   2.529   0.521
 6640SOL     OW20818   0.408   2.636   5.201
 6640SOL    HW120819   0.372   2.570   5.135
 6640SOL    HW220820   0.428   2.590   5.287
 6641SOL     OW20821   4.339   1.769   0.844
 6641SOL    HW120822   4.357   1.679   0.802
 6641SOL    HW220823   4.257   1.764   0.900
 6642SOL     OW20824   1.966   5.307   0.721
 6642SOL    HW120825   1.880   5.346   0.754
 6642SOL    HW220826   1.949   5.252   0.640
 6643SOL     OW20827   5.435   6.510   0.254
 6643SOL    HW120828   5.409   6.535   0.348
 6643SOL    HW220829   5.420   6.588   0.194
 6644SOL     OW20830   1.979   6.582   2.481
 6644SOL    HW120831   2.059   6.596   2.539
 6644SOL    HW220832   1.911   6.528   2.530
 6645SOL     OW20833   6.071   2.831   0.719
 6645SOL    HW120834   6.054   2.770   0.796
 6645SOL    HW220835   6.041   2.787   0.634
 6646SOL     OW20836   4.233   1.166   0.214
 6646SOL    HW120837   4.280   1.094   0.162
 6646SOL    HW220838   4.147   1.130   0.250
 6647SOL     OW20839   4.850   5.353   1.137
 6647SOL    HW120840   4.927   5.347   1.073
 6647SOL    HW220841   4.823   5.261   1.166
 6648SOL     OW20842   3.564   6.511   4.483
 6648SOL    HW120843   3.468   6.515   4.455
 6648SOL    HW220844   3.571   6.461   4.570
 6649SOL     OW20845   5.832   2.856   6.573
 6649SOL    HW120846   5.814   2.758   6.573
 6649SOL    HW220847   5.930   2.872   6.571
 6650SOL     OW20848   3.975   1.122   5.372
 6650SOL    HW120849   3.971   1.079   5.462
 6650SOL    HW220850   4.033   1.203   5.376
 6651SOL     OW20851   1.093   1.812   0.068
 6651SOL    HW120852   1.165   1.780   0.130
 6651SOL    HW220853   1.027   1.867   0.119
 6652SOL     OW20854   0.894   4.344   0.095
 6652SOL    HW120855   0.796   4.332   0.108
 6652SOL    HW220856   0.911   4.395   0.010
 6653SOL     OW20857   4.845   2.989   0.335
 6653SOL    HW120858   4.803   2.923   0.272
 6653SOL    HW220859   4.784   3.067   0.347
 6654SOL     OW20860   0.420   4.818   2.963
 6654SOL    HW120861   0.370   4.751   2.907
 6654SOL    HW220862   0.355   4.886   2.998
 6655SOL     OW20863   6.839   5.406   2.036
 6655SOL    HW120864   6.812   5.321   1.992
 6655SOL    HW220865   6.814   5.484   1.978
 6656SOL     OW20866   4.231   1.525   2.659
 6656SOL    HW120867   4.331   1.531   2.662
 6656SOL    HW220868   4.204   1.453   2.595
 6657SOL     OW20869   5.327   2.309   4.714
 6657SOL    HW120870   5.258   2.367   4.757
 6657SOL    HW220871   5.379   2.363   4.647
 6658SOL     OW20872   6.457   0.274   5.307
 6658SOL    HW120873   6.422   0.181   5.293
 6658SOL    HW220874   6.385   0.331   5.346
 6659SOL     OW20875   1.579   5.106   1.742
 6659SOL    HW120876   1.668   5.114   1.698
 6659SOL    HW220877   1.572   5.173   1.816
 6660SOL     OW20878   1.453   5.484   2.665
 6660SOL    HW120879   1.456   5.558   2.732
 6660SOL    HW220880   1.408   5.518   2.582
 6661SOL     OW20881   2.854   6.797   4.246
 6661SOL    HW120882   2.809   6.715   4.210
 6661SOL    HW220883   2.893   6.777   4.336
 6662SOL     OW20884   2.063   0.361   1.840
 6662SOL    HW120885   2.086   0.454   1.811
 6662SOL    HW220886   2.126   0.296   1.796
 6663SOL     OW20887   1.369   5.809   6.232
 6663SOL    HW120888   1.315   5.856   6.161
 6663SOL    HW220889   1.310   5.744   6.280
 6664SOL     OW20890   2.238   0.592   2.106
 6664SOL    HW120891   2.256   0.588   2.008
 6664SOL    HW220892   2.278   0.676   2.144
 6665SOL     OW20893   3.066   6.907   5.915
 6665SOL    HW120894   3.132   6.973   5.951
 6665SOL    HW220895   3.091   6.883   5.822
 6666SOL     OW20896   6.396   5.574   4.838
 6666SOL    HW120897   6.379   5.668   4.867
 6666SOL    HW220898   6.329   5.548   4.768
 6667SOL     OW20899   0.269   6.578   5.542
 6667SOL    HW120900   0.309   6.506   5.598
 6667SOL    HW220901   0.227   6.646   5.601
 6668SOL     OW20902   6.864   6.082   1.575
 6668SOL    HW120903   6.866   6.125   1.485
 6668SOL    HW220904   6.880   6.152   1.645
 6669SOL     OW20905   2.823   1.507   2.102
 6669SOL    HW120906   2.755   1.498   2.029
 6669SOL    HW220907   2.782   1.557   2.179
 6670SOL     OW20908   2.869   1.705   0.096
 6670SOL    HW120909   2.799   1.771   0.067
 6670SOL    HW220910   2.958   1.750   0.097
 6671SOL     OW20911   4.820   6.456   0.563
 6671SOL    HW120912   4.820   6.549   0.599
 6671SOL    HW220913   4.885   6.400   0.615
 6672SOL     OW20914   1.476   2.675   0.350
 6672SOL    HW120915   1.550   2.724   0.304
 6672SOL    HW220916   1.510   2.638   0.437
 6673SOL     OW20917   5.371   3.409   3.978
 6673SOL    HW120918   5.455   3.410   3.923
 6673SOL    HW220919   5.292   3.416   3.917
 6674SOL     OW20920   0.679   2.968   6.492
 6674SOL    HW120921   0.755   3.022   6.527
 6674SOL    HW220922   0.653   3.001   6.402
 6675SOL     OW20923   4.397   2.313   6.976
 6675SOL    HW120924   4.361   2.265   6.896
 6675SOL    HW220925   4.336   2.298   0.030
 6676SOL     OW20926   1.742   4.202   3.047
 6676SOL    HW120927   1.695   4.173   3.130
 6676SOL    HW220928   1.711   4.147   2.969
 6677SOL     OW20929   0.830   0.932   6.962
 6677SOL    HW120930   0.796   0.954   0.029
 6677SOL    HW220931   0.761   0.958   6.894
 6678SOL     OW20932   1.737   3.731   0.663
 6678SOL    HW120933   1.679   3.650   0.655
 6678SOL    HW220934   1.815   3.710   0.720
 6679SOL     OW20935   2.993   0.875   3.792
 6679SOL    HW120936   3.065   0.894   3.726
 6679SOL    HW220937   3.006   0.933   3.873
 6680SOL     OW20938   4.522   6.914   0.316
 6680SOL    HW120939   4.536   6.874   0.407
 6680SOL    HW220940   4.607   6.958   0.286
 6681SOL     OW20941   4.877   5.401   1.600
 6681SOL    HW120942   4.892   5.455   1.517
 6681SOL    HW220943   4.850   5.308   1.575
 6682SOL     OW20944   2.787   4.992   6.909
 6682SOL    HW120945   2.866   4.987   6.969
 6682SOL    HW220946   2.804   4.938   6.826
 6683SOL     OW20947   6.215   3.480   6.587
 6683SOL    HW120948   6.141   3.508   6.526
 6683SOL    HW220949   6.203   3.524   6.676
 6684SOL     OW20950   3.469   0.113   1.430
 6684SOL    HW120951   3.491   0.052   1.353
 6684SOL    HW220952   3.552   0.129   1.484
 6685SOL     OW20953   3.977   3.388   6.585
 6685SOL    HW120954   4.045   3.379   6.512
 6685SOL    HW220955   3.910   3.314   6.578
 6686SOL     OW20956   6.133   5.424   3.652
 6686SOL    HW120957   6.171   5.445   3.562
 6686SOL    HW220958   6.130   5.508   3.707
 6687SOL     OW20959   6.609   2.250   1.166
 6687SOL    HW120960   6.607   2.276   1.262
 6687SOL    HW220961   6.545   2.174   1.151
 6688SOL     OW20962   4.260   4.163   0.788
 6688SOL    HW120963   4.306   4.252   0.798
 6688SOL    HW220964   4.189   4.154   0.858
 6689SOL     OW20965   3.979   4.118   5.862
 6689SOL    HW120966   3.941   4.048   5.803
 6689SOL    HW220967   4.007   4.197   5.807
 6690SOL     OW20968   1.309   0.877   6.320
 6690SOL    HW120969   1.317   0.859   6.222
 6690SOL    HW220970   1.270   0.797   6.365
 6691SOL     OW20971   1.695   1.105   2.551
 6691SOL    HW120972   1.645   1.022   2.525
 6691SOL    HW220973   1.653   1.145   2.631
 6692SOL     OW20974   4.282   4.588   1.671
 6692SOL    HW120975   4.360   4.643   1.642
 6692SOL    HW220976   4.262   4.518   1.602
 6693SOL     OW20977   4.729   1.858   4.721
 6693SOL    HW120978   4.825   1.888   4.719
 6693SOL    HW220979   4.705   1.830   4.814
 6694SOL     OW20980   3.575   5.439   1.421
 6694SOL    HW120981   3.507   5.502   1.384
 6694SOL    HW220982   3.634   5.488   1.486
 6695SOL     OW20983   2.926   2.329   0.307
 6695SOL    HW120984   2.944   2.421   0.273
 6695SOL    HW220985   2.846   2.331   0.367
 6696SOL     OW20986   4.063   3.740   3.609
 6696SOL    HW120987   4.008   3.806   3.660
 6696SOL    HW220988   4.002   3.678   3.559
 6697SOL     OW20989   5.434   2.124   2.588
 6697SOL    HW120990   5.336   2.140   2.603
 6697SOL    HW220991   5.480   2.118   2.677
 6698SOL     OW20992   3.373   3.556   1.458
 6698SOL    HW120993   3.273   3.564   1.457
 6698SOL    HW220994   3.413   3.648   1.461
 6699SOL     OW20995   1.875   5.679   6.105
 6699SOL    HW120996   1.873   5.778   6.091
 6699SOL    HW220997   1.783   5.647   6.127
 6700SOL     OW20998   5.697   0.166   0.712
 6700SOL    HW120999   5.724   0.135   0.621
 6700SOL    HW221000   5.729   0.260   0.725
 6701SOL     OW21001   6.300   7.023   1.462
 6701SOL    HW121002   6.286   7.023   1.561
 6701SOL    HW221003   6.361   6.947   1.437
 6702SOL     OW21004   1.957   1.874   1.174
 6702SOL    HW121005   1.931   1.782   1.143
 6702SOL    HW221006   2.056   1.879   1.183
 6703SOL     OW21007   1.244   1.391   6.617
 6703SOL    HW121008   1.324   1.378   6.674
 6703SOL    HW221009   1.273   1.408   6.522
 6704SOL     OW21010   3.473   1.624   4.302
 6704SOL    HW121011   3.510   1.538   4.338
 6704SOL    HW221012   3.375   1.613   4.284
 6705SOL     OW21013   6.121   3.240   1.167
 6705SOL    HW121014   6.050   3.186   1.212
 6705SOL    HW221015   6.114   3.335   1.196
 6706SOL     OW21016   1.408   6.171   0.891
 6706SOL    HW121017   1.483   6.221   0.847
 6706SOL    HW221018   1.426   6.166   0.990
 6707SOL     OW21019   5.806   0.365   2.384
 6707SOL    HW121020   5.707   0.375   2.399
 6707SOL    HW221021   5.841   0.449   2.341
 6708SOL     OW21022   6.227   4.598   1.572
 6708SOL    HW121023   6.146   4.654   1.592
 6708SOL    HW221024   6.268   4.627   1.486
 6709SOL     OW21025   1.018   4.102   2.118
 6709SOL    HW121026   0.995   4.198   2.131
 6709SOL    HW221027   1.086   4.074   2.187
 6710SOL     OW21028   4.788   1.169   1.863
 6710SOL    HW121029   4.738   1.236   1.917
 6710SOL    HW221030   4.883   1.200   1.851
 6711SOL     OW21031   4.812   6.402   6.133
 6711SOL    HW121032   4.880   6.345   6.087
 6711SOL    HW221033   4.732   6.346   6.156
 6712SOL     OW21034   6.392   3.646   0.397
 6712SOL    HW121035   6.392   3.672   0.493
 6712SOL    HW221036   6.306   3.674   0.354
 6713SOL     OW21037   1.182   0.879   3.523
 6713SOL    HW121038   1.264   0.924   3.558
 6713SOL    HW221039   1.167   0.794   3.574
 6714SOL     OW21040   6.022   1.388   0.950
 6714SOL    HW121041   6.000   1.412   1.044
 6714SOL    HW221042   6.048   1.470   0.900
 6715SOL     OW21043   1.844   0.761   1.435
 6715SOL    HW121044   1.780   0.729   1.504
 6715SOL    HW221045   1.798   0.824   1.373
 6716SOL     OW21046   6.382   5.506   2.268
 6716SOL    HW121047   6.455   5.462   2.217
 6716SOL    HW221048   6.307   5.530   2.206
 6717SOL     OW21049   3.052   2.720   6.471
 6717SOL    HW121050   3.066   2.621   6.464
 6717SOL    HW221051   3.068   2.749   6.566
 6718SOL     OW21052   4.493   1.452   1.385
 6718SOL    HW121053   4.510   1.389   1.310
 6718SOL    HW221054   4.394   1.469   1.393
 6719SOL     OW21055   1.848   6.775   0.156
 6719SOL    HW121056   1.861   6.804   0.251
 6719SOL    HW221057   1.934   6.783   0.106
 6720SOL     OW21058   2.950   0.713   5.542
 6720SOL    HW121059   2.953   0.698   5.443
 6720SOL    HW221060   2.925   0.808   5.560
 6721SOL     OW21061   0.302   0.444   0.279
 6721SOL    HW121062   0.300   0.349   0.308
 6721SOL    HW221063   0.383   0.488   0.318
 6722SOL     OW21064   0.215   2.930   0.301
 6722SOL    HW121065   0.272   2.940   0.219
 6722SOL    HW221066   0.269   2.889   0.374
 6723SOL     OW21067   2.022   0.766   6.617
 6723SOL    HW121068   2.041   0.729   6.708
 6723SOL    HW221069   2.070   0.853   6.606
 6724SOL     OW21070   2.418   2.701   6.332
 6724SOL    HW121071   2.458   2.768   6.270
 6724SOL    HW221072   2.441   2.608   6.301
 6725SOL     OW21073   5.956   3.047   3.177
 6725SOL    HW121074   5.929   3.032   3.273
 6725SOL    HW221075   5.940   2.963   3.125
 6726SOL     OW21076   0.594   1.660   5.068
 6726SOL    HW121077   0.627   1.595   5.000
 6726SOL    HW221078   0.553   1.610   5.145
 6727SOL     OW21079   0.935   4.889   5.346
 6727SOL    HW121080   0.907   4.836   5.267
 6727SOL    HW221081   0.983   4.972   5.316
 6728SOL     OW21082   4.043   2.038   3.793
 6728SOL    HW121083   3.976   1.964   3.784
 6728SOL    HW221084   4.052   2.087   3.706
 6729SOL     OW21085   6.171   2.417   0.531
 6729SOL    HW121086   6.136   2.419   0.624
 6729SOL    HW221087   6.205   2.508   0.506
 6730SOL     OW21088   1.309   0.918   1.734
 6730SOL    HW121089   1.345   0.942   1.824
 6730SOL    HW221090   1.361   0.966   1.663
 6731SOL     OW21091   1.818   6.433   1.322
 6731SOL    HW121092   1.804   6.437   1.421
 6731SOL    HW221093   1.915   6.417   1.303
 6732SOL     OW21094   5.290   4.250   4.291
 6732SOL    HW121095   5.202   4.214   4.257
 6732SOL    HW221096   5.274   4.312   4.368
 6733SOL     OW21097   3.792   5.422   6.758
 6733SOL    HW121098   3.875   5.391   6.804
 6733SOL    HW221099   3.773   5.517   6.784
 6734SOL     OW21100   4.955   2.332   5.254
 6734SOL    HW121101   4.903   2.414   5.234
 6734SOL    HW221102   5.043   2.336   5.207
 6735SOL     OW21103   6.248   3.984   4.464
 6735SOL    HW121104   6.288   3.996   4.373
 6735SOL    HW221105   6.203   3.895   4.469
 6736SOL     OW21106   3.014   4.284   0.436
 6736SOL    HW121107   2.968   4.220   0.375
 6736SOL    HW221108   3.091   4.326   0.387
 6737SOL     OW21109   0.956   2.934   1.149
 6737SOL    HW121110   0.975   2.857   1.209
 6737SOL    HW221111   0.857   2.947   1.141
 6738SOL     OW21112   1.217   5.718   3.679
 6738SOL    HW121113   1.316   5.719   3.670
 6738SOL    HW221114   1.180   5.634   3.640
 6739SOL     OW21115   6.734   6.187   2.950
 6739SOL    HW121116   6.636   6.173   2.936
 6739SOL    HW221117   6.777   6.100   2.977
 6740SOL     OW21118   6.374   6.586   4.358
 6740SOL    HW121119   6.387   6.646   4.279
 6740SOL    HW221120   6.343   6.640   4.436
 6741SOL     OW21121   4.517   2.274   6.026
 6741SOL    HW121122   4.527   2.209   6.102
 6741SOL    HW221123   4.430   2.258   5.980
 6742SOL     OW21124   5.715   5.393   3.612
 6742SOL    HW121125   5.779   5.320   3.589
 6742SOL    HW221126   5.659   5.414   3.532
 6743SOL     OW21127   4.016   4.343   6.399
 6743SOL    HW121128   3.981   4.333   6.306
 6743SOL    HW221129   3.945   4.318   6.465
 6744SOL     OW21130   6.863   5.993   5.867
 6744SOL    HW121131   6.899   5.940   5.944
 6744SOL    HW221132   6.931   5.994   5.794
 6745SOL     OW21133   0.000   6.165   3.522
 6745SOL    HW121134   0.025   6.261   3.520
 6745SOL    HW221135   6.974   6.145   3.607
 6746SOL     OW21136   1.867   1.145   2.341
 6746SOL    HW121137   1.826   1.227   2.301
 6746SOL    HW221138   1.828   1.130   2.432
 6747SOL     OW21139   6.455   6.466   6.256
 6747SOL    HW121140   6.387   6.534   6.285
 6747SOL    HW221141   6.504   6.433   6.336
 6748SOL     OW21142   2.559   1.796   3.739
 6748SOL    HW121143   2.604   1.709   3.721
 6748SOL    HW221144   2.590   1.864   3.672
 6749SOL     OW21145   3.751   4.098   1.060
 6749SOL    HW121146   3.702   4.021   1.102
 6749SOL    HW221147   3.827   4.062   1.006
 6750SOL     OW21148   2.621   1.730   4.013
 6750SOL    HW121149   2.609   1.767   3.921
 6750SOL    HW221150   2.579   1.791   4.080
 6751SOL     OW21151   4.373   0.447   3.553
 6751SOL    HW121152   4.416   0.534   3.577
 6751SOL    HW221153   4.357   0.445   3.454
 6752SOL     OW21154   1.482   0.021   3.666
 6752SOL    HW121155   1.450   0.014   3.571
 6752SOL    HW221156   1.497   6.953   3.703
 6753SOL     OW21157   3.584   2.249   5.771
 6753SOL    HW121158   3.661   2.271   5.831
 6753SOL    HW221159   3.612   2.259   5.676
 6754SOL     OW21160   5.921   0.786   1.095
 6754SOL    HW121161   5.904   0.846   1.017
 6754SOL    HW221162   5.926   0.840   1.179
 6755SOL     OW21163   3.266   4.674   1.201
 6755SOL    HW121164   3.290   4.593   1.254
 6755SOL    HW221165   3.167   4.689   1.205
 6756SOL     OW21166   3.519   0.633   5.972
 6756SOL    HW121167   3.520   0.571   5.894
 6756SOL    HW221168   3.605   0.685   5.974
 6757SOL     OW21169   4.205   1.748   1.377
 6757SOL    HW121170   4.125   1.791   1.335
 6757SOL    HW221171   4.201   1.649   1.362
 6758SOL     OW21172   5.717   3.161   1.499
 6758SOL    HW121173   5.632   3.109   1.496
 6758SOL    HW221174   5.780   3.119   1.564
 6759SOL     OW21175   6.816   2.908   3.095
 6759SOL    HW121176   6.726   2.896   3.137
 6759SOL    HW221177   6.886   2.911   3.166
 6760SOL     OW21178   6.260   3.811   2.608
 6760SOL    HW121179   6.192   3.810   2.681
 6760SOL    HW221180   6.351   3.797   2.648
 6761SOL     OW21181   5.180   2.671   4.653
 6761SOL    HW121182   5.084   2.671   4.683
 6761SOL    HW221183   5.211   2.765   4.639
 6762SOL     OW21184   0.536   4.318   4.240
 6762SOL    HW121185   0.535   4.231   4.289
 6762SOL    HW221186   0.529   4.393   4.305
 6763SOL     OW21187   5.486   5.521   5.203
 6763SOL    HW121188   5.523   5.433   5.231
 6763SOL    HW221189   5.550   5.566   5.140
 6764SOL     OW21190   2.290   5.838   2.476
 6764SOL    HW121191   2.221   5.837   2.403
 6764SOL    HW221192   2.370   5.786   2.447
 6765SOL     OW21193   6.354   4.252   3.703
 6765SOL    HW121194   6.437   4.226   3.752
 6765SOL    HW221195   6.274   4.212   3.748
 6766SOL     OW21196   4.545   5.863   6.310
 6766SOL    HW121197   4.542   5.822   6.401
 6766SOL    HW221198   4.590   5.800   6.247
 6767SOL     OW21199   3.536   0.485   0.810
 6767SOL    HW121200   3.614   0.423   0.800
 6767SOL    HW221201   3.452   0.438   0.781
 6768SOL     OW21202   2.297   0.685   5.654
 6768SOL    HW121203   2.382   0.636   5.632
 6768SOL    HW221204   2.235   0.623   5.703
 6769SOL     OW21205   3.139   2.242   1.011
 6769SOL    HW121206   3.055   2.191   1.030
 6769SOL    HW221207   3.193   2.193   0.943
 6770SOL     OW21208   0.046   0.709   1.804
 6770SOL    HW121209   0.039   0.808   1.820
 6770SOL    HW221210   0.104   0.669   1.875
 6771SOL     OW21211   4.566   2.459   3.224
 6771SOL    HW121212   4.589   2.379   3.168
 6771SOL    HW221213   4.470   2.453   3.254
 6772SOL     OW21214   3.404   0.952   3.410
 6772SOL    HW121215   3.401   0.856   3.382
 6772SOL    HW221216   3.498   0.987   3.401
 6773SOL     OW21217   6.721   5.078   1.406
 6773SOL    HW121218   6.736   5.174   1.430
 6773SOL    HW221219   6.717   5.069   1.306
 6774SOL     OW21220   0.769   2.710   5.911
 6774SOL    HW121221   0.676   2.746   5.920
 6774SOL    HW221222   0.821   2.766   5.847
 6775SOL     OW21223   2.476   3.234   1.722
 6775SOL    HW121224   2.573   3.216   1.739
 6775SOL    HW221225   2.445   3.308   1.782
 6776SOL     OW21226   4.410   4.395   0.087
 6776SOL    HW121227   4.508   4.373   0.089
 6776SOL    HW221228   4.374   4.377   7.019
 6777SOL     OW21229   4.180   4.123   6.752
 6777SOL    HW121230   4.134   4.089   6.670
 6777SOL    HW221231   4.234   4.050   6.792
 6778SOL     OW21232   6.714   4.675   2.009
 6778SOL    HW121233   6.675   4.651   2.098
 6778SOL    HW221234   6.645   4.725   1.955
 6779SOL     OW21235   6.817   4.434   5.767
 6779SOL    HW121236   6.872   4.510   5.732
 6779SOL    HW221237   6.862   4.394   5.847
 6780SOL     OW21238   0.724   2.208   2.995
 6780SOL    HW121239   0.681   2.228   2.906
 6780SOL    HW221240   0.762   2.293   3.033
 6781SOL     OW21241   5.552   0.181   4.864
 6781SOL    HW121242   5.537   0.160   4.767
 6781SOL    HW221243   5.592   0.102   4.910
 6782SOL     OW21244   6.995   0.235   3.007
 6782SOL    HW121245   6.977   0.282   2.921
 6782SOL    HW221246   6.908   0.208   3.049
 6783SOL     OW21247   6.693   0.679   6.452
 6783SOL    HW121248   6.685   0.698   6.550
 6783SOL    HW221249   6.720   0.583   6.440
 6784SOL     OW21250   3.308   3.720   0.555
 6784SOL    HW121251   3.303   3.623   0.577
 6784SOL    HW221252   3.218   3.754   0.530
 6785SOL     OW21253   5.138   4.425   2.692
 6785SOL    HW121254   5.082   4.348   2.662
 6785SOL    HW221255   5.180   4.403   2.780
 6786SOL     OW21256   1.362   1.740   0.207
 6786SOL    HW121257   1.373   1.644   0.182
 6786SOL    HW221258   1.435   1.794   0.165
 6787SOL     OW21259   1.621   2.596   0.585
 6787SOL    HW121260   1.556   2.662   0.622
 6787SOL    HW221261   1.707   2.600   0.635
 6788SOL     OW21262   2.483   3.577   1.623
 6788SOL    HW121263   2.467   3.675   1.633
 6788SOL    HW221264   2.446   3.528   1.702
 6789SOL     OW21265   0.130   6.630   2.892
 6789SOL    HW121266   0.117   6.568   2.969
 6789SOL    HW221267   0.066   6.707   2.900
 6790SOL     OW21268   0.824   4.275   0.710
 6790SOL    HW121269   0.757   4.201   0.713
 6790SOL    HW221270   0.853   4.289   0.615
 6791SOL     OW21271   3.984   2.612   1.499
 6791SOL    HW121272   4.033   2.640   1.581
 6791SOL    HW221273   3.904   2.670   1.487
 6792SOL     OW21274   6.704   5.910   5.653
 6792SOL    HW121275   6.760   5.933   5.733
 6792SOL    HW221276   6.730   5.820   5.618
 6793SOL     OW21277   0.904   2.216   0.102
 6793SOL    HW121278   0.851   2.253   0.026
 6793SOL    HW221279   0.988   2.269   0.113
 6794SOL     OW21280   5.159   1.480   5.370
 6794SOL    HW121281   5.093   1.465   5.444
 6794SOL    HW221282   5.194   1.573   5.375
 6795SOL     OW21283   2.541   6.265   0.852
 6795SOL    HW121284   2.484   6.279   0.771
 6795SOL    HW221285   2.484   6.243   0.930
 6796SOL     OW21286   6.266   0.816   2.670
 6796SOL    HW121287   6.341   0.792   2.732
 6796SOL    HW221288   6.202   0.739   2.665
 6797SOL     OW21289   5.261   3.449   1.525
 6797SOL    HW121290   5.242   3.364   1.477
 6797SOL    HW221291   5.316   3.430   1.606
 6798SOL     OW21292   5.553   6.160   2.844
 6798SOL    HW121293   5.567   6.256   2.869
 6798SOL    HW221294   5.495   6.155   2.762
 6799SOL     OW21295   6.767   6.075   0.066
 6799SOL    HW121296   6.841   6.017   0.100
 6799SOL    HW221297   6.782   6.170   0.096
 6800SOL     OW21298   2.172   4.231   1.142
 6800SOL    HW121299   2.251   4.190   1.188
 6800SOL    HW221300   2.095   4.234   1.205
 6801SOL     OW21301   1.124   0.945   2.728
 6801SOL    HW121302   1.092   0.934   2.822
 6801SOL    HW221303   1.149   1.041   2.712
 6802SOL     OW21304   3.105   6.166   0.359
 6802SOL    HW121305   3.061   6.195   0.274
 6802SOL    HW221306   3.205   6.171   0.349
 6803SOL     OW21307   4.917   2.675   6.440
 6803SOL    HW121308   4.945   2.622   6.519
 6803SOL    HW221309   4.951   2.632   6.356
 6804SOL     OW21310   2.749   5.492   3.691
 6804SOL    HW121311   2.778   5.406   3.733
 6804SOL    HW221312   2.785   5.498   3.598
 6805SOL     OW21313   5.582   5.822   5.204
 6805SOL    HW121314   5.655   5.815   5.273
 6805SOL    HW221315   5.586   5.743   5.144
 6806SOL     OW21316   5.638   0.902   3.391
 6806SOL    HW121317   5.590   0.923   3.306
 6806SOL    HW221318   5.724   0.854   3.370
 6807SOL     OW21319   2.861   2.883   0.983
 6807SOL    HW121320   2.857   2.899   0.885
 6807SOL    HW221321   2.949   2.913   1.019
 6808SOL     OW21322   0.396   2.277   5.449
 6808SOL    HW121323   0.453   2.227   5.383
 6808SOL    HW221324   0.300   2.264   5.426
 6809SOL     OW21325   1.421   3.344   0.951
 6809SOL    HW121326   1.483   3.356   1.029
 6809SOL    HW221327   1.382   3.253   0.954
 6810SOL     OW21328   1.786   6.985   2.039
 6810SOL    HW121329   1.694   6.977   2.003
 6810SOL    HW221330   1.783   0.004   2.130
 6811SOL     OW21331   5.048   3.814   0.147
 6811SOL    HW121332   5.011   3.905   0.167
 6811SOL    HW221333   5.112   3.820   0.071
 6812SOL     OW21334   3.615   3.756   3.498
 6812SOL    HW121335   3.677   3.805   3.436
 6812SOL    HW221336   3.545   3.710   3.444
 6813SOL     OW21337   5.060   1.954   2.562
 6813SOL    HW121338   4.964   1.941   2.537
 6813SOL    HW221339   5.090   1.878   2.619
 6814SOL     OW21340   3.010   2.787   0.631
 6814SOL    HW121341   3.103   2.772   0.664
 6814SOL    HW221342   2.968   2.862   0.682
 6815SOL     OW21343   3.520   0.583   1.155
 6815SOL    HW121344   3.512   0.484   1.155
 6815SOL    HW221345   3.535   0.616   1.062
 6816SOL     OW21346   0.525   6.756   6.190
 6816SOL    HW121347   0.580   6.686   6.145
 6816SOL    HW221348   0.436   6.717   6.216
 6817SOL     OW21349   0.007   1.753   4.868
 6817SOL    HW121350   0.051   1.837   4.834
 6817SOL    HW221351   6.941   1.776   4.907
 6818SOL     OW21352   2.781   5.162   1.796
 6818SOL    HW121353   2.827   5.148   1.883
 6818SOL    HW221354   2.705   5.226   1.808
 6819SOL     OW21355   4.657   1.330   4.573
 6819SOL    HW121356   4.682   1.294   4.483
 6819SOL    HW221357   4.698   1.420   4.585
 6820SOL     OW21358   1.148   5.504   2.887
 6820SOL    HW121359   1.170   5.426   2.830
 6820SOL    HW221360   1.178   5.486   2.981
 6821SOL     OW21361   3.108   1.271   5.365
 6821SOL    HW121362   3.190   1.308   5.408
 6821SOL    HW221363   3.053   1.346   5.328
 6822SOL     OW21364   5.890   2.593   5.795
 6822SOL    HW121365   5.878   2.495   5.804
 6822SOL    HW221366   5.805   2.640   5.818
 6823SOL     OW21367   3.606   3.506   3.935
 6823SOL    HW121368   3.614   3.472   4.029
 6823SOL    HW221369   3.632   3.434   3.871
 6824SOL     OW21370   0.880   3.240   6.227
 6824SOL    HW121371   0.893   3.175   6.152
 6824SOL    HW221372   0.842   3.325   6.191
 6825SOL     OW21373   5.151   6.403   2.499
 6825SOL    HW121374   5.139   6.363   2.590
 6825SOL    HW221375   5.122   6.499   2.501
 6826SOL     OW21376   2.194   4.220   2.992
 6826SOL    HW121377   2.206   4.188   2.898
 6826SOL    HW221378   2.112   4.276   2.999
 6827SOL     OW21379   4.646   6.123   0.038
 6827SOL    HW121380   4.685   6.085   6.978
 6827SOL    HW221381   4.682   6.073   0.117
 6828SOL     OW21382   2.471   1.658   2.078
 6828SOL    HW121383   2.550   1.695   2.028
 6828SOL    HW221384   2.387   1.682   2.030
 6829SOL     OW21385   4.501   6.918   4.227
 6829SOL    HW121386   4.577   6.859   4.255
 6829SOL    HW221387   4.449   6.945   4.308
 6830SOL     OW21388   5.593   1.410   3.910
 6830SOL    HW121389   5.648   1.357   3.845
 6830SOL    HW221390   5.559   1.348   3.981
 6831SOL     OW21391   1.057   0.182   6.181
 6831SOL    HW121392   0.969   0.228   6.192
 6831SOL    HW221393   1.110   0.192   6.265
 6832SOL     OW21394   3.142   3.778   1.298
 6832SOL    HW121395   3.142   3.722   1.381
 6832SOL    HW221396   3.231   3.824   1.289
 6833SOL     OW21397   4.452   4.841   0.035
 6833SOL    HW121398   4.386   4.816   6.988
 6833SOL    HW221399   4.468   4.764   0.096
 6834SOL     OW21400   5.337   6.835   2.032
 6834SOL    HW121401   5.345   6.805   2.127
 6834SOL    HW221402   5.254   6.890   2.021
 6835SOL     OW21403   4.436   0.213   5.263
 6835SOL    HW121404   4.351   0.163   5.250
 6835SOL    HW221405   4.421   0.310   5.243
 6836SOL     OW21406   3.315   5.639   0.461
 6836SOL    HW121407   3.239   5.634   0.396
 6836SOL    HW221408   3.304   5.569   0.531
 6837SOL     OW21409   1.448   2.097   2.448
 6837SOL    HW121410   1.375   2.165   2.451
 6837SOL    HW221411   1.435   2.031   2.522
 6838SOL     OW21412   2.040   6.225   1.094
 6838SOL    HW121413   1.955   6.174   1.083
 6838SOL    HW221414   2.079   6.205   1.184
 6839SOL     OW21415   4.870   0.935   6.827
 6839SOL    HW121416   4.836   0.841   6.835
 6839SOL    HW221417   4.942   0.939   6.759
 6840SOL     OW21418   2.555   1.748   5.178
 6840SOL    HW121419   2.585   1.653   5.177
 6840SOL    HW221420   2.627   1.807   5.143
 6841SOL     OW21421   5.403   3.772   6.265
 6841SOL    HW121422   5.492   3.774   6.218
 6841SOL    HW221423   5.331   3.751   6.199
 6842SOL     OW21424   2.943   4.546   1.111
 6842SOL    HW121425   2.930   4.623   1.173
 6842SOL    HW221426   2.861   4.489   1.111
 6843SOL     OW21427   5.707   6.591   0.354
 6843SOL    HW121428   5.611   6.565   0.340
 6843SOL    HW221429   5.712   6.671   0.413
 6844SOL     OW21430   5.372   0.903   4.519
 6844SOL    HW121431   5.319   0.845   4.456
 6844SOL    HW221432   5.470   0.888   4.503
 6845SOL     OW21433   6.255   3.501   2.729
 6845SOL    HW121434   6.159   3.488   2.754
 6845SOL    HW221435   6.289   3.418   2.685
 6846SOL     OW21436   3.162   4.421   0.014
 6846SOL    HW121437   3.124   4.358   6.970
 6846SOL    HW221438   3.257   4.443   7.013
 6847SOL     OW21439   0.406   3.794   5.222
 6847SOL    HW121440   0.312   3.785   5.253
 6847SOL    HW221441   0.437   3.706   5.184
 6848SOL     OW21442   5.085   4.132   3.696
 6848SOL    HW121443   5.003   4.075   3.702
 6848SOL    HW221444   5.061   4.221   3.658
 6849SOL     OW21445   3.742   3.879   5.778
 6849SOL    HW121446   3.690   3.816   5.721
 6849SOL    HW221447   3.839   3.877   5.751
 6850SOL     OW21448   4.693   2.706   2.916
 6850SOL    HW121449   4.676   2.721   3.013
 6850SOL    HW221450   4.734   2.788   2.877
 6851SOL     OW21451   1.141   2.836   2.311
 6851SOL    HW121452   1.236   2.809   2.306
 6851SOL    HW221453   1.086   2.779   2.250
 6852SOL     OW21454   2.812   5.559   1.052
 6852SOL    HW121455   2.809   5.471   1.100
 6852SOL    HW221456   2.744   5.621   1.092
 6853SOL     OW21457   5.065   4.007   6.291
 6853SOL    HW121458   5.130   3.996   6.366
 6853SOL    HW221459   5.051   4.105   6.273
 6854SOL     OW21460   5.815   0.173   5.577
 6854SOL    HW121461   5.771   0.213   5.658
 6854SOL    HW221462   5.914   0.173   5.590
 6855SOL     OW21463   4.258   5.930   3.959
 6855SOL    HW121464   4.227   5.897   3.869
 6855SOL    HW221465   4.275   6.028   3.954
 6856SOL     OW21466   0.685   1.998   5.699
 6856SOL    HW121467   0.696   1.902   5.673
 6856SOL    HW221468   0.678   2.054   5.617
 6857SOL     OW21469   0.962   3.276   6.649
 6857SOL    HW121470   1.027   3.267   6.724
 6857SOL    HW221471   0.962   3.192   6.594
 6858SOL     OW21472   3.571   4.313   1.783
 6858SOL    HW121473   3.575   4.413   1.785
 6858SOL    HW221474   3.588   4.277   1.875
 6859SOL     OW21475   0.631   0.802   1.832
 6859SOL    HW121476   0.647   0.792   1.734
 6859SOL    HW221477   0.533   0.809   1.850
 6860SOL     OW21478   6.622   4.705   1.519
 6860SOL    HW121479   6.571   4.757   1.588
 6860SOL    HW221480   6.692   4.650   1.564
 6861SOL     OW21481   4.678   3.684   6.115
 6861SOL    HW121482   4.720   3.602   6.076
 6861SOL    HW221483   4.749   3.749   6.141
 6862SOL     OW21484   0.508   4.958   5.662
 6862SOL    HW121485   0.422   4.909   5.647
 6862SOL    HW221486   0.490   5.042   5.714
 6863SOL     OW21487   6.977   6.192   5.136
 6863SOL    HW121488   6.898   6.206   5.196
 6863SOL    HW221489   7.016   6.280   5.110
 6864SOL     OW21490   2.400   4.764   5.434
 6864SOL    HW121491   2.461   4.781   5.512
 6864SOL    HW221492   2.448   4.713   5.364
 6865SOL     OW21493   1.105   0.622   5.458
 6865SOL    HW121494   1.082   0.717   5.435
 6865SOL    HW221495   1.168   0.621   5.535
 6866SOL     OW21496   6.318   4.876   2.449
 6866SOL    HW121497   6.403   4.868   2.501
 6866SOL    HW221498   6.315   4.965   2.403
 6867SOL     OW21499   1.943   3.636   1.232
 6867SOL    HW121500   1.891   3.589   1.303
 6867SOL    HW221501   2.001   3.571   1.184
 6868SOL     OW21502   2.348   6.285   5.167
 6868SOL    HW121503   2.317   6.244   5.081
 6868SOL    HW221504   2.374   6.213   5.231
 6869SOL     OW21505   4.384   0.727   5.987
 6869SOL    HW121506   4.469   0.676   5.994
 6869SOL    HW221507   4.402   0.824   6.000
 6870SOL     OW21508   0.238   3.551   0.793
 6870SOL    HW121509   0.201   3.547   0.886
 6870SOL    HW221510   0.327   3.596   0.795
 6871SOL     OW21511   0.058   4.171   2.644
 6871SOL    HW121512   0.143   4.223   2.645
 6871SOL    HW221513   0.008   4.187   2.730
 6872SOL     OW21514   0.686   2.721   2.118
 6872SOL    HW121515   0.604   2.772   2.095
 6872SOL    HW221516   0.752   2.729   2.043
 6873SOL     OW21517   1.360   4.351   3.791
 6873SOL    HW121518   1.280   4.346   3.850
 6873SOL    HW221519   1.443   4.336   3.845
 6874SOL     OW21520   6.554   5.911   3.428
 6874SOL    HW121521   6.510   5.999   3.444
 6874SOL    HW221522   6.589   5.875   3.514
 6875SOL     OW21523   2.234   2.110   2.357
 6875SOL    HW121524   2.186   2.127   2.443
 6875SOL    HW221525   2.276   2.018   2.359
 6876SOL     OW21526   3.004   0.081   3.715
 6876SOL    HW121527   3.039   0.143   3.645
 6876SOL    HW221528   3.077   0.021   3.746
 6877SOL     OW21529   3.077   4.207   1.654
 6877SOL    HW121530   3.176   4.196   1.664
 6877SOL    HW221531   3.030   4.153   1.723
 6878SOL     OW21532   2.500   2.093   3.305
 6878SOL    HW121533   2.419   2.114   3.250
 6878SOL    HW221534   2.577   2.074   3.244
 6879SOL     OW21535   2.215   2.501   0.035
 6879SOL    HW121536   2.260   2.481   6.971
 6879SOL    HW221537   2.258   2.446   0.107
 6880SOL     OW21538   1.246   6.862   6.029
 6880SOL    HW121539   1.326   6.913   6.061
 6880SOL    HW221540   1.251   6.851   5.930
 6881SOL     OW21541   1.489   3.149   1.541
 6881SOL    HW121542   1.537   3.112   1.621
 6881SOL    HW221543   1.498   3.249   1.541
 6882SOL     OW21544   2.792   1.131   0.539
 6882SOL    HW121545   2.724   1.195   0.503
 6882SOL    HW221546   2.792   1.135   0.638
 6883SOL     OW21547   5.664   1.145   5.812
 6883SOL    HW121548   5.603   1.076   5.852
 6883SOL    HW221549   5.633   1.236   5.840
 6884SOL     OW21550   1.527   4.036   2.896
 6884SOL    HW121551   1.474   4.099   2.839
 6884SOL    HW221552   1.465   3.971   2.940
 6885SOL     OW21553   4.945   4.990   4.021
 6885SOL    HW121554   4.910   5.043   3.944
 6885SOL    HW221555   4.927   4.893   4.007
 6886SOL     OW21556   6.871   1.452   5.028
 6886SOL    HW121557   6.796   1.495   5.078
 6886SOL    HW221558   6.908   1.517   4.962
 6887SOL     OW21559   4.605   5.713   6.953
 6887SOL    HW121560   4.538   5.782   6.980
 6887SOL    HW221561   4.665   5.750   6.881
 6888SOL     OW21562   5.106   4.610   6.272
 6888SOL    HW121563   5.061   4.627   6.184
 6888SOL    HW221564   5.037   4.602   6.344
 6889SOL     OW21565   2.019   2.322   5.668
 6889SOL    HW121566   2.009   2.369   5.755
 6889SOL    HW221567   1.930   2.319   5.622
 6890SOL     OW21568   3.902   5.898   3.202
 6890SOL    HW121569   3.811   5.936   3.188
 6890SOL    HW221570   3.898   5.827   3.272
 6891SOL     OW21571   2.167   3.061   1.401
 6891SOL    HW121572   2.078   3.103   1.386
 6891SOL    HW221573   2.182   3.049   1.499
 6892SOL     OW21574   3.089   1.064   3.569
 6892SOL    HW121575   3.112   1.095   3.477
 6892SOL    HW221576   2.992   1.079   3.587
 6893SOL     OW21577   5.676   3.264   0.287
 6893SOL    HW121578   5.693   3.361   0.306
 6893SOL    HW221579   5.585   3.254   0.246
 6894SOL     OW21580   5.030   4.518   1.057
 6894SOL    HW121581   5.065   4.553   0.970
 6894SOL    HW221582   5.023   4.418   1.053
 6895SOL     OW21583   2.180   5.965   0.913
 6895SOL    HW121584   2.137   5.881   0.947
 6895SOL    HW221585   2.114   6.017   0.860
 6896SOL     OW21586   2.935   1.480   3.871
 6896SOL    HW121587   2.990   1.397   3.876
 6896SOL    HW221588   2.995   1.559   3.856
 6897SOL     OW21589   4.790   3.955   5.144
 6897SOL    HW121590   4.818   3.859   5.153
 6897SOL    HW221591   4.820   3.990   5.055
 6898SOL     OW21592   3.165   0.990   1.875
 6898SOL    HW121593   3.142   0.948   1.787
 6898SOL    HW221594   3.135   0.930   1.950
 6899SOL     OW21595   4.661   6.266   2.965
 6899SOL    HW121596   4.647   6.179   3.013
 6899SOL    HW221597   4.743   6.310   2.999
 6900SOL     OW21598   7.020   4.866   5.985
 6900SOL    HW121599   0.084   4.819   5.992
 6900SOL    HW221600   6.947   4.799   5.973
 6901SOL     OW21601   4.603   5.277   6.336
 6901SOL    HW121602   4.593   5.196   6.395
 6901SOL    HW221603   4.576   5.253   6.243
 6902SOL     OW21604   6.471   6.075   5.331
 6902SOL    HW121605   6.478   5.999   5.267
 6902SOL    HW221606   6.379   6.075   5.372
 6903SOL     OW21607   3.236   4.830   5.361
 6903SOL    HW121608   3.228   4.784   5.449
 6903SOL    HW221609   3.226   4.929   5.374
 6904SOL     OW21610   6.669   6.605   5.569
 6904SOL    HW121611   6.591   6.542   5.561
 6904SOL    HW221612   6.743   6.574   5.509
 6905SOL     OW21613   5.856   5.189   6.981
 6905SOL    HW121614   5.920   5.113   6.988
 6905SOL    HW221615   5.854   5.222   6.887
 6906SOL     OW21616   3.093   1.139   3.115
 6906SOL    HW121617   3.145   1.128   3.200
 6906SOL    HW221618   3.003   1.176   3.136
 6907SOL     OW21619   6.530   2.505   1.725
 6907SOL    HW121620   6.488   2.552   1.803
 6907SOL    HW221621   6.465   2.438   1.689
 6908SOL     OW21622   2.601   5.152   6.597
 6908SOL    HW121623   2.695   5.182   6.614
 6908SOL    HW221624   2.601   5.083   6.525
 6909SOL     OW21625   5.455   4.895   2.170
 6909SOL    HW121626   5.380   4.943   2.124
 6909SOL    HW221627   5.417   4.821   2.226
 6910SOL     OW21628   1.452   2.659   2.831
 6910SOL    HW121629   1.374   2.611   2.871
 6910SOL    HW221630   1.429   2.754   2.814
 6911SOL     OW21631   4.236   0.013   4.959
 6911SOL    HW121632   4.234   6.985   4.873
 6911SOL    HW221633   4.331   0.029   4.986
 6912SOL     OW21634   2.536   3.328   6.686
 6912SOL    HW121635   2.610   3.391   6.710
 6912SOL    HW221636   2.510   3.276   6.767
 6913SOL     OW21637   5.049   6.394   4.664
 6913SOL    HW121638   5.059   6.464   4.594
 6913SOL    HW221639   5.073   6.432   4.753
 6914SOL     OW21640   6.224   4.197   2.897
 6914SOL    HW121641   6.210   4.296   2.897
 6914SOL    HW221642   6.272   4.170   2.980
 6915SOL     OW21643   1.055   2.449   2.232
 6915SOL    HW121644   0.956   2.437   2.225
 6915SOL    HW221645   1.097   2.441   2.142
 6916SOL     OW21646   5.490   1.625   5.675
 6916SOL    HW121647   5.453   1.547   5.623
 6916SOL    HW221648   5.584   1.642   5.647
 6917SOL     OW21649   4.090   6.126   1.933
 6917SOL    HW121650   4.166   6.126   1.998
 6917SOL    HW221651   4.061   6.031   1.915
 6918SOL     OW21652   0.073   2.656   3.205
 6918SOL    HW121653   0.172   2.645   3.208
 6918SOL    HW221654   0.050   2.754   3.210
 6919SOL     OW21655   6.448   6.117   2.986
 6919SOL    HW121656   6.487   6.074   3.067
 6919SOL    HW221657   6.403   6.203   3.013
 6920SOL     OW21658   5.542   6.974   5.779
 6920SOL    HW121659   5.503   6.962   5.687
 6920SOL    HW221660   5.588   0.039   5.784
 6921SOL     OW21661   3.948   0.400   3.897
 6921SOL    HW121662   4.033   0.362   3.860
 6921SOL    HW221663   3.894   0.440   3.824
 6922SOL     OW21664   1.890   6.282   5.037
 6922SOL    HW121665   1.938   6.206   4.993
 6922SOL    HW221666   1.795   6.254   5.055
 6923SOL     OW21667   6.015   6.233   2.289
 6923SOL    HW121668   5.930   6.186   2.265
 6923SOL    HW221669   6.092   6.173   2.270
 6924SOL     OW21670   2.981   5.434   0.605
 6924SOL    HW121671   2.908   5.478   0.658
 6924SOL    HW221672   2.948   5.416   0.512
 6925SOL     OW21673   4.698   5.780   5.589
 6925SOL    HW121674   4.677   5.862   5.536
 6925SOL    HW221675   4.781   5.738   5.553
 6926SOL     OW21676   1.997   1.898   0.341
 6926SOL    HW121677   1.903   1.907   0.372
 6926SOL    HW221678   2.036   1.988   0.323
 6927SOL     OW21679   3.528   1.524   0.078
 6927SOL    HW121680   3.513   1.621   0.061
 6927SOL    HW221681   3.519   1.505   0.176
 6928SOL     OW21682   4.807   5.724   0.808
 6928SOL    HW121683   4.788   5.801   0.869
 6928SOL    HW221684   4.730   5.660   0.809
 6929SOL     OW21685   5.296   6.070   1.755
 6929SOL    HW121686   5.200   6.065   1.782
 6929SOL    HW221687   5.324   6.166   1.749
 6930SOL     OW21688   0.977   0.963   0.656
 6930SOL    HW121689   0.953   0.940   0.750
 6930SOL    HW221690   1.049   0.902   0.623
 6931SOL     OW21691   1.534   1.735   1.452
 6931SOL    HW121692   1.616   1.774   1.411
 6931SOL    HW221693   1.560   1.681   1.533
 6932SOL     OW21694   4.692   5.581   1.120
 6932SOL    HW121695   4.740   5.494   1.125
 6932SOL    HW221696   4.657   5.595   1.027
 6933SOL     OW21697   3.525   6.824   6.196
 6933SOL    HW121698   3.533   6.724   6.203
 6933SOL    HW221699   3.477   6.860   6.275
 6934SOL     OW21700   5.209   3.739   6.071
 6934SOL    HW121701   5.122   3.788   6.072
 6934SOL    HW221702   5.233   3.715   5.976
 6935SOL     OW21703   4.378   5.813   2.874
 6935SOL    HW121704   4.297   5.774   2.830
 6935SOL    HW221705   4.449   5.828   2.806
 6936SOL     OW21706   0.129   2.305   4.169
 6936SOL    HW121707   0.099   2.370   4.239
 6936SOL    HW221708   0.223   2.277   4.187
 6937SOL     OW21709   5.743   6.268   0.898
 6937SOL    HW121710   5.660   6.301   0.853
 6937SOL    HW221711   5.752   6.170   0.882
 6938SOL     OW21712   0.573   1.682   4.325
 6938SOL    HW121713   0.614   1.724   4.407
 6938SOL    HW221714   0.516   1.750   4.278
 6939SOL     OW21715   6.214   5.475   3.054
 6939SOL    HW121716   6.190   5.531   2.975
 6939SOL    HW221717   6.261   5.531   3.122
 6940SOL     OW21718   4.379   6.614   0.298
 6940SOL    HW121719   4.412   6.706   0.278
 6940SOL    HW221720   4.449   6.564   0.348
 6941SOL     OW21721   3.008   3.774   2.394
 6941SOL    HW121722   3.028   3.866   2.428
 6941SOL    HW221723   3.094   3.725   2.377
 6942SOL     OW21724   6.034   6.837   1.775
 6942SOL    HW121725   5.939   6.838   1.743
 6942SOL    HW221726   6.041   6.784   1.859
 6943SOL     OW21727   4.018   4.758   0.514
 6943SOL    HW121728   4.037   4.848   0.476
 6943SOL    HW221729   4.096   4.729   0.571
 6944SOL     OW21730   0.862   5.170   6.231
 6944SOL    HW121731   0.770   5.208   6.243
 6944SOL    HW221732   0.856   5.084   6.181
 6945SOL     OW21733   6.842   2.424   1.193
 6945SOL    HW121734   6.774   2.362   1.155
 6945SOL    HW221735   6.828   2.433   1.291
 6946SOL     OW21736   3.698   6.135   1.794
 6946SOL    HW121737   3.719   6.210   1.855
 6946SOL    HW221738   3.704   6.048   1.844
 6947SOL     OW21739   4.168   5.125   6.501
 6947SOL    HW121740   4.126   5.036   6.516
 6947SOL    HW221741   4.164   5.179   6.585
 6948SOL     OW21742   0.791   5.974   1.284
 6948SOL    HW121743   0.823   5.972   1.189
 6948SOL    HW221744   0.708   5.919   1.292
 6949SOL     OW21745   2.837   2.291   3.041
 6949SOL    HW121746   2.776   2.364   3.071
 6949SOL    HW221747   2.832   2.283   2.941
 6950SOL     OW21748   2.014   0.282   4.681
 6950SOL    HW121749   2.012   0.248   4.587
 6950SOL    HW221750   1.922   0.310   4.708
 6951SOL     OW21751   6.565   5.858   6.559
 6951SOL    HW121752   6.509   5.936   6.531
 6951SOL    HW221753   6.543   5.833   6.654
 6952SOL     OW21754   2.414   4.819   2.901
 6952SOL    HW121755   2.409   4.722   2.877
 6952SOL    HW221756   2.459   4.870   2.828
 6953SOL     OW21757   4.934   6.765   0.376
 6953SOL    HW121758   4.893   6.783   0.465
 6953SOL    HW221759   5.008   6.699   0.386
 6954SOL     OW21760   0.182   3.688   1.632
 6954SOL    HW121761   0.150   3.593   1.633
 6954SOL    HW221762   0.263   3.695   1.574
 6955SOL     OW21763   4.911   0.627   2.175
 6955SOL    HW121764   4.901   0.668   2.084
 6955SOL    HW221765   4.952   0.694   2.237
 6956SOL     OW21766   5.048   5.690   3.198
 6956SOL    HW121767   5.110   5.611   3.201
 6956SOL    HW221768   4.953   5.659   3.198
 6957SOL     OW21769   6.180   6.055   6.987
 6957SOL    HW121770   6.094   6.016   7.021
 6957SOL    HW221771   6.165   6.094   6.896
 6958SOL     OW21772   3.503   3.442   4.316
 6958SOL    HW121773   3.515   3.343   4.316
 6958SOL    HW221774   3.461   3.471   4.229
 6959SOL     OW21775   1.704   3.842   2.593
 6959SOL    HW121776   1.754   3.858   2.678
 6959SOL    HW221777   1.768   3.818   2.521
 6960SOL     OW21778   2.597   4.083   1.053
 6960SOL    HW121779   2.675   4.123   1.101
 6960SOL    HW221780   2.623   4.060   0.959
 6961SOL     OW21781   5.091   1.233   4.780
 6961SOL    HW121782   5.059   1.184   4.861
 6961SOL    HW221783   5.172   1.187   4.743
 6962SOL     OW21784   4.093   5.570   1.087
 6962SOL    HW121785   4.098   5.668   1.069
 6962SOL    HW221786   4.030   5.553   1.163
 6963SOL     OW21787   5.583   4.714   7.022
 6963SOL    HW121788   5.668   4.761   0.025
 6963SOL    HW221789   5.604   4.622   6.990
 6964SOL     OW21790   3.612   0.105   5.452
 6964SOL    HW121791   3.638   0.089   5.357
 6964SOL    HW221792   3.563   0.024   5.487
 6965SOL     OW21793   1.813   1.809   0.020
 6965SOL    HW121794   1.891   1.872   0.016
 6965SOL    HW221795   1.846   1.718   0.047
 6966SOL     OW21796   0.715   0.522   2.418
 6966SOL    HW121797   0.740   0.472   2.334
 6966SOL    HW221798   0.797   0.540   2.471
 6967SOL     OW21799   3.475   1.385   5.945
 6967SOL    HW121800   3.461   1.312   6.011
 6967SOL    HW221801   3.394   1.393   5.887
 6968SOL     OW21802   2.466   0.993   3.105
 6968SOL    HW121803   2.426   1.071   3.057
 6968SOL    HW221804   2.551   1.021   3.149
 6969SOL     OW21805   3.626   1.996   1.308
 6969SOL    HW121806   3.713   2.005   1.260
 6969SOL    HW221807   3.593   1.902   1.302
 6970SOL     OW21808   4.000   3.922   5.656
 6970SOL    HW121809   4.091   3.891   5.685
 6970SOL    HW221810   3.968   3.867   5.580
 6971SOL     OW21811   5.424   5.000   1.388
 6971SOL    HW121812   5.440   4.902   1.401
 6971SOL    HW221813   5.499   5.052   1.427
 6972SOL     OW21814   5.503   3.666   2.408
 6972SOL    HW121815   5.416   3.627   2.378
 6972SOL    HW221816   5.571   3.656   2.336
 6973SOL     OW21817   0.988   2.652   3.333
 6973SOL    HW121818   0.916   2.708   3.292
 6973SOL    HW221819   0.971   2.643   3.431
 6974SOL     OW21820   2.876   3.645   2.792
 6974SOL    HW121821   2.935   3.709   2.743
 6974SOL    HW221822   2.848   3.571   2.730
 6975SOL     OW21823   2.263   6.707   4.654
 6975SOL    HW121824   2.165   6.720   4.644
 6975SOL    HW221825   2.283   6.670   4.745
 6976SOL     OW21826   5.460   4.154   5.747
 6976SOL    HW121827   5.415   4.241   5.765
 6976SOL    HW221828   5.429   4.117   5.659
 6977SOL     OW21829   3.951   4.159   1.446
 6977SOL    HW121830   3.962   4.114   1.357
 6977SOL    HW221831   4.002   4.108   1.515
 6978SOL     OW21832   5.102   3.027   1.274
 6978SOL    HW121833   5.154   2.955   1.319
 6978SOL    HW221834   5.005   3.006   1.279
 6979SOL     OW21835   1.436   2.991   1.337
 6979SOL    HW121836   1.456   3.047   1.418
 6979SOL    HW221837   1.338   2.993   1.319
 6980SOL     OW21838   1.629   1.320   3.508
 6980SOL    HW121839   1.692   1.258   3.460
 6980SOL    HW221840   1.610   1.399   3.449
 6981SOL     OW21841   3.446   3.477   6.171
 6981SOL    HW121842   3.540   3.479   6.135
 6981SOL    HW221843   3.388   3.537   6.115
 6982SOL     OW21844   0.938   0.720   3.734
 6982SOL    HW121845   0.913   0.767   3.650
 6982SOL    HW221846   0.943   0.785   3.809
 6983SOL     OW21847   4.925   1.610   5.251
 6983SOL    HW121848   4.974   1.523   5.252
 6983SOL    HW221849   4.931   1.651   5.160
 6984SOL     OW21850   1.398   1.890   2.657
 6984SOL    HW121851   1.363   1.956   2.723
 6984SOL    HW221852   1.329   1.820   2.639
 6985SOL     OW21853   6.260   5.040   6.827
 6985SOL    HW121854   6.253   5.097   6.909
 6985SOL    HW221855   6.256   5.098   6.746
 6986SOL     OW21856   3.567   6.942   6.598
 6986SOL    HW121857   3.661   6.934   6.566
 6986SOL    HW221858   3.567   6.959   6.697
 6987SOL     OW21859   0.013   1.741   5.560
 6987SOL    HW121860   0.030   1.718   5.656
 6987SOL    HW221861   0.100   1.755   5.513
 6988SOL     OW21862   2.048   0.086   6.057
 6988SOL    HW121863   2.120   0.139   6.101
 6988SOL    HW221864   1.958   0.114   6.092
 6989SOL     OW21865   6.465   4.773   2.656
 6989SOL    HW121866   6.380   4.771   2.708
 6989SOL    HW221867   6.534   4.823   2.707
 6990SOL     OW21868   3.855   2.784   1.788
 6990SOL    HW121869   3.798   2.706   1.762
 6990SOL    HW221870   3.948   2.752   1.806
 6991SOL     OW21871   5.415   4.241   3.096
 6991SOL    HW121872   5.489   4.286   3.046
 6991SOL    HW221873   5.444   4.226   3.190
 6992SOL     OW21874   6.945   5.900   0.216
 6992SOL    HW121875   6.965   5.807   0.245
 6992SOL    HW221876   6.920   5.955   0.296
 6993SOL     OW21877   6.411   0.340   1.787
 6993SOL    HW121878   6.424   0.250   1.827
 6993SOL    HW221879   6.313   0.360   1.780
 6994SOL     OW21880   1.687   0.498   4.165
 6994SOL    HW121881   1.679   0.416   4.222
 6994SOL    HW221882   1.611   0.560   4.184
 6995SOL     OW21883   0.216   4.066   0.340
 6995SOL    HW121884   0.280   4.091   0.412
 6995SOL    HW221885   0.188   4.148   0.290
 6996SOL     OW21886   1.139   0.767   0.528
 6996SOL    HW121887   1.156   0.793   0.433
 6996SOL    HW221888   1.120   0.669   0.532
 6997SOL     OW21889   6.925   4.899   4.719
 6997SOL    HW121890   6.931   4.817   4.776
 6997SOL    HW221891   6.984   4.970   4.757
 6998SOL     OW21892   0.647   1.814   1.312
 6998SOL    HW121893   0.549   1.797   1.323
 6998SOL    HW221894   0.677   1.783   1.222
 6999SOL     OW21895   1.127   2.373   6.215
 6999SOL    HW121896   1.188   2.338   6.143
 6999SOL    HW221897   1.036   2.334   6.203
 7000SOL     OW21898   6.082   0.723   1.967
 7000SOL    HW121899   6.036   0.661   2.031
 7000SOL    HW221900   6.053   0.817   1.986
 7001SOL     OW21901   0.910   1.620   5.373
 7001SOL    HW121902   0.868   1.684   5.308
 7001SOL    HW221903   1.001   1.595   5.342
 7002SOL     OW21904   1.652   5.238   3.804
 7002SOL    HW121905   1.691   5.172   3.868
 7002SOL    HW221906   1.708   5.321   3.803
 7003SOL     OW21907   5.209   5.319   1.419
 7003SOL    HW121908   5.140   5.381   1.381
 7003SOL    HW221909   5.185   5.225   1.396
 7004SOL     OW21910   1.129   5.383   0.514
 7004SOL    HW121911   1.037   5.351   0.537
 7004SOL    HW221912   1.192   5.306   0.515
 7005SOL     OW21913   1.018   0.319   6.926
 7005SOL    HW121914   1.067   0.246   6.975
 7005SOL    HW221915   0.989   0.285   6.837
 7006SOL     OW21916   6.571   6.370   3.121
 7006SOL    HW121917   6.627   6.453   3.113
 7006SOL    HW221918   6.611   6.308   3.188
 7007SOL     OW21919   4.346   0.766   5.258
 7007SOL    HW121920   4.362   0.755   5.160
 7007SOL    HW221921   4.258   0.809   5.273
 7008SOL     OW21922   6.678   4.391   4.046
 7008SOL    HW121923   6.676   4.486   4.079
 7008SOL    HW221924   6.773   4.360   4.040
 7009SOL     OW21925   4.007   6.732   1.895
 7009SOL    HW121926   4.069   6.682   1.835
 7009SOL    HW221927   4.055   6.812   1.934
 7010SOL     OW21928   6.014   4.322   3.154
 7010SOL    HW121929   6.105   4.296   3.187
 7010SOL    HW221930   5.952   4.244   3.164
 7011SOL     OW21931   3.897   6.595   0.768
 7011SOL    HW121932   3.859   6.526   0.706
 7011SOL    HW221933   3.941   6.667   0.714
 7012SOL     OW21934   1.486   2.183   1.281
 7012SOL    HW121935   1.464   2.272   1.242
 7012SOL    HW221936   1.575   2.188   1.327
 7013SOL     OW21937   2.830   0.677   6.423
 7013SOL    HW121938   2.754   0.741   6.433
 7013SOL    HW221939   2.891   0.685   6.502
 7014SOL     OW21940   5.723   3.300   1.064
 7014SOL    HW121941   5.657   3.340   1.000
 7014SOL    HW221942   5.784   3.239   1.015
 7015SOL     OW21943   5.928   4.845   2.332
 7015SOL    HW121944   5.839   4.866   2.372
 7015SOL    HW221945   5.980   4.786   2.393
 7016SOL     OW21946   3.307   5.226   0.839
 7016SOL    HW121947   3.251   5.276   0.905
 7016SOL    HW221948   3.346   5.145   0.884
 7017SOL     OW21949   2.752   4.688   3.337
 7017SOL    HW121950   2.794   4.714   3.250
 7017SOL    HW221951   2.749   4.588   3.344
 7018SOL     OW21952   5.274   3.588   4.202
 7018SOL    HW121953   5.261   3.531   4.121
 7018SOL    HW221954   5.367   3.579   4.235
 7019SOL     OW21955   4.619   5.623   2.013
 7019SOL    HW121956   4.645   5.608   1.917
 7019SOL    HW221957   4.659   5.552   2.070
 7020SOL     OW21958   0.418   3.655   0.022
 7020SOL    HW121959   0.451   3.571   0.064
 7020SOL    HW221960   0.334   3.636   6.996
 7021SOL     OW21961   1.147   3.022   4.815
 7021SOL    HW121962   1.245   3.040   4.811
 7021SOL    HW221963   1.097   3.108   4.826
 7022SOL     OW21964   4.472   0.729   0.104
 7022SOL    HW121965   4.457   0.632   0.085
 7022SOL    HW221966   4.562   0.741   0.148
 7023SOL     OW21967   0.372   2.405   1.423
 7023SOL    HW121968   0.422   2.485   1.456
 7023SOL    HW221969   0.282   2.434   1.389
 7024SOL     OW21970   3.562   3.191   3.190
 7024SOL    HW121971   3.630   3.122   3.212
 7024SOL    HW221972   3.486   3.186   3.255
 7025SOL     OW21973   3.714   0.566   0.476
 7025SOL    HW121974   3.665   0.618   0.546
 7025SOL    HW221975   3.806   0.605   0.465
 7026SOL     OW21976   3.736   2.025   2.207
 7026SOL    HW121977   3.665   2.003   2.274
 7026SOL    HW221978   3.696   2.081   2.134
 7027SOL     OW21979   2.397   6.140   3.493
 7027SOL    HW121980   2.340   6.184   3.563
 7027SOL    HW221981   2.388   6.190   3.407
 7028SOL     OW21982   2.642   0.098   3.979
 7028SOL    HW121983   2.638   0.005   3.941
 7028SOL    HW221984   2.728   0.110   4.028
 7029SOL     OW21985   3.377   3.795   5.727
 7029SOL    HW121986   3.383   3.864   5.655
 7029SOL    HW221987   3.458   3.737   5.724
 7030SOL     OW21988   0.680   2.070   4.952
 7030SOL    HW121989   0.752   2.057   5.020
 7030SOL    HW221990   0.707   2.142   4.888
 7031SOL     OW21991   4.472   6.223   0.691
 7031SOL    HW121992   4.418   6.269   0.621
 7031SOL    HW221993   4.482   6.126   0.667
 7032SOL     OW21994   4.277   0.686   3.895
 7032SOL    HW121995   4.263   0.782   3.920
 7032SOL    HW221996   4.241   0.627   3.968
 7033SOL     OW21997   1.485   2.822   4.089
 7033SOL    HW121998   1.428   2.891   4.045
 7033SOL    HW221999   1.529   2.861   4.170
 7034SOL     OW22000   6.624   2.708   3.536
 7034SOL    HW122001   6.700   2.773   3.543
 7034SOL    HW222002   6.661   2.617   3.519
 7035SOL     OW22003   2.308   6.887   1.347
 7035SOL    HW122004   2.215   6.903   1.378
 7035SOL    HW222005   2.334   6.792   1.366
 7036SOL     OW22006   0.122   2.090   2.538
 7036SOL    HW122007   0.073   2.141   2.609
 7036SOL    HW222008   0.056   2.050   2.474
 7037SOL     OW22009   0.674   1.308   5.996
 7037SOL    HW122010   0.768   1.282   5.974
 7037SOL    HW222011   0.667   1.408   5.998
 7038SOL     OW22012   2.488   4.485   5.707
 7038SOL    HW122013   2.494   4.395   5.750
 7038SOL    HW222014   2.480   4.556   5.777
 7039SOL     OW22015   0.452   5.610   3.576
 7039SOL    HW122016   0.365   5.594   3.624
 7039SOL    HW222017   0.454   5.704   3.542
 7040SOL     OW22018   4.439   2.229   5.190
 7040SOL    HW122019   4.393   2.143   5.211
 7040SOL    HW222020   4.538   2.216   5.194
 7041SOL     OW22021   1.194   1.623   3.627
 7041SOL    HW122022   1.268   1.580   3.680
 7041SOL    HW222023   1.136   1.677   3.688
 7042SOL     OW22024   4.482   5.551   4.818
 7042SOL    HW122025   4.403   5.565   4.758
 7042SOL    HW222026   4.486   5.624   4.886
 7043SOL     OW22027   2.434   4.563   3.782
 7043SOL    HW122028   2.382   4.494   3.731
 7043SOL    HW222029   2.408   4.559   3.878
 7044SOL     OW22030   4.914   0.450   4.890
 7044SOL    HW122031   4.888   0.384   4.960
 7044SOL    HW222032   4.885   0.541   4.918
 7045SOL     OW22033   5.902   5.509   2.535
 7045SOL    HW122034   5.941   5.460   2.457
 7045SOL    HW222035   5.968   5.576   2.568
 7046SOL     OW22036   3.034   2.206   4.054
 7046SOL    HW122037   2.962   2.156   4.005
 7046SOL    HW222038   3.036   2.300   4.023
 7047SOL     OW22039   0.259   0.779   0.827
 7047SOL    HW122040   0.296   0.738   0.910
 7047SOL    HW222041   0.304   0.738   0.747
 7048SOL     OW22042   5.825   6.378   4.910
 7048SOL    HW122043   5.784   6.404   4.997
 7048SOL    HW222044   5.924   6.374   4.919
 7049SOL     OW22045   4.014   0.922   2.234
 7049SOL    HW122046   3.995   0.861   2.311
 7049SOL    HW222047   3.935   0.982   2.219
 7050SOL     OW22048   3.535   4.863   0.843
 7050SOL    HW122049   3.616   4.843   0.787
 7050SOL    HW222050   3.565   4.898   0.933
 7051SOL     OW22051   6.646   6.683   1.184
 7051SOL    HW122052   6.683   6.774   1.163
 7051SOL    HW222053   6.589   6.653   1.108
 7052SOL     OW22054   5.759   6.876   3.139
 7052SOL    HW122055   5.812   6.937   3.080
 7052SOL    HW222056   5.819   6.835   3.207
 7053SOL     OW22057   2.031   3.795   4.124
 7053SOL    HW122058   1.957   3.814   4.189
 7053SOL    HW222059   2.082   3.879   4.105
 7054SOL     OW22060   0.206   6.880   0.880
 7054SOL    HW122061   0.206   6.968   0.928
 7054SOL    HW222062   0.208   6.806   0.947
 7055SOL     OW22063   2.709   0.291   0.305
 7055SOL    HW122064   2.747   0.277   0.213
 7055SOL    HW222065   2.781   0.281   0.373
 7056SOL     OW22066   6.864   5.452   1.170
 7056SOL    HW122067   6.789   5.516   1.155
 7056SOL    HW222068   6.950   5.502   1.183
 7057SOL     OW22069   3.164   5.535   4.508
 7057SOL    HW122070   3.132   5.514   4.601
 7057SOL    HW222071   3.260   5.562   4.512
 7058SOL     OW22072   5.443   2.113   6.338
 7058SOL    HW122073   5.476   2.170   6.263
 7058SOL    HW222074   5.512   2.109   6.410
 7059SOL     OW22075   1.627   1.347   4.816
 7059SOL    HW122076   1.719   1.311   4.803
 7059SOL    HW222077   1.579   1.350   4.728
 7060SOL     OW22078   3.573   6.440   2.156
 7060SOL    HW122079   3.567   6.344   2.181
 7060SOL    HW222080   3.593   6.448   2.058
 7061SOL     OW22081   0.596   2.281   2.137
 7061SOL    HW122082   0.595   2.331   2.051
 7061SOL    HW222083   0.669   2.316   2.196
 7062SOL     OW22084   4.417   1.861   4.293
 7062SOL    HW122085   4.469   1.791   4.343
 7062SOL    HW222086   4.332   1.880   4.341
 7063SOL     OW22087   0.653   6.353   2.210
 7063SOL    HW122088   0.668   6.305   2.297
 7063SOL    HW222089   0.559   6.386   2.207
 7064SOL     OW22090   4.695   1.836   6.177
 7064SOL    HW122091   4.731   1.807   6.266
 7064SOL    HW222092   4.719   1.768   6.108
 7065SOL     OW22093   3.599   4.494   5.308
 7065SOL    HW122094   3.510   4.454   5.332
 7065SOL    HW222095   3.665   4.476   5.381
 7066SOL     OW22096   4.670   0.868   6.579
 7066SOL    HW122097   4.574   0.843   6.575
 7066SOL    HW222098   4.680   0.966   6.560
 7067SOL     OW22099   1.453   3.358   6.908
 7067SOL    HW122100   1.529   3.301   6.877
 7067SOL    HW222101   1.466   3.452   6.877
 7068SOL     OW22102   5.758   4.442   4.207
 7068SOL    HW122103   5.814   4.487   4.276
 7068SOL    HW222104   5.805   4.361   4.173
 7069SOL     OW22105   5.987   1.880   5.624
 7069SOL    HW122106   6.028   1.807   5.569
 7069SOL    HW222107   6.056   1.916   5.687
 7070SOL     OW22108   0.594   6.676   4.730
 7070SOL    HW122109   0.661   6.636   4.668
 7070SOL    HW222110   0.553   6.756   4.687
 7071SOL     OW22111   4.845   6.318   6.559
 7071SOL    HW122112   4.809   6.411   6.572
 7071SOL    HW222113   4.791   6.254   6.613
 7072SOL     OW22114   1.742   4.188   6.674
 7072SOL    HW122115   1.838   4.208   6.657
 7072SOL    HW222116   1.731   4.164   6.771
 7073SOL     OW22117   3.753   0.376   3.176
 7073SOL    HW122118   3.694   0.449   3.142
 7073SOL    HW222119   3.816   0.412   3.245
 7074SOL     OW22120   6.706   3.556   3.814
 7074SOL    HW122121   6.757   3.640   3.799
 7074SOL    HW222122   6.736   3.513   3.899
 7075SOL     OW22123   3.232   4.868   5.051
 7075SOL    HW122124   3.251   4.830   5.142
 7075SOL    HW222125   3.140   4.908   5.051
 7076SOL     OW22126   6.043   3.264   1.966
 7076SOL    HW122127   6.074   3.357   1.944
 7076SOL    HW222128   6.088   3.198   1.906
 7077SOL     OW22129   2.548   4.530   2.912
 7077SOL    HW122130   2.499   4.476   2.981
 7077SOL    HW222131   2.523   4.499   2.821
 7078SOL     OW22132   5.200   6.678   0.630
 7078SOL    HW122133   5.232   6.767   0.661
 7078SOL    HW222134   5.129   6.645   0.692
 7079SOL     OW22135   1.214   6.611   4.133
 7079SOL    HW122136   1.252   6.638   4.045
 7079SOL    HW222137   1.179   6.517   4.127
 7080SOL     OW22138   3.781   1.875   4.545
 7080SOL    HW122139   3.857   1.809   4.542
 7080SOL    HW222140   3.698   1.828   4.574
 7081SOL     OW22141   1.324   7.010   0.424
 7081SOL    HW122142   1.389   0.026   0.490
 7081SOL    HW222143   1.290   6.923   0.459
 7082SOL     OW22144   6.878   3.743   1.564
 7082SOL    HW122145   6.820   3.730   1.644
 7082SOL    HW222146   6.954   3.678   1.568
 7083SOL     OW22147   0.039   1.907   2.161
 7083SOL    HW122148   6.987   1.889   2.098
 7083SOL    HW222149   0.114   1.950   2.112
 7084SOL     OW22150   0.491   5.704   5.008
 7084SOL    HW122151   0.406   5.653   4.991
 7084SOL    HW222152   0.495   5.730   5.104
 7085SOL     OW22153   6.913   2.360   2.457
 7085SOL    HW122154   6.835   2.315   2.414
 7085SOL    HW222155   6.986   2.371   2.390
 7086SOL     OW22156   6.058   0.245   6.908
 7086SOL    HW122157   6.054   0.152   6.946
 7086SOL    HW222158   6.092   0.240   6.814
 7087SOL     OW22159   5.478   3.431   2.714
 7087SOL    HW122160   5.495   3.403   2.619
 7087SOL    HW222161   5.554   3.402   2.772
 7088SOL     OW22162   5.819   2.117   4.955
 7088SOL    HW122163   5.906   2.093   4.913
 7088SOL    HW222164   5.745   2.102   4.889
 7089SOL     OW22165   3.139   4.948   2.768
 7089SOL    HW122166   3.210   4.919   2.831
 7089SOL    HW222167   3.150   4.899   2.681
 7090SOL     OW22168   2.881   1.136   0.832
 7090SOL    HW122169   2.872   1.170   0.926
 7090SOL    HW222170   2.924   1.046   0.834
 7091SOL     OW22171   0.934   0.442   0.875
 7091SOL    HW122172   0.906   0.352   0.907
 7091SOL    HW222173   0.867   0.477   0.810
 7092SOL     OW22174   4.186   2.575   6.388
 7092SOL    HW122175   4.186   2.651   6.452
 7092SOL    HW222176   4.181   2.610   6.294
 7093SOL     OW22177   3.412   4.094   1.429
 7093SOL    HW122178   3.464   4.159   1.375
 7093SOL    HW222179   3.399   4.129   1.522
 7094SOL     OW22180   1.853   6.632   5.494
 7094SOL    HW122181   1.841   6.533   5.505
 7094SOL    HW222182   1.942   6.659   5.531
 7095SOL     OW22183   3.197   4.565   5.623
 7095SOL    HW122184   3.287   4.561   5.665
 7095SOL    HW222185   3.166   4.473   5.601
 7096SOL     OW22186   6.852   0.880   1.385
 7096SOL    HW122187   6.916   0.957   1.380
 7096SOL    HW222188   6.768   0.909   1.429
 7097SOL     OW22189   5.520   0.416   2.350
 7097SOL    HW122190   5.440   0.363   2.379
 7097SOL    HW222191   5.556   0.377   2.265
 7098SOL     OW22192   1.949   6.887   4.905
 7098SOL    HW122193   2.019   6.955   4.884
 7098SOL    HW222194   1.990   6.814   4.961
 7099SOL     OW22195   3.313   1.815   3.901
 7099SOL    HW122196   3.346   1.880   3.833
 7099SOL    HW222197   3.381   1.743   3.914
 7100SOL     OW22198   0.498   3.648   0.805
 7100SOL    HW122199   0.493   3.696   0.892
 7100SOL    HW222200   0.561   3.571   0.814
 7101SOL     OW22201   2.694   6.460   4.967
 7101SOL    HW122202   2.765   6.522   5.000
 7101SOL    HW222203   2.729   6.366   4.969
 7102SOL     OW22204   5.274   0.665   1.129
 7102SOL    HW122205   5.277   0.596   1.057
 7102SOL    HW222206   5.179   0.691   1.147
 7103SOL     OW22207   5.234   5.062   2.110
 7103SOL    HW122208   5.178   5.090   2.187
 7103SOL    HW222209   5.176   5.042   2.031
 7104SOL     OW22210   5.234   2.988   2.986
 7104SOL    HW122211   5.216   2.891   3.003
 7104SOL    HW222212   5.303   3.021   3.051
 7105SOL     OW22213   3.531   4.082   4.337
 7105SOL    HW122214   3.579   4.111   4.254
 7105SOL    HW222215   3.559   4.141   4.413
 7106SOL     OW22216   3.589   2.960   0.801
 7106SOL    HW122217   3.663   2.932   0.739
 7106SOL    HW222218   3.614   2.938   0.895
 7107SOL     OW22219   4.128   0.505   6.858
 7107SOL    HW122220   4.118   0.491   6.956
 7107SOL    HW222221   4.044   0.478   6.812
 7108SOL     OW22222   2.706   6.617   2.809
 7108SOL    HW122223   2.707   6.588   2.713
 7108SOL    HW222224   2.765   6.697   2.820
 7109SOL     OW22225   1.583   0.512   6.965
 7109SOL    HW122226   1.585   0.424   6.917
 7109SOL    HW222227   1.660   0.568   6.936
 7110SOL     OW22228   3.282   6.819   4.238
 7110SOL    HW122229   3.352   6.885   4.265
 7110SOL    HW222230   3.292   6.796   4.141
 7111SOL     OW22231   1.094   1.177   3.726
 7111SOL    HW122232   1.045   1.094   3.752
 7111SOL    HW222233   1.056   1.213   3.640
 7112SOL     OW22234   2.374   4.331   4.671
 7112SOL    HW122235   2.397   4.419   4.713
 7112SOL    HW222236   2.458   4.280   4.653
 7113SOL     OW22237   3.014   5.128   4.953
 7113SOL    HW122238   3.012   5.034   4.986
 7113SOL    HW222239   3.021   5.191   5.031
 7114SOL     OW22240   4.471   5.554   1.622
 7114SOL    HW122241   4.475   5.577   1.525
 7114SOL    HW222242   4.418   5.624   1.671
 7115SOL     OW22243   5.623   4.450   6.953
 7115SOL    HW122244   5.657   4.405   0.012
 7115SOL    HW222245   5.667   4.410   6.873
 7116SOL     OW22246   5.756   4.230   3.484
 7116SOL    HW122247   5.850   4.261   3.469
 7116SOL    HW222248   5.710   4.294   3.546
 7117SOL     OW22249   5.888   6.741   4.102
 7117SOL    HW122250   5.794   6.773   4.120
 7117SOL    HW222251   5.920   6.779   4.016
 7118SOL     OW22252   4.006   4.298   5.322
 7118SOL    HW122253   3.945   4.281   5.245
 7118SOL    HW222254   4.101   4.286   5.292
 7119SOL     OW22255   5.249   0.771   5.003
 7119SOL    HW122256   5.319   0.704   5.029
 7119SOL    HW222257   5.272   0.810   4.914
 7120SOL     OW22258   5.534   1.428   1.406
 7120SOL    HW122259   5.500   1.365   1.336
 7120SOL    HW222260   5.591   1.499   1.362
 7121SOL     OW22261   0.824   6.616   3.619
 7121SOL    HW122262   0.829   6.607   3.520
 7121SOL    HW222263   0.839   6.526   3.661
 7122SOL     OW22264   2.713   6.750   5.908
 7122SOL    HW122265   2.689   6.666   5.958
 7122SOL    HW222266   2.775   6.805   5.963
 7123SOL     OW22267   6.214   4.693   5.053
 7123SOL    HW122268   6.133   4.674   4.998
 7123SOL    HW222269   6.256   4.778   5.022
 7124SOL     OW22270   1.480   2.297   1.779
 7124SOL    HW122271   1.446   2.390   1.790
 7124SOL    HW222272   1.418   2.245   1.720
 7125SOL     OW22273   0.660   0.376   2.105
 7125SOL    HW122274   0.607   0.317   2.044
 7125SOL    HW222275   0.600   0.445   2.145
 7126SOL     OW22276   4.013   6.171   1.263
 7126SOL    HW122277   3.928   6.193   1.216
 7126SOL    HW222278   4.082   6.241   1.243
 7127SOL     OW22279   3.521   5.995   5.411
 7127SOL    HW122280   3.490   5.928   5.479
 7127SOL    HW222281   3.505   6.087   5.445
 7128SOL     OW22282   3.816   4.269   6.574
 7128SOL    HW122283   3.810   4.174   6.605
 7128SOL    HW222284   3.778   4.329   6.644
 7129SOL     OW22285   6.906   1.676   0.399
 7129SOL    HW122286   6.843   1.684   0.477
 7129SOL    HW222287   6.944   1.766   0.379
 7130SOL     OW22288   3.005   0.253   4.515
 7130SOL    HW122289   3.094   0.296   4.528
 7130SOL    HW222290   3.016   0.167   4.466
 7131SOL     OW22291   3.561   0.940   2.199
 7131SOL    HW122292   3.495   0.979   2.135
 7131SOL    HW222293   3.627   0.884   2.148
 7132SOL     OW22294   4.945   4.012   6.723
 7132SOL    HW122295   5.006   3.935   6.709
 7132SOL    HW222296   4.941   4.067   6.640
 7133SOL     OW22297   3.814   5.480   3.767
 7133SOL    HW122298   3.788   5.563   3.816
 7133SOL    HW222299   3.751   5.406   3.791
 7134SOL     OW22300   5.700   6.127   1.832
 7134SOL    HW122301   5.657   6.039   1.812
 7134SOL    HW222302   5.742   6.164   1.748
 7135SOL     OW22303   2.109   3.235   2.051
 7135SOL    HW122304   2.115   3.243   2.151
 7135SOL    HW222305   2.162   3.308   2.008
 7136SOL     OW22306   2.855   1.781   1.616
 7136SOL    HW122307   2.764   1.758   1.651
 7136SOL    HW222308   2.925   1.748   1.680
 7137SOL     OW22309   3.004   1.969   1.277
 7137SOL    HW122310   3.094   1.937   1.248
 7137SOL    HW222311   2.933   1.910   1.238
 7138SOL     OW22312   2.404   0.921   1.355
 7138SOL    HW122313   2.381   0.824   1.350
 7138SOL    HW222314   2.405   0.960   1.263
 7139SOL     OW22315   5.007   5.365   2.144
 7139SOL    HW122316   5.067   5.436   2.181
 7139SOL    HW222317   5.014   5.363   2.045
 7140SOL     OW22318   6.124   4.209   0.795
 7140SOL    HW122319   6.174   4.123   0.794
 7140SOL    HW222320   6.051   4.207   0.726
 7141SOL     OW22321   4.240   6.062   1.108
 7141SOL    HW122322   4.159   6.089   1.160
 7141SOL    HW222323   4.259   6.130   1.038
 7142SOL     OW22324   3.134   0.626   4.616
 7142SOL    HW122325   3.071   0.642   4.540
 7142SOL    HW222326   3.187   0.543   4.600
 7143SOL     OW22327   2.408   4.440   6.709
 7143SOL    HW122328   2.491   4.487   6.739
 7143SOL    HW222329   2.425   4.342   6.705
 7144SOL     OW22330   6.961   1.207   4.295
 7144SOL    HW122331   7.010   1.274   4.239
 7144SOL    HW222332   6.863   1.210   4.272
 7145SOL     OW22333   4.686   1.788   0.282
 7145SOL    HW122334   4.765   1.735   0.253
 7145SOL    HW222335   4.716   1.875   0.320
 7146SOL     OW22336   2.224   1.361   5.085
 7146SOL    HW122337   2.213   1.451   5.126
 7146SOL    HW222338   2.301   1.362   5.021
 7147SOL     OW22339   5.340   5.106   3.110
 7147SOL    HW122340   5.327   5.165   3.031
 7147SOL    HW222341   5.264   5.117   3.173
 7148SOL     OW22342   6.084   6.535   1.032
 7148SOL    HW122343   6.168   6.551   1.083
 7148SOL    HW222344   6.016   6.491   1.090
 7149SOL     OW22345   6.832   4.690   3.407
 7149SOL    HW122346   6.916   4.656   3.449
 7149SOL    HW222347   6.854   4.763   3.342
 7150SOL     OW22348   4.101   3.279   0.037
 7150SOL    HW122349   4.122   3.214   6.988
 7150SOL    HW222350   4.179   3.339   0.052
 7151SOL     OW22351   3.391   0.224   0.997
 7151SOL    HW122352   3.472   0.240   1.054
 7151SOL    HW222353   3.410   0.150   0.933
 7152SOL     OW22354   6.758   1.041   6.791
 7152SOL    HW122355   6.715   1.028   6.701
 7152SOL    HW222356   6.791   0.953   6.825
 7153SOL     OW22357   4.048   5.985   1.469
 7153SOL    HW122358   3.970   5.960   1.526
 7153SOL    HW222359   4.020   6.055   1.403
 7154SOL     OW22360   4.397   1.190   2.305
 7154SOL    HW122361   4.341   1.135   2.243
 7154SOL    HW222362   4.460   1.247   2.251
 7155SOL     OW22363   3.471   1.656   1.775
 7155SOL    HW122364   3.462   1.716   1.695
 7155SOL    HW222365   3.535   1.698   1.840
 7156SOL     OW22366   5.586   3.307   1.936
 7156SOL    HW122367   5.549   3.339   1.849
 7156SOL    HW222368   5.557   3.213   1.952
 7157SOL     OW22369   6.051   4.056   6.811
 7157SOL    HW122370   6.127   4.017   6.863
 7157SOL    HW222371   5.964   4.027   6.851
 7158SOL     OW22372   5.951   6.870   3.861
 7158SOL    HW122373   5.891   6.948   3.841
 7158SOL    HW222374   5.958   6.812   3.779
 7159SOL     OW22375   6.750   5.036   4.399
 7159SOL    HW122376   6.793   5.001   4.316
 7159SOL    HW222377   6.702   4.961   4.446
 7160SOL     OW22378   5.743   6.500   2.505
 7160SOL    HW122379   5.725   6.554   2.588
 7160SOL    HW222380   5.794   6.418   2.529
 7161SOL     OW22381   3.761   3.326   3.354
 7161SOL    HW122382   3.847   3.278   3.338
 7161SOL    HW222383   3.699   3.312   3.276
 7162SOL     OW22384   6.967   4.843   1.817
 7162SOL    HW122385   6.948   4.836   1.915
 7162SOL    HW222386   0.025   4.899   1.803
 7163SOL     OW22387   1.175   1.731   2.595
 7163SOL    HW122388   1.114   1.748   2.671
 7163SOL    HW222389   1.154   1.794   2.520
 7164SOL     OW22390   1.701   0.784   6.357
 7164SOL    HW122391   1.675   0.687   6.350
 7164SOL    HW222392   1.763   0.807   6.283
 7165SOL     OW22393   5.678   0.081   0.235
 7165SOL    HW122394   5.657   7.015   0.196
 7165SOL    HW222395   5.772   0.106   0.214
 7166SOL     OW22396   5.304   0.322   5.753
 7166SOL    HW122397   5.286   0.414   5.717
 7166SOL    HW222398   5.276   0.254   5.685
 7167SOL     OW22399   5.984   2.355   5.166
 7167SOL    HW122400   6.041   2.322   5.241
 7167SOL    HW222401   5.897   2.305   5.165
 7168SOL     OW22402   2.537   0.845   2.546
 7168SOL    HW122403   2.608   0.875   2.482
 7168SOL    HW222404   2.519   0.748   2.532
 7169SOL     OW22405   1.684   4.667   5.023
 7169SOL    HW122406   1.742   4.614   4.961
 7169SOL    HW222407   1.668   4.758   4.983
 7170SOL     OW22408   4.641   0.305   2.075
 7170SOL    HW122409   4.736   0.316   2.106
 7170SOL    HW222410   4.608   0.214   2.100
 7171SOL     OW22411   5.550   5.296   0.730
 7171SOL    HW122412   5.549   5.196   0.727
 7171SOL    HW222413   5.640   5.328   0.757
 7172SOL     OW22414   1.824   1.488   5.299
 7172SOL    HW122415   1.764   1.559   5.260
 7172SOL    HW222416   1.873   1.442   5.224
 7173SOL     OW22417   5.982   5.842   6.927
 7173SOL    HW122418   5.975   5.782   7.007
 7173SOL    HW222419   5.892   5.855   6.887
 7174SOL     OW22420   5.459   4.723   1.503
 7174SOL    HW122421   5.400   4.643   1.496
 7174SOL    HW222422   5.552   4.698   1.477
 7175SOL     OW22423   6.078   3.867   4.957
 7175SOL    HW122424   5.981   3.876   4.979
 7175SOL    HW222425   6.126   3.953   4.977
 7176SOL     OW22426   0.878   1.356   4.043
 7176SOL    HW122427   0.798   1.362   4.104
 7176SOL    HW222428   0.913   1.448   4.026
 7177SOL     OW22429   1.796   5.469   5.701
 7177SOL    HW122430   1.698   5.487   5.709
 7177SOL    HW222431   1.845   5.513   5.776
 7178SOL     OW22432   0.257   0.699   5.464
 7178SOL    HW122433   0.241   0.620   5.405
 7178SOL    HW222434   0.292   0.669   5.553
 7179SOL     OW22435   2.275   4.878   6.044
 7179SOL    HW122436   2.313   4.800   5.994
 7179SOL    HW222437   2.253   4.850   6.138
 7180SOL     OW22438   1.832   4.715   1.201
 7180SOL    HW122439   1.910   4.742   1.145
 7180SOL    HW222440   1.790   4.633   1.163
 7181SOL     OW22441   2.321   1.391   5.823
 7181SOL    HW122442   2.275   1.464   5.874
 7181SOL    HW222443   2.289   1.391   5.728
 7182SOL     OW22444   0.569   2.760   4.311
 7182SOL    HW122445   0.617   2.786   4.227
 7182SOL    HW222446   0.553   2.841   4.367
 7183SOL     OW22447   1.753   6.490   1.591
 7183SOL    HW122448   1.788   6.447   1.674
 7183SOL    HW222449   1.707   6.575   1.614
 7184SOL     OW22450   5.918   1.086   3.384
 7184SOL    HW122451   5.896   0.995   3.347
 7184SOL    HW222452   5.916   1.083   3.483
 7185SOL     OW22453   5.119   1.226   5.669
 7185SOL    HW122454   5.204   1.257   5.711
 7185SOL    HW222455   5.078   1.302   5.619
 7186SOL     OW22456   0.278   0.146   0.332
 7186SOL    HW122457   0.244   0.053   0.313
 7186SOL    HW222458   0.262   0.168   0.428
 7187SOL     OW22459   2.903   3.714   4.521
 7187SOL    HW122460   2.848   3.781   4.571
 7187SOL    HW222461   2.975   3.762   4.471
 7188SOL     OW22462   4.635   4.707   6.849
 7188SOL    HW122463   4.685   4.640   6.904
 7188SOL    HW222464   4.593   4.775   6.910
 7189SOL     OW22465   6.360   3.023   5.324
 7189SOL    HW122466   6.297   2.990   5.394
 7189SOL    HW222467   6.358   3.123   5.322
 7190SOL     OW22468   5.985   5.640   1.090
 7190SOL    HW122469   5.978   5.730   1.132
 7190SOL    HW222470   6.057   5.641   1.020
 7191SOL     OW22471   0.808   4.302   3.025
 7191SOL    HW122472   0.794   4.319   3.123
 7191SOL    HW222473   0.725   4.325   2.975
 7192SOL     OW22474   1.953   4.355   6.524
 7192SOL    HW122475   2.010   4.303   6.587
 7192SOL    HW222476   1.940   4.302   6.440
 7193SOL     OW22477   2.902   1.735   2.307
 7193SOL    HW122478   2.827   1.683   2.349
 7193SOL    HW222479   2.988   1.709   2.351
 7194SOL     OW22480   2.364   2.292   0.202
 7194SOL    HW122481   2.321   2.238   0.130
 7194SOL    HW222482   2.461   2.305   0.181
 7195SOL     OW22483   0.035   3.804   6.853
 7195SOL    HW122484   0.044   3.900   6.830
 7195SOL    HW222485   6.971   3.769   6.818
 7196SOL     OW22486   3.145   4.064   2.645
 7196SOL    HW122487   3.061   4.118   2.653
 7196SOL    HW222488   3.185   4.053   2.736
 7197SOL     OW22489   1.427   3.686   5.298
 7197SOL    HW122490   1.421   3.613   5.231
 7197SOL    HW222491   1.463   3.649   5.385
 7198SOL     OW22492   0.121   0.607   0.425
 7198SOL    HW122493   0.181   0.547   0.371
 7198SOL    HW222494   0.060   0.657   0.363
 7199SOL     OW22495   0.812   0.160   2.273
 7199SOL    HW122496   0.716   0.184   2.287
 7199SOL    HW222497   0.826   0.132   2.178
 7200SOL     OW22498   1.866   2.089   0.808
 7200SOL    HW122499   1.839   2.101   0.904
 7200SOL    HW222500   1.928   2.011   0.800
 7201SOL     OW22501   6.798   5.432   3.967
 7201SOL    HW122502   6.863   5.406   4.038
 7201SOL    HW222503   6.828   5.517   3.924
 7202SOL     OW22504   5.213   6.990   6.359
 7202SOL    HW122505   5.161   6.949   6.285
 7202SOL    HW222506   5.298   6.939   6.374
 7203SOL     OW22507   0.626   1.077   1.965
 7203SOL    HW122508   0.690   1.110   2.034
 7203SOL    HW222509   0.661   0.992   1.926
 7204SOL     OW22510   6.396   1.156   0.420
 7204SOL    HW122511   6.493   1.178   0.422
 7204SOL    HW222512   6.382   1.064   0.455
 7205SOL     OW22513   1.412   3.048   4.800
 7205SOL    HW122514   1.481   3.109   4.837
 7205SOL    HW222515   1.457   2.967   4.761
 7206SOL     OW22516   1.269   1.717   1.350
 7206SOL    HW122517   1.355   1.768   1.356
 7206SOL    HW222518   1.264   1.651   1.426
 7207SOL     OW22519   1.896   2.284   4.152
 7207SOL    HW122520   1.991   2.282   4.122
 7207SOL    HW222521   1.874   2.199   4.199
 7208SOL     OW22522   3.764   0.732   4.373
 7208SOL    HW122523   3.780   0.703   4.279
 7208SOL    HW222524   3.801   0.824   4.386
 7209SOL     OW22525   2.110   2.446   2.553
 7209SOL    HW122526   2.078   2.503   2.629
 7209SOL    HW222527   2.163   2.502   2.489
 7210SOL     OW22528   3.013   1.997   3.246
 7210SOL    HW122529   3.112   1.992   3.257
 7210SOL    HW222530   2.978   1.908   3.218
 7211SOL     OW22531   2.527   6.217   5.513
 7211SOL    HW122532   2.500   6.151   5.442
 7211SOL    HW222533   2.553   6.304   5.469
 7212SOL     OW22534   6.103   5.745   6.131
 7212SOL    HW122535   6.041   5.703   6.064
 7212SOL    HW222536   6.072   5.724   6.223
 7213SOL     OW22537   3.645   6.880   0.497
 7213SOL    HW122538   3.593   6.961   0.523
 7213SOL    HW222539   3.734   6.908   0.460
 7214SOL     OW22540   6.882   1.210   6.045
 7214SOL    HW122541   6.876   1.149   5.966
 7214SOL    HW222542   6.934   1.165   6.117
 7215SOL     OW22543   6.827   2.497   3.772
 7215SOL    HW122544   6.812   2.538   3.863
 7215SOL    HW222545   6.910   2.536   3.732
 7216SOL     OW22546   3.059   6.445   2.319
 7216SOL    HW122547   3.134   6.487   2.268
 7216SOL    HW222548   3.090   6.421   2.410
 7217SOL     OW22549   1.000   4.638   3.567
 7217SOL    HW122550   1.055   4.648   3.650
 7217SOL    HW222551   0.971   4.728   3.534
 7218SOL     OW22552   0.189   2.869   4.448
 7218SOL    HW122553   0.134   2.923   4.385
 7218SOL    HW222554   0.168   2.895   4.542
 7219SOL     OW22555   3.275   6.534   1.577
 7219SOL    HW122556   3.339   6.559   1.650
 7219SOL    HW222557   3.181   6.538   1.612
 7220SOL     OW22558   6.583   3.965   4.818
 7220SOL    HW122559   6.610   4.031   4.888
 7220SOL    HW222560   6.653   3.961   4.746
 7221SOL     OW22561   3.169   6.147   4.934
 7221SOL    HW122562   3.250   6.124   4.880
 7221SOL    HW222563   3.091   6.158   4.872
 7222SOL     OW22564   5.823   6.402   3.059
 7222SOL    HW122565   5.782   6.437   2.974
 7222SOL    HW222566   5.750   6.372   3.121
 7223SOL     OW22567   2.401   2.048   1.006
 7223SOL    HW122568   2.462   2.076   0.932
 7223SOL    HW222569   2.353   2.128   1.042
 7224SOL     OW22570   4.416   2.466   4.171
 7224SOL    HW122571   4.382   2.434   4.082
 7224SOL    HW222572   4.353   2.439   4.243
 7225SOL     OW22573   2.204   6.465   0.207
 7225SOL    HW122574   2.188   6.560   0.235
 7225SOL    HW222575   2.117   6.421   0.189
 7226SOL     OW22576   6.068   0.694   0.638
 7226SOL    HW122577   6.061   0.794   0.634
 7226SOL    HW222578   5.986   0.656   0.682
 7227SOL     OW22579   3.029   0.870   2.142
 7227SOL    HW122580   3.067   0.950   2.188
 7227SOL    HW222581   2.945   0.895   2.094
 7228SOL     OW22582   0.234   1.668   3.141
 7228SOL    HW122583   0.274   1.621   3.063
 7228SOL    HW222584   0.167   1.735   3.109
 7229SOL     OW22585   0.111   6.853   4.302
 7229SOL    HW122586   0.166   6.909   4.364
 7229SOL    HW222587   0.122   6.885   4.208
 7230SOL     OW22588   2.708   5.122   4.115
 7230SOL    HW122589   2.776   5.071   4.063
 7230SOL    HW222590   2.753   5.194   4.168
 7231SOL     OW22591   3.449   0.023   0.834
 7231SOL    HW122592   3.458   0.039   0.735
 7231SOL    HW222593   3.510   6.972   0.861
 7232SOL     OW22594   4.795   6.698   2.594
 7232SOL    HW122595   4.822   6.769   2.658
 7232SOL    HW222596   4.712   6.653   2.627
 7233SOL     OW22597   6.303   2.112   5.522
 7233SOL    HW122598   6.351   2.045   5.578
 7233SOL    HW222599   6.332   2.204   5.547
 7234SOL     OW22600   5.262   4.089   2.718
 7234SOL    HW122601   5.306   4.008   2.679
 7234SOL    HW222602   5.234   4.069   2.812
 7235SOL     OW22603   6.107   5.644   1.394
 7235SOL    HW122604   6.007   5.645   1.401
 7235SOL    HW222605   6.136   5.565   1.340
 7236SOL     OW22606   1.684   2.623   3.001
 7236SOL    HW122607   1.604   2.643   2.944
 7236SOL    HW222608   1.687   2.525   3.020
 7237SOL     OW22609   4.817   6.959   6.654
 7237SOL    HW122610   4.817   6.989   6.750
 7237SOL    HW222611   4.897   6.901   6.637
 7238SOL     OW22612   4.546   2.657   6.994
 7238SOL    HW122613   4.549   2.670   0.070
 7238SOL    HW222614   4.637   2.634   6.960
 7239SOL     OW22615   0.661   3.120   2.648
 7239SOL    HW122616   0.684   3.077   2.561
 7239SOL    HW222617   0.722   3.198   2.664
 7240SOL     OW22618   6.624   2.125   6.922
 7240SOL    HW122619   6.571   2.041   6.912
 7240SOL    HW222620   6.696   2.127   6.853
 7241SOL     OW22621   2.267   0.487   0.340
 7241SOL    HW122622   2.349   0.435   0.364
 7241SOL    HW222623   2.211   0.433   0.277
 7242SOL     OW22624   0.173   6.008   5.155
 7242SOL    HW122625   0.099   6.074   5.142
 7242SOL    HW222626   0.256   6.056   5.182
 7243SOL     OW22627   6.932   3.566   6.743
 7243SOL    HW122628   6.903   3.483   6.696
 7243SOL    HW222629   6.852   3.622   6.765
 7244SOL     OW22630   0.590   6.670   0.696
 7244SOL    HW122631   0.599   6.673   0.597
 7244SOL    HW222632   0.529   6.744   0.726
 7245SOL     OW22633   1.569   2.279   5.745
 7245SOL    HW122634   1.485   2.237   5.778
 7245SOL    HW222635   1.586   2.364   5.796
 7246SOL     OW22636   2.371   0.495   4.481
 7246SOL    HW122637   2.392   0.592   4.465
 7246SOL    HW222638   2.454   0.447   4.506
 7247SOL     OW22639   3.216   2.238   5.668
 7247SOL    HW122640   3.241   2.145   5.642
 7247SOL    HW222641   3.135   2.267   5.617
 7248SOL     OW22642   2.831   0.388   4.061
 7248SOL    HW122643   2.800   0.311   4.004
 7248SOL    HW222644   2.841   0.469   4.005
 7249SOL     OW22645   4.280   4.990   1.761
 7249SOL    HW122646   4.362   4.962   1.712
 7249SOL    HW222647   4.242   4.911   1.810
 7250SOL     OW22648   5.349   4.920   5.744
 7250SOL    HW122649   5.334   4.826   5.712
 7250SOL    HW222650   5.362   4.919   5.843
 7251SOL     OW22651   0.583   0.260   5.884
 7251SOL    HW122652   0.556   0.329   5.817
 7251SOL    HW222653   0.576   0.169   5.842
 7252SOL     OW22654   3.036   3.857   2.080
 7252SOL    HW122655   2.980   3.833   2.159
 7252SOL    HW222656   3.076   3.775   2.041
 7253SOL     OW22657   1.993   6.787   6.284
 7253SOL    HW122658   2.082   6.832   6.282
 7253SOL    HW222659   1.963   6.770   6.190
 7254SOL     OW22660   5.892   5.373   3.999
 7254SOL    HW122661   5.872   5.425   4.083
 7254SOL    HW222662   5.985   5.392   3.970
 7255SOL     OW22663   4.727   3.427   6.749
 7255SOL    HW122664   4.698   3.519   6.772
 7255SOL    HW222665   4.826   3.426   6.735
 7256SOL     OW22666   4.078   6.175   5.790
 7256SOL    HW122667   3.995   6.155   5.842
 7256SOL    HW222668   4.155   6.187   5.854
 7257SOL     OW22669   0.063   2.012   4.820
 7257SOL    HW122670   0.006   2.075   4.873
 7257SOL    HW222671   0.158   2.041   4.825
 7258SOL     OW22672   5.586   1.962   2.381
 7258SOL    HW122673   5.647   2.029   2.340
 7258SOL    HW222674   5.520   2.008   2.440
 7259SOL     OW22675   1.209   3.320   2.423
 7259SOL    HW122676   1.143   3.331   2.497
 7259SOL    HW222677   1.299   3.349   2.454
 7260SOL     OW22678   5.056   2.337   1.211
 7260SOL    HW122679   4.976   2.384   1.248
 7260SOL    HW222680   5.057   2.243   1.244
 7261SOL     OW22681   0.547   4.341   1.401
 7261SOL    HW122682   0.551   4.315   1.497
 7261SOL    HW222683   0.585   4.433   1.389
 7262SOL     OW22684   5.543   1.032   6.466
 7262SOL    HW122685   5.467   1.038   6.530
 7262SOL    HW222686   5.519   1.080   6.381
 7263SOL     OW22687   0.031   6.251   0.359
 7263SOL    HW122688   0.109   6.189   0.362
 7263SOL    HW222689   6.976   6.208   0.403
 7264SOL     OW22690   5.419   0.927   1.048
 7264SOL    HW122691   5.368   0.843   1.067
 7264SOL    HW222692   5.507   0.923   1.096
 7265SOL     OW22693   5.806   4.748   5.011
 7265SOL    HW122694   5.829   4.773   5.105
 7265SOL    HW222695   5.753   4.822   4.969
 7266SOL     OW22696   6.467   0.630   3.519
 7266SOL    HW122697   6.425   0.706   3.568
 7266SOL    HW222698   6.565   0.647   3.509
 7267SOL     OW22699   6.465   6.854   5.219
 7267SOL    HW122700   6.430   6.803   5.140
 7267SOL    HW222701   6.536   6.917   5.189
 7268SOL     OW22702   0.156   5.845   4.314
 7268SOL    HW122703   0.087   5.772   4.310
 7268SOL    HW222704   0.131   5.909   4.386
 7269SOL     OW22705   1.716   6.110   6.053
 7269SOL    HW122706   1.632   6.162   6.066
 7269SOL    HW222707   1.707   6.020   6.095
 7270SOL     OW22708   0.248   1.853   4.035
 7270SOL    HW122709   0.240   1.945   3.997
 7270SOL    HW222710   0.222   1.786   3.965
 7271SOL     OW22711   1.618   5.194   4.168
 7271SOL    HW122712   1.533   5.142   4.167
 7271SOL    HW222713   1.610   5.269   4.234
 7272SOL     OW22714   6.246   5.633   2.035
 7272SOL    HW122715   6.237   5.615   1.937
 7272SOL    HW222716   6.160   5.611   2.081
 7273SOL     OW22717   5.132   3.404   0.011
 7273SOL    HW122718   5.114   3.467   6.960
 7273SOL    HW222719   5.173   3.320   6.998
 7274SOL     OW22720   0.154   4.467   0.007
 7274SOL    HW122721   0.203   4.484   6.945
 7274SOL    HW222722   0.064   4.427   7.010
 7275SOL     OW22723   0.427   6.007   2.700
 7275SOL    HW122724   0.441   5.964   2.790
 7275SOL    HW222725   0.406   6.104   2.713
 7276SOL     OW22726   5.751   0.488   3.433
 7276SOL    HW122727   5.828   0.448   3.483
 7276SOL    HW222728   5.770   0.487   3.335
 7277SOL     OW22729   4.843   0.686   5.015
 7277SOL    HW122730   4.895   0.682   5.100
 7277SOL    HW222731   4.874   0.764   4.961
 7278SOL     OW22732   3.388   3.898   1.227
 7278SOL    HW122733   3.415   3.949   1.309
 7278SOL    HW222734   3.469   3.860   1.183
 7279SOL     OW22735   4.388   5.922   7.010
 7279SOL    HW122736   4.380   6.005   0.041
 7279SOL    HW222737   4.418   5.946   6.917
 7280SOL     OW22738   6.694   0.177   3.836
 7280SOL    HW122739   6.630   0.254   3.836
 7280SOL    HW222740   6.774   0.200   3.781
 7281SOL     OW22741   3.045   1.924   0.126
 7281SOL    HW122742   2.992   1.987   0.069
 7281SOL    HW222743   3.078   1.973   0.207
 7282SOL     OW22744   6.048   5.372   2.332
 7282SOL    HW122745   6.028   5.278   2.304
 7282SOL    HW222746   6.130   5.373   2.389
 7283SOL     OW22747   2.927   1.745   3.173
 7283SOL    HW122748   2.863   1.731   3.098
 7283SOL    HW222749   2.999   1.676   3.170
 7284SOL     OW22750   0.724   3.436   5.843
 7284SOL    HW122751   0.631   3.404   5.826
 7284SOL    HW222752   0.787   3.358   5.840
 7285SOL     OW22753   5.282   3.517   2.256
 7285SOL    HW122754   5.258   3.422   2.273
 7285SOL    HW222755   5.253   3.542   2.163
 7286SOL     OW22756   2.722   1.776   0.913
 7286SOL    HW122757   2.665   1.694   0.917
 7286SOL    HW222758   2.745   1.796   0.818
 7287SOL     OW22759   6.865   2.161   6.336
 7287SOL    HW122760   6.822   2.084   6.384
 7287SOL    HW222761   6.941   2.196   6.390
 7288SOL     OW22762   3.183   0.756   7.015
 7288SOL    HW122763   3.085   0.749   6.995
 7288SOL    HW222764   3.196   0.760   0.090
 7289SOL     OW22765   6.177   1.511   3.461
 7289SOL    HW122766   6.092   1.525   3.511
 7289SOL    HW222767   6.158   1.512   3.362
 7290SOL     OW22768   3.689   6.828   5.341
 7290SOL    HW122769   3.711   6.920   5.308
 7290SOL    HW222770   3.620   6.787   5.281
 7291SOL     OW22771   1.503   6.554   0.976
 7291SOL    HW122772   1.556   6.475   1.007
 7291SOL    HW222773   1.468   6.535   0.884
 7292SOL     OW22774   2.709   1.295   4.377
 7292SOL    HW122775   2.750   1.253   4.296
 7292SOL    HW222776   2.648   1.369   4.348
 7293SOL     OW22777   1.696   1.803   5.403
 7293SOL    HW122778   1.742   1.829   5.488
 7293SOL    HW222779   1.645   1.719   5.417
 7294SOL     OW22780   2.312   4.913   0.224
 7294SOL    HW122781   2.386   4.934   0.161
 7294SOL    HW222782   2.313   4.816   0.248
 7295SOL     OW22783   0.821   2.273   0.956
 7295SOL    HW122784   0.788   2.354   0.909
 7295SOL    HW222785   0.894   2.230   0.903
 7296SOL     OW22786   2.390   5.334   1.276
 7296SOL    HW122787   2.333   5.314   1.196
 7296SOL    HW222788   2.331   5.358   1.354
 7297SOL     OW22789   3.527   5.734   1.011
 7297SOL    HW122790   3.489   5.711   0.921
 7297SOL    HW222791   3.520   5.654   1.071
 7298SOL     OW22792   4.691   4.460   5.340
 7298SOL    HW122793   4.705   4.373   5.293
 7298SOL    HW222794   4.779   4.499   5.366
 7299SOL     OW22795   0.241   1.904   0.501
 7299SOL    HW122796   0.184   1.945   0.572
 7299SOL    HW222797   0.323   1.865   0.542
 7300SOL     OW22798   6.157   5.984   2.308
 7300SOL    HW122799   6.239   6.019   2.354
 7300SOL    HW222800   6.102   5.933   2.374
 7301SOL     OW22801   6.570   1.008   4.573
 7301SOL    HW122802   6.646   1.035   4.513
 7301SOL    HW222803   6.490   1.064   4.551
 7302SOL     OW22804   1.029   1.421   6.246
 7302SOL    HW122805   0.976   1.490   6.297
 7302SOL    HW222806   1.012   1.432   6.148
 7303SOL     OW22807   4.627   0.447   6.131
 7303SOL    HW122808   4.724   0.426   6.117
 7303SOL    HW222809   4.619   0.540   6.167
 7304SOL     OW22810   4.040   4.550   0.263
 7304SOL    HW122811   4.032   4.595   0.351
 7304SOL    HW222812   4.119   4.489   0.263
 7305SOL     OW22813   4.863   0.928   0.673
 7305SOL    HW122814   4.874   0.942   0.575
 7305SOL    HW222815   4.776   0.882   0.691
 7306SOL     OW22816   5.280   2.252   1.665
 7306SOL    HW122817   5.342   2.203   1.603
 7306SOL    HW222818   5.334   2.304   1.731
 7307SOL     OW22819   2.421   0.452   2.388
 7307SOL    HW122820   2.504   0.507   2.373
 7307SOL    HW222821   2.393   0.410   2.302
 7308SOL     OW22822   0.029   4.087   5.362
 7308SOL    HW122823   0.067   4.044   5.444
 7308SOL    HW222824   0.103   4.109   5.299
 7309SOL     OW22825   5.173   6.111   0.269
 7309SOL    HW122826   5.209   6.037   0.327
 7309SOL    HW222827   5.130   6.180   0.327
 7310SOL     OW22828   2.080   3.577   1.527
 7310SOL    HW122829   2.143   3.621   1.463
 7310SOL    HW222830   2.039   3.646   1.586
 7311SOL     OW22831   3.404   2.087   2.057
 7311SOL    HW122832   3.487   2.138   2.036
 7311SOL    HW222833   3.371   2.041   1.975
 7312SOL     OW22834   7.000   3.538   6.306
 7312SOL    HW122835   0.040   3.570   6.237
 7312SOL    HW222836   7.000   3.602   6.384
 7313SOL     OW22837   3.497   2.147   6.449
 7313SOL    HW122838   3.482   2.133   6.547
 7313SOL    HW222839   3.583   2.196   6.436
 7314SOL     OW22840   6.740   3.592   5.238
 7314SOL    HW122841   6.747   3.494   5.223
 7314SOL    HW222842   6.677   3.632   5.171
 7315SOL     OW22843   6.540   0.445   2.679
 7315SOL    HW122844   6.508   0.523   2.627
 7315SOL    HW222845   6.625   0.411   2.640
 7316SOL     OW22846   2.728   3.925   6.198
 7316SOL    HW122847   2.754   4.010   6.151
 7316SOL    HW222848   2.801   3.857   6.187
 7317SOL     OW22849   4.688   0.935   2.404
 7317SOL    HW122850   4.709   0.991   2.323
 7317SOL    HW222851   4.674   0.840   2.376
 7318SOL     OW22852   0.903   1.095   1.078
 7318SOL    HW122853   0.970   1.168   1.062
 7318SOL    HW222854   0.928   1.015   1.023
 7319SOL     OW22855   6.373   4.378   5.881
 7319SOL    HW122856   6.436   4.320   5.933
 7319SOL    HW222857   6.285   4.332   5.872
 7320SOL     OW22858   6.167   3.654   1.670
 7320SOL    HW122859   6.254   3.699   1.689
 7320SOL    HW222860   6.119   3.705   1.598
 7321SOL     OW22861   2.829   6.189   5.020
 7321SOL    HW122862   2.879   6.222   4.940
 7321SOL    HW222863   2.874   6.222   5.103
 7322SOL     OW22864   0.100   2.523   3.431
 7322SOL    HW122865   0.096   2.578   3.348
 7322SOL    HW222866   0.144   2.436   3.411
 7323SOL     OW22867   2.090   1.893   1.980
 7323SOL    HW122868   2.138   1.808   1.958
 7323SOL    HW222869   1.993   1.875   1.995
 7324SOL     OW22870   4.642   6.184   2.622
 7324SOL    HW122871   4.577   6.229   2.683
 7324SOL    HW222872   4.727   6.165   2.671
 7325SOL     OW22873   3.654   6.520   0.178
 7325SOL    HW122874   3.572   6.504   0.232
 7325SOL    HW222875   3.692   6.432   0.148
 7326SOL     OW22876   3.222   6.473   5.190
 7326SOL    HW122877   3.307   6.435   5.155
 7326SOL    HW222878   3.242   6.540   5.262
 7327SOL     OW22879   6.709   2.659   5.418
 7327SOL    HW122880   6.671   2.749   5.395
 7327SOL    HW222881   6.766   2.627   5.342
 7328SOL     OW22882   3.377   1.146   6.113
 7328SOL    HW122883   3.426   1.073   6.066
 7328SOL    HW222884   3.279   1.135   6.098
 7329SOL     OW22885   4.934   4.237   1.686
 7329SOL    HW122886   4.847   4.197   1.715
 7329SOL    HW222887   5.004   4.166   1.683
 7330SOL     OW22888   2.629   2.226   0.151
 7330SOL    HW122889   2.652   2.313   0.107
 7330SOL    HW222890   2.662   2.227   0.245
 7331SOL     OW22891   5.627   6.812   2.168
 7331SOL    HW122892   5.637   6.733   2.108
 7331SOL    HW222893   5.645   6.895   2.116
 7332SOL     OW22894   2.116   5.659   0.623
 7332SOL    HW122895   2.021   5.652   0.652
 7332SOL    HW222896   2.131   5.599   0.544
 7333SOL     OW22897   0.088   3.372   3.387
 7333SOL    HW122898   7.021   3.348   3.420
 7333SOL    HW222899   0.079   3.434   3.308
 7334SOL     OW22900   3.486   6.204   6.574
 7334SOL    HW122901   3.404   6.238   6.528
 7334SOL    HW222902   3.462   6.124   6.629
 7335SOL     OW22903   2.038   2.625   2.767
 7335SOL    HW122904   2.115   2.688   2.764
 7335SOL    HW222905   1.991   2.632   2.855
 7336SOL     OW22906   1.344   6.673   3.120
 7336SOL    HW122907   1.392   6.760   3.109
 7336SOL    HW222908   1.380   6.624   3.199
 7337SOL     OW22909   0.199   2.974   1.809
 7337SOL    HW122910   0.273   3.036   1.782
 7337SOL    HW222911   0.224   2.880   1.785
 7338SOL     OW22912   6.170   2.991   1.368
 7338SOL    HW122913   6.224   2.911   1.344
 7338SOL    HW222914   6.089   2.996   1.309
 7339SOL     OW22915   5.163   6.395   3.524
 7339SOL    HW122916   5.068   6.367   3.540
 7339SOL    HW222917   5.204   6.427   3.609
 7340SOL     OW22918   2.136   0.921   1.132
 7340SOL    HW122919   2.145   0.950   1.228
 7340SOL    HW222920   2.085   0.991   1.082
 7341SOL     OW22921   6.468   2.820   0.000
 7341SOL    HW122922   6.518   2.818   0.087
 7341SOL    HW222923   6.455   2.915   6.996
 7342SOL     OW22924   6.864   1.659   1.998
 7342SOL    HW122925   6.927   1.729   1.964
 7342SOL    HW222926   6.796   1.701   2.058
 7343SOL     OW22927   4.905   3.193   0.039
 7343SOL    HW122928   4.954   3.257   7.003
 7343SOL    HW222929   4.956   3.107   0.044
 7344SOL     OW22930   0.699   0.128   6.180
 7344SOL    HW122931   0.686   0.134   6.081
 7344SOL    HW222932   0.739   0.213   6.214
 7345SOL     OW22933   4.222   3.341   5.292
 7345SOL    HW122934   4.148   3.393   5.334
 7345SOL    HW222935   4.207   3.243   5.307
 7346SOL     OW22936   3.798   5.626   2.729
 7346SOL    HW122937   3.761   5.560   2.794
 7346SOL    HW222938   3.735   5.704   2.721
 7347SOL     OW22939   0.601   1.948   0.748
 7347SOL    HW122940   0.607   1.967   0.846
 7347SOL    HW222941   0.660   2.011   0.697
 7348SOL     OW22942   1.700   3.965   3.985
 7348SOL    HW122943   1.712   3.978   3.886
 7348SOL    HW222944   1.711   4.053   4.032
 7349SOL     OW22945   4.414   0.396   2.236
 7349SOL    HW122946   4.410   0.403   2.336
 7349SOL    HW222947   4.492   0.339   2.210
 7350SOL     OW22948   2.843   1.999   5.733
 7350SOL    HW122949   2.877   2.055   5.658
 7350SOL    HW222950   2.777   1.932   5.698
 7351SOL     OW22951   5.723   5.890   3.525
 7351SOL    HW122952   5.676   5.803   3.509
 7351SOL    HW222953   5.662   5.953   3.571
 7352SOL     OW22954   0.395   1.462   2.464
 7352SOL    HW122955   0.471   1.419   2.513
 7352SOL    HW222956   0.432   1.529   2.399
 7353SOL     OW22957   0.168   0.348   6.191
 7353SOL    HW122958   0.139   0.257   6.220
 7353SOL    HW222959   0.233   0.340   6.115
 7354SOL     OW22960   1.647   1.330   5.097
 7354SOL    HW122961   1.720   1.268   5.127
 7354SOL    HW222962   1.633   1.319   4.999
 7355SOL     OW22963   0.732   1.528   6.955
 7355SOL    HW122964   0.716   1.484   0.020
 7355SOL    HW222965   0.648   1.524   6.900
 7356SOL     OW22966   3.715   3.451   6.262
 7356SOL    HW122967   3.799   3.423   6.216
 7356SOL    HW222968   3.689   3.382   6.329
 7357SOL     OW22969   2.979   5.852   2.286
 7357SOL    HW122970   2.906   5.901   2.239
 7357SOL    HW222971   2.939   5.788   2.352
 7358SOL     OW22972   6.507   3.675   2.653
 7358SOL    HW122973   6.484   3.633   2.741
 7358SOL    HW222974   6.470   3.619   2.579
 7359SOL     OW22975   4.201   2.192   5.660
 7359SOL    HW122976   4.222   2.248   5.739
 7359SOL    HW222977   4.102   2.181   5.652
 7360SOL     OW22978   2.576   3.354   5.310
 7360SOL    HW122979   2.556   3.342   5.407
 7360SOL    HW222980   2.546   3.273   5.260
 7361SOL     OW22981   5.274   1.027   2.826
 7361SOL    HW122982   5.366   0.992   2.807
 7361SOL    HW222983   5.245   0.998   2.917
 7362SOL     OW22984   2.487   5.908   6.201
 7362SOL    HW122985   2.428   5.893   6.122
 7362SOL    HW222986   2.508   6.005   6.209
 7363SOL     OW22987   4.669   1.028   1.400
 7363SOL    HW122988   4.705   1.121   1.397
 7363SOL    HW222989   4.630   1.010   1.490
 7364SOL     OW22990   4.281   0.273   1.973
 7364SOL    HW122991   4.295   0.367   2.004
 7364SOL    HW222992   4.190   0.242   2.003
 7365SOL     OW22993   0.766   5.959   1.832
 7365SOL    HW122994   0.826   6.031   1.796
 7365SOL    HW222995   0.818   5.873   1.838
 7366SOL     OW22996   2.239   6.501   5.657
 7366SOL    HW122997   2.219   6.414   5.702
 7366SOL    HW222998   2.233   6.489   5.558
 7367SOL     OW22999   3.599   2.714   0.295
 7367SOL    HW123000   3.583   2.799   0.346
 7367SOL    HW223001   3.512   2.672   0.272
 7368SOL     OW23002   3.808   2.946   2.476
 7368SOL    HW123003   3.904   2.975   2.471
 7368SOL    HW223004   3.781   2.908   2.387
 7369SOL     OW23005   3.699   2.883   1.173
 7369SOL    HW123006   3.660   2.849   1.258
 7369SOL    HW223007   3.794   2.852   1.165
 7370SOL     OW23008   2.570   2.204   6.203
 7370SOL    HW123009   2.521   2.128   6.247
 7370SOL    HW223010   2.567   2.193   6.104
 7371SOL     OW23011   3.320   6.316   3.726
 7371SOL    HW123012   3.284   6.231   3.765
 7371SOL    HW223013   3.418   6.307   3.712
 7372SOL     OW23014   4.488   6.801   4.634
 7372SOL    HW123015   4.507   6.899   4.646
 7372SOL    HW223016   4.498   6.755   4.722
 7373SOL     OW23017   5.751   2.206   5.191
 7373SOL    HW123018   5.774   2.152   5.110
 7373SOL    HW223019   5.748   2.146   5.271
 7374SOL     OW23020   1.814   1.768   4.580
 7374SOL    HW123021   1.817   1.861   4.617
 7374SOL    HW223022   1.842   1.703   4.651
 7375SOL     OW23023   2.162   2.393   1.872
 7375SOL    HW123024   2.173   2.364   1.777
 7375SOL    HW223025   2.067   2.418   1.888
 7376SOL     OW23026   1.285   2.757   1.205
 7376SOL    HW123027   1.330   2.750   1.294
 7376SOL    HW223028   1.188   2.738   1.215
 7377SOL     OW23029   4.138   4.942   0.859
 7377SOL    HW123030   4.093   4.997   0.788
 7377SOL    HW223031   4.074   4.875   0.895
 7378SOL     OW23032   1.442   6.979   5.031
 7378SOL    HW123033   1.524   6.990   4.975
 7378SOL    HW223034   1.404   0.045   5.053
 7379SOL     OW23035   3.165   0.681   1.973
 7379SOL    HW123036   3.099   0.652   1.903
 7379SOL    HW223037   3.115   0.718   2.051
 7380SOL     OW23038   6.843   4.182   3.668
 7380SOL    HW123039   6.832   4.148   3.761
 7380SOL    HW223040   6.799   4.119   3.604
 7381SOL     OW23041   3.759   3.038   0.572
 7381SOL    HW123042   3.660   3.051   0.560
 7381SOL    HW223043   3.807   3.100   0.510
 7382SOL     OW23044   6.959   2.193   5.856
 7382SOL    HW123045   6.931   2.105   5.895
 7382SOL    HW223046   6.988   2.254   5.929
 7383SOL     OW23047   2.601   5.687   1.866
 7383SOL    HW123048   2.624   5.759   1.800
 7383SOL    HW223049   2.665   5.689   1.942
 7384SOL     OW23050   6.770   0.258   1.606
 7384SOL    HW123051   6.688   0.303   1.570
 7384SOL    HW223052   6.770   0.162   1.578
 7385SOL     OW23053   2.807   5.133   2.976
 7385SOL    HW123054   2.781   5.102   3.068
 7385SOL    HW223055   2.816   5.055   2.915
 7386SOL     OW23056   6.466   2.858   6.507
 7386SOL    HW123057   6.376   2.864   6.464
 7386SOL    HW223058   6.506   2.768   6.488
 7387SOL     OW23059   6.940   5.505   5.222
 7387SOL    HW123060   6.923   5.409   5.243
 7387SOL    HW223061   6.869   5.539   5.160
 7388SOL     OW23062   1.344   4.833   2.073
 7388SOL    HW123063   1.377   4.875   1.989
 7388SOL    HW223064   1.334   4.734   2.059
 7389SOL     OW23065   6.820   3.679   0.601
 7389SOL    HW123066   6.914   3.698   0.576
 7389SOL    HW223067   6.764   3.670   0.518
 7390SOL     OW23068   2.837   1.909   2.073
 7390SOL    HW123069   2.880   1.866   2.152
 7390SOL    HW223070   2.891   1.988   2.044
 7391SOL     OW23071   4.117   3.523   2.721
 7391SOL    HW123072   4.215   3.507   2.718
 7391SOL    HW223073   4.079   3.515   2.629
 7392SOL     OW23074   3.544   5.674   0.039
 7392SOL    HW123075   3.532   5.767   0.004
 7392SOL    HW223076   3.562   5.612   6.986
 7393SOL     OW23077   6.146   4.554   3.276
 7393SOL    HW123078   6.203   4.484   3.319
 7393SOL    HW223079   6.069   4.510   3.229
 7394SOL     OW23080   1.736   3.068   5.945
 7394SOL    HW123081   1.720   3.009   6.025
 7394SOL    HW223082   1.793   3.019   5.879
 7395SOL     OW23083   2.009   2.731   1.029
 7395SOL    HW123084   1.911   2.748   1.015
 7395SOL    HW223085   2.061   2.767   0.952
 7396SOL     OW23086   2.391   6.562   1.664
 7396SOL    HW123087   2.487   6.560   1.635
 7396SOL    HW223088   2.386   6.561   1.763
 7397SOL     OW23089   4.854   3.794   4.259
 7397SOL    HW123090   4.810   3.876   4.296
 7397SOL    HW223091   4.870   3.728   4.332
 7398SOL     OW23092   0.985   5.837   3.149
 7398SOL    HW123093   0.936   5.880   3.225
 7398SOL    HW223094   1.083   5.833   3.170
 7399SOL     OW23095   6.291   3.436   5.197
 7399SOL    HW123096   6.368   3.396   5.246
 7399SOL    HW223097   6.248   3.366   5.140
 7400SOL     OW23098   4.953   2.425   5.547
 7400SOL    HW123099   5.046   2.460   5.538
 7400SOL    HW223100   4.935   2.359   5.474
 7401SOL     OW23101   1.695   2.919   3.489
 7401SOL    HW123102   1.600   2.897   3.511
 7401SOL    HW223103   1.746   2.936   3.573
 7402SOL     OW23104   3.306   4.221   6.095
 7402SOL    HW123105   3.286   4.146   6.031
 7402SOL    HW223106   3.230   4.286   6.095
 7403SOL     OW23107   1.313   2.865   2.765
 7403SOL    HW123108   1.322   2.928   2.688
 7403SOL    HW223109   1.216   2.853   2.787
 7404SOL     OW23110   2.756   3.862   1.724
 7404SOL    HW123111   2.698   3.939   1.697
 7404SOL    HW223112   2.841   3.896   1.764
 7405SOL     OW23113   2.715   5.401   5.036
 7405SOL    HW123114   2.747   5.322   4.983
 7405SOL    HW223115   2.663   5.369   5.114
 7406SOL     OW23116   0.835   1.769   5.132
 7406SOL    HW123117   0.846   1.867   5.119
 7406SOL    HW223118   0.739   1.744   5.124
 7407SOL     OW23119   1.141   6.589   6.042
 7407SOL    HW123120   1.073   6.571   6.113
 7407SOL    HW223121   1.179   6.680   6.055
 7408SOL     OW23122   3.467   4.116   5.001
 7408SOL    HW123123   3.447   4.021   4.979
 7408SOL    HW223124   3.534   4.151   4.935
 7409SOL     OW23125   5.423   4.157   0.339
 7409SOL    HW123126   5.360   4.179   0.264
 7409SOL    HW223127   5.513   4.136   0.301
 7410SOL     OW23128   0.532   0.521   0.408
 7410SOL    HW123129   0.476   0.582   0.464
 7410SOL    HW223130   0.569   0.448   0.465
 7411SOL     OW23131   1.794   0.473   6.657
 7411SOL    HW123132   1.759   0.459   6.750
 7411SOL    HW223133   1.889   0.442   6.652
 7412SOL     OW23134   3.787   6.238   1.153
 7412SOL    HW123135   3.780   6.311   1.086
 7412SOL    HW223136   3.700   6.226   1.199
 7413SOL     OW23137   4.867   4.488   3.803
 7413SOL    HW123138   4.886   4.407   3.858
 7413SOL    HW223139   4.846   4.461   3.709
 7414SOL     OW23140   1.778   1.697   4.179
 7414SOL    HW123141   1.780   1.608   4.226
 7414SOL    HW223142   1.683   1.725   4.164
 7415SOL     OW23143   2.859   5.652   5.711
 7415SOL    HW123144   2.814   5.667   5.799
 7415SOL    HW223145   2.947   5.700   5.710
 7416SOL     OW23146   2.050   1.396   2.416
 7416SOL    HW123147   1.979   1.355   2.359
 7416SOL    HW223148   2.007   1.449   2.489
 7417SOL     OW23149   1.796   1.985   2.364
 7417SOL    HW123150   1.734   1.911   2.391
 7417SOL    HW223151   1.884   1.946   2.339
 7418SOL     OW23152   2.357   4.771   6.968
 7418SOL    HW123153   2.372   4.743   0.039
 7418SOL    HW223154   2.361   4.870   6.961
 7419SOL     OW23155   6.411   3.877   3.781
 7419SOL    HW123156   6.326   3.927   3.801
 7419SOL    HW223157   6.461   3.862   3.866
 7420SOL     OW23158   6.718   5.794   1.243
 7420SOL    HW123159   6.655   5.864   1.211
 7420SOL    HW223160   6.672   5.737   1.312
 7421SOL     OW23161   4.147   3.783   1.453
 7421SOL    HW123162   4.177   3.879   1.453
 7421SOL    HW223163   4.079   3.769   1.524
 7422SOL     OW23164   6.486   4.075   2.050
 7422SOL    HW123165   6.425   4.000   2.077
 7422SOL    HW223166   6.448   4.122   1.970
 7423SOL     OW23167   6.147   2.968   5.478
 7423SOL    HW123168   6.089   2.904   5.427
 7423SOL    HW223169   6.119   3.062   5.456
 7424SOL     OW23170   0.023   1.991   5.173
 7424SOL    HW123171   6.949   1.981   5.157
 7424SOL    HW223172   0.067   1.901   5.167
 7425SOL     OW23173   5.405   7.001   0.117
 7425SOL    HW123174   5.338   6.991   0.190
 7425SOL    HW223175   5.484   6.943   0.136
 7426SOL     OW23176   3.492   1.989   5.748
 7426SOL    HW123177   3.460   2.029   5.662
 7426SOL    HW223178   3.536   2.060   5.803
 7427SOL     OW23179   3.440   1.007   3.927
 7427SOL    HW123180   3.432   0.980   3.830
 7427SOL    HW223181   3.533   0.991   3.958
 7428SOL     OW23182   4.648   0.533   5.143
 7428SOL    HW123183   4.703   0.600   5.093
 7428SOL    HW223184   4.572   0.580   5.188
 7429SOL     OW23185   1.142   6.260   2.789
 7429SOL    HW123186   1.088   6.187   2.831
 7429SOL    HW223187   1.233   6.225   2.767
 7430SOL     OW23188   6.740   4.148   1.691
 7430SOL    HW123189   6.782   4.213   1.628
 7430SOL    HW223190   6.810   4.112   1.753
 7431SOL     OW23191   1.811   2.205   3.709
 7431SOL    HW123192   1.758   2.232   3.790
 7431SOL    HW223193   1.803   2.277   3.640
 7432SOL     OW23194   1.832   0.219   3.525
 7432SOL    HW123195   1.759   0.286   3.512
 7432SOL    HW223196   1.897   0.254   3.593
 7433SOL     OW23197   3.505   6.681   6.494
 7433SOL    HW123198   3.563   6.747   6.542
 7433SOL    HW223199   3.559   6.600   6.470
 7434SOL     OW23200   4.869   6.061   5.508
 7434SOL    HW123201   4.777   6.092   5.484
 7434SOL    HW223202   4.919   6.039   5.424
 7435SOL     OW23203   4.276   6.184   1.748
 7435SOL    HW123204   4.207   6.145   1.809
 7435SOL    HW223205   4.289   6.123   1.670
 7436SOL     OW23206   4.588   4.794   6.212
 7436SOL    HW123207   4.495   4.763   6.231
 7436SOL    HW223208   4.589   4.851   6.130
 7437SOL     OW23209   3.139   5.819   1.720
 7437SOL    HW123210   3.158   5.798   1.624
 7437SOL    HW223211   3.100   5.911   1.727
 7438SOL     OW23212   2.017   0.343   0.509
 7438SOL    HW123213   2.073   0.422   0.486
 7438SOL    HW223214   1.926   0.354   0.469
 7439SOL     OW23215   1.530   5.246   5.138
 7439SOL    HW123216   1.628   5.256   5.155
 7439SOL    HW223217   1.479   5.291   5.212
 7440SOL     OW23218   6.078   3.302   3.850
 7440SOL    HW123219   6.009   3.371   3.875
 7440SOL    HW223220   6.131   3.335   3.772
 7441SOL     OW23221   5.999   6.871   3.574
 7441SOL    HW123222   6.069   6.802   3.555
 7441SOL    HW223223   5.908   6.830   3.565
 7442SOL     OW23224   5.970   1.039   6.568
 7442SOL    HW123225   6.045   0.989   6.612
 7442SOL    HW223226   5.980   1.034   6.468
 7443SOL     OW23227   6.838   5.421   1.707
 7443SOL    HW123228   6.796   5.485   1.770
 7443SOL    HW223229   6.888   5.351   1.758
 7444SOL     OW23230   6.555   1.363   6.363
 7444SOL    HW123231   6.561   1.398   6.269
 7444SOL    HW223232   6.472   1.308   6.372
 7445SOL     OW23233   3.982   0.114   1.041
 7445SOL    HW123234   4.047   0.159   1.102
 7445SOL    HW223235   3.929   0.047   1.092
 7446SOL     OW23236   5.015   2.435   0.497
 7446SOL    HW123237   4.962   2.451   0.414
 7446SOL    HW223238   4.999   2.511   0.561
 7447SOL     OW23239   6.889   4.563   6.155
 7447SOL    HW123240   6.833   4.646   6.141
 7447SOL    HW223241   6.975   4.588   6.198
 7448SOL     OW23242   5.233   6.168   5.388
 7448SOL    HW123243   5.240   6.217   5.475
 7448SOL    HW223244   5.244   6.233   5.313
 7449SOL     OW23245   0.387   5.432   0.111
 7449SOL    HW123246   0.415   5.445   0.206
 7449SOL    HW223247   0.333   5.511   0.081
 7450SOL     OW23248   5.145   2.643   5.582
 7450SOL    HW123249   5.079   2.668   5.653
 7450SOL    HW223250   5.223   2.706   5.585
 7451SOL     OW23251   5.529   5.190   2.463
 7451SOL    HW123252   5.546   5.260   2.532
 7451SOL    HW223253   5.442   5.209   2.417
 7452SOL     OW23254   6.489   6.128   4.349
 7452SOL    HW123255   6.487   6.202   4.415
 7452SOL    HW223256   6.422   6.146   4.277
 7453SOL     OW23257   4.905   5.164   6.410
 7453SOL    HW123258   4.888   5.262   6.410
 7453SOL    HW223259   4.870   5.124   6.325
 7454SOL     OW23260   2.653   1.336   0.414
 7454SOL    HW123261   2.667   1.406   0.345
 7454SOL    HW223262   2.566   1.290   0.398
 7455SOL     OW23263   6.273   3.237   2.336
 7455SOL    HW123264   6.346   3.173   2.311
 7455SOL    HW223265   6.250   3.293   2.256
 7456SOL     OW23266   2.759   1.963   5.218
 7456SOL    HW123267   2.673   2.011   5.203
 7456SOL    HW223268   2.835   2.024   5.197
 7457SOL     OW23269   3.219   0.516   4.327
 7457SOL    HW123270   3.122   0.495   4.313
 7457SOL    HW223271   3.245   0.593   4.268
 7458SOL     OW23272   1.179   0.357   5.948
 7458SOL    HW123273   1.139   0.296   6.017
 7458SOL    HW223274   1.271   0.383   5.977
 7459SOL     OW23275   6.505   1.108   2.192
 7459SOL    HW123276   6.466   1.167   2.122
 7459SOL    HW223277   6.602   1.091   2.171
 7460SOL     OW23278   1.601   6.366   6.903
 7460SOL    HW123279   1.617   6.298   6.831
 7460SOL    HW223280   1.509   6.353   6.940
 7461SOL     OW23281   6.207   6.107   5.412
 7461SOL    HW123282   6.112   6.079   5.399
 7461SOL    HW223283   6.209   6.193   5.463
 7462SOL     OW23284   1.816   4.795   1.440
 7462SOL    HW123285   1.893   4.851   1.468
 7462SOL    HW223286   1.830   4.764   1.345
 7463SOL     OW23287   3.311   4.074   0.605
 7463SOL    HW123288   3.275   4.152   0.656
 7463SOL    HW223289   3.411   4.081   0.601
 7464SOL     OW23290   6.685   6.506   5.135
 7464SOL    HW123291   6.651   6.427   5.186
 7464SOL    HW223292   6.783   6.495   5.118
 7465SOL     OW23293   2.861   5.407   0.364
 7465SOL    HW123294   2.855   5.493   0.314
 7465SOL    HW223295   2.869   5.331   0.299
 7466SOL     OW23296   0.652   0.572   6.369
 7466SOL    HW123297   0.576   0.511   6.348
 7466SOL    HW223298   0.673   0.567   6.467
 7467SOL     OW23299   0.433   2.407   6.210
 7467SOL    HW123300   0.405   2.451   6.296
 7467SOL    HW223301   0.529   2.427   6.193
 7468SOL     OW23302   4.917   2.519   4.028
 7468SOL    HW123303   4.946   2.545   3.936
 7468SOL    HW223304   4.899   2.601   4.083
 7469SOL     OW23305   6.480   1.878   0.073
 7469SOL    HW123306   6.439   1.818   0.141
 7469SOL    HW223307   6.408   1.930   0.026
 7470SOL     OW23308   5.460   4.160   3.922
 7470SOL    HW123309   5.380   4.211   3.954
 7470SOL    HW223310   5.496   4.106   3.998
 7471SOL     OW23311   4.870   6.121   5.953
 7471SOL    HW123312   4.907   6.058   5.884
 7471SOL    HW223313   4.877   6.079   6.043
 7472SOL     OW23314   6.228   1.011   5.341
 7472SOL    HW123315   6.137   1.041   5.370
 7472SOL    HW223316   6.226   0.989   5.244
 7473SOL     OW23317   5.213   6.565   3.758
 7473SOL    HW123318   5.221   6.588   3.855
 7473SOL    HW223319   5.120   6.532   3.739
 7474SOL     OW23320   6.342   2.485   6.656
 7474SOL    HW123321   6.243   2.482   6.670
 7474SOL    HW223322   6.385   2.530   6.733
 7475SOL     OW23323   4.358   2.399   2.162
 7475SOL    HW123324   4.268   2.419   2.202
 7475SOL    HW223325   4.371   2.300   2.157
 7476SOL     OW23326   1.908   2.065   3.163
 7476SOL    HW123327   1.841   1.998   3.196
 7476SOL    HW223328   1.994   2.019   3.144
 7477SOL     OW23329   0.439   3.214   5.288
 7477SOL    HW123330   0.411   3.119   5.270
 7477SOL    HW223331   0.503   3.244   5.218
 7478SOL     OW23332   5.605   3.600   5.276
 7478SOL    HW123333   5.702   3.580   5.286
 7478SOL    HW223334   5.574   3.655   5.354
 7479SOL     OW23335   5.285   3.040   0.583
 7479SOL    HW123336   5.216   3.049   0.655
 7479SOL    HW223337   5.241   3.004   0.500
 7480SOL     OW23338   2.228   4.934   2.405
 7480SOL    HW123339   2.229   5.004   2.476
 7480SOL    HW223340   2.140   4.937   2.356
 7481SOL     OW23341   6.305   4.721   6.681
 7481SOL    HW123342   6.261   4.678   6.603
 7481SOL    HW223343   6.304   4.820   6.670
 7482SOL     OW23344   4.442   2.095   2.621
 7482SOL    HW123345   4.518   2.130   2.566
 7482SOL    HW223346   4.456   1.998   2.640
 7483SOL     OW23347   4.643   2.662   4.800
 7483SOL    HW123348   4.667   2.597   4.871
 7483SOL    HW223349   4.628   2.752   4.841
 7484SOL     OW23350   1.535   5.418   4.694
 7484SOL    HW123351   1.524   5.418   4.594
 7484SOL    HW223352   1.581   5.333   4.722
 7485SOL     OW23353   2.784   6.915   3.614
 7485SOL    HW123354   2.734   6.980   3.557
 7485SOL    HW223355   2.880   6.941   3.618
 7486SOL     OW23356   0.685   5.861   0.140
 7486SOL    HW123357   0.743   5.942   0.140
 7486SOL    HW223358   0.738   5.783   0.174
 7487SOL     OW23359   3.998   0.763   3.090
 7487SOL    HW123360   3.976   0.716   3.004
 7487SOL    HW223361   4.004   0.697   3.164
 7488SOL     OW23362   1.541   6.187   4.561
 7488SOL    HW123363   1.534   6.273   4.611
 7488SOL    HW223364   1.591   6.201   4.476
 7489SOL     OW23365   6.551   3.581   6.926
 7489SOL    HW123366   6.507   3.607   6.841
 7489SOL    HW223367   6.632   3.526   6.907
 7490SOL     OW23368   1.494   1.904   2.229
 7490SOL    HW123369   1.487   1.993   2.274
 7490SOL    HW223370   1.501   1.917   2.130
 7491SOL     OW23371   4.730   2.659   0.518
 7491SOL    HW123372   4.734   2.610   0.431
 7491SOL    HW223373   4.701   2.596   0.590
 7492SOL     OW23374   1.921   1.247   4.416
 7492SOL    HW123375   1.873   1.178   4.470
 7492SOL    HW223376   1.993   1.203   4.363
 7493SOL     OW23377   6.475   3.323   5.330
 7493SOL    HW123378   6.481   3.346   5.427
 7493SOL    HW223379   6.567   3.313   5.292
 7494SOL     OW23380   5.581   1.150   4.025
 7494SOL    HW123381   5.672   1.134   4.063
 7494SOL    HW223382   5.570   1.098   3.940
 7495SOL     OW23383   1.817   2.863   4.649
 7495SOL    HW123384   1.849   2.890   4.740
 7495SOL    HW223385   1.767   2.777   4.655
 7496SOL     OW23386   5.590   3.399   3.803
 7496SOL    HW123387   5.574   3.360   3.713
 7496SOL    HW223388   5.688   3.397   3.823
 7497SOL     OW23389   1.688   6.162   1.354
 7497SOL    HW123390   1.701   6.251   1.310
 7497SOL    HW223391   1.772   6.108   1.344
 7498SOL     OW23392   2.346   0.734   4.143
 7498SOL    HW123393   2.252   0.749   4.111
 7498SOL    HW223394   2.374   0.641   4.121
 7499SOL     OW23395   4.092   1.692   3.534
 7499SOL    HW123396   4.000   1.731   3.537
 7499SOL    HW223397   4.123   1.688   3.438
 7500SOL     OW23398   3.525   5.970   3.831
 7500SOL    HW123399   3.600   5.966   3.765
 7500SOL    HW223400   3.536   6.051   3.889
 7501SOL     OW23401   5.886   3.504   3.940
 7501SOL    HW123402   5.835   3.567   3.881
 7501SOL    HW223403   5.838   3.494   4.028
 7502SOL     OW23404   3.752   0.254   4.050
 7502SOL    HW123405   3.823   0.305   4.000
 7502SOL    HW223406   3.665   0.263   4.002
 7503SOL     OW23407   1.964   6.218   0.455
 7503SOL    HW123408   2.023   6.275   0.512
 7503SOL    HW223409   1.872   6.214   0.495
 7504SOL     OW23410   0.683   6.356   1.930
 7504SOL    HW123411   0.614   6.284   1.921
 7504SOL    HW223412   0.708   6.366   2.026
 7505SOL     OW23413   0.657   1.710   5.693
 7505SOL    HW123414   0.594   1.648   5.645
 7505SOL    HW223415   0.751   1.678   5.680
 7506SOL     OW23416   3.647   2.132   3.579
 7506SOL    HW123417   3.692   2.103   3.494
 7506SOL    HW223418   3.599   2.218   3.563
 7507SOL     OW23419   6.745   3.002   4.155
 7507SOL    HW123420   6.648   2.996   4.178
 7507SOL    HW223421   6.764   3.092   4.117
 7508SOL     OW23422   1.817   5.480   0.486
 7508SOL    HW123423   1.912   5.450   0.474
 7508SOL    HW223424   1.792   5.539   0.409
 7509SOL     OW23425   5.660   3.535   0.383
 7509SOL    HW123426   5.564   3.509   0.394
 7509SOL    HW223427   5.703   3.544   0.473
 7510SOL     OW23428   3.989   3.100   3.752
 7510SOL    HW123429   4.002   3.175   3.817
 7510SOL    HW223430   3.975   3.015   3.802
 7511SOL     OW23431   2.690   6.201   3.478
 7511SOL    HW123432   2.593   6.177   3.479
 7511SOL    HW223433   2.743   6.126   3.518
 7512SOL     OW23434   3.057   0.953   6.504
 7512SOL    HW123435   3.137   0.896   6.489
 7512SOL    HW223436   3.039   1.006   6.421
 7513SOL     OW23437   2.241   2.195   3.229
 7513SOL    HW123438   2.219   2.102   3.260
 7513SOL    HW223439   2.189   2.216   3.147
 7514SOL     OW23440   1.752   5.057   3.986
 7514SOL    HW123441   1.816   4.999   4.036
 7514SOL    HW223442   1.691   5.103   4.050
 7515SOL     OW23443   6.974   4.186   5.046
 7515SOL    HW123444   0.024   4.137   5.092
 7515SOL    HW223445   6.892   4.184   5.102
 7516SOL     OW23446   0.699   5.464   6.059
 7516SOL    HW123447   0.695   5.396   6.133
 7516SOL    HW223448   0.607   5.499   6.042
 7517SOL     OW23449   1.433   2.512   0.117
 7517SOL    HW123450   1.523   2.469   0.107
 7517SOL    HW223451   1.408   2.516   0.213
 7518SOL     OW23452   4.747   2.906   3.644
 7518SOL    HW123453   4.740   2.860   3.732
 7518SOL    HW223454   4.830   2.961   3.641
 7519SOL     OW23455   5.372   0.056   4.349
 7519SOL    HW123456   5.294   0.069   4.288
 7519SOL    HW223457   5.386   0.139   4.403
 7520SOL     OW23458   1.274   1.490   2.556
 7520SOL    HW123459   1.255   1.587   2.548
 7520SOL    HW223460   1.302   1.453   2.467
 7521SOL     OW23461   4.647   1.947   4.456
 7521SOL    HW123462   4.706   2.026   4.439
 7521SOL    HW223463   4.670   1.908   4.546
 7522SOL     OW23464   1.077   0.166   4.625
 7522SOL    HW123465   1.111   0.159   4.531
 7522SOL    HW223466   1.117   0.247   4.668
 7523SOL     OW23467   5.189   0.920   5.952
 7523SOL    HW123468   5.154   0.967   6.033
 7523SOL    HW223469   5.221   0.829   5.978
 7524SOL     OW23470   0.154   2.814   4.729
 7524SOL    HW123471   0.194   2.906   4.736
 7524SOL    HW223472   0.146   2.774   4.820
 7525SOL     OW23473   4.161   6.807   6.730
 7525SOL    HW123474   4.104   6.884   6.760
 7525SOL    HW223475   4.104   6.742   6.679
 7526SOL     OW23476   2.483   2.750   1.807
 7526SOL    HW123477   2.482   2.719   1.903
 7526SOL    HW223478   2.478   2.671   1.747
 7527SOL     OW23479   3.371   5.832   4.296
 7527SOL    HW123480   3.381   5.733   4.291
 7527SOL    HW223481   3.353   5.868   4.204
 7528SOL     OW23482   5.257   2.240   6.664
 7528SOL    HW123483   5.220   2.195   6.582
 7528SOL    HW223484   5.313   2.318   6.636
 7529SOL     OW23485   5.468   2.084   3.881
 7529SOL    HW123486   5.506   2.144   3.810
 7529SOL    HW223487   5.451   2.137   3.964
 7530SOL     OW23488   6.325   1.553   1.905
 7530SOL    HW123489   6.342   1.527   2.000
 7530SOL    HW223490   6.401   1.609   1.872
 7531SOL     OW23491   4.932   3.053   3.001
 7531SOL    HW123492   4.913   3.128   2.937
 7531SOL    HW223493   5.024   3.064   3.038
 7532SOL     OW23494   4.474   6.353   6.328
 7532SOL    HW123495   4.497   6.433   6.273
 7532SOL    HW223496   4.469   6.272   6.270
 7533SOL     OW23497   4.432   2.730   1.654
 7533SOL    HW123498   4.506   2.793   1.679
 7533SOL    HW223499   4.466   2.662   1.589
 7534SOL     OW23500   4.671   6.353   4.422
 7534SOL    HW123501   4.642   6.447   4.439
 7534SOL    HW223502   4.704   6.312   4.507
 7535SOL     OW23503   1.608   6.751   4.970
 7535SOL    HW123504   1.625   6.848   4.986
 7535SOL    HW223505   1.574   6.738   4.876
 7536SOL     OW23506   5.592   6.058   4.010
 7536SOL    HW123507   5.538   6.142   4.010
 7536SOL    HW223508   5.544   5.987   4.062
 7537SOL     OW23509   1.833   4.993   1.907
 7537SOL    HW123510   1.826   5.039   1.819
 7537SOL    HW223511   1.860   4.898   1.893
 7538SOL     OW23512   1.773   2.736   1.550
 7538SOL    HW123513   1.785   2.650   1.599
 7538SOL    HW223514   1.731   2.803   1.611
 7539SOL     OW23515   1.693   5.334   2.971
 7539SOL    HW123516   1.628   5.406   2.998
 7539SOL    HW223517   1.783   5.356   3.009
 7540SOL     OW23518   4.938   6.081   4.614
 7540SOL    HW123519   4.992   6.166   4.617
 7540SOL    HW223520   4.841   6.104   4.612
 7541SOL     OW23521   0.576   4.234   6.356
 7541SOL    HW123522   0.667   4.263   6.327
 7541SOL    HW223523   0.582   4.192   6.447
 7542SOL     OW23524   6.737   5.737   5.136
 7542SOL    HW123525   6.790   5.780   5.209
 7542SOL    HW223526   6.664   5.798   5.108
 7543SOL     OW23527   2.781   0.717   5.068
 7543SOL    HW123528   2.758   0.795   5.126
 7543SOL    HW223529   2.708   0.703   5.001
 7544SOL     OW23530   0.708   2.891   4.571
 7544SOL    HW123531   0.756   2.968   4.528
 7544SOL    HW223532   0.615   2.918   4.593
 7545SOL     OW23533   0.357   5.760   5.847
 7545SOL    HW123534   0.280   5.759   5.911
 7545SOL    HW223535   0.326   5.795   5.758
 7546SOL     OW23536   4.651   2.422   1.712
 7546SOL    HW123537   4.706   2.344   1.743
 7546SOL    HW223538   4.582   2.443   1.781
 7547SOL     OW23539   4.741   0.600   1.236
 7547SOL    HW123540   4.831   0.557   1.229
 7547SOL    HW223541   4.726   0.659   1.157
 7548SOL     OW23542   4.296   2.170   6.751
 7548SOL    HW123543   4.241   2.104   6.802
 7548SOL    HW223544   4.237   2.220   6.687
 7549SOL     OW23545   3.628   2.691   6.671
 7549SOL    HW123546   3.717   2.702   6.626
 7549SOL    HW223547   3.596   2.597   6.658
 7550SOL     OW23548   1.703   4.612   3.692
 7550SOL    HW123549   1.697   4.550   3.613
 7550SOL    HW223550   1.671   4.703   3.665
 7551SOL     OW23551   5.214   3.045   5.332
 7551SOL    HW123552   5.259   3.133   5.348
 7551SOL    HW223553   5.283   2.974   5.319
 7552SOL     OW23554   1.544   5.824   4.923
 7552SOL    HW123555   1.446   5.825   4.944
 7552SOL    HW223556   1.557   5.831   4.824
 7553SOL     OW23557   5.788   5.995   6.199
 7553SOL    HW123558   5.756   5.927   6.132
 7553SOL    HW223559   5.728   5.993   6.279
 7554SOL     OW23560   5.022   0.848   0.205
 7554SOL    HW123561   5.079   0.765   0.208
 7554SOL    HW223562   5.040   0.897   0.120
 7555SOL     OW23563   3.157   5.987   5.995
 7555SOL    HW123564   3.068   6.026   5.969
 7555SOL    HW223565   3.151   5.887   5.993
 7556SOL     OW23566   1.163   1.633   0.467
 7556SOL    HW123567   1.153   1.728   0.436
 7556SOL    HW223568   1.121   1.572   0.400
 7557SOL     OW23569   4.346   6.933   0.086
 7557SOL    HW123570   4.402   6.936   0.169
 7557SOL    HW223571   4.401   6.895   0.011
 7558SOL     OW23572   1.444   2.860   3.541
 7558SOL    HW123573   1.379   2.914   3.487
 7558SOL    HW223574   1.410   2.767   3.551
 7559SOL     OW23575   3.920   2.272   5.378
 7559SOL    HW123576   3.871   2.245   5.295
 7559SOL    HW223577   3.925   2.372   5.383
 7560SOL     OW23578   6.199   0.009   0.019
 7560SOL    HW123579   6.179   6.979   6.960
 7560SOL    HW223580   6.291   7.012   0.051
 7561SOL     OW23581   5.813   3.303   5.548
 7561SOL    HW123582   5.813   3.239   5.625
 7561SOL    HW223583   5.733   3.286   5.491
 7562SOL     OW23584   1.018   5.113   4.711
 7562SOL    HW123585   1.117   5.116   4.717
 7562SOL    HW223586   0.985   5.188   4.653
 7563SOL     OW23587   2.901   6.241   2.708
 7563SOL    HW123588   2.922   6.268   2.802
 7563SOL    HW223589   2.864   6.148   2.707
 7564SOL     OW23590   4.165   0.695   4.864
 7564SOL    HW123591   4.162   0.601   4.831
 7564SOL    HW223592   4.248   0.709   4.917
 7565SOL     OW23593   5.971   4.379   5.871
 7565SOL    HW123594   5.917   4.423   5.799
 7565SOL    HW223595   6.034   4.314   5.830
 7566SOL     OW23596   5.120   4.764   2.336
 7566SOL    HW123597   5.131   4.705   2.256
 7566SOL    HW223598   5.026   4.759   2.369
 7567SOL     OW23599   0.917   1.394   5.093
 7567SOL    HW123600   0.945   1.474   5.041
 7567SOL    HW223601   0.828   1.362   5.061
 7568SOL     OW23602   5.575   5.554   2.133
 7568SOL    HW123603   5.531   5.466   2.155
 7568SOL    HW223604   5.634   5.581   2.209
 7569SOL     OW23605   4.217   4.522   6.454
 7569SOL    HW123606   4.309   4.483   6.446
 7569SOL    HW223607   4.150   4.451   6.433
 7570SOL     OW23608   0.113   2.349   3.852
 7570SOL    HW123609   0.104   2.342   3.951
 7570SOL    HW223610   0.154   2.438   3.829
 7571SOL     OW23611   5.506   3.882   2.895
 7571SOL    HW123612   5.480   3.791   2.862
 7571SOL    HW223613   5.436   3.917   2.956
 7572SOL     OW23614   5.039   6.599   2.949
 7572SOL    HW123615   4.990   6.668   3.004
 7572SOL    HW223616   5.125   6.576   2.994
 7573SOL     OW23617   5.834   0.578   5.725
 7573SOL    HW123618   5.867   0.662   5.683
 7573SOL    HW223619   5.896   0.550   5.799
 7574SOL     OW23620   5.819   1.444   4.398
 7574SOL    HW123621   5.807   1.498   4.315
 7574SOL    HW223622   5.914   1.414   4.405
 7575SOL     OW23623   6.114   6.386   0.792
 7575SOL    HW123624   6.128   6.443   0.873
 7575SOL    HW223625   6.028   6.411   0.749
 7576SOL     OW23626   4.971   2.623   0.704
 7576SOL    HW123627   4.909   2.702   0.701
 7576SOL    HW223628   5.066   2.655   0.698
 7577SOL     OW23629   0.037   6.466   0.141
 7577SOL    HW123630   0.069   6.381   0.183
 7577SOL    HW223631   6.984   6.445   0.080
 7578SOL     OW23632   1.213   5.219   2.209
 7578SOL    HW123633   1.195   5.189   2.115
 7578SOL    HW223634   1.252   5.143   2.261
 7579SOL     OW23635   6.791   1.757   1.208
 7579SOL    HW123636   6.761   1.846   1.242
 7579SOL    HW223637   6.882   1.736   1.245
 7580SOL     OW23638   1.653   4.880   3.600
 7580SOL    HW123639   1.725   4.909   3.663
 7580SOL    HW223640   1.676   4.909   3.507
 7581SOL     OW23641   0.639   0.816   0.992
 7581SOL    HW123642   0.595   0.877   1.059
 7581SOL    HW223643   0.619   0.721   1.015
 7582SOL     OW23644   4.211   1.507   3.986
 7582SOL    HW123645   4.125   1.539   4.027
 7582SOL    HW223646   4.239   1.570   3.914
 7583SOL     OW23647   5.513   3.887   3.312
 7583SOL    HW123648   5.472   3.915   3.225
 7583SOL    HW223649   5.583   3.818   3.294
 7584SOL     OW23650   1.044   6.675   2.371
 7584SOL    HW123651   0.992   6.760   2.377
 7584SOL    HW223652   1.045   6.630   2.460
 7585SOL     OW23653   0.822   2.428   6.909
 7585SOL    HW123654   0.763   2.348   6.925
 7585SOL    HW223655   0.880   2.410   6.829
 7586SOL     OW23656   1.709   0.399   2.164
 7586SOL    HW123657   1.764   0.478   2.194
 7586SOL    HW223658   1.696   0.403   2.065
 7587SOL     OW23659   3.013   1.365   0.738
 7587SOL    HW123660   2.989   1.269   0.756
 7587SOL    HW223661   2.989   1.421   0.818
 7588SOL     OW23662   1.301   2.584   4.076
 7588SOL    HW123663   1.210   2.593   4.116
 7588SOL    HW223664   1.348   2.672   4.080
 7589SOL     OW23665   0.110   1.376   3.274
 7589SOL    HW123666   0.069   1.421   3.353
 7589SOL    HW223667   0.122   1.442   3.200
 7590SOL     OW23668   6.109   1.281   6.673
 7590SOL    HW123669   6.054   1.215   6.622
 7590SOL    HW223670   6.141   1.240   6.758
 7591SOL     OW23671   4.867   2.901   6.627
 7591SOL    HW123672   4.899   2.848   6.548
 7591SOL    HW223673   4.767   2.892   6.635
 7592SOL     OW23674   6.186   4.353   4.682
 7592SOL    HW123675   6.200   4.451   4.692
 7592SOL    HW223676   6.275   4.307   4.680
 7593SOL     OW23677   6.849   2.663   6.165
 7593SOL    HW123678   6.934   2.632   6.208
 7593SOL    HW223679   6.785   2.587   6.160
 7594SOL     OW23680   0.908   4.601   1.401
 7594SOL    HW123681   0.945   4.592   1.493
 7594SOL    HW223682   0.978   4.636   1.340
 7595SOL     OW23683   6.966   3.391   6.031
 7595SOL    HW123684   6.973   3.416   6.127
 7595SOL    HW223685   6.954   3.474   5.975
 7596SOL     OW23686   3.243   0.271   5.027
 7596SOL    HW123687   3.203   0.199   4.970
 7596SOL    HW223688   3.176   0.302   5.094
 7597SOL     OW23689   2.071   6.331   2.630
 7597SOL    HW123690   2.141   6.279   2.580
 7597SOL    HW223691   2.108   6.420   2.655
 7598SOL     OW23692   6.155   0.542   3.019
 7598SOL    HW123693   6.253   0.556   3.028
 7598SOL    HW223694   6.106   0.627   3.037
 7599SOL     OW23695   4.862   2.884   1.289
 7599SOL    HW123696   4.840   2.933   1.205
 7599SOL    HW223697   4.790   2.817   1.309
 7600SOL     OW23698   1.441   1.048   3.613
 7600SOL    HW123699   1.497   1.130   3.620
 7600SOL    HW223700   1.501   0.967   3.607
 7601SOL     OW23701   3.324   5.184   2.036
 7601SOL    HW123702   3.394   5.219   2.099
 7601SOL    HW223703   3.324   5.084   2.039
 7602SOL     OW23704   6.997   2.857   0.389
 7602SOL    HW123705   6.958   2.927   0.448
 7602SOL    HW223706   0.068   2.881   0.367
 7603SOL     OW23707   2.233   6.743   6.015
 7603SOL    HW123708   2.235   6.774   6.110
 7603SOL    HW223709   2.301   6.671   6.002
 7604SOL     OW23710   1.584   1.880   5.044
 7604SOL    HW123711   1.500   1.879   5.098
 7604SOL    HW223712   1.577   1.812   4.971
 7605SOL     OW23713   0.672   0.523   0.163
 7605SOL    HW123714   0.740   0.589   0.130
 7605SOL    HW223715   0.670   0.524   0.263
 7606SOL     OW23716   5.676   2.816   4.627
 7606SOL    HW123717   5.734   2.811   4.545
 7606SOL    HW223718   5.712   2.755   4.697
 7607SOL     OW23719   3.829   5.950   0.531
 7607SOL    HW123720   3.759   5.985   0.469
 7607SOL    HW223721   3.880   5.877   0.485
 7608SOL     OW23722   5.147   2.375   6.246
 7608SOL    HW123723   5.141   2.471   6.273
 7608SOL    HW223724   5.170   2.319   6.325
 7609SOL     OW23725   0.230   3.396   3.916
 7609SOL    HW123726   0.260   3.365   4.006
 7609SOL    HW223727   0.130   3.387   3.909
 7610SOL     OW23728   3.720   4.873   6.336
 7610SOL    HW123729   3.716   4.927   6.421
 7610SOL    HW223730   3.632   4.827   6.322
 7611SOL     OW23731   4.925   3.576   1.506
 7611SOL    HW123732   5.023   3.595   1.511
 7611SOL    HW223733   4.886   3.626   1.428
 7612SOL     OW23734   3.926   2.131   3.093
 7612SOL    HW123735   3.926   2.032   3.075
 7612SOL    HW223736   3.980   2.178   3.023
 7613SOL     OW23737   0.704   2.255   1.718
 7613SOL    HW123738   0.795   2.249   1.758
 7613SOL    HW223739   0.711   2.283   1.622
 7614SOL     OW23740   5.103   3.169   1.005
 7614SOL    HW123741   5.087   3.117   1.089
 7614SOL    HW223742   5.045   3.250   1.005
 7615SOL     OW23743   5.684   3.940   5.529
 7615SOL    HW123744   5.743   3.865   5.499
 7615SOL    HW223745   5.662   3.929   5.626
 7616SOL     OW23746   6.193   0.215   3.095
 7616SOL    HW123747   6.262   0.286   3.110
 7616SOL    HW223748   6.141   0.236   3.012
 7617SOL     OW23749   4.978   4.881   2.933
 7617SOL    HW123750   4.973   4.805   2.998
 7617SOL    HW223751   5.010   4.847   2.845
 7618SOL     OW23752   1.324   2.509   0.508
 7618SOL    HW123753   1.232   2.495   0.472
 7618SOL    HW223754   1.371   2.579   0.455
 7619SOL     OW23755   0.140   2.297   4.587
 7619SOL    HW123756   0.221   2.290   4.646
 7619SOL    HW223757   0.125   2.393   4.564
 7620SOL     OW23758   3.582   4.394   0.421
 7620SOL    HW123759   3.527   4.452   0.362
 7620SOL    HW223760   3.597   4.305   0.378
 7621SOL     OW23761   0.168   6.031   0.851
 7621SOL    HW123762   0.074   6.049   0.820
 7621SOL    HW223763   0.200   6.108   0.907
 7622SOL     OW23764   4.237   4.352   0.301
 7622SOL    HW123765   4.298   4.349   0.222
 7622SOL    HW223766   4.284   4.396   0.378
 7623SOL     OW23767   3.995   4.742   0.982
 7623SOL    HW123768   3.971   4.733   1.079
 7623SOL    HW223769   4.076   4.687   0.962
 7624SOL     OW23770   0.421   2.622   2.896
 7624SOL    HW123771   0.348   2.686   2.871
 7624SOL    HW223772   0.395   2.529   2.870
 7625SOL     OW23773   5.461   2.364   6.911
 7625SOL    HW123774   5.391   2.405   6.970
 7625SOL    HW223775   5.457   2.264   6.920
 7626SOL     OW23776   6.503   0.822   5.644
 7626SOL    HW123777   6.585   0.880   5.645
 7626SOL    HW223778   6.511   0.751   5.714
 7627SOL     OW23779   3.314   2.117   0.838
 7627SOL    HW123780   3.405   2.075   0.837
 7627SOL    HW223781   3.252   2.063   0.782
 7628SOL     OW23782   4.200   3.278   1.114
 7628SOL    HW123783   4.222   3.363   1.065
 7628SOL    HW223784   4.128   3.229   1.065
 7629SOL     OW23785   6.371   3.502   4.101
 7629SOL    HW123786   6.317   3.494   4.184
 7629SOL    HW223787   6.452   3.558   4.119
 7630SOL     OW23788   1.334   6.884   5.556
 7630SOL    HW123789   1.284   6.833   5.487
 7630SOL    HW223790   1.275   6.900   5.635
 7631SOL     OW23791   1.702   0.215   5.793
 7631SOL    HW123792   1.761   0.221   5.873
 7631SOL    HW223793   1.632   0.145   5.809
 7632SOL     OW23794   4.443   5.259   1.133
 7632SOL    HW123795   4.379   5.185   1.154
 7632SOL    HW223796   4.499   5.278   1.214
 7633SOL     OW23797   6.014   0.001   1.415
 7633SOL    HW123798   6.113   0.010   1.417
 7633SOL    HW223799   5.989   6.927   1.417
 7634SOL     OW23800   1.370   1.202   1.473
 7634SOL    HW123801   1.278   1.186   1.435
 7634SOL    HW223802   1.362   1.256   1.556
 7635SOL     OW23803   2.534   5.043   4.855
 7635SOL    HW123804   2.457   5.081   4.906
 7635SOL    HW223805   2.565   4.959   4.899
 7636SOL     OW23806   0.190   4.051   4.125
 7636SOL    HW123807   0.174   3.954   4.111
 7636SOL    HW223808   0.110   4.093   4.167
 7637SOL     OW23809   0.760   6.300   3.414
 7637SOL    HW123810   0.732   6.377   3.356
 7637SOL    HW223811   0.745   6.324   3.510
 7638SOL     OW23812   1.594   5.416   1.387
 7638SOL    HW123813   1.571   5.321   1.365
 7638SOL    HW223814   1.576   5.433   1.483
 7639SOL     OW23815   0.073   0.864   0.261
 7639SOL    HW123816   0.161   0.903   0.287
 7639SOL    HW223817   0.069   0.855   0.162
 7640SOL     OW23818   3.457   2.052   6.719
 7640SOL    HW123819   3.385   2.120   6.736
 7640SOL    HW223820   3.543   2.084   6.759
 7641SOL     OW23821   6.851   4.117   3.207
 7641SOL    HW123822   6.933   4.061   3.197
 7641SOL    HW223823   6.788   4.097   3.132
 7642SOL     OW23824   5.885   1.215   2.890
 7642SOL    HW123825   5.800   1.197   2.938
 7642SOL    HW223826   5.939   1.131   2.882
 7643SOL     OW23827   5.382   1.927   3.129
 7643SOL    HW123828   5.348   1.920   3.036
 7643SOL    HW223829   5.327   1.992   3.181
 7644SOL     OW23830   4.831   3.075   2.563
 7644SOL    HW123831   4.842   3.008   2.637
 7644SOL    HW223832   4.791   3.030   2.483
 7645SOL     OW23833   3.822   3.392   5.290
 7645SOL    HW123834   3.734   3.369   5.248
 7645SOL    HW223835   3.886   3.421   5.218
 7646SOL     OW23836   0.765   3.069   3.292
 7646SOL    HW123837   0.785   2.977   3.257
 7646SOL    HW223838   0.848   3.107   3.333
 7647SOL     OW23839   0.891   2.822   4.742
 7647SOL    HW123840   0.977   2.863   4.714
 7647SOL    HW223841   0.818   2.850   4.679
 7648SOL     OW23842   2.371   1.946   3.018
 7648SOL    HW123843   2.360   1.874   3.087
 7648SOL    HW223844   2.402   1.906   2.932
 7649SOL     OW23845   1.035   1.232   4.808
 7649SOL    HW123846   1.006   1.180   4.888
 7649SOL    HW223847   0.954   1.259   4.755
 7650SOL     OW23848   5.101   1.343   1.018
 7650SOL    HW123849   5.158   1.260   1.016
 7650SOL    HW223850   5.160   1.424   1.020
 7651SOL     OW23851   2.123   5.219   4.636
 7651SOL    HW123852   2.159   5.268   4.715
 7651SOL    HW223853   2.157   5.125   4.636
 7652SOL     OW23854   5.734   2.403   4.904
 7652SOL    HW123855   5.789   2.358   4.833
 7652SOL    HW223856   5.652   2.350   4.921
 7653SOL     OW23857   0.985   1.622   6.915
 7653SOL    HW123858   1.022   1.707   6.955
 7653SOL    HW223859   0.887   1.618   6.931
 7654SOL     OW23860   5.692   3.037   4.808
 7654SOL    HW123861   5.673   2.987   4.724
 7654SOL    HW223862   5.696   2.973   4.885
 7655SOL     OW23863   3.127   0.229   3.521
 7655SOL    HW123864   3.150   0.197   3.429
 7655SOL    HW223865   3.113   0.328   3.519
 7656SOL     OW23866   6.500   3.066   5.751
 7656SOL    HW123867   6.540   3.057   5.843
 7656SOL    HW223868   6.409   3.025   5.751
 7657SOL     OW23869   1.846   3.482   4.465
 7657SOL    HW123870   1.790   3.399   4.465
 7657SOL    HW223871   1.934   3.463   4.509
 7658SOL     OW23872   2.955   0.174   0.974
 7658SOL    HW123873   3.006   0.217   1.048
 7658SOL    HW223874   2.859   0.164   1.001
 7659SOL     OW23875   4.459   4.038   6.211
 7659SOL    HW123876   4.423   4.110   6.270
 7659SOL    HW223877   4.389   3.967   6.199
 7660SOL     OW23878   6.393   5.500   4.428
 7660SOL    HW123879   6.447   5.447   4.362
 7660SOL    HW223880   6.431   5.592   4.435
 7661SOL     OW23881   4.538   2.528   6.164
 7661SOL    HW123882   4.505   2.611   6.118
 7661SOL    HW223883   4.512   2.448   6.110
 7662SOL     OW23884   0.798   2.417   3.108
 7662SOL    HW123885   0.895   2.428   3.090
 7662SOL    HW223886   0.747   2.492   3.066
 7663SOL     OW23887   5.221   5.898   5.960
 7663SOL    HW123888   5.199   5.915   6.056
 7663SOL    HW223889   5.235   5.800   5.946
 7664SOL     OW23890   3.996   1.059   3.123
 7664SOL    HW123891   4.019   1.091   3.216
 7664SOL    HW223892   4.014   0.961   3.117
 7665SOL     OW23893   5.319   2.185   4.180
 7665SOL    HW123894   5.372   2.174   4.264
 7665SOL    HW223895   5.229   2.222   4.202
 7666SOL     OW23896   6.279   6.140   4.154
 7666SOL    HW123897   6.240   6.058   4.114
 7666SOL    HW223898   6.285   6.212   4.084
 7667SOL     OW23899   4.575   0.040   2.093
 7667SOL    HW123900   4.495   7.008   2.069
 7667SOL    HW223901   4.654   0.008   2.041
 7668SOL     OW23902   2.700   5.070   1.097
 7668SOL    HW123903   2.775   5.016   1.059
 7668SOL    HW223904   2.621   5.011   1.113
 7669SOL     OW23905   4.128   0.646   5.966
 7669SOL    HW123906   4.218   0.682   5.989
 7669SOL    HW223907   4.125   0.548   5.985
 7670SOL     OW23908   0.727   6.775   0.423
 7670SOL    HW123909   0.743   6.838   0.499
 7670SOL    HW223910   0.738   6.824   0.336
 7671SOL     OW23911   5.562   6.856   2.807
 7671SOL    HW123912   5.477   6.872   2.856
 7671SOL    HW223913   5.580   6.932   2.745
 7672SOL     OW23914   6.778   4.895   3.065
 7672SOL    HW123915   6.763   4.796   3.062
 7672SOL    HW223916   6.795   4.923   3.159
 7673SOL     OW23917   1.534   6.193   2.727
 7673SOL    HW123918   1.461   6.182   2.659
 7673SOL    HW223919   1.621   6.163   2.687
 7674SOL     OW23920   4.131   1.119   4.138
 7674SOL    HW123921   4.123   1.156   4.230
 7674SOL    HW223922   4.191   1.039   4.139
 7675SOL     OW23923   3.499   6.691   3.642
 7675SOL    HW123924   3.438   6.690   3.563
 7675SOL    HW223925   3.586   6.647   3.617
 7676SOL     OW23926   3.043   2.589   6.009
 7676SOL    HW123927   3.046   2.677   5.962
 7676SOL    HW223928   2.969   2.533   5.971
 7677SOL     OW23929   6.919   4.392   1.170
 7677SOL    HW123930   6.901   4.306   1.216
 7677SOL    HW223931   6.981   4.377   1.093
 7678SOL     OW23932   1.764   2.095   5.357
 7678SOL    HW123933   1.799   2.090   5.264
 7678SOL    HW223934   1.740   2.003   5.388
 7679SOL     OW23935   2.038   5.187   5.683
 7679SOL    HW123936   2.073   5.107   5.636
 7679SOL    HW223937   2.049   5.268   5.625
 7680SOL     OW23938   1.418   0.150   5.900
 7680SOL    HW123939   1.345   0.206   5.860
 7680SOL    HW223940   1.436   0.072   5.840
 7681SOL     OW23941   3.002   2.260   6.647
 7681SOL    HW123942   3.016   2.218   6.557
 7681SOL    HW223943   2.927   2.214   6.694
 7682SOL     OW23944   3.608   1.582   2.652
 7682SOL    HW123945   3.509   1.596   2.656
 7682SOL    HW223946   3.633   1.543   2.563
 7683SOL     OW23947   0.757   1.169   4.713
 7683SOL    HW123948   0.669   1.133   4.683
 7683SOL    HW223949   0.817   1.093   4.740
 7684SOL     OW23950   4.343   2.133   1.843
 7684SOL    HW123951   4.268   2.133   1.910
 7684SOL    HW223952   4.313   2.087   1.760
 7685SOL     OW23953   3.796   1.724   6.874
 7685SOL    HW123954   3.766   1.629   6.888
 7685SOL    HW223955   3.835   1.759   6.959
 7686SOL     OW23956   4.679   0.150   4.410
 7686SOL    HW123957   4.731   0.175   4.328
 7686SOL    HW223958   4.616   0.224   4.434
 7687SOL     OW23959   5.258   5.438   4.946
 7687SOL    HW123960   5.286   5.366   5.009
 7687SOL    HW223961   5.274   5.527   4.989
 7688SOL     OW23962   0.276   5.479   5.562
 7688SOL    HW123963   0.277   5.379   5.557
 7688SOL    HW223964   0.370   5.514   5.557
 7689SOL     OW23965   4.627   0.197   1.762
 7689SOL    HW123966   4.546   0.203   1.703
 7689SOL    HW223967   4.621   0.266   1.834
 7690SOL     OW23968   5.831   4.798   0.114
 7690SOL    HW123969   5.873   4.869   0.057
 7690SOL    HW223970   5.903   4.746   0.161
 7691SOL     OW23971   4.522   4.721   2.338
 7691SOL    HW123972   4.610   4.723   2.290
 7691SOL    HW223973   4.480   4.631   2.329
 7692SOL     OW23974   1.185   5.760   1.349
 7692SOL    HW123975   1.276   5.786   1.384
 7692SOL    HW223976   1.116   5.780   1.419
 7693SOL     OW23977   3.069   0.913   1.075
 7693SOL    HW123978   3.150   0.886   1.023
 7693SOL    HW223979   3.097   0.972   1.151
 7694SOL     OW23980   5.412   2.514   4.186
 7694SOL    HW123981   5.500   2.535   4.143
 7694SOL    HW223982   5.366   2.599   4.212
 7695SOL     OW23983   5.837   0.614   2.151
 7695SOL    HW123984   5.765   0.671   2.111
 7695SOL    HW223985   5.881   0.664   2.225
 7696SOL     OW23986   0.294   1.879   6.115
 7696SOL    HW123987   0.297   1.865   6.016
 7696SOL    HW223988   0.371   1.831   6.157
 7697SOL     OW23989   3.222   0.392   2.759
 7697SOL    HW123990   3.305   0.444   2.775
 7697SOL    HW223991   3.243   0.295   2.757
 7698SOL     OW23992   6.009   2.713   6.214
 7698SOL    HW123993   6.052   2.677   6.131
 7698SOL    HW223994   5.918   2.749   6.192
 7699SOL     OW23995   2.404   5.072   6.827
 7699SOL    HW123996   2.481   5.106   6.773
 7699SOL    HW223997   2.319   5.080   6.774
 7700SOL     OW23998   4.596   6.133   3.386
 7700SOL    HW123999   4.565   6.197   3.317
 7700SOL    HW224000   4.694   6.115   3.374
 7701SOL     OW24001   0.081   1.740   6.233
 7701SOL    HW124002   0.031   1.767   6.151
 7701SOL    HW224003   0.178   1.761   6.222
 7702SOL     OW24004   4.430   6.817   5.649
 7702SOL    HW124005   4.399   6.751   5.580
 7702SOL    HW224006   4.364   6.818   5.725
 7703SOL     OW24007   6.559   0.328   4.788
 7703SOL    HW124008   6.489   0.277   4.737
 7703SOL    HW224009   6.520   0.360   4.874
 7704SOL     OW24010   6.408   1.661   3.921
 7704SOL    HW124011   6.426   1.716   3.840
 7704SOL    HW224012   6.361   1.716   3.990
 7705SOL     OW24013   2.455   5.129   0.850
 7705SOL    HW124014   2.479   5.045   0.899
 7705SOL    HW224015   2.428   5.107   0.756
 7706SOL     OW24016   3.380   3.239   2.866
 7706SOL    HW124017   3.470   3.216   2.905
 7706SOL    HW224018   3.327   3.155   2.852
 7707SOL     OW24019   0.174   5.247   6.259
 7707SOL    HW124020   0.103   5.184   6.226
 7707SOL    HW224021   0.148   5.281   6.350
 7708SOL     OW24022   1.338   6.698   3.881
 7708SOL    HW124023   1.280   6.667   3.806
 7708SOL    HW224024   1.427   6.652   3.875
 7709SOL     OW24025   6.604   5.521   1.202
 7709SOL    HW124026   6.582   5.424   1.193
 7709SOL    HW224027   6.559   5.558   1.283
 7710SOL     OW24028   1.872   2.560   0.694
 7710SOL    HW124029   1.865   2.579   0.792
 7710SOL    HW224030   1.891   2.463   0.680
 7711SOL     OW24031   6.544   5.525   5.795
 7711SOL    HW124032   6.462   5.582   5.787
 7711SOL    HW224033   6.573   5.497   5.704
 7712SOL     OW24034   6.515   4.602   6.349
 7712SOL    HW124035   6.539   4.633   6.441
 7712SOL    HW224036   6.566   4.519   6.327
 7713SOL     OW24037   1.847   4.027   0.971
 7713SOL    HW124038   1.870   3.962   1.044
 7713SOL    HW224039   1.931   4.058   0.926
 7714SOL     OW24040   0.103   6.913   4.868
 7714SOL    HW124041   0.096   7.009   4.843
 7714SOL    HW224042   0.147   6.862   4.793
 7715SOL     OW24043   2.726   2.508   6.435
 7715SOL    HW124044   2.678   2.545   6.514
 7715SOL    HW224045   2.825   2.521   6.448
 7716SOL     OW24046   0.534   4.736   6.607
 7716SOL    HW124047   0.436   4.713   6.604
 7716SOL    HW224048   0.588   4.653   6.593
 7717SOL     OW24049   1.498   1.948   5.303
 7717SOL    HW124050   1.471   2.028   5.357
 7717SOL    HW224051   1.581   1.908   5.342
 7718SOL     OW24052   0.626   3.308   3.221
 7718SOL    HW124053   0.691   3.234   3.237
 7718SOL    HW224054   0.596   3.346   3.308
 7719SOL     OW24055   1.628   4.180   4.516
 7719SOL    HW124056   1.707   4.126   4.545
 7719SOL    HW224057   1.657   4.275   4.500
 7720SOL     OW24058   6.015   2.288   6.315
 7720SOL    HW124059   6.080   2.248   6.251
 7720SOL    HW224060   6.006   2.230   6.396
 7721SOL     OW24061   1.442   0.636   2.575
 7721SOL    HW124062   1.360   0.689   2.551
 7721SOL    HW224063   1.457   0.565   2.507
 7722SOL     OW24064   2.415   5.178   3.965
 7722SOL    HW124065   2.445   5.191   4.060
 7722SOL    HW224066   2.426   5.264   3.915
 7723SOL     OW24067   4.697   3.333   6.488
 7723SOL    HW124068   4.788   3.292   6.488
 7723SOL    HW224069   4.684   3.384   6.573
 7724SOL     OW24070   2.994   4.004   0.598
 7724SOL    HW124071   3.022   4.050   0.683
 7724SOL    HW224072   2.949   4.069   0.538
 7725SOL     OW24073   6.044   2.345   2.566
 7725SOL    HW124074   6.013   2.420   2.508
 7725SOL    HW224075   5.977   2.271   2.564
 7726SOL     OW24076   1.202   2.944   6.035
 7726SOL    HW124077   1.270   3.017   6.033
 7726SOL    HW224078   1.247   2.856   6.022
 7727SOL     OW24079   5.746   2.657   1.682
 7727SOL    HW124080   5.827   2.663   1.624
 7727SOL    HW224081   5.664   2.673   1.626
 7728SOL     OW24082   2.333   2.504   5.395
 7728SOL    HW124083   2.360   2.599   5.380
 7728SOL    HW224084   2.382   2.445   5.331
 7729SOL     OW24085   6.112   1.886   1.897
 7729SOL    HW124086   6.041   1.838   1.845
 7729SOL    HW224087   6.201   1.868   1.855
 7730SOL     OW24088   5.614   4.636   5.146
 7730SOL    HW124089   5.690   4.677   5.095
 7730SOL    HW224090   5.527   4.675   5.113
 7731SOL     OW24091   5.806   0.078   1.035
 7731SOL    HW124092   5.800   0.115   0.942
 7731SOL    HW224093   5.714   0.066   1.072
 7732SOL     OW24094   3.945   0.292   0.168
 7732SOL    HW124095   4.013   0.364   0.179
 7732SOL    HW224096   3.990   0.207   0.138
 7733SOL     OW24097   6.117   5.675   2.600
 7733SOL    HW124098   6.146   5.655   2.694
 7733SOL    HW224099   6.085   5.770   2.595
 7734SOL     OW24100   2.440   4.449   5.125
 7734SOL    HW124101   2.508   4.521   5.136
 7734SOL    HW224102   2.362   4.484   5.074
 7735SOL     OW24103   6.389   6.308   0.092
 7735SOL    HW124104   6.301   6.261   0.088
 7735SOL    HW224105   6.396   6.374   0.017
 7736SOL     OW24106   2.746   2.722   0.555
 7736SOL    HW124107   2.698   2.719   0.642
 7736SOL    HW224108   2.845   2.730   0.571
 7737SOL     OW24109   3.658   5.144   1.623
 7737SOL    HW124110   3.700   5.079   1.686
 7737SOL    HW224111   3.566   5.167   1.654
 7738SOL     OW24112   2.476   5.939   6.808
 7738SOL    HW124113   2.464   5.846   6.845
 7738SOL    HW224114   2.490   5.933   6.709
 7739SOL     OW24115   1.166   2.121   2.129
 7739SOL    HW124116   1.148   2.199   2.070
 7739SOL    HW224117   1.220   2.053   2.079
 7740SOL     OW24118   1.911   1.059   2.755
 7740SOL    HW124119   1.876   1.084   2.665
 7740SOL    HW224120   1.977   1.128   2.785
 7741SOL     OW24121   1.646   4.787   5.614
 7741SOL    HW124122   1.722   4.850   5.597
 7741SOL    HW224123   1.561   4.828   5.582
 7742SOL     OW24124   3.975   1.261   3.751
 7742SOL    HW124125   4.057   1.206   3.736
 7742SOL    HW224126   3.976   1.340   3.690
 7743SOL     OW24127   4.841   1.205   6.868
 7743SOL    HW124128   4.844   1.107   6.847
 7743SOL    HW224129   4.884   1.257   6.794
 7744SOL     OW24130   0.846   5.940   4.296
 7744SOL    HW124131   0.834   5.890   4.381
 7744SOL    HW224132   0.944   5.951   4.277
 7745SOL     OW24133   2.384   6.628   6.740
 7745SOL    HW124134   2.452   6.598   6.673
 7745SOL    HW224135   2.324   6.551   6.764
 7746SOL     OW24136   1.183   6.579   0.853
 7746SOL    HW124137   1.258   6.557   0.790
 7746SOL    HW224138   1.152   6.672   0.835
 7747SOL     OW24139   6.814   5.975   0.717
 7747SOL    HW124140   6.850   6.028   0.793
 7747SOL    HW224141   6.878   5.902   0.693
 7748SOL     OW24142   3.670   2.854   5.152
 7748SOL    HW124143   3.588   2.837   5.207
 7748SOL    HW224144   3.647   2.851   5.055
 7749SOL     OW24145   3.457   4.119   3.275
 7749SOL    HW124146   3.550   4.140   3.247
 7749SOL    HW224147   3.419   4.049   3.214
 7750SOL     OW24148   5.385   5.303   6.179
 7750SOL    HW124149   5.326   5.225   6.202
 7750SOL    HW224150   5.452   5.275   6.110
 7751SOL     OW24151   0.205   1.665   3.860
 7751SOL    HW124152   0.303   1.647   3.852
 7751SOL    HW224153   0.154   1.584   3.829
 7752SOL     OW24154   5.911   5.403   5.063
 7752SOL    HW124155   5.831   5.363   5.020
 7752SOL    HW224156   5.885   5.450   5.147
 7753SOL     OW24157   2.583   0.679   4.903
 7753SOL    HW124158   2.487   0.703   4.917
 7753SOL    HW224159   2.591   0.581   4.888
 7754SOL     OW24160   5.518   0.486   1.321
 7754SOL    HW124161   5.430   0.516   1.357
 7754SOL    HW224162   5.574   0.565   1.298
 7755SOL     OW24163   0.650   6.320   5.259
 7755SOL    HW124164   0.670   6.418   5.258
 7755SOL    HW224165   0.642   6.287   5.165
 7756SOL     OW24166   2.565   5.713   2.591
 7756SOL    HW124167   2.540   5.685   2.683
 7756SOL    HW224168   2.660   5.686   2.572
 7757SOL     OW24169   4.784   5.898   4.886
 7757SOL    HW124170   4.699   5.891   4.834
 7757SOL    HW224171   4.861   5.872   4.828
 7758SOL     OW24172   1.921   2.521   6.363
 7758SOL    HW124173   1.993   2.455   6.340
 7758SOL    HW224174   1.960   2.613   6.360
 7759SOL     OW24175   2.490   0.566   5.450
 7759SOL    HW124176   2.463   0.614   5.366
 7759SOL    HW224177   2.585   0.589   5.472
 7760SOL     OW24178   6.136   2.781   2.274
 7760SOL    HW124179   6.191   2.797   2.192
 7760SOL    HW224180   6.100   2.867   2.308
 7761SOL     OW24181   2.839   6.883   6.124
 7761SOL    HW124182   2.919   6.884   6.064
 7761SOL    HW224183   2.867   6.909   6.216
 7762SOL     OW24184   4.011   1.083   6.170
 7762SOL    HW124185   3.963   1.165   6.138
 7762SOL    HW224186   4.024   1.020   6.094
 7763SOL     OW24187   1.370   1.533   1.096
 7763SOL    HW124188   1.310   1.612   1.098
 7763SOL    HW224189   1.337   1.467   1.029
 7764SOL     OW24190   3.891   3.333   2.583
 7764SOL    HW124191   3.793   3.318   2.570
 7764SOL    HW224192   3.918   3.302   2.674
 7765SOL     OW24193   6.385   3.439   4.522
 7765SOL    HW124194   6.460   3.497   4.553
 7765SOL    HW224195   6.414   3.343   4.522
 7766SOL     OW24196   5.180   2.237   6.933
 7766SOL    HW124197   5.095   2.185   6.928
 7766SOL    HW224198   5.224   2.237   6.843
 7767SOL     OW24199   3.738   6.313   3.245
 7767SOL    HW124200   3.648   6.286   3.212
 7767SOL    HW224201   3.755   6.409   3.221
 7768SOL     OW24202   3.833   5.143   3.061
 7768SOL    HW124203   3.799   5.052   3.087
 7768SOL    HW224204   3.829   5.153   2.962
 7769SOL     OW24205   5.175   1.581   1.833
 7769SOL    HW124206   5.237   1.540   1.767
 7769SOL    HW224207   5.095   1.618   1.786
 7770SOL     OW24208   2.563   4.539   2.413
 7770SOL    HW124209   2.572   4.572   2.319
 7770SOL    HW224210   2.517   4.608   2.468
 7771SOL     OW24211   2.528   2.527   4.826
 7771SOL    HW124212   2.468   2.515   4.747
 7771SOL    HW224213   2.479   2.576   4.898
 7772SOL     OW24214   5.212   1.469   3.591
 7772SOL    HW124215   5.178   1.380   3.621
 7772SOL    HW224216   5.288   1.497   3.650
 7773SOL     OW24217   3.484   4.980   5.528
 7773SOL    HW124218   3.528   5.033   5.456
 7773SOL    HW224219   3.474   4.885   5.499
 7774SOL     OW24220   5.731   1.750   5.579
 7774SOL    HW124221   5.735   1.723   5.482
 7774SOL    HW224222   5.812   1.804   5.601
 7775SOL     OW24223   3.460   6.845   3.005
 7775SOL    HW124224   3.400   6.798   3.070
 7775SOL    HW224225   3.414   6.853   2.917
 7776SOL     OW24226   3.221   3.312   5.568
 7776SOL    HW124227   3.308   3.361   5.558
 7776SOL    HW224228   3.234   3.232   5.625
 7777SOL     OW24229   2.439   1.720   5.557
 7777SOL    HW124230   2.376   1.795   5.536
 7777SOL    HW224231   2.396   1.633   5.535
 7778SOL     OW24232   5.299   0.048   6.880
 7778SOL    HW124233   5.341   0.115   6.818
 7778SOL    HW224234   5.356   0.037   6.961
 7779SOL     OW24235   3.552   3.065   0.296
 7779SOL    HW124236   3.580   3.159   0.277
 7779SOL    HW224237   3.487   3.064   0.372
 7780SOL     OW24238   1.934   5.841   4.592
 7780SOL    HW124239   1.865   5.772   4.569
 7780SOL    HW224240   1.935   5.912   4.523
 7781SOL     OW24241   0.891   3.897   5.953
 7781SOL    HW124242   0.889   3.914   6.052
 7781SOL    HW224243   0.956   3.824   5.933
 7782SOL     OW24244   1.546   3.916   5.679
 7782SOL    HW124245   1.485   3.980   5.726
 7782SOL    HW224246   1.547   3.935   5.581
 7783SOL     OW24247   3.147   6.615   6.049
 7783SOL    HW124248   3.168   6.517   6.048
 7783SOL    HW224249   3.104   6.641   5.963
 7784SOL     OW24250   1.517   2.686   6.917
 7784SOL    HW124251   1.507   2.785   6.922
 7784SOL    HW224252   1.484   2.644   7.001
 7785SOL     OW24253   1.725   6.704   4.321
 7785SOL    HW124254   1.808   6.756   4.339
 7785SOL    HW224255   1.718   6.686   4.222
 7786SOL     OW24256   3.148   4.617   5.954
 7786SOL    HW124257   3.129   4.697   6.009
 7786SOL    HW224258   3.238   4.627   5.910
 7787SOL     OW24259   2.219   2.157   5.634
 7787SOL    HW124260   2.138   2.212   5.657
 7787SOL    HW224261   2.205   2.114   5.544
 7788SOL     OW24262   1.416   1.008   1.965
 7788SOL    HW124263   1.419   0.949   2.046
 7788SOL    HW224264   1.441   1.101   1.990
 7789SOL     OW24265   2.393   0.039   0.985
 7789SOL    HW124266   2.348   0.119   0.946
 7789SOL    HW224267   2.485   0.064   1.016
 7790SOL     OW24268   6.277   4.648   3.051
 7790SOL    HW124269   6.222   4.616   3.128
 7790SOL    HW224270   6.366   4.602   3.051
 7791SOL     OW24271   2.569   6.264   4.049
 7791SOL    HW124272   2.626   6.214   3.983
 7791SOL    HW224273   2.501   6.318   3.999
 7792SOL     OW24274   1.447   5.330   5.930
 7792SOL    HW124275   1.373   5.312   5.994
 7792SOL    HW224276   1.431   5.279   5.845
 7793SOL     OW24277   1.579   1.429   5.791
 7793SOL    HW124278   1.635   1.449   5.871
 7793SOL    HW224279   1.629   1.452   5.708
 7794SOL     OW24280   5.136   5.192   4.639
 7794SOL    HW124281   5.067   5.135   4.685
 7794SOL    HW224282   5.137   5.171   4.542
 7795SOL     OW24283   2.150   4.147   5.230
 7795SOL    HW124284   2.103   4.184   5.149
 7795SOL    HW224285   2.226   4.090   5.200
 7796SOL     OW24286   3.659   4.051   3.816
 7796SOL    HW124287   3.633   3.954   3.819
 7796SOL    HW224288   3.627   4.092   3.731
 7797SOL     OW24289   0.084   5.653   3.213
 7797SOL    HW124290   0.063   5.616   3.304
 7797SOL    HW224291   0.146   5.591   3.165
 7798SOL     OW24292   2.061   4.948   6.884
 7798SOL    HW124293   2.044   4.909   6.793
 7798SOL    HW224294   2.047   5.046   6.881
 7799SOL     OW24295   6.829   5.871   1.949
 7799SOL    HW124296   6.878   5.891   1.864
 7799SOL    HW224297   6.781   5.952   1.981
 7800SOL     OW24298   1.036   4.142   1.166
 7800SOL    HW124299   1.102   4.218   1.168
 7800SOL    HW224300   1.017   4.118   1.071
 7801SOL     OW24301   2.356   1.867   1.645
 7801SOL    HW124302   2.404   1.932   1.704
 7801SOL    HW224303   2.308   1.916   1.572
 7802SOL     OW24304   5.984   3.276   0.904
 7802SOL    HW124305   6.043   3.244   0.978
 7802SOL    HW224306   5.985   3.375   0.902
 7803SOL     OW24307   4.655   3.663   5.672
 7803SOL    HW124308   4.603   3.577   5.676
 7803SOL    HW224309   4.708   3.666   5.587
 7804SOL     OW24310   6.110   1.061   4.420
 7804SOL    HW124311   6.113   1.045   4.519
 7804SOL    HW224312   6.199   1.039   4.380
 7805SOL     OW24313   5.458   1.672   1.169
 7805SOL    HW124314   5.375   1.661   1.115
 7805SOL    HW224315   5.434   1.704   1.261
 7806SOL     OW24316   6.066   3.526   5.720
 7806SOL    HW124317   6.150   3.479   5.692
 7806SOL    HW224318   6.052   3.606   5.662
 7807SOL     OW24319   0.380   4.954   6.333
 7807SOL    HW124320   0.447   5.005   6.279
 7807SOL    HW224321   0.396   4.970   6.431
 7808SOL     OW24322   0.228   3.086   4.661
 7808SOL    HW124323   0.313   3.138   4.655
 7808SOL    HW224324   0.157   3.144   4.702
 7809SOL     OW24325   2.542   6.408   4.730
 7809SOL    HW124326   2.487   6.328   4.707
 7809SOL    HW224327   2.533   6.428   4.828
 7810SOL     OW24328   3.205   0.303   5.625
 7810SOL    HW124329   3.154   0.217   5.615
 7810SOL    HW224330   3.271   0.311   5.550
 7811SOL     OW24331   6.568   4.150   4.145
 7811SOL    HW124332   6.609   4.124   4.233
 7811SOL    HW224333   6.594   4.244   4.123
 7812SOL     OW24334   1.684   1.685   3.596
 7812SOL    HW124335   1.614   1.615   3.609
 7812SOL    HW224336   1.764   1.645   3.552
 7813SOL     OW24337   5.010   2.633   6.175
 7813SOL    HW124338   5.049   2.570   6.107
 7813SOL    HW224339   4.948   2.696   6.129
 7814SOL     OW24340   6.824   2.537   3.240
 7814SOL    HW124341   6.835   2.443   3.208
 7814SOL    HW224342   6.912   2.584   3.235
 7815SOL     OW24343   4.780   1.336   6.254
 7815SOL    HW124344   4.706   1.403   6.244
 7815SOL    HW224345   4.748   1.260   6.310
 7816SOL     OW24346   2.466   2.639   6.022
 7816SOL    HW124347   2.500   2.569   6.084
 7816SOL    HW224348   2.494   2.729   6.054
 7817SOL     OW24349   6.448   3.607   3.718
 7817SOL    HW124350   6.520   3.572   3.777
 7817SOL    HW224351   6.409   3.690   3.758
 7818SOL     OW24352   5.539   0.700   2.505
 7818SOL    HW124353   5.537   0.605   2.471
 7818SOL    HW224354   5.496   0.760   2.437
 7819SOL     OW24355   0.385   3.150   1.698
 7819SOL    HW124356   0.369   3.247   1.716
 7819SOL    HW224357   0.469   3.122   1.745
 7820SOL     OW24358   1.625   2.029   4.583
 7820SOL    HW124359   1.714   2.025   4.627
 7820SOL    HW224360   1.603   1.939   4.544
 7821SOL     OW24361   4.368   5.516   1.050
 7821SOL    HW124362   4.404   5.428   1.080
 7821SOL    HW224363   4.268   5.517   1.062
 7822SOL     OW24364   0.254   0.490   5.295
 7822SOL    HW124365   0.225   0.484   5.200
 7822SOL    HW224366   0.213   0.416   5.348
 7823SOL     OW24367   2.244   4.074   4.735
 7823SOL    HW124368   2.253   4.058   4.833
 7823SOL    HW224369   2.304   4.149   4.707
 7824SOL     OW24370   6.472   2.514   4.816
 7824SOL    HW124371   6.571   2.525   4.808
 7824SOL    HW224372   6.440   2.453   4.744
 7825SOL     OW24373   2.587   2.697   0.145
 7825SOL    HW124374   2.591   2.600   0.119
 7825SOL    HW224375   2.653   2.715   0.218
 7826SOL     OW24376   6.660   1.220   0.457
 7826SOL    HW124377   6.702   1.269   0.380
 7826SOL    HW224378   6.724   1.151   0.492
 7827SOL     OW24379   0.998   5.423   1.456
 7827SOL    HW124380   1.015   5.337   1.407
 7827SOL    HW224381   0.920   5.470   1.414
 7828SOL     OW24382   6.333   4.224   6.379
 7828SOL    HW124383   6.270   4.289   6.337
 7828SOL    HW224384   6.296   4.193   6.467
 7829SOL     OW24385   3.255   3.239   1.328
 7829SOL    HW124386   3.277   3.305   1.399
 7829SOL    HW224387   3.321   3.164   1.330
 7830SOL     OW24388   3.332   5.358   5.593
 7830SOL    HW124389   3.316   5.267   5.631
 7830SOL    HW224390   3.380   5.349   5.505
 7831SOL     OW24391   1.975   0.818   1.841
 7831SOL    HW124392   2.009   0.911   1.849
 7831SOL    HW224393   1.887   0.818   1.795
 7832SOL     OW24394   5.767   0.024   4.101
 7832SOL    HW124395   5.673   0.006   4.073
 7832SOL    HW224396   5.824   0.037   4.019
 7833SOL     OW24397   1.603   0.821   4.448
 7833SOL    HW124398   1.616   0.779   4.538
 7833SOL    HW224399   1.544   0.901   4.457
 7834SOL     OW24400   7.012   1.558   3.483
 7834SOL    HW124401   7.010   1.500   3.565
 7834SOL    HW224402   6.931   1.617   3.483
 7835SOL     OW24403   3.491   1.805   4.556
 7835SOL    HW124404   3.498   1.900   4.524
 7835SOL    HW224405   3.486   1.744   4.477
 7836SOL     OW24406   3.441   3.970   5.517
 7836SOL    HW124407   3.439   4.000   5.422
 7836SOL    HW224408   3.478   4.043   5.574
 7837SOL     OW24409   5.025   6.449   0.171
 7837SOL    HW124410   4.964   6.511   0.121
 7837SOL    HW224411   5.089   6.503   0.226
 7838SOL     OW24412   4.978   5.458   1.360
 7838SOL    HW124413   4.909   5.427   1.293
 7838SOL    HW224414   4.981   5.558   1.359
 7839SOL     OW24415   5.591   4.184   4.705
 7839SOL    HW124416   5.666   4.220   4.649
 7839SOL    HW224417   5.606   4.086   4.720
 7840SOL     OW24418   0.780   4.372   4.132
 7840SOL    HW124419   0.682   4.353   4.142
 7840SOL    HW224420   0.824   4.297   4.083
 7841SOL     OW24421   4.747   2.000   6.557
 7841SOL    HW124422   4.843   2.020   6.579
 7841SOL    HW224423   4.689   2.074   6.589
 7842SOL     OW24424   1.921   1.576   2.580
 7842SOL    HW124425   1.880   1.601   2.668
 7842SOL    HW224426   1.995   1.639   2.559
 7843SOL     OW24427   6.903   6.656   3.986
 7843SOL    HW124428   6.942   6.641   4.077
 7843SOL    HW224429   6.927   6.580   3.926
 7844SOL     OW24430   3.722   0.759   2.080
 7844SOL    HW124431   3.696   0.707   2.161
 7844SOL    HW224432   3.821   0.775   2.081
 7845SOL     OW24433   5.164   1.858   1.287
 7845SOL    HW124434   5.204   1.814   1.367
 7845SOL    HW224435   5.086   1.804   1.254
 7846SOL     OW24436   1.245   2.056   0.687
 7846SOL    HW124437   1.237   2.043   0.589
 7846SOL    HW224438   1.340   2.042   0.716
 7847SOL     OW24439   6.158   1.469   4.100
 7847SOL    HW124440   6.245   1.518   4.092
 7847SOL    HW224441   6.150   1.403   4.026
 7848SOL     OW24442   2.753   4.227   0.585
 7848SOL    HW124443   2.844   4.250   0.550
 7848SOL    HW224444   2.712   4.308   0.627
 7849SOL     OW24445   5.861   3.527   4.941
 7849SOL    HW124446   5.887   3.434   4.915
 7849SOL    HW224447   5.914   3.555   5.022
 7850SOL     OW24448   6.772   1.571   3.701
 7850SOL    HW124449   6.697   1.518   3.664
 7850SOL    HW224450   6.796   1.645   3.638
 7851SOL     OW24451   0.814   2.776   1.891
 7851SOL    HW124452   0.779   2.811   1.804
 7851SOL    HW224453   0.861   2.689   1.877
 7852SOL     OW24454   2.842   1.085   7.020
 7852SOL    HW124455   2.796   1.006   0.037
 7852SOL    HW224456   2.881   1.142   0.069
 7853SOL     OW24457   4.721   2.855   1.727
 7853SOL    HW124458   4.690   2.930   1.786
 7853SOL    HW224459   4.798   2.886   1.672
 7854SOL     OW24460   3.891   2.447   6.336
 7854SOL    HW124461   3.966   2.388   6.307
 7854SOL    HW224462   3.867   2.510   6.262
 7855SOL     OW24463   4.721   6.035   4.234
 7855SOL    HW124464   4.695   5.992   4.321
 7855SOL    HW224465   4.820   6.036   4.226
 7856SOL     OW24466   1.194   4.956   5.501
 7856SOL    HW124467   1.161   4.983   5.591
 7856SOL    HW224468   1.118   4.954   5.436
 7857SOL     OW24469   4.811   3.807   0.675
 7857SOL    HW124470   4.848   3.900   0.672
 7857SOL    HW224471   4.859   3.755   0.746
 7858SOL     OW24472   6.761   5.865   4.535
 7858SOL    HW124473   6.854   5.857   4.570
 7858SOL    HW224474   6.706   5.918   4.600
 7859SOL     OW24475   4.506   3.305   6.938
 7859SOL    HW124476   4.451   3.283   6.857
 7859SOL    HW224477   4.589   3.353   6.909
 7860SOL     OW24478   3.864   1.317   3.996
 7860SOL    HW124479   3.939   1.294   3.933
 7860SOL    HW224480   3.854   1.243   4.063
 7861SOL     OW24481   2.771   5.650   2.068
 7861SOL    HW124482   2.862   5.642   2.028
 7861SOL    HW224483   2.756   5.743   2.100
 7862SOL     OW24484   2.552   5.525   2.174
 7862SOL    HW124485   2.642   5.553   2.143
 7862SOL    HW224486   2.524   5.443   2.123
 7863SOL     OW24487   0.382   4.247   3.378
 7863SOL    HW124488   0.459   4.247   3.441
 7863SOL    HW224489   0.388   4.166   3.319
 7864SOL     OW24490   1.875   5.913   6.428
 7864SOL    HW124491   1.800   5.848   6.440
 7864SOL    HW224492   1.916   5.934   6.516
 7865SOL     OW24493   6.183   5.917   4.001
 7865SOL    HW124494   6.154   5.986   3.935
 7865SOL    HW224495   6.273   5.881   3.975
 7866SOL     OW24496   2.208   0.494   4.698
 7866SOL    HW124497   2.149   0.414   4.711
 7866SOL    HW224498   2.279   0.472   4.631
 7867SOL     OW24499   5.714   7.006   3.510
 7867SOL    HW124500   5.745   0.047   3.440
 7867SOL    HW224501   5.636   6.954   3.475
 7868SOL     OW24502   3.571   5.273   1.027
 7868SOL    HW124503   3.650   5.242   1.080
 7868SOL    HW224504   3.593   5.272   0.930
 7869SOL     OW24505   5.023   4.850   5.796
 7869SOL    HW124506   4.996   4.754   5.806
 7869SOL    HW224507   4.991   4.884   5.708
 7870SOL     OW24508   4.870   0.144   5.043
 7870SOL    HW124509   4.801   0.176   5.108
 7870SOL    HW224510   4.955   0.195   5.058
 7871SOL     OW24511   5.723   1.548   2.028
 7871SOL    HW124512   5.733   1.550   1.929
 7871SOL    HW224513   5.801   1.500   2.069
 7872SOL     OW24514   1.584   4.621   2.647
 7872SOL    HW124515   1.639   4.539   2.634
 7872SOL    HW224516   1.510   4.602   2.711
 7873SOL     OW24517   6.100   1.171   0.568
 7873SOL    HW124518   6.028   1.139   0.507
 7873SOL    HW224519   6.168   1.222   0.516
 7874SOL     OW24520   5.543   2.719   1.245
 7874SOL    HW124521   5.541   2.707   1.344
 7874SOL    HW224522   5.596   2.801   1.223
 7875SOL     OW24523   3.712   3.596   0.201
 7875SOL    HW124524   3.701   3.664   0.129
 7875SOL    HW224525   3.757   3.638   0.280
 7876SOL     OW24526   0.932   0.348   3.149
 7876SOL    HW124527   1.009   0.290   3.120
 7876SOL    HW224528   0.847   0.294   3.144
 7877SOL     OW24529   6.917   1.921   2.796
 7877SOL    HW124530   6.833   1.940   2.847
 7877SOL    HW224531   6.945   2.003   2.747
 7878SOL     OW24532   4.876   3.756   3.517
 7878SOL    HW124533   4.882   3.741   3.418
 7878SOL    HW224534   4.828   3.841   3.535
 7879SOL     OW24535   3.128   5.081   3.177
 7879SOL    HW124536   3.211   5.035   3.145
 7879SOL    HW224537   3.149   5.133   3.260
 7880SOL     OW24538   2.287   3.720   0.866
 7880SOL    HW124539   2.291   3.790   0.936
 7880SOL    HW224540   2.356   3.739   0.796
 7881SOL     OW24541   5.137   4.484   4.383
 7881SOL    HW124542   5.212   4.525   4.435
 7881SOL    HW224543   5.081   4.428   4.444
 7882SOL     OW24544   2.369   3.839   1.667
 7882SOL    HW124545   2.429   3.913   1.696
 7882SOL    HW224546   2.306   3.872   1.597
 7883SOL     OW24547   0.857   0.370   5.885
 7883SOL    HW124548   0.899   0.460   5.873
 7883SOL    HW224549   0.779   0.378   5.948
 7884SOL     OW24550   1.181   4.033   3.987
 7884SOL    HW124551   1.107   4.091   3.953
 7884SOL    HW224552   1.173   4.023   4.086
 7885SOL     OW24553   6.208   5.414   0.947
 7885SOL    HW124554   6.236   5.508   0.967
 7885SOL    HW224555   6.290   5.356   0.939
 7886SOL     OW24556   4.267   5.927   0.541
 7886SOL    HW124557   4.358   5.948   0.578
 7886SOL    HW224558   4.203   5.998   0.570
 7887SOL     OW24559   3.639   2.097   0.380
 7887SOL    HW124560   3.726   2.123   0.337
 7887SOL    HW224561   3.633   1.998   0.386
 7888SOL     OW24562   5.152   0.233   3.898
 7888SOL    HW124563   5.124   0.323   3.933
 7888SOL    HW224564   5.191   0.179   3.973
 7889SOL     OW24565   0.843   5.523   1.218
 7889SOL    HW124566   0.940   5.550   1.210
 7889SOL    HW224567   0.787   5.585   1.163
 7890SOL     OW24568   1.876   3.754   2.145
 7890SOL    HW124569   1.788   3.762   2.097
 7890SOL    HW224570   1.929   3.838   2.131
 7891SOL     OW24571   2.458   4.796   2.497
 7891SOL    HW124572   2.495   4.859   2.565
 7891SOL    HW224573   2.366   4.826   2.471
 7892SOL     OW24574   2.047   2.369   5.036
 7892SOL    HW124575   2.029   2.467   5.047
 7892SOL    HW224576   2.097   2.336   5.116
 7893SOL     OW24577   5.672   6.546   1.329
 7893SOL    HW124578   5.693   6.464   1.276
 7893SOL    HW224579   5.652   6.622   1.266
 7894SOL     OW24580   2.699   6.383   2.146
 7894SOL    HW124581   2.774   6.401   2.209
 7894SOL    HW224582   2.732   6.393   2.051
 7895SOL     OW24583   6.418   1.397   5.030
 7895SOL    HW124584   6.430   1.298   5.023
 7895SOL    HW224585   6.426   1.425   5.125
 7896SOL     OW24586   4.713   4.323   5.801
 7896SOL    HW124587   4.679   4.416   5.816
 7896SOL    HW224588   4.752   4.316   5.709
 7897SOL     OW24589   2.509   3.756   6.189
 7897SOL    HW124590   2.586   3.820   6.191
 7897SOL    HW224591   2.423   3.807   6.189
 7898SOL     OW24592   4.764   2.132   3.505
 7898SOL    HW124593   4.731   2.222   3.479
 7898SOL    HW224594   4.813   2.139   3.593
 7899SOL     OW24595   6.629   1.950   1.319
 7899SOL    HW124596   6.576   1.998   1.389
 7899SOL    HW224597   6.573   1.879   1.277
 7900SOL     OW24598   1.835   5.146   1.038
 7900SOL    HW124599   1.880   5.118   1.123
 7900SOL    HW224600   1.736   5.131   1.045
 7901SOL     OW24601   5.666   0.278   5.776
 7901SOL    HW124602   5.603   0.334   5.722
 7901SOL    HW224603   5.653   0.295   5.873
 7902SOL     OW24604   4.867   5.111   1.512
 7902SOL    HW124605   4.856   5.124   1.413
 7902SOL    HW224606   4.941   5.046   1.530
 7903SOL     OW24607   5.753   2.179   0.147
 7903SOL    HW124608   5.673   2.164   0.204
 7903SOL    HW224609   5.828   2.214   0.203
 7904SOL     OW24610   6.523   1.202   2.448
 7904SOL    HW124611   6.536   1.168   2.355
 7904SOL    HW224612   6.552   1.133   2.514
 7905SOL     OW24613   4.748   1.588   0.984
 7905SOL    HW124614   4.670   1.527   0.973
 7905SOL    HW224615   4.718   1.683   0.973
 7906SOL     OW24616   6.757   6.087   6.798
 7906SOL    HW124617   6.770   6.084   6.897
 7906SOL    HW224618   6.792   6.174   6.763
 7907SOL     OW24619   6.320   2.399   4.649
 7907SOL    HW124620   6.225   2.425   4.665
 7907SOL    HW224621   6.335   2.385   4.551
 7908SOL     OW24622   1.205   0.680   3.931
 7908SOL    HW124623   1.267   0.670   3.853
 7908SOL    HW224624   1.114   0.649   3.905
 7909SOL     OW24625   4.901   3.668   4.746
 7909SOL    HW124626   4.973   3.601   4.762
 7909SOL    HW224627   4.833   3.662   4.819
 7910SOL     OW24628   3.921   2.989   5.194
 7910SOL    HW124629   3.979   2.999   5.114
 7910SOL    HW224630   3.844   2.928   5.172
 7911SOL     OW24631   6.815   4.582   0.845
 7911SOL    HW124632   6.836   4.505   0.785
 7911SOL    HW224633   6.731   4.626   0.814
 7912SOL     OW24634   6.570   5.546   6.534
 7912SOL    HW124635   6.611   5.607   6.601
 7912SOL    HW224636   6.513   5.478   6.580
 7913SOL     OW24637   0.376   5.408   6.263
 7913SOL    HW124638   0.391   5.436   6.168
 7913SOL    HW224639   0.309   5.334   6.265
 7914SOL     OW24640   6.702   4.976   0.720
 7914SOL    HW124641   6.659   5.052   0.768
 7914SOL    HW224642   6.637   4.935   0.656
 7915SOL     OW24643   5.083   2.079   2.933
 7915SOL    HW124644   4.992   2.050   2.963
 7915SOL    HW224645   5.106   2.036   2.846
 7916SOL     OW24646   5.440   3.791   5.379
 7916SOL    HW124647   5.497   3.866   5.410
 7916SOL    HW224648   5.431   3.793   5.279
 7917SOL     OW24649   3.841   2.929   3.913
 7917SOL    HW124650   3.860   2.843   3.960
 7917SOL    HW224651   3.823   3.001   3.980
 7918SOL     OW24652   6.139   1.615   1.254
 7918SOL    HW124653   6.219   1.561   1.228
 7918SOL    HW224654   6.056   1.562   1.238
 7919SOL     OW24655   6.284   4.289   3.225
 7919SOL    HW124656   6.361   4.328   3.174
 7919SOL    HW224657   6.276   4.192   3.205
 7920SOL     OW24658   0.090   4.599   1.312
 7920SOL    HW124659   0.125   4.540   1.385
 7920SOL    HW224660   0.005   4.562   1.276
 7921SOL     OW24661   3.264   6.619   1.164
 7921SOL    HW124662   3.325   6.639   1.088
 7921SOL    HW224663   3.311   6.562   1.231
 7922SOL     OW24664   6.764   5.709   0.064
 7922SOL    HW124665   6.665   5.709   0.072
 7922SOL    HW224666   6.803   5.774   0.129
 7923SOL     OW24667   1.647   1.403   3.105
 7923SOL    HW124668   1.562   1.364   3.141
 7923SOL    HW224669   1.699   1.331   3.058
 7924SOL     OW24670   2.907   6.323   3.850
 7924SOL    HW124671   2.902   6.396   3.917
 7924SOL    HW224672   2.962   6.352   3.772
 7925SOL     OW24673   6.679   1.919   6.244
 7925SOL    HW124674   6.707   1.944   6.337
 7925SOL    HW224675   6.619   1.840   6.248
 7926SOL     OW24676   3.349   0.663   3.736
 7926SOL    HW124677   3.342   0.629   3.643
 7926SOL    HW224678   3.317   0.758   3.739
 7927SOL     OW24679   4.090   5.330   4.792
 7927SOL    HW124680   4.097   5.378   4.705
 7927SOL    HW224681   4.102   5.232   4.777
 7928SOL     OW24682   1.475   4.710   3.331
 7928SOL    HW124683   1.457   4.612   3.343
 7928SOL    HW224684   1.564   4.732   3.369
 7929SOL     OW24685   4.106   3.540   4.509
 7929SOL    HW124686   4.052   3.520   4.427
 7929SOL    HW224687   4.067   3.493   4.588
 7930SOL     OW24688   4.907   5.835   3.794
 7930SOL    HW124689   4.819   5.829   3.748
 7930SOL    HW224690   4.975   5.783   3.743
 7931SOL     OW24691   1.836   2.703   0.028
 7931SOL    HW124692   1.928   2.742   0.039
 7931SOL    HW224693   1.826   2.667   6.959
 7932SOL     OW24694   2.709   0.651   6.914
 7932SOL    HW124695   2.800   0.681   6.943
 7932SOL    HW224696   2.668   0.598   6.988
 7933SOL     OW24697   0.700   6.885   6.849
 7933SOL    HW124698   0.722   6.950   6.922
 7933SOL    HW224699   0.618   6.915   6.800
 7934SOL     OW24700   2.353   3.198   0.561
 7934SOL    HW124701   2.323   3.243   0.645
 7934SOL    HW224702   2.285   3.129   0.534
 7935SOL     OW24703   4.810   5.953   6.896
 7935SOL    HW124704   4.868   5.961   6.977
 7935SOL    HW224705   4.843   5.878   6.839
 7936SOL     OW24706   3.626   5.975   3.117
 7936SOL    HW124707   3.578   6.058   3.143
 7936SOL    HW224708   3.564   5.897   3.122
 7937SOL     OW24709   5.259   0.092   4.719
 7937SOL    HW124710   5.294   0.165   4.659
 7937SOL    HW224711   5.167   0.067   4.690
 7938SOL     OW24712   4.521   4.935   4.792
 7938SOL    HW124713   4.434   4.895   4.822
 7938SOL    HW224714   4.525   5.031   4.819
 7939SOL     OW24715   1.025   1.011   6.004
 7939SOL    HW124716   1.022   1.036   6.101
 7939SOL    HW224717   0.943   0.960   5.979
 7940SOL     OW24718   2.578   5.045   2.014
 7940SOL    HW124719   2.649   4.979   1.989
 7940SOL    HW224720   2.512   5.002   2.075
 7941SOL     OW24721   6.739   0.511   1.039
 7941SOL    HW124722   6.802   0.492   0.964
 7941SOL    HW224723   6.758   0.602   1.076
 7942SOL     OW24724   0.268   6.263   2.034
 7942SOL    HW124725   0.169   6.250   2.027
 7942SOL    HW224726   0.304   6.288   1.944
 7943SOL     OW24727   5.756   2.217   1.122
 7943SOL    HW124728   5.664   2.179   1.121
 7943SOL    HW224729   5.776   2.259   1.033
 7944SOL     OW24730   6.979   3.402   1.356
 7944SOL    HW124731   6.924   3.438   1.280
 7944SOL    HW224732   0.039   3.361   1.319
 7945SOL     OW24733   5.087   0.256   2.769
 7945SOL    HW124734   5.084   0.300   2.859
 7945SOL    HW224735   5.081   0.326   2.698
 7946SOL     OW24736   2.143   1.824   6.058
 7946SOL    HW124737   2.210   1.864   6.121
 7946SOL    HW224738   2.134   1.883   5.978
 7947SOL     OW24739   3.948   3.060   6.803
 7947SOL    HW124740   4.041   3.063   6.839
 7947SOL    HW224741   3.946   3.003   6.721
 7948SOL     OW24742   6.908   6.881   0.876
 7948SOL    HW124743   6.967   6.929   0.941
 7948SOL    HW224744   6.964   6.823   0.817
 7949SOL     OW24745   5.157   4.813   4.487
 7949SOL    HW124746   5.100   4.767   4.555
 7949SOL    HW224747   5.108   4.818   4.400
 7950SOL     OW24748   4.494   4.968   3.567
 7950SOL    HW124749   4.567   5.027   3.532
 7950SOL    HW224750   4.405   5.000   3.533
 7951SOL     OW24751   2.548   3.554   1.077
 7951SOL    HW124752   2.525   3.613   1.155
 7951SOL    HW224753   2.568   3.611   0.997
 7952SOL     OW24754   6.734   3.098   6.660
 7952SOL    HW124755   6.722   3.008   6.703
 7952SOL    HW224756   6.661   3.113   6.594
 7953SOL     OW24757   2.061   2.719   3.361
 7953SOL    HW124758   2.112   2.635   3.379
 7953SOL    HW224759   1.965   2.696   3.342
 7954SOL     OW24760   4.364   5.419   4.377
 7954SOL    HW124761   4.316   5.332   4.387
 7954SOL    HW224762   4.345   5.458   4.287
 7955SOL     OW24763   0.157   6.317   6.880
 7955SOL    HW124764   0.200   6.387   6.824
 7955SOL    HW224765   0.216   6.296   6.958
 7956SOL     OW24766   0.486   6.099   3.267
 7956SOL    HW124767   0.407   6.058   3.222
 7956SOL    HW224768   0.493   6.196   3.241
 7957SOL     OW24769   1.476   1.734   0.456
 7957SOL    HW124770   1.447   1.657   0.512
 7957SOL    HW224771   1.409   1.750   0.383
 7958SOL     OW24772   3.582   5.784   4.547
 7958SOL    HW124773   3.659   5.807   4.607
 7958SOL    HW224774   3.552   5.867   4.499
 7959SOL     OW24775   5.307   4.836   0.397
 7959SOL    HW124776   5.396   4.803   0.367
 7959SOL    HW224777   5.235   4.779   0.358
 7960SOL     OW24778   3.426   1.819   1.562
 7960SOL    HW124779   3.404   1.914   1.542
 7960SOL    HW224780   3.482   1.781   1.489
 7961SOL     OW24781   2.205   6.382   6.621
 7961SOL    HW124782   2.284   6.416   6.570
 7961SOL    HW224783   2.128   6.444   6.608
 7962SOL     OW24784   2.285   0.898   0.914
 7962SOL    HW124785   2.239   0.892   1.002
 7962SOL    HW224786   2.291   0.807   0.873
 7963SOL     OW24787   0.121   1.041   5.002
 7963SOL    HW124788   0.143   0.957   5.051
 7963SOL    HW224789   0.077   1.106   5.064
 7964SOL     OW24790   5.669   5.072   3.670
 7964SOL    HW124791   5.665   4.977   3.639
 7964SOL    HW224792   5.726   5.078   3.752
 7965SOL     OW24793   4.281   2.637   7.009
 7965SOL    HW124794   4.377   2.665   7.001
 7965SOL    HW224795   4.260   2.622   0.082
 7966SOL     OW24796   1.001   4.097   4.751
 7966SOL    HW124797   1.050   4.057   4.828
 7966SOL    HW224798   0.998   4.032   4.675
 7967SOL     OW24799   3.199   5.967   3.374
 7967SOL    HW124800   3.287   5.948   3.418
 7967SOL    HW224801   3.148   6.033   3.428
 7968SOL     OW24802   2.355   2.802   3.396
 7968SOL    HW124803   2.260   2.792   3.367
 7968SOL    HW224804   2.358   2.853   3.482
 7969SOL     OW24805   3.904   6.804   2.409
 7969SOL    HW124806   3.875   6.745   2.334
 7969SOL    HW224807   3.838   6.796   2.485
 7970SOL     OW24808   0.156   3.509   2.884
 7970SOL    HW124809   0.249   3.489   2.855
 7970SOL    HW224810   0.104   3.545   2.807
 7971SOL     OW24811   2.758   0.970   1.990
 7971SOL    HW124812   2.778   1.063   2.020
 7971SOL    HW224813   2.745   0.969   1.891
 7972SOL     OW24814   6.504   4.342   1.143
 7972SOL    HW124815   6.581   4.370   1.086
 7972SOL    HW224816   6.427   4.317   1.084
 7973SOL     OW24817   5.155   3.668   3.657
 7973SOL    HW124818   5.131   3.677   3.754
 7973SOL    HW224819   5.088   3.718   3.601
 7974SOL     OW24820   5.809   0.266   4.571
 7974SOL    HW124821   5.849   0.341   4.518
 7974SOL    HW224822   5.813   0.181   4.519
 7975SOL     OW24823   4.637   0.850   4.151
 7975SOL    HW124824   4.675   0.849   4.058
 7975SOL    HW224825   4.538   0.833   4.147
 7976SOL     OW24826   0.742   6.578   5.230
 7976SOL    HW124827   0.663   6.593   5.171
 7976SOL    HW224828   0.762   6.662   5.281
 7977SOL     OW24829   4.555   5.893   2.653
 7977SOL    HW124830   4.591   5.983   2.677
 7977SOL    HW224831   4.609   5.855   2.578
 7978SOL     OW24832   4.767   4.165   6.256
 7978SOL    HW124833   4.720   4.096   6.310
 7978SOL    HW224834   4.722   4.174   6.167
 7979SOL     OW24835   3.460   0.170   4.616
 7979SOL    HW124836   3.514   0.087   4.621
 7979SOL    HW224837   3.517   0.249   4.641
 7980SOL     OW24838   3.840   5.787   0.286
 7980SOL    HW124839   3.895   5.738   0.354
 7980SOL    HW224840   3.749   5.747   0.282
 7981SOL     OW24841   0.837   5.126   1.422
 7981SOL    HW124842   0.931   5.143   1.394
 7981SOL    HW224843   0.775   5.154   1.349
 7982SOL     OW24844   6.907   2.431   0.562
 7982SOL    HW124845   6.958   2.353   0.525
 7982SOL    HW224846   6.883   2.413   0.657
 7983SOL     OW24847   5.682   1.700   3.274
 7983SOL    HW124848   5.658   1.789   3.313
 7983SOL    HW224849   5.704   1.636   3.347
 7984SOL     OW24850   0.851   1.932   1.784
 7984SOL    HW124851   0.836   1.939   1.686
 7984SOL    HW224852   0.768   1.959   1.833
 7985SOL     OW24853   1.799   0.518   2.492
 7985SOL    HW124854   1.793   0.511   2.592
 7985SOL    HW224855   1.810   0.614   2.466
 7986SOL     OW24856   3.762   1.481   6.948
 7986SOL    HW124857   3.785   1.386   6.968
 7986SOL    HW224858   3.676   1.504   6.993
 7987SOL     OW24859   0.364   3.734   5.903
 7987SOL    HW124860   0.402   3.657   5.954
 7987SOL    HW224861   0.437   3.778   5.850
 7988SOL     OW24862   2.737   2.365   4.795
 7988SOL    HW124863   2.676   2.432   4.838
 7988SOL    HW224864   2.705   2.343   4.703
 7989SOL     OW24865   3.456   2.792   5.297
 7989SOL    HW124866   3.462   2.828   5.390
 7989SOL    HW224867   3.405   2.707   5.297
 7990SOL     OW24868   1.309   3.465   3.597
 7990SOL    HW124869   1.334   3.498   3.506
 7990SOL    HW224870   1.316   3.541   3.662
 7991SOL     OW24871   0.106   2.606   6.244
 7991SOL    HW124872   0.170   2.530   6.235
 7991SOL    HW224873   0.114   2.645   6.336
 7992SOL     OW24874   1.186   6.415   1.146
 7992SOL    HW124875   1.236   6.501   1.145
 7992SOL    HW224876   1.203   6.364   1.061
 7993SOL     OW24877   2.117   5.688   7.021
 7993SOL    HW124878   2.142   5.638   6.938
 7993SOL    HW224879   2.145   5.784   7.010
 7994SOL     OW24880   4.743   0.701   3.712
 7994SOL    HW124881   4.799   0.669   3.636
 7994SOL    HW224882   4.786   0.782   3.753
 7995SOL     OW24883   3.907   5.752   4.172
 7995SOL    HW124884   3.859   5.699   4.242
 7995SOL    HW224885   3.913   5.847   4.201
 7996SOL     OW24886   3.568   6.927   4.094
 7996SOL    HW124887   3.602   6.833   4.098
 7996SOL    HW224888   3.616   6.977   4.021
 7997SOL     OW24889   6.607   1.757   1.040
 7997SOL    HW124890   6.685   1.742   1.100
 7997SOL    HW224891   6.599   1.680   0.975
 7998SOL     OW24892   4.813   5.129   0.434
 7998SOL    HW124893   4.743   5.173   0.491
 7998SOL    HW224894   4.879   5.198   0.404
 7999SOL     OW24895   1.133   0.368   5.335
 7999SOL    HW124896   1.144   0.460   5.373
 7999SOL    HW224897   1.214   0.345   5.280
 8000SOL     OW24898   5.601   0.411   6.298
 8000SOL    HW124899   5.648   0.475   6.359
 8000SOL    HW224900   5.515   0.382   6.339
 8001SOL     OW24901   2.401   6.297   1.847
 8001SOL    HW124902   2.392   6.379   1.904
 8001SOL    HW224903   2.314   6.277   1.802
 8002SOL     OW24904   0.067   3.477   5.417
 8002SOL    HW124905   0.154   3.503   5.377
 8002SOL    HW224906   0.011   3.429   5.348
 8003SOL     OW24907   2.862   4.939   2.750
 8003SOL    HW124908   2.959   4.951   2.770
 8003SOL    HW224909   2.850   4.870   2.678
 8004SOL     OW24910   2.101   4.613   3.235
 8004SOL    HW124911   2.025   4.645   3.177
 8004SOL    HW224912   2.182   4.668   3.217
 8005SOL     OW24913   3.363   1.073   2.045
 8005SOL    HW124914   3.304   1.067   1.964
 8005SOL    HW224915   3.394   1.167   2.057
 8006SOL     OW24916   2.480   5.914   0.127
 8006SOL    HW124917   2.419   5.987   0.157
 8006SOL    HW224918   2.571   5.951   0.109
 8007SOL     OW24919   0.759   0.288   3.801
 8007SOL    HW124920   0.705   0.218   3.756
 8007SOL    HW224921   0.846   0.249   3.831
 8008SOL     OW24922   5.141   6.610   6.227
 8008SOL    HW124923   5.060   6.557   6.252
 8008SOL    HW224924   5.201   6.554   6.171
 8009SOL     OW24925   6.255   0.385   2.696
 8009SOL    HW124926   6.351   0.411   2.692
 8009SOL    HW224927   6.243   0.293   2.659
 8010SOL     OW24928   2.321   1.490   6.887
 8010SOL    HW124929   2.384   1.566   6.902
 8010SOL    HW224930   2.298   1.448   6.974
 8011SOL     OW24931   2.238   1.986   1.410
 8011SOL    HW124932   2.237   2.058   1.341
 8011SOL    HW224933   2.278   1.903   1.371
 8012SOL     OW24934   1.613   6.300   0.752
 8012SOL    HW124935   1.638   6.270   0.660
 8012SOL    HW224936   1.689   6.348   0.795
 8013SOL     OW24937   6.380   4.954   4.703
 8013SOL    HW124938   6.328   5.039   4.698
 8013SOL    HW224939   6.478   4.974   4.702
 8014SOL     OW24940   1.547   5.881   6.433
 8014SOL    HW124941   1.483   5.859   6.360
 8014SOL    HW224942   1.535   5.817   6.509
 8015SOL     OW24943   2.904   2.103   1.045
 8015SOL    HW124944   2.893   2.073   1.140
 8015SOL    HW224945   2.820   2.145   1.013
 8016SOL     OW24946   4.575   0.414   0.446
 8016SOL    HW124947   4.604   0.324   0.479
 8016SOL    HW224948   4.525   0.461   0.519
 8017SOL     OW24949   0.454   4.514   5.617
 8017SOL    HW124950   0.388   4.457   5.569
 8017SOL    HW224951   0.496   4.462   5.692
 8018SOL     OW24952   5.021   2.111   5.717
 8018SOL    HW124953   5.004   2.137   5.622
 8018SOL    HW224954   4.981   2.178   5.778
 8019SOL     OW24955   1.676   4.180   0.438
 8019SOL    HW124956   1.593   4.200   0.387
 8019SOL    HW224957   1.656   4.112   0.509
 8020SOL     OW24958   5.614   6.139   6.680
 8020SOL    HW124959   5.602   6.213   6.614
 8020SOL    HW224960   5.601   6.174   6.772
 8021SOL     OW24961   0.815   1.239   1.770
 8021SOL    HW124962   0.859   1.153   1.794
 8021SOL    HW224963   0.831   1.306   1.843
 8022SOL     OW24964   3.963   0.961   2.681
 8022SOL    HW124965   3.984   1.056   2.703
 8022SOL    HW224966   4.042   0.903   2.702
 8023SOL     OW24967   6.274   6.631   2.872
 8023SOL    HW124968   6.232   6.542   2.855
 8023SOL    HW224969   6.221   6.702   2.827
 8024SOL     OW24970   3.800   5.441   6.488
 8024SOL    HW124971   3.729   5.395   6.435
 8024SOL    HW224972   3.774   5.441   6.585
 8025SOL     OW24973   3.657   6.507   5.981
 8025SOL    HW124974   3.700   6.437   6.040
 8025SOL    HW224975   3.559   6.508   5.997
 8026SOL     OW24976   0.225   4.068   7.011
 8026SOL    HW124977   0.132   4.045   6.981
 8026SOL    HW224978   0.221   4.144   0.052
 8027SOL     OW24979   4.697   2.137   5.189
 8027SOL    HW124980   4.768   2.207   5.192
 8027SOL    HW224981   4.739   2.048   5.172
 8028SOL     OW24982   4.130   5.230   5.879
 8028SOL    HW124983   4.196   5.164   5.916
 8028SOL    HW224984   4.081   5.273   5.954
 8029SOL     OW24985   5.150   4.292   6.412
 8029SOL    HW124986   5.144   4.285   6.312
 8029SOL    HW224987   5.174   4.386   6.437
 8030SOL     OW24988   5.357   4.383   5.859
 8030SOL    HW124989   5.276   4.420   5.815
 8030SOL    HW224990   5.363   4.419   5.952
 8031SOL     OW24991   4.726   5.368   2.124
 8031SOL    HW124992   4.703   5.353   2.220
 8031SOL    HW224993   4.825   5.362   2.112
 8032SOL     OW24994   6.242   3.694   4.744
 8032SOL    HW124995   6.200   3.737   4.824
 8032SOL    HW224996   6.339   3.717   4.740
 8033SOL     OW24997   5.345   2.755   6.997
 8033SOL    HW124998   5.310   2.789   0.060
 8033SOL    HW224999   5.274   2.704   6.950
 8034SOL     OW25000   6.443   0.404   5.033
 8034SOL    HW125001   6.445   0.391   5.132
 8034SOL    HW225002   6.500   0.482   5.008
 8035SOL     OW25003   5.796   6.269   5.432
 8035SOL    HW125004   5.711   6.290   5.479
 8035SOL    HW225005   5.868   6.250   5.499
 8036SOL     OW25006   1.653   3.567   1.669
 8036SOL    HW125007   1.724   3.625   1.710
 8036SOL    HW225008   1.564   3.591   1.707
 8037SOL     OW25009   1.629   3.346   1.135
 8037SOL    HW125010   1.662   3.378   1.047
 8037SOL    HW225011   1.631   3.246   1.137
 8038SOL     OW25012   5.923   2.070   3.208
 8038SOL    HW125013   5.880   2.001   3.265
 8038SOL    HW225014   5.999   2.113   3.258
 8039SOL     OW25015   1.190   6.989   3.187
 8039SOL    HW125016   1.256   7.003   3.262
 8039SOL    HW225017   1.162   6.894   3.185
 8040SOL     OW25018   0.607   5.254   0.679
 8040SOL    HW125019   0.613   5.309   0.763
 8040SOL    HW225020   0.519   5.206   0.677
 8041SOL     OW25021   3.536   1.735   1.323
 8041SOL    HW125022   3.600   1.662   1.347
 8041SOL    HW225023   3.469   1.700   1.258
 8042SOL     OW25024   3.504   3.098   1.846
 8042SOL    HW125025   3.537   3.045   1.924
 8042SOL    HW225026   3.578   3.154   1.810
 8043SOL     OW25027   2.896   0.528   0.605
 8043SOL    HW125028   2.859   0.514   0.697
 8043SOL    HW225029   2.920   0.440   0.565
 8044SOL     OW25030   3.045   3.202   1.122
 8044SOL    HW125031   3.122   3.229   1.180
 8044SOL    HW225032   3.057   3.108   1.092
 8045SOL     OW25033   6.056   1.433   2.787
 8045SOL    HW125034   6.005   1.360   2.833
 8045SOL    HW225035   6.038   1.431   2.689
 8046SOL     OW25036   6.164   4.667   5.887
 8046SOL    HW125037   6.239   4.671   5.952
 8046SOL    HW225038   6.086   4.620   5.929
 8047SOL     OW25039   3.572   5.237   4.973
 8047SOL    HW125040   3.584   5.144   5.009
 8047SOL    HW225041   3.629   5.300   5.026
 8048SOL     OW25042   5.330   0.886   5.340
 8048SOL    HW125043   5.335   0.939   5.256
 8048SOL    HW225044   5.251   0.916   5.394
 8049SOL     OW25045   0.567   6.851   1.463
 8049SOL    HW125046   0.561   6.863   1.562
 8049SOL    HW225047   0.627   6.921   1.424
 8050SOL     OW25048   1.156   3.387   1.242
 8050SOL    HW125049   1.171   3.422   1.334
 8050SOL    HW225050   1.187   3.292   1.236
 8051SOL     OW25051   5.125   6.814   3.524
 8051SOL    HW125052   5.115   6.816   3.623
 8051SOL    HW225053   5.059   6.878   3.483
 8052SOL     OW25054   3.473   1.723   2.212
 8052SOL    HW125055   3.407   1.798   2.203
 8052SOL    HW225056   3.426   1.636   2.197
 8053SOL     OW25057   4.029   3.731   2.851
 8053SOL    HW125058   3.960   3.694   2.914
 8053SOL    HW225059   4.083   3.656   2.813
 8054SOL     OW25060   4.511   6.667   4.857
 8054SOL    HW125061   4.443   6.704   4.920
 8054SOL    HW225062   4.528   6.571   4.877
 8055SOL     OW25063   0.452   0.608   6.006
 8055SOL    HW125064   0.402   0.526   6.035
 8055SOL    HW225065   0.550   0.592   6.015
 8056SOL     OW25066   4.213   1.295   3.182
 8056SOL    HW125067   4.159   1.227   3.132
 8056SOL    HW225068   4.201   1.385   3.140
 8057SOL     OW25069   2.776   0.693   2.622
 8057SOL    HW125070   2.684   0.682   2.661
 8057SOL    HW225071   2.786   0.632   2.544
 8058SOL     OW25072   3.078   0.036   2.998
 8058SOL    HW125073   3.075   6.981   3.060
 8058SOL    HW225074   2.992   0.041   2.946
 8059SOL     OW25075   3.846   2.126   4.630
 8059SOL    HW125076   3.827   2.029   4.618
 8059SOL    HW225077   3.915   2.139   4.701
 8060SOL     OW25078   0.675   1.319   4.947
 8060SOL    HW125079   0.722   1.295   4.862
 8060SOL    HW225080   0.607   1.248   4.968
 8061SOL     OW25081   7.021   5.818   2.179
 8061SOL    HW125082   6.947   5.787   2.239
 8061SOL    HW225083   6.985   5.836   2.088
 8062SOL     OW25084   1.720   4.430   4.418
 8062SOL    HW125085   1.731   4.524   4.449
 8062SOL    HW225086   1.655   4.427   4.342
 8063SOL     OW25087   2.148   3.659   6.760
 8063SOL    HW125088   2.211   3.622   6.691
 8063SOL    HW225089   2.169   3.620   6.849
 8064SOL     OW25090   0.193   4.726   0.063
 8064SOL    HW125091   0.190   4.631   0.032
 8064SOL    HW225092   0.148   4.733   0.152
 8065SOL     OW25093   4.322   6.915   4.440
 8065SOL    HW125094   4.243   6.973   4.458
 8065SOL    HW225095   4.362   6.885   4.527
 8066SOL     OW25096   1.761   1.016   0.130
 8066SOL    HW125097   1.692   0.957   0.173
 8066SOL    HW225098   1.852   0.981   0.150
 8067SOL     OW25099   4.025   3.267   1.751
 8067SOL    HW125100   4.059   3.361   1.747
 8067SOL    HW225101   3.968   3.255   1.831
 8068SOL     OW25102   6.542   5.918   5.071
 8068SOL    HW125103   6.454   5.876   5.047
 8068SOL    HW225104   6.549   6.007   5.028
 8069SOL     OW25105   2.533   6.070   1.495
 8069SOL    HW125106   2.560   6.045   1.588
 8069SOL    HW225107   2.524   6.170   1.489
 8070SOL     OW25108   3.029   5.415   1.386
 8070SOL    HW125109   2.970   5.433   1.465
 8070SOL    HW225110   2.998   5.333   1.338
 8071SOL     OW25111   4.268   6.706   5.041
 8071SOL    HW125112   4.185   6.691   4.987
 8071SOL    HW225113   4.246   6.759   5.123
 8072SOL     OW25114   4.461   1.243   0.456
 8072SOL    HW125115   4.560   1.247   0.440
 8072SOL    HW225116   4.413   1.234   0.369
 8073SOL     OW25117   4.972   0.355   6.663
 8073SOL    HW125118   5.005   0.271   6.620
 8073SOL    HW225119   4.915   0.405   6.598
 8074SOL     OW25120   2.968   3.179   0.550
 8074SOL    HW125121   2.933   3.119   0.622
 8074SOL    HW225122   2.947   3.275   0.573
 8075SOL     OW25123   6.825   1.375   1.513
 8075SOL    HW125124   6.917   1.342   1.493
 8075SOL    HW225125   6.819   1.400   1.610
 8076SOL     OW25126   4.860   2.555   5.190
 8076SOL    HW125127   4.878   2.628   5.257
 8076SOL    HW225128   4.822   2.595   5.107
 8077SOL     OW25129   0.858   6.920   1.740
 8077SOL    HW125130   0.889   6.945   1.648
 8077SOL    HW225131   0.919   6.851   1.778
 8078SOL     OW25132   6.293   1.525   0.314
 8078SOL    HW125133   6.372   1.586   0.309
 8078SOL    HW225134   6.295   1.475   0.400
 8079SOL     OW25135   6.343   2.206   2.839
 8079SOL    HW125136   6.276   2.280   2.831
 8079SOL    HW225137   6.402   2.206   2.758
 8080SOL     OW25138   2.027   3.832   0.518
 8080SOL    HW125139   2.033   3.784   0.606
 8080SOL    HW225140   2.081   3.916   0.522
 8081SOL     OW25141   5.576   1.191   5.219
 8081SOL    HW125142   5.651   1.149   5.167
 8081SOL    HW225143   5.599   1.193   5.316
 8082SOL     OW25144   5.969   2.352   2.839
 8082SOL    HW125145   5.956   2.435   2.893
 8082SOL    HW225146   5.981   2.376   2.742
 8083SOL     OW25147   4.932   3.333   2.456
 8083SOL    HW125148   5.032   3.326   2.456
 8083SOL    HW225149   4.893   3.241   2.454
 8084SOL     OW25150   6.405   6.043   1.278
 8084SOL    HW125151   6.463   6.120   1.307
 8084SOL    HW225152   6.411   6.032   1.179
 8085SOL     OW25153   5.613   6.793   1.163
 8085SOL    HW125154   5.593   6.797   1.065
 8085SOL    HW225155   5.633   6.884   1.198
 8086SOL     OW25156   4.164   0.373   4.088
 8086SOL    HW125157   4.104   0.303   4.049
 8086SOL    HW225158   4.257   0.359   4.055
 8087SOL     OW25159   2.665   2.189   1.162
 8087SOL    HW125160   2.603   2.111   1.163
 8087SOL    HW225161   2.665   2.233   1.252
 8088SOL     OW25162   6.000   1.335   1.738
 8088SOL    HW125163   6.040   1.377   1.657
 8088SOL    HW225164   6.052   1.362   1.819
 8089SOL     OW25165   5.061   2.979   0.035
 8089SOL    HW125166   5.101   3.008   6.972
 8089SOL    HW225167   4.980   2.922   0.017
 8090SOL     OW25168   5.170   2.130   6.416
 8090SOL    HW125169   5.118   2.069   6.356
 8090SOL    HW225170   5.263   2.141   6.381
 8091SOL     OW25171   3.452   4.583   6.930
 8091SOL    HW125172   3.500   4.669   6.913
 8091SOL    HW225173   3.512   4.520   6.978
 8092SOL     OW25174   1.256   1.325   4.649
 8092SOL    HW125175   1.259   1.234   4.606
 8092SOL    HW225176   1.197   1.321   4.730
 8093SOL     OW25177   6.441   5.560   1.433
 8093SOL    HW125178   6.469   5.629   1.499
 8093SOL    HW225179   6.394   5.486   1.480
 8094SOL     OW25180   1.846   4.265   6.222
 8094SOL    HW125181   1.752   4.263   6.257
 8094SOL    HW225182   1.874   4.360   6.207
 8095SOL     OW25183   6.118   3.744   4.473
 8095SOL    HW125184   6.105   3.693   4.558
 8095SOL    HW225185   6.149   3.681   4.401
 8096SOL     OW25186   2.696   5.663   3.298
 8096SOL    HW125187   2.777   5.721   3.295
 8096SOL    HW225188   2.616   5.718   3.322
 8097SOL     OW25189   4.818   0.182   3.578
 8097SOL    HW125190   4.917   0.178   3.584
 8097SOL    HW225191   4.790   0.265   3.530
 8098SOL     OW25192   2.580   5.860   4.022
 8098SOL    HW125193   2.613   5.906   3.939
 8098SOL    HW225194   2.514   5.918   4.069
 8099SOL     OW25195   6.375   0.407   4.052
 8099SOL    HW125196   6.369   0.317   4.094
 8099SOL    HW225197   6.429   0.402   3.968
 8100SOL     OW25198   0.314   6.607   0.285
 8100SOL    HW125199   0.329   6.591   0.188
 8100SOL    HW225200   0.340   6.525   0.337
 8101SOL     OW25201   1.427   0.570   4.909
 8101SOL    HW125202   1.486   0.640   4.949
 8101SOL    HW225203   1.418   0.586   4.811
 8102SOL     OW25204   0.956   5.527   6.359
 8102SOL    HW125205   0.977   5.503   6.264
 8102SOL    HW225206   0.874   5.585   6.361
 8103SOL     OW25207   4.400   1.355   1.822
 8103SOL    HW125208   4.422   1.444   1.862
 8103SOL    HW225209   4.301   1.343   1.819
 8104SOL     OW25210   3.950   6.987   5.922
 8104SOL    HW125211   3.883   6.993   5.996
 8104SOL    HW225212   3.935   6.903   5.870
 8105SOL     OW25213   2.534   2.363   3.799
 8105SOL    HW125214   2.514   2.447   3.748
 8105SOL    HW225215   2.520   2.284   3.740
 8106SOL     OW25216   1.380   4.832   3.584
 8106SOL    HW125217   1.469   4.872   3.604
 8106SOL    HW225218   1.383   4.787   3.495
 8107SOL     OW25219   2.213   6.319   6.032
 8107SOL    HW125220   2.312   6.305   6.031
 8107SOL    HW225221   2.177   6.302   5.940
 8108SOL     OW25222   6.931   3.748   4.567
 8108SOL    HW125223   6.875   3.734   4.648
 8108SOL    HW225224   6.985   3.831   4.577
 8109SOL     OW25225   2.205   4.642   4.918
 8109SOL    HW125226   2.175   4.572   4.982
 8109SOL    HW225227   2.279   4.696   4.959
 8110SOL     OW25228   2.384   6.307   0.619
 8110SOL    HW125229   2.343   6.220   0.646
 8110SOL    HW225230   2.320   6.381   0.639
 8111SOL     OW25231   2.673   6.709   5.245
 8111SOL    HW125232   2.600   6.641   5.235
 8111SOL    HW225233   2.760   6.668   5.220
 8112SOL     OW25234   2.763   0.517   5.485
 8112SOL    HW125235   2.764   0.441   5.550
 8112SOL    HW225236   2.804   0.598   5.528
 8113SOL     OW25237   3.164   2.643   0.409
 8113SOL    HW125238   3.167   2.734   0.451
 8113SOL    HW225239   3.077   2.631   0.361
 8114SOL     OW25240   2.170   2.937   2.401
 8114SOL    HW125241   2.092   2.889   2.441
 8114SOL    HW225242   2.162   2.936   2.301
 8115SOL     OW25243   3.985   1.164   1.673
 8115SOL    HW125244   3.974   1.065   1.668
 8115SOL    HW225245   4.031   1.189   1.758
 8116SOL     OW25246   6.007   6.672   5.321
 8116SOL    HW125247   6.033   6.589   5.273
 8116SOL    HW225248   6.048   6.672   5.413
 8117SOL     OW25249   1.531   1.759   4.119
 8117SOL    HW125250   1.497   1.816   4.044
 8117SOL    HW225251   1.458   1.747   4.187
 8118SOL     OW25252   0.987   4.218   5.673
 8118SOL    HW125253   1.073   4.264   5.695
 8118SOL    HW225254   0.951   4.256   5.588
 8119SOL     OW25255   0.537   5.020   3.812
 8119SOL    HW125256   0.449   5.002   3.769
 8119SOL    HW225257   0.583   5.095   3.764
 8120SOL     OW25258   3.991   4.249   0.320
 8120SOL    HW125259   3.995   4.223   0.417
 8120SOL    HW225260   4.084   4.271   0.289
 8121SOL     OW25261   0.538   6.749   2.583
 8121SOL    HW125262   0.548   6.801   2.498
 8121SOL    HW225263   0.525   6.652   2.561
 8122SOL     OW25264   0.589   4.919   1.850
 8122SOL    HW125265   0.603   5.018   1.845
 8122SOL    HW225266   0.676   4.872   1.836
 8123SOL     OW25267   0.877   6.862   6.238
 8123SOL    HW125268   0.787   6.899   6.261
 8123SOL    HW225269   0.917   6.916   6.163
 8124SOL     OW25270   1.789   6.090   1.054
 8124SOL    HW125271   1.849   6.033   1.110
 8124SOL    HW225272   1.739   6.032   0.989
 8125SOL     OW25273   5.794   4.812   2.643
 8125SOL    HW125274   5.791   4.900   2.691
 8125SOL    HW225275   5.725   4.812   2.570
 8126SOL     OW25276   5.811   4.467   2.800
 8126SOL    HW125277   5.875   4.417   2.742
 8126SOL    HW225278   5.721   4.470   2.757
 8127SOL     OW25279   2.238   5.378   0.745
 8127SOL    HW125280   2.257   5.467   0.703
 8127SOL    HW225281   2.144   5.351   0.723
 8128SOL     OW25282   3.087   2.689   6.753
 8128SOL    HW125283   3.019   2.617   6.767
 8128SOL    HW225284   3.148   2.693   6.831
 8129SOL     OW25285   5.531   0.864   6.091
 8129SOL    HW125286   5.509   0.960   6.071
 8129SOL    HW225287   5.543   0.814   6.005
 8130SOL     OW25288   1.120   5.454   6.124
 8130SOL    HW125289   1.212   5.431   6.155
 8130SOL    HW225290   1.124   5.483   6.028
 8131SOL     OW25291   3.283   1.404   0.653
 8131SOL    HW125292   3.190   1.394   0.688
 8131SOL    HW225293   3.328   1.314   0.653
 8132SOL     OW25294   6.204   5.192   4.766
 8132SOL    HW125295   6.126   5.143   4.803
 8132SOL    HW225296   6.244   5.250   4.836
 8133SOL     OW25297   3.412   4.996   3.540
 8133SOL    HW125298   3.434   5.070   3.604
 8133SOL    HW225299   3.467   4.915   3.562
 8134SOL     OW25300   1.819   2.024   4.271
 8134SOL    HW125301   1.730   2.025   4.315
 8134SOL    HW225302   1.880   1.962   4.321
 8135SOL     OW25303   3.227   4.889   2.192
 8135SOL    HW125304   3.209   4.795   2.220
 8135SOL    HW225305   3.159   4.917   2.125
 8136SOL     OW25306   4.132   5.206   2.348
 8136SOL    HW125307   4.143   5.133   2.416
 8136SOL    HW225308   4.048   5.192   2.297
 8137SOL     OW25309   1.776   3.220   4.853
 8137SOL    HW125310   1.827   3.243   4.770
 8137SOL    HW225311   1.840   3.182   4.921
 8138SOL     OW25312   5.702   1.841   2.002
 8138SOL    HW125313   5.724   1.755   2.047
 8138SOL    HW225314   5.679   1.824   1.906
 8139SOL     OW25315   0.258   3.253   3.624
 8139SOL    HW125316   0.263   3.284   3.719
 8139SOL    HW225317   0.266   3.332   3.563
 8140SOL     OW25318   4.429   6.800   6.750
 8140SOL    HW125319   4.450   6.893   6.718
 8140SOL    HW225320   4.330   6.785   6.743
 8141SOL     OW25321   4.977   1.485   5.574
 8141SOL    HW125322   4.923   1.434   5.641
 8141SOL    HW225323   4.956   1.583   5.581
 8142SOL     OW25324   2.267   5.526   0.379
 8142SOL    HW125325   2.332   5.598   0.355
 8142SOL    HW225326   2.316   5.446   0.413
 8143SOL     OW25327   5.613   4.684   1.131
 8143SOL    HW125328   5.642   4.643   1.045
 8143SOL    HW225329   5.513   4.686   1.135
 8144SOL     OW25330   0.499   5.866   5.551
 8144SOL    HW125331   0.405   5.894   5.533
 8144SOL    HW225332   0.553   5.945   5.578
 8145SOL     OW25333   5.268   5.918   0.412
 8145SOL    HW125334   5.234   5.844   0.470
 8145SOL    HW225335   5.367   5.910   0.402
 8146SOL     OW25336   6.094   0.302   4.709
 8146SOL    HW125337   6.009   0.250   4.716
 8146SOL    HW225338   6.126   0.327   4.800
 8147SOL     OW25339   0.732   0.527   6.621
 8147SOL    HW125340   0.801   0.456   6.615
 8147SOL    HW225341   0.664   0.502   6.690
 8148SOL     OW25342   4.361   3.889   0.083
 8148SOL    HW125343   4.387   3.794   0.102
 8148SOL    HW225344   4.388   3.947   0.159
 8149SOL     OW25345   1.498   6.762   4.446
 8149SOL    HW125346   1.587   6.738   4.406
 8149SOL    HW225347   1.445   6.814   4.379
 8150SOL     OW25348   0.960   3.311   1.054
 8150SOL    HW125349   0.991   3.402   1.026
 8150SOL    HW225350   1.021   3.275   1.125
 8151SOL     OW25351   6.074   4.973   3.616
 8151SOL    HW125352   6.070   4.899   3.549
 8151SOL    HW225353   6.046   4.938   3.705
 8152SOL     OW25354   4.309   1.851   2.933
 8152SOL    HW125355   4.294   1.933   2.988
 8152SOL    HW225356   4.319   1.772   2.993
 8153SOL     OW25357   1.049   0.341   3.612
 8153SOL    HW125358   1.086   0.248   3.625
 8153SOL    HW225359   0.973   0.337   3.547
 8154SOL     OW25360   2.323   1.560   3.417
 8154SOL    HW125361   2.242   1.501   3.421
 8154SOL    HW225362   2.323   1.622   3.496
 8155SOL     OW25363   1.188   4.265   2.452
 8155SOL    HW125364   1.260   4.237   2.516
 8155SOL    HW225365   1.107   4.295   2.504
 8156SOL     OW25366   5.700   5.526   1.040
 8156SOL    HW125367   5.615   5.550   1.087
 8156SOL    HW225368   5.778   5.541   1.100
 8157SOL     OW25369   5.945   3.762   6.005
 8157SOL    HW125370   6.002   3.811   6.070
 8157SOL    HW225371   5.956   3.663   6.019
 8158SOL     OW25372   5.598   4.678   6.129
 8158SOL    HW125373   5.629   4.687   6.034
 8158SOL    HW225374   5.589   4.769   6.170
 8159SOL     OW25375   3.974   6.505   5.749
 8159SOL    HW125376   3.906   6.510   5.822
 8159SOL    HW225377   3.986   6.410   5.721
 8160SOL     OW25378   5.145   1.695   3.414
 8160SOL    HW125379   5.150   1.782   3.462
 8160SOL    HW225380   5.162   1.620   3.478
 8161SOL     OW25381   5.405   3.251   0.135
 8161SOL    HW125382   5.330   3.240   0.200
 8161SOL    HW225383   5.394   3.187   0.060
 8162SOL     OW25384   6.877   4.925   0.033
 8162SOL    HW125385   6.887   4.894   0.128
 8162SOL    HW225386   6.882   5.025   0.030
 8163SOL     OW25387   4.110   4.875   5.557
 8163SOL    HW125388   4.161   4.954   5.592
 8163SOL    HW225389   4.140   4.792   5.604
 8164SOL     OW25390   4.727   0.678   6.799
 8164SOL    HW125391   4.728   0.718   6.707
 8164SOL    HW225392   4.698   0.583   6.793
 8165SOL     OW25393   6.589   3.446   6.350
 8165SOL    HW125394   6.629   3.402   6.269
 8165SOL    HW225395   6.658   3.449   6.423
 8166SOL     OW25396   1.631   2.211   3.916
 8166SOL    HW125397   1.653   2.113   3.920
 8166SOL    HW225398   1.597   2.240   4.005
 8167SOL     OW25399   6.362   0.944   3.922
 8167SOL    HW125400   6.407   0.959   4.010
 8167SOL    HW225401   6.302   1.021   3.902
 8168SOL     OW25402   2.078   0.612   1.522
 8168SOL    HW125403   2.025   0.696   1.511
 8168SOL    HW225404   2.050   0.547   1.451
 8169SOL     OW25405   4.468   1.667   0.124
 8169SOL    HW125406   4.532   1.687   0.198
 8169SOL    HW225407   4.468   1.569   0.106
 8170SOL     OW25408   6.832   3.959   2.386
 8170SOL    HW125409   6.892   4.000   2.455
 8170SOL    HW225410   6.888   3.921   2.312
 8171SOL     OW25411   1.982   1.258   0.034
 8171SOL    HW125412   1.924   1.273   6.978
 8171SOL    HW225413   1.959   1.325   0.105
 8172SOL     OW25414   0.445   1.845   1.847
 8172SOL    HW125415   0.354   1.826   1.811
 8172SOL    HW225416   0.512   1.841   1.773
 8173SOL     OW25417   5.854   2.152   2.475
 8173SOL    HW125418   5.862   2.064   2.520
 8173SOL    HW225419   5.849   2.139   2.376
 8174SOL     OW25420   1.578   6.480   2.370
 8174SOL    HW125421   1.480   6.499   2.362
 8174SOL    HW225422   1.609   6.432   2.288
 8175SOL     OW25423   0.860   2.367   4.153
 8175SOL    HW125424   0.911   2.282   4.163
 8175SOL    HW225425   0.772   2.348   4.109
 8176SOL     OW25426   1.651   4.460   1.522
 8176SOL    HW125427   1.688   4.368   1.529
 8176SOL    HW225428   1.674   4.512   1.605
 8177SOL     OW25429   3.503   1.005   3.028
 8177SOL    HW125430   3.413   0.962   3.020
 8177SOL    HW225431   3.574   0.935   3.017
 8178SOL     OW25432   3.005   6.463   1.046
 8178SOL    HW125433   3.000   6.559   1.020
 8178SOL    HW225434   3.040   6.410   0.969
 8179SOL     OW25435   5.493   0.550   4.448
 8179SOL    HW125436   5.420   0.614   4.425
 8179SOL    HW225437   5.557   0.544   4.371
 8180SOL     OW25438   5.947   6.835   6.550
 8180SOL    HW125439   5.857   6.851   6.592
 8180SOL    HW225440   5.944   6.750   6.497
 8181SOL     OW25441   0.895   0.795   0.891
 8181SOL    HW125442   0.803   0.824   0.918
 8181SOL    HW225443   0.935   0.737   0.962
 8182SOL     OW25444   3.732   3.533   4.721
 8182SOL    HW125445   3.747   3.556   4.817
 8182SOL    HW225446   3.718   3.434   4.712
 8183SOL     OW25447   6.432   0.778   4.897
 8183SOL    HW125448   6.415   0.729   4.811
 8183SOL    HW225449   6.346   0.785   4.948
 8184SOL     OW25450   1.205   0.070   0.065
 8184SOL    HW125451   1.185   6.997   0.053
 8184SOL    HW225452   1.296   0.091   0.027
 8185SOL     OW25453   1.684   0.575   1.199
 8185SOL    HW125454   1.637   0.576   1.287
 8185SOL    HW225455   1.742   0.656   1.191
 8186SOL     OW25456   1.524   4.709   6.671
 8186SOL    HW125457   1.479   4.678   6.587
 8186SOL    HW225458   1.554   4.630   6.724
 8187SOL     OW25459   2.334   1.855   5.270
 8187SOL    HW125460   2.270   1.880   5.197
 8187SOL    HW225461   2.408   1.800   5.232
 8188SOL     OW25462   4.115   2.037   4.063
 8188SOL    HW125463   4.212   2.054   4.081
 8188SOL    HW225464   4.095   2.057   3.967
 8189SOL     OW25465   5.074   4.726   3.749
 8189SOL    HW125466   5.097   4.808   3.697
 8189SOL    HW225467   5.156   4.670   3.762
 8190SOL     OW25468   5.822   4.125   3.207
 8190SOL    HW125469   5.762   4.130   3.286
 8190SOL    HW225470   5.854   4.031   3.195
 8191SOL     OW25471   4.435   5.085   2.016
 8191SOL    HW125472   4.364   5.114   1.953
 8191SOL    HW225473   4.514   5.051   1.965
 8192SOL     OW25474   1.728   5.377   2.677
 8192SOL    HW125475   1.635   5.409   2.656
 8192SOL    HW225476   1.729   5.341   2.771
 8193SOL     OW25477   6.839   5.508   4.267
 8193SOL    HW125478   6.924   5.525   4.217
 8193SOL    HW225479   6.802   5.594   4.301
 8194SOL     OW25480   4.572   0.061   0.966
 8194SOL    HW125481   4.630   0.090   1.042
 8194SOL    HW225482   4.623   0.067   0.880
 8195SOL     OW25483   6.118   6.521   4.222
 8195SOL    HW125484   6.190   6.539   4.289
 8195SOL    HW225485   6.065   6.605   4.208
 8196SOL     OW25486   4.592   0.327   0.006
 8196SOL    HW125487   4.528   0.260   6.991
 8196SOL    HW225488   4.630   0.383   6.957
 8197SOL     OW25489   4.951   1.747   1.646
 8197SOL    HW125490   5.002   1.832   1.660
 8197SOL    HW225491   4.859   1.768   1.613
 8198SOL     OW25492   2.713   0.499   2.062
 8198SOL    HW125493   2.797   0.534   2.103
 8198SOL    HW225494   2.706   0.532   1.968
 8199SOL     OW25495   4.472   3.020   6.054
 8199SOL    HW125496   4.546   2.983   6.110
 8199SOL    HW225497   4.473   3.120   6.058
 8200SOL     OW25498   5.904   4.295   2.006
 8200SOL    HW125499   5.896   4.381   1.955
 8200SOL    HW225500   5.995   4.290   2.048
 8201SOL     OW25501   0.309   0.680   5.028
 8201SOL    HW125502   0.398   0.660   4.985
 8201SOL    HW225503   0.236   0.670   4.961
 8202SOL     OW25504   0.382   6.410   2.221
 8202SOL    HW125505   0.317   6.380   2.151
 8202SOL    HW225506   0.336   6.470   2.287
 8203SOL     OW25507   1.935   2.251   0.068
 8203SOL    HW125508   1.948   2.337   0.118
 8203SOL    HW225509   1.856   2.260   0.008
 8204SOL     OW25510   4.225   3.860   0.991
 8204SOL    HW125511   4.229   3.760   0.986
 8204SOL    HW225512   4.306   3.895   1.039
 8205SOL     OW25513   0.551   2.515   6.765
 8205SOL    HW125514   0.629   2.503   6.826
 8205SOL    HW225515   0.584   2.524   6.671
 8206SOL     OW25516   5.018   1.255   0.044
 8206SOL    HW125517   5.037   1.161   0.072
 8206SOL    HW225518   4.932   1.258   7.017
 8207SOL     OW25519   3.098   3.842   4.372
 8207SOL    HW125520   3.167   3.858   4.301
 8207SOL    HW225521   3.094   3.920   4.434
 8208SOL     OW25522   0.588   1.290   0.456
 8208SOL    HW125523   0.612   1.212   0.514
 8208SOL    HW225524   0.619   1.375   0.499
 8209SOL     OW25525   0.173   0.859   5.211
 8209SOL    HW125526   0.228   0.803   5.149
 8209SOL    HW225527   0.213   0.856   5.303
 8210SOL     OW25528   2.019   2.465   0.231
 8210SOL    HW125529   1.962   2.537   0.273
 8210SOL    HW225530   2.089   2.507   0.174
 8211SOL     OW25531   3.277   4.408   1.273
 8211SOL    HW125532   3.361   4.410   1.326
 8211SOL    HW225533   3.216   4.337   1.309
 8212SOL     OW25534   1.150   2.156   3.090
 8212SOL    HW125535   1.072   2.096   3.107
 8212SOL    HW225536   1.227   2.102   3.058
 8213SOL     OW25537   6.789   4.209   2.221
 8213SOL    HW125538   6.768   4.111   2.226
 8213SOL    HW225539   6.703   4.260   2.211
 8214SOL     OW25540   5.377   4.858   3.244
 8214SOL    HW125541   5.457   4.825   3.193
 8214SOL    HW225542   5.326   4.923   3.188
 8215SOL     OW25543   3.563   5.926   5.158
 8215SOL    HW125544   3.543   5.967   5.247
 8215SOL    HW225545   3.483   5.876   5.126
 8216SOL     OW25546   5.324   5.667   4.247
 8216SOL    HW125547   5.227   5.688   4.231
 8216SOL    HW225548   5.341   5.663   4.346
 8217SOL     OW25549   2.195   4.654   0.265
 8217SOL    HW125550   2.137   4.573   0.266
 8217SOL    HW225551   2.290   4.626   0.249
 8218SOL     OW25552   0.469   1.457   6.858
 8218SOL    HW125553   0.436   1.390   6.791
 8218SOL    HW225554   0.463   1.417   6.950
 8219SOL     OW25555   4.726   1.581   0.548
 8219SOL    HW125556   4.765   1.560   0.458
 8219SOL    HW225557   4.688   1.673   0.547
 8220SOL     OW25558   3.035   3.183   2.933
 8220SOL    HW125559   2.947   3.196   2.887
 8220SOL    HW225560   3.098   3.136   2.872
 8221SOL     OW25561   4.615   5.945   4.472
 8221SOL    HW125562   4.528   5.987   4.497
 8221SOL    HW225563   4.619   5.853   4.510
 8222SOL     OW25564   5.210   1.626   2.288
 8222SOL    HW125565   5.179   1.606   2.381
 8222SOL    HW225566   5.305   1.659   2.291
 8223SOL     OW25567   1.188   4.431   5.593
 8223SOL    HW125568   1.269   4.396   5.547
 8223SOL    HW225569   1.143   4.499   5.535
 8224SOL     OW25570   0.915   2.644   2.782
 8224SOL    HW125571   0.835   2.589   2.805
 8224SOL    HW225572   0.984   2.635   2.854
 8225SOL     OW25573   4.298   1.076   0.611
 8225SOL    HW125574   4.309   1.002   0.544
 8225SOL    HW225575   4.339   1.160   0.576
 8226SOL     OW25576   4.899   0.296   2.124
 8226SOL    HW125577   4.941   0.227   2.183
 8226SOL    HW225578   4.954   0.308   2.042
 8227SOL     OW25579   0.412   2.430   3.855
 8227SOL    HW125580   0.446   2.504   3.798
 8227SOL    HW225581   0.376   2.467   3.941
 8228SOL     OW25582   0.190   2.815   6.030
 8228SOL    HW125583   0.205   2.750   6.105
 8228SOL    HW225584   0.092   2.825   6.013
 8229SOL     OW25585   3.636   4.448   0.040
 8229SOL    HW125586   3.673   4.472   6.973
 8229SOL    HW225587   3.711   4.419   0.099
 8230SOL     OW25588   5.690   0.181   5.324
 8230SOL    HW125589   5.747   0.136   5.255
 8230SOL    HW225590   5.736   0.178   5.413
 8231SOL     OW25591   3.711   6.148   1.533
 8231SOL    HW125592   3.712   6.129   1.631
 8231SOL    HW225593   3.717   6.247   1.518
 8232SOL     OW25594   5.509   0.831   0.597
 8232SOL    HW125595   5.525   0.753   0.658
 8232SOL    HW225596   5.470   0.906   0.650
 8233SOL     OW25597   0.738   6.109   6.262
 8233SOL    HW125598   0.715   6.018   6.226
 8233SOL    HW225599   0.797   6.099   6.342
 8234SOL     OW25600   2.354   3.306   0.284
 8234SOL    HW125601   2.338   3.289   0.381
 8234SOL    HW225602   2.347   3.220   0.234
 8235SOL     OW25603   2.202   2.878   0.862
 8235SOL    HW125604   2.251   2.939   0.925
 8235SOL    HW225605   2.156   2.932   0.792
 8236SOL     OW25606   6.575   3.790   0.077
 8236SOL    HW125607   6.552   3.706   0.028
 8236SOL    HW225608   6.653   3.772   0.138
 8237SOL     OW25609   4.797   6.490   4.704
 8237SOL    HW125610   4.870   6.422   4.699
 8237SOL    HW225611   4.804   6.539   4.791
 8238SOL     OW25612   1.420   4.178   0.302
 8238SOL    HW125613   1.333   4.226   0.308
 8238SOL    HW225614   1.435   4.146   0.209
 8239SOL     OW25615   6.629   1.971   5.448
 8239SOL    HW125616   6.567   2.006   5.518
 8239SOL    HW225617   6.709   1.929   5.492
 8240SOL     OW25618   3.492   3.891   2.740
 8240SOL    HW125619   3.436   3.866   2.819
 8240SOL    HW225620   3.586   3.909   2.769
 8241SOL     OW25621   3.644   6.586   0.495
 8241SOL    HW125622   3.649   6.685   0.484
 8241SOL    HW225623   3.710   6.542   0.435
 8242SOL     OW25624   1.257   4.600   6.081
 8242SOL    HW125625   1.280   4.692   6.112
 8242SOL    HW225626   1.317   4.575   6.005
 8243SOL     OW25627   0.955   3.073   6.451
 8243SOL    HW125628   1.012   3.000   6.411
 8243SOL    HW225629   0.925   3.135   6.379
 8244SOL     OW25630   0.458   6.867   3.145
 8244SOL    HW125631   0.552   6.886   3.118
 8244SOL    HW225632   0.422   6.790   3.091
 8245SOL     OW25633   3.430   0.929   2.453
 8245SOL    HW125634   3.456   1.008   2.508
 8245SOL    HW225635   3.454   0.946   2.357
 8246SOL     OW25636   6.912   3.636   5.605
 8246SOL    HW125637   6.886   3.722   5.561
 8246SOL    HW225638   6.953   3.575   5.537
 8247SOL     OW25639   0.886   0.571   1.689
 8247SOL    HW125640   0.964   0.509   1.697
 8247SOL    HW225641   0.909   0.646   1.628
 8248SOL     OW25642   5.608   4.788   2.899
 8248SOL    HW125643   5.513   4.814   2.882
 8248SOL    HW225644   5.653   4.769   2.812
 8249SOL     OW25645   2.158   3.597   4.792
 8249SOL    HW125646   2.158   3.686   4.746
 8249SOL    HW225647   2.158   3.612   4.891
 8250SOL     OW25648   3.316   4.140   2.375
 8250SOL    HW125649   3.398   4.167   2.425
 8250SOL    HW225650   3.237   4.144   2.435
 8251SOL     OW25651   6.329   2.545   4.304
 8251SOL    HW125652   6.241   2.592   4.296
 8251SOL    HW225653   6.317   2.458   4.352
 8252SOL     OW25654   3.375   3.317   6.967
 8252SOL    HW125655   3.419   3.383   0.003
 8252SOL    HW225656   3.320   3.253   7.022
 8253SOL     OW25657   3.806   3.862   4.980
 8253SOL    HW125658   3.813   3.904   4.890
 8253SOL    HW225659   3.897   3.845   5.017
 8254SOL     OW25660   4.304   4.777   4.587
 8254SOL    HW125661   4.390   4.821   4.563
 8254SOL    HW225662   4.299   4.764   4.686
 8255SOL     OW25663   3.827   6.160   4.822
 8255SOL    HW125664   3.900   6.123   4.879
 8255SOL    HW225665   3.739   6.123   4.851
 8256SOL     OW25666   6.317   0.386   2.393
 8256SOL    HW125667   6.219   0.394   2.412
 8256SOL    HW225668   6.353   0.475   2.366
 8257SOL     OW25669   6.504   3.910   3.471
 8257SOL    HW125670   6.491   4.007   3.451
 8257SOL    HW225671   6.469   3.889   3.562
 8258SOL     OW25672   5.460   1.405   0.283
 8258SOL    HW125673   5.400   1.435   0.358
 8258SOL    HW225674   5.552   1.390   0.318
 8259SOL     OW25675   4.083   1.763   3.847
 8259SOL    HW125676   4.120   1.713   3.769
 8259SOL    HW225677   4.121   1.855   3.849
 8260SOL     OW25678   2.978   0.493   1.074
 8260SOL    HW125679   2.905   0.547   1.032
 8260SOL    HW225680   3.067   0.532   1.050
 8261SOL     OW25681   6.375   1.473   1.496
 8261SOL    HW125682   6.394   1.375   1.503
 8261SOL    HW225683   6.276   1.488   1.496
 8262SOL     OW25684   1.067   2.623   0.872
 8262SOL    HW125685   1.149   2.675   0.894
 8262SOL    HW225686   1.053   2.621   0.773
 8263SOL     OW25687   0.076   2.123   0.217
 8263SOL    HW125688   0.159   2.177   0.233
 8263SOL    HW225689   0.044   2.139   0.124
 8264SOL     OW25690   1.749   5.964   2.207
 8264SOL    HW125691   1.693   6.013   2.140
 8264SOL    HW225692   1.792   6.030   2.268
 8265SOL     OW25693   0.991   6.701   1.365
 8265SOL    HW125694   1.090   6.695   1.352
 8265SOL    HW225695   0.945   6.652   1.291
 8266SOL     OW25696   2.011   0.614   2.926
 8266SOL    HW125697   2.049   0.550   2.993
 8266SOL    HW225698   2.042   0.588   2.835
 8267SOL     OW25699   1.639   3.062   1.104
 8267SOL    HW125700   1.652   2.987   1.040
 8267SOL    HW225701   1.602   3.026   1.190
 8268SOL     OW25702   2.343   6.399   6.368
 8268SOL    HW125703   2.381   6.465   6.302
 8268SOL    HW225704   2.249   6.377   6.342
 8269SOL     OW25705   5.835   1.355   1.448
 8269SOL    HW125706   5.735   1.359   1.443
 8269SOL    HW225707   5.862   1.282   1.510
 8270SOL     OW25708   2.821   0.065   4.901
 8270SOL    HW125709   2.854   0.158   4.885
 8270SOL    HW225710   2.800   0.053   4.998
 8271SOL     OW25711   0.072   0.630   2.255
 8271SOL    HW125712   0.143   0.656   2.320
 8271SOL    HW225713   0.108   0.637   2.162
 8272SOL     OW25714   5.178   1.048   1.022
 8272SOL    HW125715   5.136   1.001   0.945
 8272SOL    HW225716   5.268   1.009   1.041
 8273SOL     OW25717   2.004   6.089   0.750
 8273SOL    HW125718   1.946   6.013   0.720
 8273SOL    HW225719   1.952   6.175   0.744
 8274SOL     OW25720   4.774   4.760   3.431
 8274SOL    HW125721   4.797   4.817   3.509
 8274SOL    HW225722   4.786   4.664   3.455
 8275SOL     OW25723   4.279   1.173   6.013
 8275SOL    HW125724   4.366   1.127   6.030
 8275SOL    HW225725   4.239   1.140   5.928
 8276SOL     OW25726   0.975   2.326   3.820
 8276SOL    HW125727   0.953   2.233   3.848
 8276SOL    HW225728   1.074   2.339   3.822
 8277SOL     OW25729   0.037   0.448   6.829
 8277SOL    HW125730   7.003   0.480   6.905
 8277SOL    HW225731   7.002   0.413   6.756
 8278SOL     OW25732   2.613   1.717   5.974
 8278SOL    HW125733   2.569   1.653   6.037
 8278SOL    HW225734   2.546   1.750   5.908
 8279SOL     OW25735   1.468   0.332   4.456
 8279SOL    HW125736   1.382   0.327   4.405
 8279SOL    HW225737   1.545   0.329   4.393
 8280SOL     OW25738   2.595   2.993   0.630
 8280SOL    HW125739   2.527   3.052   0.672
 8280SOL    HW225740   2.574   2.897   0.651
 8281SOL     OW25741   1.618   4.917   1.283
 8281SOL    HW125742   1.654   4.835   1.239
 8281SOL    HW225743   1.677   4.943   1.359
 8282SOL     OW25744   5.535   3.691   6.548
 8282SOL    HW125745   5.481   3.689   6.464
 8282SOL    HW225746   5.563   3.598   6.572
 8283SOL     OW25747   1.227   4.548   6.579
 8283SOL    HW125748   1.141   4.586   6.544
 8283SOL    HW225749   1.292   4.539   6.504
 8284SOL     OW25750   1.083   3.884   1.567
 8284SOL    HW125751   0.992   3.851   1.593
 8284SOL    HW225752   1.112   3.840   1.482
 8285SOL     OW25753   3.584   2.848   4.890
 8285SOL    HW125754   3.557   2.929   4.837
 8285SOL    HW225755   3.525   2.771   4.866
 8286SOL     OW25756   5.348   3.450   6.648
 8286SOL    HW125757   5.368   3.363   6.603
 8286SOL    HW225758   5.433   3.495   6.673
 8287SOL     OW25759   1.899   5.364   4.445
 8287SOL    HW125760   1.984   5.353   4.497
 8287SOL    HW225761   1.920   5.399   4.354
 8288SOL     OW25762   2.570   1.690   1.643
 8288SOL    HW125763   2.505   1.764   1.623
 8288SOL    HW225764   2.557   1.660   1.737
 8289SOL     OW25765   0.473   6.550   1.800
 8289SOL    HW125766   0.531   6.470   1.815
 8289SOL    HW225767   0.477   6.610   1.880
 8290SOL     OW25768   5.829   0.862   0.562
 8290SOL    HW125769   5.852   0.960   0.564
 8290SOL    HW225770   5.769   0.844   0.484
 8291SOL     OW25771   4.519   5.730   6.539
 8291SOL    HW125772   4.594   5.672   6.569
 8291SOL    HW225773   4.432   5.686   6.561
 8292SOL     OW25774   2.416   6.187   6.905
 8292SOL    HW125775   2.441   6.099   6.864
 8292SOL    HW225776   2.480   6.257   6.874
 8293SOL     OW25777   3.416   7.014   0.090
 8293SOL    HW125778   3.417   0.087   0.116
 8293SOL    HW225779   3.428   6.958   0.171
 8294SOL     OW25780   5.731   4.372   5.139
 8294SOL    HW125781   5.809   4.333   5.188
 8294SOL    HW225782   5.714   4.465   5.172
 8295SOL     OW25783   5.493   5.252   1.913
 8295SOL    HW125784   5.512   5.155   1.902
 8295SOL    HW225785   5.417   5.279   1.853
 8296SOL     OW25786   2.585   6.847   6.486
 8296SOL    HW125787   2.660   6.891   6.534
 8296SOL    HW225788   2.503   6.846   6.544
 8297SOL     OW25789   6.500   2.843   2.295
 8297SOL    HW125790   6.426   2.796   2.344
 8297SOL    HW225791   6.582   2.786   2.296
 8298SOL     OW25792   6.230   2.394   1.240
 8298SOL    HW125793   6.264   2.430   1.154
 8298SOL    HW225794   6.141   2.436   1.262
 8299SOL     OW25795   6.932   2.493   1.825
 8299SOL    HW125796   6.901   2.570   1.770
 8299SOL    HW225797   6.971   2.423   1.766
 8300SOL     OW25798   1.023   5.700   5.383
 8300SOL    HW125799   1.100   5.653   5.341
 8300SOL    HW225800   0.937   5.664   5.347
 8301SOL     OW25801   4.226   1.897   1.610
 8301SOL    HW125802   4.159   1.972   1.606
 8301SOL    HW225803   4.221   1.844   1.525
 8302SOL     OW25804   5.398   6.116   6.295
 8302SOL    HW125805   5.324   6.056   6.324
 8302SOL    HW225806   5.434   6.085   6.207
 8303SOL     OW25807   6.713   0.846   3.799
 8303SOL    HW125808   6.705   0.946   3.802
 8303SOL    HW225809   6.785   0.820   3.734
 8304SOL     OW25810   1.261   3.062   6.945
 8304SOL    HW125811   1.194   3.017   7.003
 8304SOL    HW225812   1.238   3.047   6.849
 8305SOL     OW25813   3.943   4.999   4.379
 8305SOL    HW125814   3.913   4.966   4.290
 8305SOL    HW225815   4.041   4.980   4.390
 8306SOL     OW25816   0.274   2.851   5.003
 8306SOL    HW125817   0.311   2.915   5.070
 8306SOL    HW225818   0.190   2.810   5.038
 8307SOL     OW25819   4.079   5.351   1.489
 8307SOL    HW125820   4.105   5.444   1.515
 8307SOL    HW225821   3.987   5.331   1.523
 8308SOL     OW25822   4.318   6.074   1.482
 8308SOL    HW125823   4.222   6.051   1.494
 8308SOL    HW225824   4.326   6.168   1.447
 8309SOL     OW25825   6.288   5.533   3.447
 8309SOL    HW125826   6.360   5.474   3.410
 8309SOL    HW225827   6.328   5.619   3.477
 8310SOL     OW25828   1.166   4.114   0.458
 8310SOL    HW125829   1.225   4.135   0.536
 8310SOL    HW225830   1.095   4.184   0.450
 8311SOL     OW25831   0.554   1.055   5.000
 8311SOL    HW125832   0.589   1.032   5.091
 8311SOL    HW225833   0.574   0.981   4.936
 8312SOL     OW25834   4.432   5.874   1.339
 8312SOL    HW125835   4.450   5.918   1.251
 8312SOL    HW225836   4.399   5.942   1.404
 8313SOL     OW25837   4.810   1.095   2.162
 8313SOL    HW125838   4.779   1.137   2.077
 8313SOL    HW225839   4.907   1.117   2.177
 8314SOL     OW25840   4.835   6.716   1.335
 8314SOL    HW125841   4.858   6.628   1.375
 8314SOL    HW225842   4.772   6.703   1.258
 8315SOL     OW25843   3.870   3.538   1.080
 8315SOL    HW125844   3.793   3.548   1.144
 8315SOL    HW225845   3.949   3.502   1.129
 8316SOL     OW25846   1.123   2.407   1.566
 8316SOL    HW125847   1.063   2.349   1.511
 8316SOL    HW225848   1.072   2.488   1.596
 8317SOL     OW25849   2.141   2.702   2.162
 8317SOL    HW125850   2.138   2.800   2.141
 8317SOL    HW225851   2.048   2.666   2.165
 8318SOL     OW25852   4.328   1.603   4.494
 8318SOL    HW125853   4.285   1.684   4.535
 8318SOL    HW225854   4.295   1.592   4.401
 8319SOL     OW25855   3.336   1.803   6.819
 8319SOL    HW125856   3.387   1.747   6.754
 8319SOL    HW225857   3.358   1.900   6.805
 8320SOL     OW25858   3.717   4.832   1.391
 8320SOL    HW125859   3.664   4.806   1.471
 8320SOL    HW225860   3.719   4.932   1.383
 8321SOL     OW25861   7.022   1.388   0.058
 8321SOL    HW125862   0.060   1.328   0.108
 8321SOL    HW225863   6.992   1.343   6.998
 8322SOL     OW25864   0.540   0.238   0.173
 8322SOL    HW125865   0.562   0.335   0.177
 8322SOL    HW225866   0.535   0.202   0.267
 8323SOL     OW25867   6.521   6.419   2.876
 8323SOL    HW125868   6.521   6.382   2.969
 8323SOL    HW225869   6.454   6.492   2.869
 8324SOL     OW25870   6.097   0.953   2.101
 8324SOL    HW125871   6.041   1.007   2.163
 8324SOL    HW225872   6.186   0.936   2.143
 8325SOL     OW25873   3.235   3.286   4.975
 8325SOL    HW125874   3.313   3.246   4.926
 8325SOL    HW225875   3.165   3.215   4.988
 8326SOL     OW25876   4.466   3.082   5.331
 8326SOL    HW125877   4.367   3.074   5.322
 8326SOL    HW225878   4.491   3.179   5.338
 8327SOL     OW25879   5.230   2.861   6.311
 8327SOL    HW125880   5.309   2.905   6.268
 8327SOL    HW225881   5.155   2.855   6.245
 8328SOL     OW25882   2.663   4.378   6.408
 8328SOL    HW125883   2.595   4.442   6.444
 8328SOL    HW225884   2.636   4.350   6.315
 8329SOL     OW25885   6.991   4.029   6.261
 8329SOL    HW125886   0.058   3.989   6.252
 8329SOL    HW225887   6.997   4.115   6.312
 8330SOL     OW25888   1.971   6.816   0.742
 8330SOL    HW125889   2.043   6.803   0.811
 8330SOL    HW225890   1.910   6.737   0.743
 8331SOL     OW25891   2.687   0.806   1.229
 8331SOL    HW125892   2.695   0.887   1.171
 8331SOL    HW225893   2.634   0.735   1.182
 8332SOL     OW25894   4.859   5.040   2.529
 8332SOL    HW125895   4.763   5.070   2.532
 8332SOL    HW225896   4.863   4.946   2.495
 8333SOL     OW25897   0.847   6.427   6.868
 8333SOL    HW125898   0.794   6.505   6.834
 8333SOL    HW225899   0.792   6.344   6.861
 8334SOL     OW25900   4.901   1.793   3.794
 8334SOL    HW125901   4.826   1.763   3.735
 8334SOL    HW225902   4.936   1.715   3.846
 8335SOL     OW25903   6.384   5.323   5.545
 8335SOL    HW125904   6.294   5.355   5.573
 8335SOL    HW225905   6.431   5.282   5.624
 8336SOL     OW25906   0.186   0.265   1.799
 8336SOL    HW125907   0.163   0.183   1.850
 8336SOL    HW225908   0.109   0.329   1.803
 8337SOL     OW25909   0.646   6.514   3.018
 8337SOL    HW125910   0.630   6.476   3.109
 8337SOL    HW225911   0.738   6.487   2.987
 8338SOL     OW25912   1.704   5.047   2.125
 8338SOL    HW125913   1.748   5.016   2.041
 8338SOL    HW225914   1.751   5.008   2.204
 8339SOL     OW25915   5.917   0.417   1.475
 8339SOL    HW125916   6.002   0.455   1.512
 8339SOL    HW225917   5.860   0.385   1.550
 8340SOL     OW25918   5.183   4.038   0.999
 8340SOL    HW125919   5.144   3.962   0.947
 8340SOL    HW225920   5.281   4.025   1.009
 8341SOL     OW25921   2.778   6.414   6.988
 8341SOL    HW125922   2.719   6.376   6.916
 8341SOL    HW225923   2.740   6.392   0.054
 8342SOL     OW25924   3.905   0.960   1.248
 8342SOL    HW125925   3.999   0.968   1.216
 8342SOL    HW225926   3.856   1.045   1.230
 8343SOL     OW25927   1.127   5.134   6.397
 8343SOL    HW125928   1.139   5.204   6.467
 8343SOL    HW225929   1.042   5.151   6.347
 8344SOL     OW25930   4.894   0.190   5.450
 8344SOL    HW125931   4.825   0.127   5.412
 8344SOL    HW225932   4.881   0.281   5.411
 8345SOL     OW25933   5.567   2.210   3.432
 8345SOL    HW125934   5.470   2.236   3.429
 8345SOL    HW225935   5.596   2.200   3.527
 8346SOL     OW25936   3.360   4.821   0.224
 8346SOL    HW125937   3.275   4.851   0.267
 8346SOL    HW225938   3.386   4.885   0.152
 8347SOL     OW25939   3.577   6.924   4.545
 8347SOL    HW125940   3.538   6.859   4.611
 8347SOL    HW225941   3.512   6.938   4.470
 8348SOL     OW25942   1.259   6.867   1.651
 8348SOL    HW125943   1.206   6.951   1.663
 8348SOL    HW225944   1.265   6.845   1.554
 8349SOL     OW25945   5.858   5.560   1.487
 8349SOL    HW125946   5.791   5.584   1.417
 8349SOL    HW225947   5.897   5.470   1.466
 8350SOL     OW25948   4.900   1.020   4.361
 8350SOL    HW125949   4.806   1.051   4.346
 8350SOL    HW225950   4.949   1.089   4.415
 8351SOL     OW25951   4.798   5.270   4.396
 8351SOL    HW125952   4.898   5.263   4.391
 8351SOL    HW225953   4.771   5.296   4.489
 8352SOL     OW25954   6.870   6.855   2.033
 8352SOL    HW125955   6.921   6.886   1.953
 8352SOL    HW225956   6.906   6.900   2.115
 8353SOL     OW25957   5.545   3.877   2.105
 8353SOL    HW125958   5.573   3.917   2.018
 8353SOL    HW225959   5.543   3.777   2.097
 8354SOL     OW25960   3.495   0.948   6.830
 8354SOL    HW125961   3.407   0.983   6.865
 8354SOL    HW225962   3.478   0.873   6.767
 8355SOL     OW25963   3.189   0.541   6.757
 8355SOL    HW125964   3.236   0.531   6.668
 8355SOL    HW225965   3.251   0.583   6.822
 8356SOL     OW25966   1.460   6.623   0.460
 8356SOL    HW125967   1.485   6.562   0.384
 8356SOL    HW225968   1.532   6.692   0.471
 8357SOL     OW25969   3.726   6.778   5.974
 8357SOL    HW125970   3.676   6.840   6.034
 8357SOL    HW225971   3.689   6.686   5.982
 8358SOL     OW25972   1.306   2.808   4.988
 8358SOL    HW125973   1.243   2.731   4.980
 8358SOL    HW225974   1.271   2.885   4.934
 8359SOL     OW25975   3.084   6.383   4.459
 8359SOL    HW125976   3.121   6.353   4.547
 8359SOL    HW225977   3.146   6.448   4.416
 8360SOL     OW25978   3.166   6.255   2.057
 8360SOL    HW125979   3.178   6.194   2.136
 8360SOL    HW225980   3.218   6.339   2.072
 8361SOL     OW25981   1.968   0.591   2.172
 8361SOL    HW125982   2.067   0.590   2.166
 8361SOL    HW225983   1.938   0.674   2.218
 8362SOL     OW25984   2.278   2.227   0.757
 8362SOL    HW125985   2.313   2.137   0.730
 8362SOL    HW225986   2.184   2.218   0.790
 8363SOL     OW25987   0.299   2.913   6.816
 8363SOL    HW125988   0.239   2.916   6.896
 8363SOL    HW225989   0.394   2.916   6.846
 8364SOL     OW25990   6.630   3.392   3.256
 8364SOL    HW125991   6.664   3.441   3.176
 8364SOL    HW225992   6.583   3.456   3.317
 8365SOL     OW25993   1.543   4.138   1.791
 8365SOL    HW125994   1.448   4.112   1.778
 8365SOL    HW225995   1.586   4.075   1.856
 8366SOL     OW25996   4.141   5.453   2.463
 8366SOL    HW125997   4.052   5.498   2.465
 8366SOL    HW225998   4.132   5.363   2.422
 8367SOL     OW25999   3.971   6.021   3.972
 8367SOL    HW126000   4.060   6.066   3.963
 8367SOL    HW226001   3.926   6.054   4.055
 8368SOL     OW26002   2.636   6.451   6.009
 8368SOL    HW126003   2.634   6.415   5.916
 8368SOL    HW226004   2.715   6.413   6.058
 8369SOL     OW26005   2.158   0.457   0.070
 8369SOL    HW126006   2.150   0.421   7.001
 8369SOL    HW226007   2.242   0.511   0.078
 8370SOL     OW26008   2.842   2.117   5.986
 8370SOL    HW126009   2.832   2.115   5.886
 8370SOL    HW226010   2.870   2.027   6.018
 8371SOL     OW26011   1.721   4.262   1.022
 8371SOL    HW126012   1.667   4.297   0.945
 8371SOL    HW226013   1.764   4.175   0.996
 8372SOL     OW26014   0.274   6.234   2.965
 8372SOL    HW126015   0.188   6.276   2.993
 8372SOL    HW226016   0.285   6.246   2.866
 8373SOL     OW26017   0.836   0.445   4.829
 8373SOL    HW126018   0.932   0.441   4.857
 8373SOL    HW226019   0.786   0.371   4.874
 8374SOL     OW26020   6.480   0.445   6.467
 8374SOL    HW126021   6.576   0.435   6.496
 8374SOL    HW226022   6.474   0.512   6.394
 8375SOL     OW26023   3.261   6.560   5.622
 8375SOL    HW126024   3.341   6.524   5.670
 8375SOL    HW226025   3.285   6.584   5.528
 8376SOL     OW26026   1.988   6.795   4.371
 8376SOL    HW126027   2.020   6.783   4.465
 8376SOL    HW226028   2.051   6.856   4.322
 8377SOL     OW26029   5.376   6.037   1.217
 8377SOL    HW126030   5.421   5.971   1.157
 8377SOL    HW226031   5.300   5.993   1.264
 8378SOL     OW26032   4.504   4.392   3.005
 8378SOL    HW126033   4.547   4.450   2.935
 8378SOL    HW226034   4.574   4.334   3.047
 8379SOL     OW26035   6.838   2.844   0.757
 8379SOL    HW126036   6.824   2.773   0.825
 8379SOL    HW226037   6.788   2.821   0.674
 8380SOL     OW26038   6.611   1.443   2.465
 8380SOL    HW126039   6.529   1.501   2.466
 8380SOL    HW226040   6.584   1.347   2.462
 8381SOL     OW26041   0.564   4.165   4.810
 8381SOL    HW126042   0.586   4.111   4.891
 8381SOL    HW226043   0.623   4.138   4.734
 8382SOL     OW26044   1.223   1.505   2.063
 8382SOL    HW126045   1.288   1.463   2.127
 8382SOL    HW226046   1.138   1.524   2.111
 8383SOL     OW26047   2.464   0.885   6.182
 8383SOL    HW126048   2.404   0.921   6.255
 8383SOL    HW226049   2.551   0.934   6.185
 8384SOL     OW26050   0.292   6.898   0.167
 8384SOL    HW126051   0.340   6.879   0.252
 8384SOL    HW226052   0.226   6.826   0.149
 8385SOL     OW26053   5.922   2.827   1.479
 8385SOL    HW126054   6.005   2.778   1.507
 8385SOL    HW226055   5.910   2.909   1.535
 8386SOL     OW26056   0.899   4.060   2.560
 8386SOL    HW126057   0.940   4.149   2.582
 8386SOL    HW226058   0.854   4.066   2.470
 8387SOL     OW26059   0.742   1.371   1.106
 8387SOL    HW126060   0.799   1.290   1.089
 8387SOL    HW226061   0.798   1.443   1.146
 8388SOL     OW26062   1.672   6.195   0.499
 8388SOL    HW126063   1.677   6.096   0.492
 8388SOL    HW226064   1.578   6.225   0.482
 8389SOL     OW26065   5.968   3.651   2.600
 8389SOL    HW126066   6.014   3.676   2.685
 8389SOL    HW226067   6.033   3.605   2.539
 8390SOL     OW26068   3.735   1.740   6.414
 8390SOL    HW126069   3.658   1.749   6.477
 8390SOL    HW226070   3.718   1.793   6.332
 8391SOL     OW26071   6.062   5.757   0.421
 8391SOL    HW126072   6.148   5.801   0.448
 8391SOL    HW226073   6.079   5.661   0.400
 8392SOL     OW26074   6.163   3.659   3.937
 8392SOL    HW126075   6.097   3.606   3.990
 8392SOL    HW226076   6.255   3.623   3.950
 8393SOL     OW26077   5.796   0.830   2.730
 8393SOL    HW126078   5.852   0.890   2.788
 8393SOL    HW226079   5.754   0.885   2.658
 8394SOL     OW26080   5.947   3.050   2.124
 8394SOL    HW126081   6.006   3.048   2.204
 8394SOL    HW226082   5.979   3.121   2.061
 8395SOL     OW26083   3.129   6.782   5.687
 8395SOL    HW126084   3.179   6.864   5.660
 8395SOL    HW226085   3.184   6.701   5.668
 8396SOL     OW26086   4.517   4.720   3.350
 8396SOL    HW126087   4.496   4.769   3.266
 8396SOL    HW226088   4.612   4.737   3.376
 8397SOL     OW26089   0.669   1.176   3.624
 8397SOL    HW126090   0.624   1.089   3.642
 8397SOL    HW226091   0.718   1.171   3.537
 8398SOL     OW26092   4.929   2.287   6.510
 8398SOL    HW126093   5.008   2.233   6.484
 8398SOL    HW226094   4.890   2.330   6.428
 8399SOL     OW26095   6.203   6.409   6.670
 8399SOL    HW126096   6.292   6.449   6.650
 8399SOL    HW226097   6.139   6.481   6.695
 8400SOL     OW26098   1.477   2.370   4.141
 8400SOL    HW126099   1.400   2.434   4.132
 8400SOL    HW226100   1.563   2.420   4.143
 8401SOL     OW26101   2.186   1.217   5.491
 8401SOL    HW126102   2.226   1.128   5.515
 8401SOL    HW226103   2.142   1.256   5.572
 8402SOL     OW26104   5.696   1.875   6.040
 8402SOL    HW126105   5.727   1.893   5.947
 8402SOL    HW226106   5.724   1.951   6.100
 8403SOL     OW26107   0.998   3.869   4.583
 8403SOL    HW126108   0.949   3.793   4.624
 8403SOL    HW226109   0.957   3.892   4.494
 8404SOL     OW26110   3.485   0.493   5.708
 8404SOL    HW126111   3.418   0.428   5.673
 8404SOL    HW226112   3.554   0.511   5.638
 8405SOL     OW26113   3.329   1.752   6.096
 8405SOL    HW126114   3.283   1.815   6.034
 8405SOL    HW226115   3.427   1.773   6.099
 8406SOL     OW26116   3.927   0.032   0.472
 8406SOL    HW126117   3.905   0.050   0.568
 8406SOL    HW226118   3.851   0.063   0.415
 8407SOL     OW26119   4.559   6.411   3.391
 8407SOL    HW126120   4.490   6.366   3.447
 8407SOL    HW226121   4.620   6.465   3.449
 8408SOL     OW26122   5.117   5.543   0.226
 8408SOL    HW126123   5.063   5.461   0.205
 8408SOL    HW226124   5.061   5.624   0.213
 8409SOL     OW26125   4.717   2.304   2.040
 8409SOL    HW126126   4.704   2.209   2.011
 8409SOL    HW226127   4.641   2.359   2.006
 8410SOL     OW26128   6.102   2.341   1.559
 8410SOL    HW126129   6.180   2.398   1.531
 8410SOL    HW226130   6.130   2.245   1.557
 8411SOL     OW26131   0.451   5.981   0.785
 8411SOL    HW126132   0.464   6.013   0.691
 8411SOL    HW226133   0.354   5.970   0.803
 8412SOL     OW26134   4.021   2.932   1.202
 8412SOL    HW126135   4.058   2.953   1.293
 8412SOL    HW226136   3.994   3.016   1.157
 8413SOL     OW26137   4.269   5.460   6.230
 8413SOL    HW126138   4.216   5.544   6.243
 8413SOL    HW226139   4.265   5.405   6.313
 8414SOL     OW26140   2.159   1.031   2.329
 8414SOL    HW126141   2.062   1.053   2.332
 8414SOL    HW226142   2.192   1.010   2.421
 8415SOL     OW26143   2.325   6.585   4.176
 8415SOL    HW126144   2.234   6.615   4.147
 8415SOL    HW226145   2.388   6.662   4.172
 8416SOL     OW26146   6.276   1.662   4.916
 8416SOL    HW126147   6.274   1.623   4.824
 8416SOL    HW226148   6.335   1.606   4.974
 8417SOL     OW26149   2.089   3.084   5.588
 8417SOL    HW126150   2.138   3.091   5.502
 8417SOL    HW226151   2.154   3.073   5.663
 8418SOL     OW26152   0.384   5.763   1.994
 8418SOL    HW126153   0.380   5.854   2.035
 8418SOL    HW226154   0.477   5.728   1.999
 8419SOL     OW26155   5.918   1.570   3.159
 8419SOL    HW126156   6.014   1.570   3.187
 8419SOL    HW226157   5.871   1.646   3.204
 8420SOL     OW26158   3.315   6.504   2.146
 8420SOL    HW126159   3.408   6.468   2.140
 8420SOL    HW226160   3.317   6.604   2.138
 8421SOL     OW26161   3.277   5.473   6.838
 8421SOL    HW126162   3.240   5.460   6.746
 8421SOL    HW226163   3.211   5.439   6.905
 8422SOL     OW26164   3.921   2.179   2.518
 8422SOL    HW126165   3.992   2.131   2.569
 8422SOL    HW226166   3.961   2.254   2.466
 8423SOL     OW26167   4.676   4.122   5.543
 8423SOL    HW126168   4.600   4.125   5.609
 8423SOL    HW226169   4.639   4.133   5.450
 8424SOL     OW26170   2.229   1.943   3.561
 8424SOL    HW126171   2.150   1.986   3.605
 8424SOL    HW226172   2.248   1.856   3.605
 8425SOL     OW26173   3.939   3.571   4.298
 8425SOL    HW126174   3.856   3.551   4.350
 8425SOL    HW226175   3.917   3.634   4.224
 8426SOL     OW26176   3.574   3.267   2.509
 8426SOL    HW126177   3.588   3.206   2.431
 8426SOL    HW226178   3.477   3.267   2.534
 8427SOL     OW26179   3.289   3.657   3.415
 8427SOL    HW126180   3.216   3.623   3.356
 8427SOL    HW226181   3.302   3.755   3.398
 8428SOL     OW26182   0.334   6.807   1.295
 8428SOL    HW126183   0.246   6.832   1.335
 8428SOL    HW226184   0.407   6.833   1.358
 8429SOL     OW26185   1.731   5.250   6.026
 8429SOL    HW126186   1.632   5.257   6.012
 8429SOL    HW226187   1.755   5.294   6.112
 8430SOL     OW26188   3.841   4.926   4.109
 8430SOL    HW126189   3.906   4.873   4.054
 8430SOL    HW226190   3.789   4.987   4.050
 8431SOL     OW26191   3.297   3.896   6.764
 8431SOL    HW126192   3.349   3.980   6.776
 8431SOL    HW226193   3.215   3.898   6.821
 8432SOL     OW26194   6.904   5.225   5.628
 8432SOL    HW126195   6.970   5.185   5.564
 8432SOL    HW226196   6.817   5.241   5.581
 8433SOL     OW26197   4.151   2.678   0.742
 8433SOL    HW126198   4.062   2.722   0.731
 8433SOL    HW226199   4.199   2.719   0.820
 8434SOL     OW26200   2.354   6.009   4.118
 8434SOL    HW126201   2.352   6.109   4.122
 8434SOL    HW226202   2.317   5.973   4.203
 8435SOL     OW26203   5.221   0.372   3.293
 8435SOL    HW126204   5.237   0.273   3.292
 8435SOL    HW226205   5.303   0.418   3.327
 8436SOL     OW26206   2.728   6.087   3.920
 8436SOL    HW126207   2.809   6.119   3.871
 8436SOL    HW226208   2.755   6.047   4.007
 8437SOL     OW26209   1.854   2.667   2.214
 8437SOL    HW126210   1.795   2.645   2.292
 8437SOL    HW226211   1.871   2.765   2.212
 8438SOL     OW26212   2.150   3.969   3.094
 8438SOL    HW126213   2.052   3.966   3.111
 8438SOL    HW226214   2.174   4.057   3.054
 8439SOL     OW26215   6.323   5.213   3.499
 8439SOL    HW126216   6.252   5.167   3.446
 8439SOL    HW226217   6.294   5.306   3.521
 8440SOL     OW26218   2.383   2.213   3.579
 8440SOL    HW126219   2.332   2.128   3.572
 8440SOL    HW226220   2.458   2.213   3.513
 8441SOL     OW26221   5.218   5.632   5.935
 8441SOL    HW126222   5.145   5.608   5.999
 8441SOL    HW226223   5.268   5.549   5.909
 8442SOL     OW26224   3.782   0.795   5.346
 8442SOL    HW126225   3.732   0.881   5.336
 8442SOL    HW226226   3.742   0.726   5.285
 8443SOL     OW26227   2.151   5.028   3.948
 8443SOL    HW126228   2.134   4.929   3.950
 8443SOL    HW226229   2.249   5.045   3.947
 8444SOL     OW26230   3.111   6.723   3.626
 8444SOL    HW126231   3.013   6.728   3.648
 8444SOL    HW226232   3.156   6.806   3.659
 8445SOL     OW26233   2.665   0.629   0.495
 8445SOL    HW126234   2.656   0.722   0.532
 8445SOL    HW226235   2.750   0.588   0.530
 8446SOL     OW26236   6.656   6.160   4.941
 8446SOL    HW126237   6.721   6.174   5.016
 8446SOL    HW226238   6.642   6.246   4.892
 8447SOL     OW26239   3.696   1.505   1.687
 8447SOL    HW126240   3.686   1.407   1.703
 8447SOL    HW226241   3.609   1.551   1.705
 8448SOL     OW26242   4.924   6.299   3.569
 8448SOL    HW126243   4.968   6.209   3.579
 8448SOL    HW226244   4.825   6.289   3.582
 8449SOL     OW26245   0.494   3.115   4.117
 8449SOL    HW126246   0.508   3.159   4.028
 8449SOL    HW226247   0.449   3.027   4.104
 8450SOL     OW26248   0.490   0.619   1.101
 8450SOL    HW126249   0.476   0.715   1.124
 8450SOL    HW226250   0.425   0.562   1.153
 8451SOL     OW26251   3.176   1.062   0.693
 8451SOL    HW126252   3.177   0.962   0.693
 8451SOL    HW226253   3.265   1.096   0.664
 8452SOL     OW26254   4.881   2.545   4.408
 8452SOL    HW126255   4.793   2.526   4.363
 8452SOL    HW226256   4.952   2.553   4.339
 8453SOL     OW26257   0.413   5.249   6.861
 8453SOL    HW126258   0.471   5.230   6.782
 8453SOL    HW226259   0.460   5.219   6.944
 8454SOL     OW26260   0.457   4.832   0.175
 8454SOL    HW126261   0.404   4.893   0.234
 8454SOL    HW226262   0.396   4.785   0.111
 8455SOL     OW26263   0.052   1.891   3.024
 8455SOL    HW126264   0.033   1.940   3.109
 8455SOL    HW226265   7.012   1.922   2.953
 8456SOL     OW26266   4.572   0.814   3.436
 8456SOL    HW126267   4.576   0.766   3.524
 8456SOL    HW226268   4.479   0.809   3.400
 8457SOL     OW26269   6.637   6.448   4.857
 8457SOL    HW126270   6.652   6.499   4.942
 8457SOL    HW226271   6.705   6.476   4.789
 8458SOL     OW26272   1.223   0.419   0.832
 8458SOL    HW126273   1.127   0.427   0.858
 8458SOL    HW226274   1.278   0.401   0.914
 8459SOL     OW26275   1.853   5.940   3.205
 8459SOL    HW126276   1.814   6.032   3.202
 8459SOL    HW226277   1.857   5.908   3.300
 8460SOL     OW26278   4.298   3.734   5.416
 8460SOL    HW126279   4.232   3.741   5.341
 8460SOL    HW226280   4.391   3.734   5.379
 8461SOL     OW26281   0.697   2.191   5.516
 8461SOL    HW126282   0.791   2.225   5.526
 8461SOL    HW226283   0.681   2.168   5.420
 8462SOL     OW26284   3.114   1.721   0.873
 8462SOL    HW126285   3.126   1.688   0.779
 8462SOL    HW226286   3.203   1.750   0.909
 8463SOL     OW26287   6.561   0.009   1.754
 8463SOL    HW126288   6.466   0.031   1.777
 8463SOL    HW226289   6.602   0.086   1.705
 8464SOL     OW26290   5.750   4.035   4.367
 8464SOL    HW126291   5.696   3.984   4.299
 8464SOL    HW226292   5.711   4.127   4.377
 8465SOL     OW26293   1.482   2.089   0.521
 8465SOL    HW126294   1.445   2.052   0.436
 8465SOL    HW226295   1.572   2.127   0.505
 8466SOL     OW26296   1.242   5.993   3.780
 8466SOL    HW126297   1.243   5.902   3.739
 8466SOL    HW226298   1.331   6.036   3.769
 8467SOL     OW26299   2.957   6.010   0.503
 8467SOL    HW126300   3.023   6.080   0.473
 8467SOL    HW226301   3.003   5.943   0.560
 8468SOL     OW26302   3.567   1.977   0.800
 8468SOL    HW126303   3.623   1.985   0.883
 8468SOL    HW226304   3.605   2.036   0.729
 8469SOL     OW26305   3.101   3.517   6.540
 8469SOL    HW126306   3.102   3.461   6.623
 8469SOL    HW226307   3.190   3.511   6.494
 8470SOL     OW26308   2.150   2.839   1.754
 8470SOL    HW126309   2.228   2.779   1.737
 8470SOL    HW226310   2.169   2.929   1.714
 8471SOL     OW26311   2.603   0.498   3.776
 8471SOL    HW126312   2.557   0.410   3.792
 8471SOL    HW226313   2.674   0.511   3.845
 8472SOL     OW26314   0.464   6.932   4.499
 8472SOL    HW126315   0.419   7.013   4.460
 8472SOL    HW226316   0.551   6.917   4.452
 8473SOL     OW26317   6.885   5.545   6.854
 8473SOL    HW126318   6.840   5.605   6.921
 8473SOL    HW226319   6.857   5.571   6.762
 8474SOL     OW26320   3.008   3.110   1.799
 8474SOL    HW126321   3.097   3.083   1.836
 8474SOL    HW226322   2.951   3.147   1.872
 8475SOL     OW26323   6.385   1.791   2.604
 8475SOL    HW126324   6.384   1.861   2.533
 8475SOL    HW226325   6.292   1.779   2.641
 8476SOL     OW26326   6.239   0.023   1.784
 8476SOL    HW126327   6.232   0.103   1.843
 8476SOL    HW226328   6.159   6.988   1.798
 8477SOL     OW26329   3.126   6.251   1.322
 8477SOL    HW126330   3.093   6.157   1.322
 8477SOL    HW226331   3.074   6.305   1.256
 8478SOL     OW26332   1.693   0.541   5.507
 8478SOL    HW126333   1.701   0.636   5.478
 8478SOL    HW226334   1.760   0.522   5.579
 8479SOL     OW26335   6.101   0.930   0.286
 8479SOL    HW126336   6.148   0.855   0.333
 8479SOL    HW226337   6.168   0.986   0.237
 8480SOL     OW26338   3.320   1.403   1.357
 8480SOL    HW126339   3.303   1.381   1.453
 8480SOL    HW226340   3.275   1.489   1.334
 8481SOL     OW26341   3.762   1.459   4.315
 8481SOL    HW126342   3.664   1.441   4.306
 8481SOL    HW226343   3.779   1.557   4.308
 8482SOL     OW26344   2.000   0.290   2.155
 8482SOL    HW126345   2.009   0.333   2.245
 8482SOL    HW226346   1.943   0.348   2.096
 8483SOL     OW26347   3.486   5.604   2.770
 8483SOL    HW126348   3.456   5.613   2.675
 8483SOL    HW226349   3.435   5.530   2.814
 8484SOL     OW26350   0.021   4.731   3.195
 8484SOL    HW126351   6.976   4.661   3.175
 8484SOL    HW226352   0.010   4.807   3.131
 8485SOL     OW26353   1.984   3.796   0.256
 8485SOL    HW126354   1.987   3.813   0.354
 8485SOL    HW226355   2.059   3.846   0.211
 8486SOL     OW26356   5.184   1.277   2.839
 8486SOL    HW126357   5.114   1.279   2.768
 8486SOL    HW226358   5.226   1.186   2.843
 8487SOL     OW26359   5.399   0.131   0.715
 8487SOL    HW126360   5.418   0.062   0.646
 8487SOL    HW226361   5.477   0.193   0.723
 8488SOL     OW26362   5.654   5.645   5.023
 8488SOL    HW126363   5.752   5.626   5.024
 8488SOL    HW226364   5.631   5.698   4.941
 8489SOL     OW26365   5.664   5.679   1.315
 8489SOL    HW126366   5.585   5.723   1.358
 8489SOL    HW226367   5.744   5.739   1.324
 8490SOL     OW26368   4.691   5.772   3.529
 8490SOL    HW126369   4.601   5.776   3.486
 8490SOL    HW226370   4.718   5.677   3.541
 8491SOL     OW26371   2.558   0.381   1.462
 8491SOL    HW126372   2.525   0.314   1.530
 8491SOL    HW226373   2.632   0.434   1.502
 8492SOL     OW26374   4.836   3.760   5.438
 8492SOL    HW126375   4.880   3.813   5.510
 8492SOL    HW226376   4.872   3.787   5.349
 8493SOL     OW26377   3.304   1.659   0.293
 8493SOL    HW126378   3.300   1.718   0.212
 8493SOL    HW226379   3.215   1.660   0.339
 8494SOL     OW26380   1.885   4.828   6.668
 8494SOL    HW126381   1.849   4.858   6.579
 8494SOL    HW226382   1.859   4.732   6.683
 8495SOL     OW26383   7.013   2.993   1.122
 8495SOL    HW126384   0.031   3.084   1.116
 8495SOL    HW226385   6.924   2.995   1.077
 8496SOL     OW26386   0.635   1.761   3.602
 8496SOL    HW126387   0.723   1.718   3.581
 8496SOL    HW226388   0.644   1.860   3.597
 8497SOL     OW26389   5.456   5.873   4.144
 8497SOL    HW126390   5.410   5.924   4.217
 8497SOL    HW226391   5.457   5.776   4.168
 8498SOL     OW26392   0.238   6.547   1.663
 8498SOL    HW126393   0.246   6.618   1.593
 8498SOL    HW226394   0.322   6.545   1.718
 8499SOL     OW26395   2.353   5.308   6.577
 8499SOL    HW126396   2.421   5.235   6.580
 8499SOL    HW226397   2.296   5.296   6.496
 8500SOL     OW26398   2.648   0.128   5.500
 8500SOL    HW126399   2.559   0.146   5.457
 8500SOL    HW226400   2.689   0.046   5.458
 8501SOL     OW26401   1.419   2.545   6.717
 8501SOL    HW126402   1.444   2.572   6.810
 8501SOL    HW226403   1.501   2.519   6.666
 8502SOL     OW26404   0.704   5.261   1.186
 8502SOL    HW126405   0.785   5.312   1.158
 8502SOL    HW226406   0.690   5.183   1.124
 8503SOL     OW26407   0.855   5.363   3.035
 8503SOL    HW126408   0.883   5.267   3.024
 8503SOL    HW226409   0.919   5.422   2.987
 8504SOL     OW26410   1.533   6.092   3.452
 8504SOL    HW126411   1.618   6.139   3.429
 8504SOL    HW226412   1.538   5.998   3.420
 8505SOL     OW26413   5.265   3.959   3.492
 8505SOL    HW126414   5.352   3.916   3.468
 8505SOL    HW226415   5.207   3.966   3.410
 8506SOL     OW26416   0.835   6.753   0.094
 8506SOL    HW126417   0.749   6.702   0.082
 8506SOL    HW226418   0.814   6.842   0.133
 8507SOL     OW26419   2.577   0.834   5.526
 8507SOL    HW126420   2.595   0.932   5.525
 8507SOL    HW226421   2.492   0.815   5.575
 8508SOL     OW26422   6.502   3.224   4.988
 8508SOL    HW126423   6.503   3.155   4.915
 8508SOL    HW226424   6.417   3.215   5.040
 8509SOL     OW26425   5.934   1.448   4.816
 8509SOL    HW126426   5.890   1.502   4.744
 8509SOL    HW226427   5.901   1.479   4.905
 8510SOL     OW26428   6.467   5.429   3.267
 8510SOL    HW126429   6.548   5.459   3.216
 8510SOL    HW226430   6.428   5.348   3.223
 8511SOL     OW26431   5.495   4.252   1.849
 8511SOL    HW126432   5.457   4.334   1.805
 8511SOL    HW226433   5.524   4.275   1.942
 8512SOL     OW26434   4.083   2.299   0.478
 8512SOL    HW126435   4.000   2.345   0.450
 8512SOL    HW226436   4.061   2.229   0.547
 8513SOL     OW26437   4.999   3.770   1.265
 8513SOL    HW126438   5.029   3.693   1.208
 8513SOL    HW226439   5.058   3.777   1.345
 8514SOL     OW26440   2.407   2.626   3.640
 8514SOL    HW126441   2.426   2.651   3.545
 8514SOL    HW226442   2.331   2.561   3.644
 8515SOL     OW26443   0.160   1.199   0.143
 8515SOL    HW126444   0.256   1.187   0.170
 8515SOL    HW226445   0.102   1.190   0.223
 8516SOL     OW26446   6.110   3.029   2.384
 8516SOL    HW126447   6.035   3.074   2.432
 8516SOL    HW226448   6.178   3.097   2.356
 8517SOL     OW26449   2.233   2.491   5.643
 8517SOL    HW126450   2.170   2.414   5.635
 8517SOL    HW226451   2.277   2.508   5.555
 8518SOL     OW26452   5.022   4.336   5.908
 8518SOL    HW126453   5.064   4.258   5.861
 8518SOL    HW226454   4.993   4.404   5.840
 8519SOL     OW26455   0.535   4.502   0.288
 8519SOL    HW126456   0.448   4.513   0.335
 8519SOL    HW226457   0.599   4.573   0.320
 8520SOL     OW26458   3.255   3.328   5.247
 8520SOL    HW126459   3.305   3.244   5.268
 8520SOL    HW226460   3.235   3.331   5.149
 8521SOL     OW26461   2.061   6.710   5.673
 8521SOL    HW126462   2.119   6.637   5.709
 8521SOL    HW226463   2.113   6.795   5.670
 8522SOL     OW26464   0.839   0.186   0.975
 8522SOL    HW126465   0.790   0.230   1.051
 8522SOL    HW226466   0.779   0.181   0.895
 8523SOL     OW26467   3.059   6.990   6.889
 8523SOL    HW126468   2.962   6.985   6.866
 8523SOL    HW226469   3.108   0.013   6.816
 8524SOL     OW26470   1.414   4.597   4.616
 8524SOL    HW126471   1.359   4.636   4.689
 8524SOL    HW226472   1.511   4.608   4.636
 8525SOL     OW26473   5.781   5.207   1.211
 8525SOL    HW126474   5.766   5.115   1.174
 8525SOL    HW226475   5.696   5.259   1.206
 8526SOL     OW26476   2.963   6.683   0.858
 8526SOL    HW126477   2.924   6.772   0.884
 8526SOL    HW226478   2.905   6.640   0.790
 8527SOL     OW26479   3.701   0.921   7.021
 8527SOL    HW126480   3.652   0.934   6.935
 8527SOL    HW226481   3.639   0.881   0.065
 8528SOL     OW26482   4.609   1.824   0.938
 8528SOL    HW126483   4.513   1.811   0.911
 8528SOL    HW226484   4.660   1.861   0.861
 8529SOL     OW26485   1.176   6.847   6.946
 8529SOL    HW126486   1.119   6.766   6.958
 8529SOL    HW226487   1.272   6.822   6.956
 8530SOL     OW26488   3.587   3.775   4.743
 8530SOL    HW126489   3.515   3.779   4.673
 8530SOL    HW226490   3.649   3.699   4.722
 8531SOL     OW26491   0.079   5.239   2.481
 8531SOL    HW126492   0.171   5.274   2.463
 8531SOL    HW226493   0.011   5.301   2.442
 8532SOL     OW26494   4.006   6.535   4.504
 8532SOL    HW126495   4.021   6.439   4.481
 8532SOL    HW226496   3.919   6.566   4.467
 8533SOL     OW26497   1.448   5.903   0.028
 8533SOL    HW126498   1.426   5.941   6.962
 8533SOL    HW226499   1.393   5.821   0.045
 8534SOL     OW26500   4.685   2.410   3.494
 8534SOL    HW126501   4.653   2.418   3.399
 8534SOL    HW226502   4.778   2.446   3.500
 8535SOL     OW26503   5.582   1.377   4.557
 8535SOL    HW126504   5.664   1.397   4.504
 8535SOL    HW226505   5.596   1.294   4.612
 8536SOL     OW26506   1.062   2.192   4.889
 8536SOL    HW126507   1.141   2.222   4.836
 8536SOL    HW226508   0.996   2.267   4.895
 8537SOL     OW26509   5.918   1.599   3.518
 8537SOL    HW126510   5.936   1.697   3.508
 8537SOL    HW226511   5.877   1.582   3.608
 8538SOL     OW26512   2.043   1.688   0.165
 8538SOL    HW126513   2.017   1.755   0.234
 8538SOL    HW226514   2.136   1.707   0.133
 8539SOL     OW26515   6.361   1.531   2.457
 8539SOL    HW126516   6.321   1.451   2.501
 8539SOL    HW226517   6.369   1.605   2.525
 8540SOL     OW26518   5.853   0.423   6.705
 8540SOL    HW126519   5.935   0.458   6.660
 8540SOL    HW226520   5.783   0.494   6.707
 8541SOL     OW26521   3.261   1.934   3.358
 8541SOL    HW126522   3.272   1.871   3.280
 8541SOL    HW226523   3.204   1.890   3.427
 8542SOL     OW26524   3.398   4.280   6.357
 8542SOL    HW126525   3.486   4.325   6.365
 8542SOL    HW226526   3.368   4.280   6.261
 8543SOL     OW26527   1.536   1.468   1.305
 8543SOL    HW126528   1.529   1.544   1.369
 8543SOL    HW226529   1.473   1.482   1.229
 8544SOL     OW26530   5.900   3.090   4.150
 8544SOL    HW126531   5.828   3.023   4.133
 8544SOL    HW226532   5.864   3.182   4.138
 8545SOL     OW26533   4.664   6.873   6.005
 8545SOL    HW126534   4.623   6.952   6.051
 8545SOL    HW226535   4.740   6.838   6.059
 8546SOL     OW26536   6.121   2.421   3.908
 8546SOL    HW126537   6.090   2.490   3.843
 8546SOL    HW226538   6.099   2.451   4.001
 8547SOL     OW26539   1.198   6.146   6.452
 8547SOL    HW126540   1.140   6.146   6.533
 8547SOL    HW226541   1.144   6.174   6.372
 8548SOL     OW26542   6.015   2.429   4.671
 8548SOL    HW126543   6.064   2.457   4.753
 8548SOL    HW226544   6.002   2.330   4.671
 8549SOL     OW26545   0.348   3.640   4.562
 8549SOL    HW126546   0.420   3.572   4.578
 8549SOL    HW226547   0.374   3.698   4.486
 8550SOL     OW26548   1.741   4.857   0.167
 8550SOL    HW126549   1.835   4.845   0.135
 8550SOL    HW226550   1.685   4.890   0.091
 8551SOL     OW26551   3.673   4.358   6.354
 8551SOL    HW126552   3.720   4.346   6.266
 8551SOL    HW226553   3.726   4.315   6.427
 8552SOL     OW26554   3.142   6.093   3.812
 8552SOL    HW126555   3.076   6.161   3.844
 8552SOL    HW226556   3.093   6.013   3.778
 8553SOL     OW26557   5.174   5.827   6.896
 8553SOL    HW126558   5.082   5.836   6.856
 8553SOL    HW226559   5.189   5.902   6.961
 8554SOL     OW26560   0.286   5.055   0.360
 8554SOL    HW126561   0.369   5.077   0.412
 8554SOL    HW226562   0.263   5.132   0.300
 8555SOL     OW26563   1.143   0.834   3.260
 8555SOL    HW126564   1.111   0.740   3.252
 8555SOL    HW226565   1.184   0.847   3.351
 8556SOL     OW26566   0.821   0.390   2.864
 8556SOL    HW126567   0.857   0.443   2.941
 8556SOL    HW226568   0.721   0.389   2.868
 8557SOL     OW26569   6.552   0.729   1.767
 8557SOL    HW126570   6.562   0.713   1.668
 8557SOL    HW226571   6.596   0.654   1.817
 8558SOL     OW26572   2.494   5.357   3.165
 8558SOL    HW126573   2.506   5.259   3.178
 8558SOL    HW226574   2.577   5.405   3.194
 8559SOL     OW26575   0.198   0.472   2.528
 8559SOL    HW126576   0.107   0.473   2.570
 8559SOL    HW226577   0.220   0.563   2.494
 8560SOL     OW26578   6.961   0.278   0.968
 8560SOL    HW126579   6.915   0.239   0.889
 8560SOL    HW226580   6.902   0.271   1.048
 8561SOL     OW26581   4.054   5.868   2.260
 8561SOL    HW126582   4.117   5.798   2.292
 8561SOL    HW226583   4.061   5.949   2.318
 8562SOL     OW26584   5.219   6.664   4.605
 8562SOL    HW126585   5.270   6.723   4.543
 8562SOL    HW226586   5.277   6.636   4.681
 8563SOL     OW26587   2.866   3.181   6.662
 8563SOL    HW126588   2.812   3.204   6.744
 8563SOL    HW226589   2.851   3.251   6.592
 8564SOL     OW26590   1.832   0.266   3.227
 8564SOL    HW126591   1.816   0.289   3.323
 8564SOL    HW226592   1.816   0.346   3.170
 8565SOL     OW26593   4.118   6.934   1.657
 8565SOL    HW126594   4.042   6.920   1.720
 8565SOL    HW226595   4.185   6.996   1.699
 8566SOL     OW26596   1.172   1.205   2.674
 8566SOL    HW126597   1.217   1.267   2.610
 8566SOL    HW226598   1.082   1.241   2.698
 8567SOL     OW26599   6.725   1.428   1.267
 8567SOL    HW126600   6.768   1.403   1.353
 8567SOL    HW226601   6.746   1.524   1.246
 8568SOL     OW26602   4.912   1.709   7.013
 8568SOL    HW126603   4.843   1.779   6.998
 8568SOL    HW226604   4.935   1.666   6.925
 8569SOL     OW26605   4.547   1.624   5.686
 8569SOL    HW126606   4.624   1.675   5.723
 8569SOL    HW226607   4.509   1.673   5.608
 8570SOL     OW26608   1.144   3.714   5.945
 8570SOL    HW126609   1.163   3.623   5.908
 8570SOL    HW226610   1.230   3.759   5.969
 8571SOL     OW26611   0.350   5.220   5.506
 8571SOL    HW126612   0.325   5.130   5.542
 8571SOL    HW226613   0.355   5.216   5.407
 8572SOL     OW26614   2.266   5.419   5.946
 8572SOL    HW126615   2.261   5.429   5.847
 8572SOL    HW226616   2.269   5.322   5.970
 8573SOL     OW26617   3.923   6.221   6.620
 8573SOL    HW126618   3.846   6.158   6.612
 8573SOL    HW226619   4.003   6.172   6.654
 8574SOL     OW26620   0.824   4.749   5.674
 8574SOL    HW126621   0.823   4.821   5.744
 8574SOL    HW226622   0.894   4.682   5.697
 8575SOL     OW26623   2.604   2.328   6.811
 8575SOL    HW126624   2.589   2.230   6.827
 8575SOL    HW226625   2.520   2.369   6.775
 8576SOL     OW26626   0.559   6.839   1.045
 8576SOL    HW126627   0.646   6.818   0.999
 8576SOL    HW226628   0.538   6.766   1.110
 8577SOL     OW26629   6.192   5.183   4.345
 8577SOL    HW126630   6.127   5.260   4.347
 8577SOL    HW226631   6.227   5.172   4.252
 8578SOL     OW26632   4.485   0.340   4.393
 8578SOL    HW126633   4.396   0.303   4.369
 8578SOL    HW226634   4.479   0.440   4.400
 8579SOL     OW26635   1.047   5.597   3.421
 8579SOL    HW126636   1.046   5.499   3.399
 8579SOL    HW226637   1.136   5.636   3.397
 8580SOL     OW26638   2.751   6.996   2.086
 8580SOL    HW126639   2.653   6.977   2.090
 8580SOL    HW226640   2.765   0.066   2.052
 8581SOL     OW26641   3.503   2.534   1.422
 8581SOL    HW126642   3.404   2.520   1.420
 8581SOL    HW226643   3.550   2.447   1.405
 8582SOL     OW26644   4.635   4.387   2.508
 8582SOL    HW126645   4.634   4.447   2.588
 8582SOL    HW226646   4.656   4.293   2.537
 8583SOL     OW26647   5.790   0.922   6.214
 8583SOL    HW126648   5.704   0.900   6.168
 8583SOL    HW226649   5.799   1.021   6.221
 8584SOL     OW26650   0.041   4.468   0.543
 8584SOL    HW126651   0.076   4.397   0.483
 8584SOL    HW226652   6.978   4.438   0.583
 8585SOL     OW26653   0.271   0.275   0.583
 8585SOL    HW126654   0.173   0.288   0.569
 8585SOL    HW226655   0.295   0.301   0.677
 8586SOL     OW26656   2.898   6.256   2.984
 8586SOL    HW126657   2.976   6.307   3.022
 8586SOL    HW226658   2.884   6.173   3.038
 8587SOL     OW26659   0.512   0.815   2.787
 8587SOL    HW126660   0.543   0.908   2.803
 8587SOL    HW226661   0.573   0.751   2.835
 8588SOL     OW26662   3.252   1.693   0.621
 8588SOL    HW126663   3.305   1.608   0.626
 8588SOL    HW226664   3.176   1.681   0.557
 8589SOL     OW26665   3.836   1.126   4.223
 8589SOL    HW126666   3.808   1.191   4.293
 8589SOL    HW226667   3.908   1.067   4.259
 8590SOL     OW26668   6.758   5.776   4.260
 8590SOL    HW126669   6.676   5.750   4.209
 8590SOL    HW226670   6.731   5.813   4.349
 8591SOL     OW26671   0.711   4.433   6.706
 8591SOL    HW126672   0.739   4.361   6.643
 8591SOL    HW226673   0.786   4.450   6.771
 8592SOL     OW26674   6.953   4.463   0.216
 8592SOL    HW126675   6.867   4.495   0.177
 8592SOL    HW226676   7.003   4.540   0.256
 8593SOL     OW26677   1.009   6.705   1.786
 8593SOL    HW126678   1.055   6.713   1.697
 8593SOL    HW226679   0.990   6.608   1.804
 8594SOL     OW26680   3.255   4.133   4.357
 8594SOL    HW126681   3.224   4.118   4.263
 8594SOL    HW226682   3.355   4.127   4.361
 8595SOL     OW26683   1.948   1.970   2.737
 8595SOL    HW126684   1.975   2.059   2.699
 8595SOL    HW226685   1.853   1.950   2.713
 8596SOL     OW26686   5.660   5.627   2.384
 8596SOL    HW126687   5.695   5.561   2.451
 8596SOL    HW226688   5.720   5.707   2.381
 8597SOL     OW26689   4.077   2.114   1.232
 8597SOL    HW126690   4.085   2.134   1.329
 8597SOL    HW226691   3.985   2.137   1.201
 8598SOL     OW26692   0.296   5.071   1.245
 8598SOL    HW126693   0.220   5.015   1.279
 8598SOL    HW226694   0.350   5.103   1.322
 8599SOL     OW26695   0.774   3.074   3.761
 8599SOL    HW126696   0.715   2.997   3.734
 8599SOL    HW226697   0.844   3.041   3.825
 8600SOL     OW26698   5.990   4.350   6.954
 8600SOL    HW126699   6.018   4.265   6.909
 8600SOL    HW226700   6.071   4.402   6.979
 8601SOL     OW26701   0.340   1.121   4.844
 8601SOL    HW126702   0.405   1.127   4.920
 8601SOL    HW226703   0.248   1.102   4.880
 8602SOL     OW26704   2.865   6.831   2.825
 8602SOL    HW126705   2.866   6.888   2.742
 8602SOL    HW226706   2.821   6.882   2.899
 8603SOL     OW26707   3.814   4.006   6.664
 8603SOL    HW126708   3.721   3.991   6.631
 8603SOL    HW226709   3.862   3.918   6.666
 8604SOL     OW26710   6.034   2.620   3.728
 8604SOL    HW126711   5.958   2.618   3.663
 8604SOL    HW226712   6.119   2.602   3.680
 8605SOL     OW26713   3.498   5.263   4.590
 8605SOL    HW126714   3.519   5.170   4.621
 8605SOL    HW226715   3.492   5.265   4.491
 8606SOL     OW26716   2.373   4.126   6.102
 8606SOL    HW126717   2.294   4.184   6.082
 8606SOL    HW226718   2.379   4.053   6.034
 8607SOL     OW26719   3.496   5.514   1.157
 8607SOL    HW126720   3.536   5.425   1.134
 8607SOL    HW226721   3.397   5.506   1.163
 8608SOL     OW26722   4.526   5.012   2.965
 8608SOL    HW126723   4.475   4.988   2.883
 8608SOL    HW226724   4.623   5.017   2.944
 8609SOL     OW26725   3.500   0.747   4.212
 8609SOL    HW126726   3.568   0.720   4.281
 8609SOL    HW226727   3.535   0.824   4.158
 8610SOL     OW26728   0.947   0.024   2.929
 8610SOL    HW126729   1.022   0.078   2.968
 8610SOL    HW226730   0.912   0.069   2.847
 8611SOL     OW26731   1.393   2.506   4.688
 8611SOL    HW126732   1.366   2.575   4.620
 8611SOL    HW226733   1.430   2.426   4.641
 8612SOL     OW26734   3.216   3.267   6.265
 8612SOL    HW126735   3.232   3.308   6.355
 8612SOL    HW226736   3.303   3.232   6.229
 8613SOL     OW26737   2.369   1.353   1.484
 8613SOL    HW126738   2.319   1.436   1.508
 8613SOL    HW226739   2.335   1.319   1.396
 8614SOL     OW26740   0.936   4.083   2.915
 8614SOL    HW126741   0.945   4.006   2.977
 8614SOL    HW226742   0.859   4.140   2.943
 8615SOL     OW26743   4.439   1.799   5.120
 8615SOL    HW126744   4.376   1.872   5.146
 8615SOL    HW226745   4.427   1.721   5.181
 8616SOL     OW26746   0.312   4.575   0.436
 8616SOL    HW126747   0.323   4.670   0.465
 8616SOL    HW226748   0.224   4.541   0.468
 8617SOL     OW26749   6.537   1.684   0.290
 8617SOL    HW126750   6.574   1.643   0.373
 8617SOL    HW226751   6.612   1.712   0.230
 8618SOL     OW26752   4.329   6.924   2.016
 8618SOL    HW126753   4.294   6.877   1.935
 8618SOL    HW226754   4.253   6.965   2.067
 8619SOL     OW26755   4.005   5.091   0.685
 8619SOL    HW126756   3.919   5.083   0.735
 8619SOL    HW226757   4.030   5.187   0.677
 8620SOL     OW26758   6.081   6.621   2.467
 8620SOL    HW126759   6.173   6.654   2.447
 8620SOL    HW226760   6.014   6.692   2.443
 8621SOL     OW26761   6.208   1.162   3.837
 8621SOL    HW126762   6.112   1.190   3.843
 8621SOL    HW226763   6.266   1.241   3.856
 8622SOL     OW26764   4.696   4.207   0.383
 8622SOL    HW126765   4.724   4.287   0.436
 8622SOL    HW226766   4.773   4.143   0.378
 8623SOL     OW26767   0.568   4.417   2.952
 8623SOL    HW126768   0.529   4.421   3.044
 8623SOL    HW226769   0.603   4.507   2.927
 8624SOL     OW26770   1.195   5.022   3.332
 8624SOL    HW126771   1.232   5.031   3.425
 8624SOL    HW226772   1.119   4.957   3.332
 8625SOL     OW26773   4.412   0.536   4.172
 8625SOL    HW126774   4.500   0.571   4.204
 8625SOL    HW226775   4.340   0.568   4.233
 8626SOL     OW26776   3.770   3.380   4.150
 8626SOL    HW126777   3.757   3.295   4.201
 8626SOL    HW226778   3.809   3.450   4.211
 8627SOL     OW26779   0.958   0.390   2.078
 8627SOL    HW126780   0.985   0.359   1.987
 8627SOL    HW226781   0.866   0.357   2.098
 8628SOL     OW26782   6.229   6.556   0.605
 8628SOL    HW126783   6.196   6.483   0.665
 8628SOL    HW226784   6.204   6.535   0.510
 8629SOL     OW26785   1.893   4.752   4.401
 8629SOL    HW126786   1.940   4.835   4.430
 8629SOL    HW226787   1.960   4.679   4.389
 8630SOL     OW26788   6.094   4.253   4.933
 8630SOL    HW126789   6.052   4.227   4.846
 8630SOL    HW226790   6.148   4.336   4.922
 8631SOL     OW26791   3.773   6.300   6.106
 8631SOL    HW126792   3.776   6.228   6.175
 8631SOL    HW226793   3.851   6.362   6.119
 8632SOL     OW26794   3.310   6.731   3.962
 8632SOL    HW126795   3.405   6.709   3.985
 8632SOL    HW226796   3.254   6.648   3.970
 8633SOL     OW26797   5.174   1.209   4.280
 8633SOL    HW126798   5.195   1.209   4.378
 8633SOL    HW226799   5.243   1.155   4.232
 8634SOL     OW26800   6.261   3.699   1.306
 8634SOL    HW126801   6.331   3.770   1.290
 8634SOL    HW226802   6.181   3.740   1.348
 8635SOL     OW26803   5.792   4.040   5.880
 8635SOL    HW126804   5.832   4.054   5.971
 8635SOL    HW226805   5.725   4.111   5.862
 8636SOL     OW26806   6.418   4.959   6.567
 8636SOL    HW126807   6.506   4.932   6.527
 8636SOL    HW226808   6.373   5.025   6.507
 8637SOL     OW26809   1.435   1.011   0.482
 8637SOL    HW126810   1.450   1.105   0.515
 8637SOL    HW226811   1.340   1.001   0.453
 8638SOL     OW26812   2.064   3.286   0.275
 8638SOL    HW126813   2.084   3.208   0.333
 8638SOL    HW226814   2.008   3.352   0.325
 8639SOL     OW26815   5.689   2.402   1.875
 8639SOL    HW126816   5.590   2.405   1.891
 8639SOL    HW226817   5.716   2.479   1.817
 8640SOL     OW26818   5.161   3.733   0.490
 8640SOL    HW126819   5.117   3.683   0.414
 8640SOL    HW226820   5.184   3.825   0.460
 8641SOL     OW26821   6.856   3.734   4.064
 8641SOL    HW126822   6.843   3.758   3.968
 8641SOL    HW226823   6.849   3.635   4.075
 8642SOL     OW26824   4.686   0.615   2.354
 8642SOL    HW126825   4.713   0.551   2.426
 8642SOL    HW226826   4.746   0.603   2.275
 8643SOL     OW26827   4.590   6.801   6.950
 8643SOL    HW126828   4.610   6.713   6.994
 8643SOL    HW226829   4.516   6.788   6.884
 8644SOL     OW26830   5.573   2.776   5.475
 8644SOL    HW126831   5.525   2.805   5.558
 8644SOL    HW226832   5.592   2.678   5.480
 8645SOL     OW26833   6.078   4.804   1.659
 8645SOL    HW126834   6.112   4.874   1.596
 8645SOL    HW226835   6.118   4.818   1.749
 8646SOL     OW26836   5.872   0.635   0.824
 8646SOL    HW126837   5.881   0.647   0.923
 8646SOL    HW226838   5.841   0.721   0.784
 8647SOL     OW26839   3.885   4.729   6.893
 8647SOL    HW126840   3.793   4.768   6.898
 8647SOL    HW226841   3.889   4.646   6.949
 8648SOL     OW26842   5.584   1.153   4.723
 8648SOL    HW126843   5.624   1.070   4.683
 8648SOL    HW226844   5.552   1.133   4.816
 8649SOL     OW26845   5.688   5.077   5.455
 8649SOL    HW126846   5.650   5.133   5.529
 8649SOL    HW226847   5.786   5.067   5.469
 8650SOL     OW26848   1.776   5.067   4.415
 8650SOL    HW126849   1.748   4.997   4.349
 8650SOL    HW226850   1.755   5.158   4.379
 8651SOL     OW26851   4.292   0.825   0.419
 8651SOL    HW126852   4.226   0.806   0.491
 8651SOL    HW226853   4.255   0.796   0.331
 8652SOL     OW26854   1.780   4.564   2.921
 8652SOL    HW126855   1.730   4.646   2.891
 8652SOL    HW226856   1.738   4.529   3.005
 8653SOL     OW26857   6.639   2.842   6.714
 8653SOL    HW126858   6.571   2.857   6.643
 8653SOL    HW226859   6.622   2.754   6.758
 8654SOL     OW26860   0.955   6.262   2.242
 8654SOL    HW126861   0.867   6.216   2.255
 8654SOL    HW226862   0.941   6.361   2.243
 8655SOL     OW26863   5.787   0.056   3.788
 8655SOL    HW126864   5.736   0.141   3.801
 8655SOL    HW226865   5.792   0.034   3.691
 8656SOL     OW26866   5.801   1.096   1.180
 8656SOL    HW126867   5.860   1.064   1.254
 8656SOL    HW226868   5.857   1.140   1.110
 8657SOL     OW26869   4.324   5.350   6.452
 8657SOL    HW126870   4.420   5.326   6.468
 8657SOL    HW226871   4.268   5.268   6.458
 8658SOL     OW26872   4.755   5.155   0.131
 8658SOL    HW126873   4.744   5.076   0.071
 8658SOL    HW226874   4.729   5.129   0.225
 8659SOL     OW26875   4.584   0.949   3.029
 8659SOL    HW126876   4.488   0.947   3.057
 8659SOL    HW226877   4.617   0.855   3.020
 8660SOL     OW26878   5.630   3.842   0.476
 8660SOL    HW126879   5.584   3.852   0.565
 8660SOL    HW226880   5.643   3.745   0.456
 8661SOL     OW26881   5.823   4.143   1.796
 8661SOL    HW126882   5.790   4.205   1.725
 8661SOL    HW226883   5.856   4.195   1.875
 8662SOL     OW26884   5.485   6.549   2.021
 8662SOL    HW126885   5.400   6.573   2.069
 8662SOL    HW226886   5.467   6.545   1.922
 8663SOL     OW26887   2.472   5.716   0.349
 8663SOL    HW126888   2.472   5.801   0.402
 8663SOL    HW226889   2.481   5.737   0.252
 8664SOL     OW26890   4.310   5.266   0.504
 8664SOL    HW126891   4.339   5.361   0.491
 8664SOL    HW226892   4.229   5.248   0.448
 8665SOL     OW26893   4.916   5.933   5.765
 8665SOL    HW126894   4.985   5.868   5.735
 8665SOL    HW226895   4.885   5.988   5.688
 8666SOL     OW26896   5.310   2.608   5.334
 8666SOL    HW126897   5.244   2.601   5.409
 8666SOL    HW226898   5.399   2.576   5.365
 8667SOL     OW26899   5.207   2.102   3.204
 8667SOL    HW126900   5.174   2.086   3.111
 8667SOL    HW226901   5.129   2.122   3.264
 8668SOL     OW26902   5.112   2.534   3.796
 8668SOL    HW126903   5.211   2.540   3.777
 8668SOL    HW226904   5.078   2.624   3.821
 8669SOL     OW26905   3.664   0.233   6.564
 8669SOL    HW126906   3.693   0.329   6.559
 8669SOL    HW226907   3.712   0.181   6.493
 8670SOL     OW26908   3.590   5.065   5.309
 8670SOL    HW126909   3.518   5.008   5.269
 8670SOL    HW226910   3.671   5.062   5.251
 8671SOL     OW26911   5.198   0.691   3.987
 8671SOL    HW126912   5.279   0.726   4.034
 8671SOL    HW226913   5.205   0.713   3.889
 8672SOL     OW26914   2.717   5.975   4.447
 8672SOL    HW126915   2.667   6.052   4.407
 8672SOL    HW226916   2.662   5.933   4.519
 8673SOL     OW26917   0.211   0.702   6.810
 8673SOL    HW126918   0.231   0.664   6.900
 8673SOL    HW226919   0.144   0.645   6.763
 8674SOL     OW26920   6.708   6.156   1.989
 8674SOL    HW126921   6.726   6.194   2.079
 8674SOL    HW226922   6.614   6.178   1.962
 8675SOL     OW26923   3.117   2.149   4.426
 8675SOL    HW126924   3.134   2.245   4.402
 8675SOL    HW226925   3.151   2.090   4.353
 8676SOL     OW26926   3.260   0.040   3.342
 8676SOL    HW126927   3.256   6.976   3.391
 8676SOL    HW226928   3.202   0.034   3.260
 8677SOL     OW26929   1.874   5.500   6.576
 8677SOL    HW126930   1.913   5.552   6.500
 8677SOL    HW226931   1.915   5.530   6.662
 8678SOL     OW26932   0.385   0.087   0.003
 8678SOL    HW126933   0.359   0.013   0.065
 8678SOL    HW226934   0.459   0.141   0.044
 8679SOL     OW26935   5.905   2.486   4.442
 8679SOL    HW126936   5.925   2.461   4.536
 8679SOL    HW226937   5.868   2.407   4.393
 8680SOL     OW26938   0.708   3.483   0.833
 8680SOL    HW126939   0.797   3.502   0.794
 8680SOL    HW226940   0.673   3.396   0.797
 8681SOL     OW26941   4.680   4.378   0.117
 8681SOL    HW126942   4.735   4.461   0.121
 8681SOL    HW226943   4.669   4.341   0.209
 8682SOL     OW26944   3.539   6.474   3.049
 8682SOL    HW126945   3.577   6.484   2.957
 8682SOL    HW226946   3.554   6.559   3.100
 8683SOL     OW26947   1.548   2.316   2.273
 8683SOL    HW126948   1.526   2.291   2.179
 8683SOL    HW226949   1.506   2.251   2.336
 8684SOL     OW26950   0.612   3.368   4.785
 8684SOL    HW126951   0.665   3.397   4.865
 8684SOL    HW226952   0.515   3.363   4.810
 8685SOL     OW26953   1.397   2.007   6.023
 8685SOL    HW126954   1.315   2.034   6.072
 8685SOL    HW226955   1.471   1.988   6.088
 8686SOL     OW26956   6.328   1.877   1.747
 8686SOL    HW126957   6.404   1.812   1.741
 8686SOL    HW226958   6.290   1.892   1.656
 8687SOL     OW26959   3.578   6.164   2.544
 8687SOL    HW126960   3.553   6.258   2.569
 8687SOL    HW226961   3.504   6.102   2.569
 8688SOL     OW26962   3.015   6.225   6.779
 8688SOL    HW126963   3.024   6.318   6.812
 8688SOL    HW226964   3.076   6.211   6.701
 8689SOL     OW26965   3.342   6.001   0.243
 8689SOL    HW126966   3.285   6.007   0.160
 8689SOL    HW226967   3.293   5.948   0.312
 8690SOL     OW26968   1.457   2.571   3.642
 8690SOL    HW126969   1.519   2.595   3.567
 8690SOL    HW226970   1.465   2.474   3.662
 8691SOL     OW26971   4.205   2.982   6.138
 8691SOL    HW126972   4.190   2.886   6.164
 8691SOL    HW226973   4.300   2.994   6.110
 8692SOL     OW26974   3.286   2.097   2.550
 8692SOL    HW126975   3.304   2.122   2.645
 8692SOL    HW226976   3.188   2.102   2.532
 8693SOL     OW26977   5.850   1.690   0.968
 8693SOL    HW126978   5.789   1.685   1.047
 8693SOL    HW226979   5.802   1.659   0.887
 8694SOL     OW26980   4.433   0.684   6.554
 8694SOL    HW126981   4.417   0.604   6.612
 8694SOL    HW226982   4.376   0.759   6.586
 8695SOL     OW26983   4.488   2.693   5.944
 8695SOL    HW126984   4.506   2.619   5.879
 8695SOL    HW226985   4.411   2.748   5.912
 8696SOL     OW26986   3.603   6.015   0.817
 8696SOL    HW126987   3.649   6.084   0.760
 8696SOL    HW226988   3.582   5.935   0.761
 8697SOL     OW26989   6.431   3.722   0.673
 8697SOL    HW126990   6.516   3.774   0.679
 8697SOL    HW226991   6.426   3.658   0.749
 8698SOL     OW26992   5.770   6.101   3.788
 8698SOL    HW126993   5.717   6.083   3.705
 8698SOL    HW226994   5.713   6.080   3.868
 8699SOL     OW26995   0.991   2.006   5.663
 8699SOL    HW126996   0.959   1.982   5.755
 8699SOL    HW226997   1.000   2.105   5.655
 8700SOL     OW26998   2.468   1.035   4.949
 8700SOL    HW126999   2.371   1.014   4.946
 8700SOL    HW227000   2.508   0.995   5.031
 8701SOL     OW27001   1.321   0.960   6.945
 8701SOL    HW127002   1.368   0.872   6.949
 8701SOL    HW227003   1.335   1.001   6.855
 8702SOL     OW27004   5.516   4.963   0.096
 8702SOL    HW127005   5.533   4.870   0.063
 8702SOL    HW227006   5.588   4.990   0.159
 8703SOL     OW27007   3.086   5.674   1.312
 8703SOL    HW127008   3.032   5.591   1.326
 8703SOL    HW227009   3.072   5.707   1.218
 8704SOL     OW27010   6.394   3.651   2.919
 8704SOL    HW127011   6.338   3.602   2.852
 8704SOL    HW227012   6.338   3.676   2.998
 8705SOL     OW27013   5.204   1.278   6.807
 8705SOL    HW127014   5.158   1.205   6.856
 8705SOL    HW227015   5.254   1.336   6.871
 8706SOL     OW27016   4.737   2.717   6.003
 8706SOL    HW127017   4.758   2.620   6.015
 8706SOL    HW227018   4.639   2.728   5.987
 8707SOL     OW27019   4.822   2.264   0.169
 8707SOL    HW127020   4.860   2.220   0.251
 8707SOL    HW227021   4.775   2.196   0.114
 8708SOL     OW27022   4.419   2.133   2.180
 8708SOL    HW127023   4.435   2.044   2.138
 8708SOL    HW227024   4.500   2.160   2.233
 8709SOL     OW27025   6.416   5.371   6.652
 8709SOL    HW127026   6.321   5.361   6.682
 8709SOL    HW227027   6.468   5.290   6.677
 8710SOL     OW27028   2.237   3.072   2.882
 8710SOL    HW127029   2.271   2.985   2.846
 8710SOL    HW227030   2.215   3.062   2.979
 8711SOL     OW27031   6.898   6.133   2.252
 8711SOL    HW127032   6.835   6.128   2.330
 8711SOL    HW227033   6.989   6.102   2.281
 8712SOL     OW27034   3.891   2.154   4.351
 8712SOL    HW127035   3.869   2.161   4.449
 8712SOL    HW227036   3.932   2.065   4.333
 8713SOL     OW27037   0.166   4.429   3.448
 8713SOL    HW127038   0.236   4.366   3.414
 8713SOL    HW227039   0.110   4.382   3.517
 8714SOL     OW27040   0.576   1.051   6.006
 8714SOL    HW127041   0.638   0.987   6.053
 8714SOL    HW227042   0.621   1.139   5.995
 8715SOL     OW27043   5.089   0.546   1.612
 8715SOL    HW127044   5.009   0.537   1.670
 8715SOL    HW227045   5.079   0.627   1.554
 8716SOL     OW27046   1.055   1.327   1.030
 8716SOL    HW127047   1.090   1.352   1.119
 8716SOL    HW227048   1.124   1.273   0.981
 8717SOL     OW27049   4.048   3.651   2.458
 8717SOL    HW127050   4.096   3.728   2.499
 8717SOL    HW227051   3.952   3.651   2.486
 8718SOL     OW27052   1.440   2.756   5.551
 8718SOL    HW127053   1.469   2.683   5.489
 8718SOL    HW227054   1.358   2.801   5.513
 8719SOL     OW27055   1.839   0.526   6.020
 8719SOL    HW127056   1.809   0.435   5.992
 8719SOL    HW227057   1.759   0.579   6.050
 8720SOL     OW27058   6.632   5.155   5.188
 8720SOL    HW127059   6.552   5.192   5.236
 8720SOL    HW227060   6.655   5.216   5.112
 8721SOL     OW27061   5.863   2.202   3.870
 8721SOL    HW127062   5.910   2.269   3.928
 8721SOL    HW227063   5.928   2.165   3.804
 8722SOL     OW27064   4.282   0.553   0.904
 8722SOL    HW127065   4.351   0.503   0.957
 8722SOL    HW227066   4.257   0.499   0.824
 8723SOL     OW27067   5.538   5.978   1.534
 8723SOL    HW127068   5.481   5.910   1.487
 8723SOL    HW227069   5.483   6.058   1.557
 8724SOL     OW27070   6.143   6.735   4.865
 8724SOL    HW127071   6.065   6.797   4.872
 8724SOL    HW227072   6.187   6.727   4.954
 8725SOL     OW27073   2.420   6.961   0.179
 8725SOL    HW127074   2.517   6.938   0.170
 8725SOL    HW227075   2.392   7.019   0.102
 8726SOL     OW27076   6.172   0.595   1.235
 8726SOL    HW127077   6.216   0.505   1.226
 8726SOL    HW227078   6.191   0.650   1.154
 8727SOL     OW27079   6.469   6.367   1.633
 8727SOL    HW127080   6.538   6.393   1.701
 8727SOL    HW227081   6.421   6.285   1.664
 8728SOL     OW27082   4.067   0.190   4.768
 8728SOL    HW127083   4.069   0.256   4.693
 8728SOL    HW227084   4.135   0.118   4.751
 8729SOL     OW27085   4.819   5.948   3.337
 8729SOL    HW127086   4.828   5.864   3.391
 8729SOL    HW227087   4.907   5.969   3.295
 8730SOL     OW27088   0.080   5.304   2.747
 8730SOL    HW127089   7.013   5.286   2.783
 8730SOL    HW227090   0.096   5.246   2.667
 8731SOL     OW27091   2.060   1.912   2.974
 8731SOL    HW127092   2.027   1.906   2.880
 8731SOL    HW227093   2.158   1.932   2.974
 8732SOL     OW27094   4.969   4.438   1.864
 8732SOL    HW127095   4.895   4.419   1.929
 8732SOL    HW227096   4.976   4.363   1.799
 8733SOL     OW27097   1.599   5.793   3.423
 8733SOL    HW127098   1.698   5.799   3.440
 8733SOL    HW227099   1.583   5.737   3.342
 8734SOL     OW27100   1.116   4.644   1.803
 8734SOL    HW127101   1.128   4.657   1.902
 8734SOL    HW227102   1.205   4.649   1.757
 8735SOL     OW27103   0.651   1.796   6.715
 8735SOL    HW127104   0.557   1.802   6.748
 8735SOL    HW227105   0.665   1.707   6.671
 8736SOL     OW27106   0.598   6.612   0.035
 8736SOL    HW127107   0.604   6.575   6.966
 8736SOL    HW227108   0.504   6.639   0.055
 8737SOL     OW27109   3.363   6.954   6.401
 8737SOL    HW127110   3.421   6.978   6.479
 8737SOL    HW227111   3.270   6.939   6.432
 8738SOL     OW27112   1.865   4.116   4.303
 8738SOL    HW127113   1.909   4.172   4.374
 8738SOL    HW227114   1.894   4.021   4.313
 8739SOL     OW27115   6.650   5.433   6.303
 8739SOL    HW127116   6.654   5.492   6.384
 8739SOL    HW227117   6.571   5.459   6.247
 8740SOL     OW27118   4.237   1.142   5.725
 8740SOL    HW127119   4.139   1.159   5.740
 8740SOL    HW227120   4.263   1.174   5.635
 8741SOL     OW27121   1.953   1.518   2.020
 8741SOL    HW127122   1.929   1.567   1.936
 8741SOL    HW227123   2.001   1.434   1.996
 8742SOL     OW27124   4.955   6.105   1.792
 8742SOL    HW127125   4.860   6.098   1.762
 8742SOL    HW227126   4.976   6.201   1.812
 8743SOL     OW27127   2.192   6.849   2.718
 8743SOL    HW127128   2.130   6.927   2.711
 8743SOL    HW227129   2.287   6.882   2.713
 8744SOL     OW27130   3.604   2.633   6.190
 8744SOL    HW127131   3.544   2.619   6.112
 8744SOL    HW227132   3.553   2.619   6.275
 8745SOL     OW27133   6.372   2.654   5.658
 8745SOL    HW127134   6.428   2.580   5.619
 8745SOL    HW227135   6.276   2.635   5.642
 8746SOL     OW27136   4.273   4.256   5.267
 8746SOL    HW127137   4.307   4.235   5.359
 8746SOL    HW227138   4.296   4.351   5.244
 8747SOL     OW27139   0.826   2.676   3.595
 8747SOL    HW127140   0.839   2.577   3.602
 8747SOL    HW227141   0.904   2.722   3.637
 8748SOL     OW27142   0.630   0.970   6.747
 8748SOL    HW127143   0.611   0.947   6.651
 8748SOL    HW227144   0.566   0.922   6.807
 8749SOL     OW27145   2.588   0.405   4.875
 8749SOL    HW127146   2.541   0.358   4.950
 8749SOL    HW227147   2.684   0.375   4.874
 8750SOL     OW27148   2.298   3.038   5.391
 8750SOL    HW127149   2.348   3.041   5.478
 8750SOL    HW227150   2.362   3.056   5.316
 8751SOL     OW27151   6.615   6.907   1.973
 8751SOL    HW127152   6.712   6.885   1.978
 8751SOL    HW227153   6.593   6.939   1.881
 8752SOL     OW27154   2.911   4.078   0.284
 8752SOL    HW127155   2.861   4.148   0.233
 8752SOL    HW227156   2.936   4.003   0.223
 8753SOL     OW27157   4.951   1.527   4.674
 8753SOL    HW127158   5.034   1.562   4.631
 8753SOL    HW227159   4.976   1.472   4.755
 8754SOL     OW27160   0.952   1.985   5.943
 8754SOL    HW127161   1.012   2.007   6.020
 8754SOL    HW227162   0.887   2.060   5.928
 8755SOL     OW27163   2.985   1.511   6.789
 8755SOL    HW127164   3.036   1.487   6.872
 8755SOL    HW227165   2.929   1.433   6.761
 8756SOL     OW27166   2.182   3.314   3.629
 8756SOL    HW127167   2.265   3.335   3.680
 8756SOL    HW227168   2.157   3.218   3.645
 8757SOL     OW27169   5.741   6.362   6.266
 8757SOL    HW127170   5.772   6.345   6.173
 8757SOL    HW227171   5.672   6.434   6.266
 8758SOL     OW27172   5.157   5.904   2.328
 8758SOL    HW127173   5.123   5.998   2.337
 8758SOL    HW227174   5.240   5.894   2.383
 8759SOL     OW27175   4.204   1.623   6.258
 8759SOL    HW127176   4.124   1.628   6.318
 8759SOL    HW227177   4.225   1.527   6.239
 8760SOL     OW27178   1.953   1.620   4.792
 8760SOL    HW127179   1.909   1.605   4.880
 8760SOL    HW227180   1.972   1.532   4.748
 8761SOL     OW27181   4.706   0.372   0.900
 8761SOL    HW127182   4.725   0.295   0.838
 8761SOL    HW227183   4.790   0.399   0.947
 8762SOL     OW27184   1.352   3.256   2.757
 8762SOL    HW127185   1.378   3.198   2.680
 8762SOL    HW227186   1.430   3.267   2.819
 8763SOL     OW27187   6.106   6.098   4.907
 8763SOL    HW127188   6.029   6.061   4.854
 8763SOL    HW227189   6.080   6.103   5.004
 8764SOL     OW27190   4.929   1.310   3.876
 8764SOL    HW127191   4.899   1.403   3.900
 8764SOL    HW227192   4.942   1.257   3.960
 8765SOL     OW27193   6.100   6.377   4.874
 8765SOL    HW127194   6.189   6.407   4.839
 8765SOL    HW227195   6.084   6.282   4.848
 8766SOL     OW27196   3.895   4.853   3.645
 8766SOL    HW127197   3.853   4.885   3.730
 8766SOL    HW227198   3.968   4.788   3.667
 8767SOL     OW27199   4.401   0.577   3.144
 8767SOL    HW127200   4.327   0.519   3.109
 8767SOL    HW227201   4.380   0.673   3.122
 8768SOL     OW27202   2.072   2.861   0.096
 8768SOL    HW127203   2.129   2.840   0.176
 8768SOL    HW227204   2.111   2.818   0.015
 8769SOL     OW27205   0.943   0.215   5.441
 8769SOL    HW127206   0.867   0.228   5.377
 8769SOL    HW227207   1.027   0.249   5.401
 8770SOL     OW27208   4.959   3.790   2.307
 8770SOL    HW127209   4.938   3.693   2.297
 8770SOL    HW227210   5.043   3.811   2.258
 8771SOL     OW27211   2.065   0.675   5.856
 8771SOL    HW127212   2.022   0.601   5.909
 8771SOL    HW227213   2.122   0.731   5.917
 8772SOL     OW27214   5.914   6.857   7.015
 8772SOL    HW127215   5.949   6.888   0.080
 8772SOL    HW227216   5.938   6.761   7.002
 8773SOL     OW27217   4.029   2.082   3.515
 8773SOL    HW127218   3.973   2.010   3.474
 8773SOL    HW227219   4.081   2.129   3.443
 8774SOL     OW27220   1.593   1.227   0.746
 8774SOL    HW127221   1.611   1.318   0.784
 8774SOL    HW227222   1.523   1.234   0.675
 8775SOL     OW27223   5.516   7.017   4.047
 8775SOL    HW127224   5.442   0.039   4.097
 8775SOL    HW227225   5.501   0.005   3.949
 8776SOL     OW27226   3.136   3.048   4.820
 8776SOL    HW127227   3.072   3.080   4.750
 8776SOL    HW227228   3.085   3.022   4.902
 8777SOL     OW27229   6.975   4.631   1.635
 8777SOL    HW127230   0.040   4.666   1.605
 8777SOL    HW227231   6.932   4.697   1.696
 8778SOL     OW27232   0.373   2.207   4.258
 8778SOL    HW127233   0.464   2.175   4.286
 8778SOL    HW227234   0.304   2.166   4.317
 8779SOL     OW27235   1.896   5.345   2.424
 8779SOL    HW127236   1.869   5.403   2.347
 8779SOL    HW227237   1.843   5.371   2.505
 8780SOL     OW27238   1.485   5.711   3.669
 8780SOL    HW127239   1.492   5.755   3.580
 8780SOL    HW227240   1.564   5.651   3.684
 8781SOL     OW27241   6.616   1.439   3.494
 8781SOL    HW127242   6.529   1.395   3.518
 8781SOL    HW227243   6.597   1.525   3.447
 8782SOL     OW27244   6.070   1.097   1.529
 8782SOL    HW127245   5.982   1.110   1.574
 8782SOL    HW227246   6.141   1.082   1.598
 8783SOL     OW27247   6.168   4.015   3.818
 8783SOL    HW127248   6.170   4.084   3.891
 8783SOL    HW227249   6.087   3.958   3.829
 8784SOL     OW27250   5.079   4.674   5.146
 8784SOL    HW127251   5.126   4.679   5.058
 8784SOL    HW227252   4.996   4.618   5.137
 8785SOL     OW27253   5.686   3.377   6.988
 8785SOL    HW127254   5.779   3.402   7.013
 8785SOL    HW227255   5.623   3.447   7.021
 8786SOL     OW27256   2.418   6.876   6.702
 8786SOL    HW127257   2.472   6.936   6.760
 8786SOL    HW227258   2.417   6.784   6.741
 8787SOL     OW27259   1.517   3.032   2.322
 8787SOL    HW127260   1.591   2.993   2.376
 8787SOL    HW227261   1.495   2.972   2.245
 8788SOL     OW27262   6.398   2.318   5.124
 8788SOL    HW127263   6.326   2.267   5.170
 8788SOL    HW227264   6.388   2.416   5.142
 8789SOL     OW27265   5.912   0.272   5.970
 8789SOL    HW127266   5.957   0.240   5.887
 8789SOL    HW227267   5.971   0.256   6.048
 8790SOL     OW27268   6.509   1.059   6.982
 8790SOL    HW127269   6.606   1.070   7.002
 8790SOL    HW227270   6.462   1.146   6.996
 8791SOL     OW27271   5.204   0.123   5.567
 8791SOL    HW127272   5.180   0.193   5.499
 8791SOL    HW227273   5.123   0.102   5.622
 8792SOL     OW27274   3.809   0.026   2.989
 8792SOL    HW127275   3.760   0.032   3.076
 8792SOL    HW227276   3.895   0.076   2.995
 8793SOL     OW27277   1.882   5.676   4.039
 8793SOL    HW127278   1.917   5.672   4.132
 8793SOL    HW227279   1.789   5.714   4.040
 8794SOL     OW27280   3.129   6.435   2.599
 8794SOL    HW127281   3.227   6.447   2.618
 8794SOL    HW227282   3.076   6.495   2.659
 8795SOL     OW27283   1.806   6.615   5.168
 8795SOL    HW127284   1.797   6.523   5.206
 8795SOL    HW227285   1.757   6.620   5.080
 8796SOL     OW27286   3.727   1.471   5.164
 8796SOL    HW127287   3.776   1.455   5.249
 8796SOL    HW227288   3.629   1.463   5.179
 8797SOL     OW27289   1.633   6.169   6.480
 8797SOL    HW127290   1.593   6.087   6.439
 8797SOL    HW227291   1.694   6.213   6.415
 8798SOL     OW27292   5.648   4.249   5.461
 8798SOL    HW127293   5.594   4.272   5.380
 8798SOL    HW227294   5.610   4.166   5.503
 8799SOL     OW27295   2.266   4.391   3.620
 8799SOL    HW127296   2.302   4.403   3.528
 8799SOL    HW227297   2.166   4.396   3.618
 8800SOL     OW27298   5.189   3.627   5.322
 8800SOL    HW127299   5.236   3.704   5.366
 8800SOL    HW227300   5.100   3.658   5.287
 8801SOL     OW27301   2.104   1.073   3.888
 8801SOL    HW127302   2.149   1.067   3.977
 8801SOL    HW227303   2.097   1.169   3.859
 8802SOL     OW27304   1.106   0.287   1.343
 8802SOL    HW127305   1.088   0.382   1.369
 8802SOL    HW227306   1.024   0.232   1.360
 8803SOL     OW27307   1.523   4.748   6.375
 8803SOL    HW127308   1.523   4.648   6.371
 8803SOL    HW227309   1.434   4.781   6.343
 8804SOL     OW27310   4.247   0.947   1.780
 8804SOL    HW127311   4.263   1.046   1.775
 8804SOL    HW227312   4.298   0.901   1.708
 8805SOL     OW27313   1.811   6.985   4.008
 8805SOL    HW127314   1.874   6.973   3.932
 8805SOL    HW227315   1.738   0.025   3.981
 8806SOL     OW27316   2.066   5.210   1.767
 8806SOL    HW127317   2.125   5.155   1.826
 8806SOL    HW227318   2.015   5.276   1.824
 8807SOL     OW27319   6.774   5.671   5.853
 8807SOL    HW127320   6.709   5.595   5.852
 8807SOL    HW227321   6.749   5.736   5.926
 8808SOL     OW27322   5.457   1.909   0.464
 8808SOL    HW127323   5.442   1.853   0.382
 8808SOL    HW227324   5.553   1.900   0.492
 8809SOL     OW27325   5.538   3.598   2.100
 8809SOL    HW127326   5.577   3.513   2.064
 8809SOL    HW227327   5.466   3.577   2.167
 8810SOL     OW27328   5.926   1.907   5.090
 8810SOL    HW127329   6.017   1.922   5.052
 8810SOL    HW227330   5.858   1.950   5.032
 8811SOL     OW27331   2.226   1.765   4.052
 8811SOL    HW127332   2.224   1.681   3.998
 8811SOL    HW227333   2.140   1.815   4.040
 8812SOL     OW27334   0.766   0.619   0.715
 8812SOL    HW127335   0.785   0.628   0.618
 8812SOL    HW227336   0.828   0.677   0.768
 8813SOL     OW27337   1.320   5.100   1.593
 8813SOL    HW127338   1.333   5.054   1.505
 8813SOL    HW227339   1.401   5.086   1.650
 8814SOL     OW27340   6.871   0.819   6.909
 8814SOL    HW127341   6.957   0.870   6.909
 8814SOL    HW227342   6.863   0.767   6.994
 8815SOL     OW27343   6.616   5.744   0.773
 8815SOL    HW127344   6.619   5.832   0.726
 8815SOL    HW227345   6.671   5.749   0.857
 8816SOL     OW27346   1.122   6.834   0.787
 8816SOL    HW127347   1.184   6.857   0.711
 8816SOL    HW227348   1.095   6.919   0.833
 8817SOL     OW27349   0.498   5.596   5.490
 8817SOL    HW127350   0.589   5.564   5.514
 8817SOL    HW227351   0.492   5.695   5.503
 8818SOL     OW27352   0.107   3.758   3.308
 8818SOL    HW127353   0.074   3.684   3.250
 8818SOL    HW227354   0.206   3.762   3.305
 8819SOL     OW27355   4.523   6.547   3.958
 8819SOL    HW127356   4.429   6.513   3.952
 8819SOL    HW227357   4.586   6.473   3.934
 8820SOL     OW27358   2.177   2.435   4.229
 8820SOL    HW127359   2.254   2.417   4.168
 8820SOL    HW227360   2.192   2.520   4.279
 8821SOL     OW27361   1.792   6.862   6.457
 8821SOL    HW127362   1.747   6.775   6.480
 8821SOL    HW227363   1.867   6.844   6.393
 8822SOL     OW27364   0.678   0.675   2.945
 8822SOL    HW127365   0.639   0.588   2.975
 8822SOL    HW227366   0.770   0.686   2.982
 8823SOL     OW27367   2.265   0.512   1.038
 8823SOL    HW127368   2.257   0.486   1.134
 8823SOL    HW227369   2.176   0.505   0.994
 8824SOL     OW27370   2.600   3.379   0.510
 8824SOL    HW127371   2.615   3.395   0.607
 8824SOL    HW227372   2.516   3.327   0.497
 8825SOL     OW27373   1.504   0.723   3.314
 8825SOL    HW127374   1.514   0.813   3.271
 8825SOL    HW227375   1.542   0.653   3.255
 8826SOL     OW27376   6.215   2.202   0.214
 8826SOL    HW127377   6.279   2.275   0.239
 8826SOL    HW227378   6.209   2.136   0.288
 8827SOL     OW27379   3.075   0.854   3.340
 8827SOL    HW127380   3.031   0.902   3.264
 8827SOL    HW227381   3.011   0.849   3.417
 8828SOL     OW27382   4.082   5.494   3.798
 8828SOL    HW127383   4.089   5.432   3.876
 8828SOL    HW227384   3.986   5.504   3.773
 8829SOL     OW27385   6.836   3.213   0.298
 8829SOL    HW127386   6.933   3.223   0.275
 8829SOL    HW227387   6.782   3.280   0.246
 8830SOL     OW27388   0.019   1.601   6.703
 8830SOL    HW127389   6.971   1.591   6.772
 8830SOL    HW227390   0.060   1.512   6.683
 8831SOL     OW27391   5.561   1.095   3.562
 8831SOL    HW127392   5.606   1.016   3.519
 8831SOL    HW227393   5.516   1.150   3.491
 8832SOL     OW27394   0.102   6.532   2.166
 8832SOL    HW127395   0.133   6.529   2.261
 8832SOL    HW227396   0.056   6.447   2.143
 8833SOL     OW27397   1.896   6.046   5.260
 8833SOL    HW127398   1.970   5.993   5.219
 8833SOL    HW227399   1.930   6.137   5.284
 8834SOL     OW27400   5.404   3.335   4.364
 8834SOL    HW127401   5.441   3.426   4.347
 8834SOL    HW227402   5.308   3.343   4.391
 8835SOL     OW27403   6.273   0.442   5.416
 8835SOL    HW127404   6.283   0.537   5.445
 8835SOL    HW227405   6.187   0.432   5.365
 8836SOL     OW27406   4.507   0.918   1.068
 8836SOL    HW127407   4.605   0.940   1.074
 8836SOL    HW227408   4.469   0.963   0.987
 8837SOL     OW27409   1.232   0.151   2.757
 8837SOL    HW127410   1.177   0.235   2.752
 8837SOL    HW227411   1.188   0.079   2.703
 8838SOL     OW27412   3.184   5.239   3.415
 8838SOL    HW127413   3.226   5.330   3.411
 8838SOL    HW227414   3.175   5.211   3.510
 8839SOL     OW27415   5.624   5.946   3.013
 8839SOL    HW127416   5.628   6.022   2.948
 8839SOL    HW227417   5.638   5.980   3.105
 8840SOL     OW27418   6.499   2.309   2.314
 8840SOL    HW127419   6.561   2.231   2.308
 8840SOL    HW227420   6.444   2.315   2.231
 8841SOL     OW27421   1.222   0.862   4.980
 8841SOL    HW127422   1.250   0.946   4.932
 8841SOL    HW227423   1.247   0.869   5.076
 8842SOL     OW27424   3.716   2.663   0.752
 8842SOL    HW127425   3.780   2.687   0.680
 8842SOL    HW227426   3.764   2.611   0.823
 8843SOL     OW27427   1.699   2.557   5.815
 8843SOL    HW127428   1.669   2.652   5.829
 8843SOL    HW227429   1.740   2.547   5.725
 8844SOL     OW27430   5.695   1.357   6.176
 8844SOL    HW127431   5.612   1.304   6.192
 8844SOL    HW227432   5.691   1.399   6.085
 8845SOL     OW27433   4.184   3.577   0.188
 8845SOL    HW127434   4.087   3.552   0.194
 8845SOL    HW227435   4.220   3.591   0.280
 8846SOL     OW27436   2.076   5.662   3.819
 8846SOL    HW127437   2.169   5.668   3.856
 8846SOL    HW227438   2.012   5.707   3.881
 8847SOL     OW27439   2.966   0.882   2.578
 8847SOL    HW127440   2.905   0.805   2.593
 8847SOL    HW227441   3.050   0.851   2.533
 8848SOL     OW27442   2.431   1.047   1.122
 8848SOL    HW127443   2.384   1.035   1.034
 8848SOL    HW227444   2.529   1.059   1.106
 8849SOL     OW27445   2.313   5.798   3.040
 8849SOL    HW127446   2.220   5.802   3.005
 8849SOL    HW227447   2.312   5.802   3.140
 8850SOL     OW27448   2.336   1.526   0.149
 8850SOL    HW127449   2.306   1.546   0.242
 8850SOL    HW227450   2.403   1.451   0.150
 8851SOL     OW27451   1.739   4.675   2.207
 8851SOL    HW127452   1.698   4.702   2.120
 8851SOL    HW227453   1.667   4.647   2.270
 8852SOL     OW27454   1.242   1.914   5.551
 8852SOL    HW127455   1.145   1.902   5.567
 8852SOL    HW227456   1.278   1.834   5.503
 8853SOL     OW27457   2.998   1.259   1.903
 8853SOL    HW127458   3.069   1.198   1.866
 8853SOL    HW227459   3.029   1.353   1.895
 8854SOL     OW27460   1.726   2.955   5.061
 8854SOL    HW127461   1.791   2.972   5.135
 8854SOL    HW227462   1.775   2.955   4.974
 8855SOL     OW27463   6.208   5.396   1.553
 8855SOL    HW127464   6.260   5.313   1.573
 8855SOL    HW227465   6.174   5.391   1.459
 8856SOL     OW27466   6.394   5.702   6.376
 8856SOL    HW127467   6.487   5.699   6.411
 8856SOL    HW227468   6.347   5.616   6.396
 8857SOL     OW27469   6.817   2.144   4.867
 8857SOL    HW127470   6.831   2.159   4.770
 8857SOL    HW227471   6.872   2.210   4.919
 8858SOL     OW27472   0.453   4.788   5.138
 8858SOL    HW127473   0.406   4.717   5.086
 8858SOL    HW227474   0.437   4.775   5.236
 8859SOL     OW27475   0.990   0.511   3.901
 8859SOL    HW127476   0.981   0.416   3.871
 8859SOL    HW227477   0.948   0.571   3.833
 8860SOL     OW27478   6.771   3.024   1.380
 8860SOL    HW127479   6.870   3.010   1.379
 8860SOL    HW227480   6.750   3.112   1.422
 8861SOL     OW27481   4.332   1.001   0.868
 8861SOL    HW127482   4.341   1.035   0.775
 8861SOL    HW227483   4.261   0.931   0.871
 8862SOL     OW27484   4.560   5.610   4.371
 8862SOL    HW127485   4.497   5.533   4.370
 8862SOL    HW227486   4.594   5.627   4.278
 8863SOL     OW27487   1.958   4.512   3.704
 8863SOL    HW127488   1.984   4.503   3.608
 8863SOL    HW227489   1.870   4.558   3.711
 8864SOL     OW27490   4.825   3.728   6.507
 8864SOL    HW127491   4.821   3.657   6.437
 8864SOL    HW227492   4.795   3.815   6.467
 8865SOL     OW27493   2.715   1.650   5.610
 8865SOL    HW127494   2.744   1.647   5.515
 8865SOL    HW227495   2.630   1.702   5.617
 8866SOL     OW27496   5.376   6.373   2.636
 8866SOL    HW127497   5.302   6.392   2.572
 8866SOL    HW227498   5.385   6.449   2.701
 8867SOL     OW27499   6.633   3.523   2.915
 8867SOL    HW127500   6.559   3.589   2.927
 8867SOL    HW227501   6.627   3.483   2.824
 8868SOL     OW27502   6.849   3.152   2.536
 8868SOL    HW127503   6.818   3.084   2.602
 8868SOL    HW227504   6.892   3.106   2.458
 8869SOL     OW27505   4.413   5.145   4.597
 8869SOL    HW127506   4.455   5.224   4.640
 8869SOL    HW227507   4.332   5.174   4.546
 8870SOL     OW27508   2.303   6.870   1.966
 8870SOL    HW127509   2.377   6.845   2.029
 8870SOL    HW227510   2.230   6.915   2.017
 8871SOL     OW27511   1.114   1.194   3.158
 8871SOL    HW127512   1.185   1.200   3.088
 8871SOL    HW227513   1.155   1.206   3.248
 8872SOL     OW27514   0.768   4.463   6.170
 8872SOL    HW127515   0.747   4.406   6.091
 8872SOL    HW227516   0.845   4.424   6.221
 8873SOL     OW27517   1.849   0.494   1.930
 8873SOL    HW127518   1.881   0.547   2.008
 8873SOL    HW227519   1.925   0.444   1.889
 8874SOL     OW27520   1.580   5.103   1.060
 8874SOL    HW127521   1.495   5.140   1.098
 8874SOL    HW227522   1.604   5.018   1.106
 8875SOL     OW27523   6.805   3.136   3.898
 8875SOL    HW127524   6.782   3.039   3.888
 8875SOL    HW227525   6.736   3.180   3.955
 8876SOL     OW27526   3.195   0.620   6.300
 8876SOL    HW127527   3.277   0.626   6.244
 8876SOL    HW227528   3.121   0.672   6.257
 8877SOL     OW27529   1.743   3.389   1.861
 8877SOL    HW127530   1.733   3.424   1.768
 8877SOL    HW227531   1.797   3.453   1.915
 8878SOL     OW27532   3.584   4.629   0.593
 8878SOL    HW127533   3.662   4.664   0.645
 8878SOL    HW227534   3.617   4.577   0.514
 8879SOL     OW27535   6.691   4.924   2.785
 8879SOL    HW127536   6.727   4.902   2.876
 8879SOL    HW227537   6.646   5.013   2.788
 8880SOL     OW27538   3.990   6.360   3.732
 8880SOL    HW127539   3.998   6.460   3.738
 8880SOL    HW227540   3.991   6.332   3.636
 8881SOL     OW27541   4.936   4.716   3.996
 8881SOL    HW127542   5.004   4.694   3.925
 8881SOL    HW227543   4.852   4.665   3.979
 8882SOL     OW27544   3.828   0.871   0.382
 8882SOL    HW127545   3.790   0.928   0.455
 8882SOL    HW227546   3.757   0.849   0.316
 8883SOL     OW27547   6.933   6.941   6.099
 8883SOL    HW127548   6.964   6.895   6.182
 8883SOL    HW227549   6.902   0.010   6.120
 8884SOL     OW27550   5.325   4.416   4.906
 8884SOL    HW127551   5.422   4.391   4.910
 8884SOL    HW227552   5.308   4.493   4.968
 8885SOL     OW27553   5.657   5.271   0.273
 8885SOL    HW127554   5.753   5.254   0.292
 8885SOL    HW227555   5.646   5.301   0.178
 8886SOL     OW27556   3.660   5.165   6.667
 8886SOL    HW127557   3.707   5.123   6.745
 8886SOL    HW227558   3.693   5.259   6.656
 8887SOL     OW27559   4.237   0.385   0.681
 8887SOL    HW127560   4.198   0.310   0.734
 8887SOL    HW227561   4.199   0.383   0.589
 8888SOL     OW27562   2.079   2.077   3.783
 8888SOL    HW127563   2.011   2.128   3.731
 8888SOL    HW227564   2.120   2.137   3.852
 8889SOL     OW27565   0.067   6.600   6.051
 8889SOL    HW127566   0.067   6.573   5.955
 8889SOL    HW227567   0.064   6.517   6.108
 8890SOL     OW27568   0.308   6.282   0.083
 8890SOL    HW127569   0.406   6.264   0.083
 8890SOL    HW227570   0.267   6.236   0.162
 8891SOL     OW27571   5.293   4.523   6.742
 8891SOL    HW127572   5.315   4.458   6.670
 8891SOL    HW227573   5.284   4.474   6.829
 8892SOL     OW27574   3.760   5.006   3.819
 8892SOL    HW127575   3.825   5.080   3.800
 8892SOL    HW227576   3.670   5.031   3.784
 8893SOL     OW27577   1.464   4.931   5.399
 8893SOL    HW127578   1.364   4.938   5.408
 8893SOL    HW227579   1.487   4.853   5.341
 8894SOL     OW27580   5.079   1.911   0.794
 8894SOL    HW127581   5.073   1.994   0.848
 8894SOL    HW227582   5.000   1.852   0.814
 8895SOL     OW27583   0.987   2.987   0.665
 8895SOL    HW127584   0.915   2.976   0.597
 8895SOL    HW227585   0.947   3.010   0.753
 8896SOL     OW27586   0.881   2.987   4.971
 8896SOL    HW127587   0.891   3.072   4.920
 8896SOL    HW227588   0.918   2.911   4.918
 8897SOL     OW27589   2.164   3.875   3.758
 8897SOL    HW127590   2.079   3.821   3.758
 8897SOL    HW227591   2.235   3.826   3.708
 8898SOL     OW27592   5.665   3.657   2.660
 8898SOL    HW127593   5.758   3.645   2.626
 8898SOL    HW227594   5.601   3.655   2.583
 8899SOL     OW27595   6.734   4.736   5.976
 8899SOL    HW127596   6.707   4.814   6.033
 8899SOL    HW227597   6.669   4.661   5.989
 8900SOL     OW27598   5.955   2.245   3.559
 8900SOL    HW127599   6.001   2.325   3.519
 8900SOL    HW227600   6.021   2.171   3.569
 8901SOL     OW27601   0.875   2.128   3.394
 8901SOL    HW127602   0.880   2.110   3.295
 8901SOL    HW227603   0.967   2.133   3.431
 8902SOL     OW27604   1.272   4.624   0.222
 8902SOL    HW127605   1.304   4.615   0.127
 8902SOL    HW227606   1.329   4.567   0.281
 8903SOL     OW27607   1.311   1.218   5.187
 8903SOL    HW127608   1.338   1.279   5.112
 8903SOL    HW227609   1.215   1.234   5.209
 8904SOL     OW27610   0.164   1.478   2.626
 8904SOL    HW127611   0.246   1.500   2.573
 8904SOL    HW227612   0.088   1.533   2.593
 8905SOL     OW27613   1.659   2.876   2.538
 8905SOL    HW127614   1.638   2.779   2.541
 8905SOL    HW227615   1.691   2.906   2.628
 8906SOL     OW27616   0.811   6.926   0.630
 8906SOL    HW127617   0.867   7.008   0.636
 8906SOL    HW227618   0.859   6.848   0.670
 8907SOL     OW27619   3.274   2.578   5.314
 8907SOL    HW127620   3.226   2.493   5.292
 8907SOL    HW227621   3.208   2.644   5.351
 8908SOL     OW27622   1.395   4.527   0.498
 8908SOL    HW127623   1.401   4.626   0.515
 8908SOL    HW227624   1.348   4.483   0.574
 8909SOL     OW27625   2.831   0.736   5.994
 8909SOL    HW127626   2.747   0.702   6.036
 8909SOL    HW227627   2.816   0.828   5.958
 8910SOL     OW27628   0.953   2.436   5.377
 8910SOL    HW127629   0.893   2.515   5.366
 8910SOL    HW227630   1.046   2.467   5.395
 8911SOL     OW27631   5.136   1.891   4.177
 8911SOL    HW127632   5.115   1.888   4.275
 8911SOL    HW227633   5.106   1.978   4.139
 8912SOL     OW27634   3.988   3.231   5.652
 8912SOL    HW127635   3.947   3.177   5.579
 8912SOL    HW227636   4.013   3.321   5.616
 8913SOL     OW27637   5.481   4.943   6.828
 8913SOL    HW127638   5.554   4.985   6.774
 8913SOL    HW227639   5.504   4.949   6.925
 8914SOL     OW27640   5.161   6.725   5.049
 8914SOL    HW127641   5.188   6.769   4.963
 8914SOL    HW227642   5.103   6.787   5.101
 8915SOL     OW27643   1.121   1.209   4.058
 8915SOL    HW127644   1.026   1.233   4.039
 8915SOL    HW227645   1.176   1.224   3.976
 8916SOL     OW27646   5.709   1.664   6.695
 8916SOL    HW127647   5.739   1.577   6.734
 8916SOL    HW227648   5.712   1.659   6.595
 8917SOL     OW27649   6.069   1.615   0.829
 8917SOL    HW127650   6.154   1.665   0.817
 8917SOL    HW227651   6.004   1.670   0.882
 8918SOL     OW27652   1.828   5.594   1.023
 8918SOL    HW127653   1.824   5.502   1.061
 8918SOL    HW227654   1.739   5.619   0.985
 8919SOL     OW27655   5.306   4.801   6.640
 8919SOL    HW127656   5.313   4.707   6.674
 8919SOL    HW227657   5.351   4.863   6.705
 8920SOL     OW27658   0.414   1.164   0.254
 8920SOL    HW127659   0.481   1.142   0.183
 8920SOL    HW227660   0.461   1.209   0.330
 8921SOL     OW27661   1.398   2.434   1.207
 8921SOL    HW127662   1.394   2.495   1.287
 8921SOL    HW227663   1.311   2.437   1.159
 8922SOL     OW27664   3.840   6.788   2.681
 8922SOL    HW127665   3.814   6.864   2.741
 8922SOL    HW227666   3.939   6.776   2.682
 8923SOL     OW27667   1.355   1.719   5.965
 8923SOL    HW127668   1.357   1.811   5.925
 8923SOL    HW227669   1.427   1.712   6.034
 8924SOL     OW27670   5.373   5.622   4.513
 8924SOL    HW127671   5.311   5.654   4.584
 8924SOL    HW227672   5.353   5.527   4.491
 8925SOL     OW27673   0.497   0.611   2.584
 8925SOL    HW127674   0.533   0.679   2.648
 8925SOL    HW227675   0.571   0.572   2.531
 8926SOL     OW27676   6.332   3.889   5.554
 8926SOL    HW127677   6.417   3.912   5.507
 8926SOL    HW227678   6.272   3.839   5.491
 8927SOL     OW27679   6.417   2.318   5.645
 8927SOL    HW127680   6.448   2.367   5.564
 8927SOL    HW227681   6.497   2.281   5.693
 8928SOL     OW27682   2.359   0.321   5.510
 8928SOL    HW127683   2.410   0.406   5.496
 8928SOL    HW227684   2.333   0.282   5.422
 8929SOL     OW27685   6.202   2.455   4.901
 8929SOL    HW127686   6.296   2.479   4.877
 8929SOL    HW227687   6.170   2.515   4.973
 8930SOL     OW27688   1.172   3.669   2.879
 8930SOL    HW127689   1.108   3.739   2.846
 8930SOL    HW227690   1.132   3.579   2.864
 8931SOL     OW27691   2.962   2.662   1.313
 8931SOL    HW127692   3.002   2.665   1.221
 8931SOL    HW227693   3.012   2.596   1.368
 8932SOL     OW27694   0.216   1.732   3.432
 8932SOL    HW127695   0.257   1.728   3.341
 8932SOL    HW227696   0.148   1.659   3.441
 8933SOL     OW27697   2.853   2.474   6.735
 8933SOL    HW127698   2.761   2.441   6.755
 8933SOL    HW227699   2.884   2.436   6.648
 8934SOL     OW27700   3.436   5.414   4.849
 8934SOL    HW127701   3.404   5.373   4.764
 8934SOL    HW227702   3.483   5.345   4.904
 8935SOL     OW27703   0.317   5.232   1.040
 8935SOL    HW127704   0.301   5.177   0.957
 8935SOL    HW227705   0.312   5.172   1.120
 8936SOL     OW27706   1.809   3.347   0.895
 8936SOL    HW127707   1.866   3.405   0.836
 8936SOL    HW227708   1.862   3.268   0.926
 8937SOL     OW27709   0.193   6.820   5.146
 8937SOL    HW127710   0.121   6.889   5.139
 8937SOL    HW227711   0.194   6.764   5.063
 8938SOL     OW27712   0.538   5.151   1.492
 8938SOL    HW127713   0.469   5.223   1.499
 8938SOL    HW227714   0.629   5.192   1.489
 8939SOL     OW27715   4.680   2.416   4.951
 8939SOL    HW127716   4.645   2.372   4.868
 8939SOL    HW227717   4.777   2.397   4.961
 8940SOL     OW27718   0.133   1.046   3.959
 8940SOL    HW127719   0.181   1.008   4.038
 8940SOL    HW227720   0.191   1.037   3.878
 8941SOL     OW27721   5.990   2.226   5.769
 8941SOL    HW127722   5.996   2.204   5.672
 8941SOL    HW227723   6.072   2.275   5.798
 8942SOL     OW27724   0.467   3.320   5.832
 8942SOL    HW127725   0.469   3.367   5.744
 8942SOL    HW227726   0.373   3.312   5.864
 8943SOL     OW27727   4.983   4.036   0.432
 8943SOL    HW127728   5.018   4.089   0.509
 8943SOL    HW227729   5.043   3.959   0.415
 8944SOL     OW27730   5.055   5.351   5.817
 8944SOL    HW127731   5.130   5.336   5.752
 8944SOL    HW227732   4.983   5.404   5.773
 8945SOL     OW27733   2.041   0.694   4.592
 8945SOL    HW127734   2.092   0.610   4.608
 8945SOL    HW227735   2.043   0.717   4.494
 8946SOL     OW27736   3.362   2.126   4.906
 8946SOL    HW127737   3.336   2.123   4.809
 8946SOL    HW227738   3.299   2.185   4.956
 8947SOL     OW27739   1.620   3.895   4.983
 8947SOL    HW127740   1.656   3.977   4.939
 8947SOL    HW227741   1.690   3.856   5.043
 8948SOL     OW27742   5.615   5.378   3.922
 8948SOL    HW127743   5.644   5.372   3.827
 8948SOL    HW227744   5.693   5.402   3.980
 8949SOL     OW27745   1.961   0.078   0.621
 8949SOL    HW127746   1.992   0.173   0.613
 8949SOL    HW227747   2.014   0.032   0.693
 8950SOL     OW27748   4.840   2.950   5.881
 8950SOL    HW127749   4.807   2.864   5.921
 8950SOL    HW227750   4.778   2.978   5.808
 8951SOL     OW27751   1.841   2.046   5.107
 8951SOL    HW127752   1.833   2.138   5.069
 8951SOL    HW227753   1.762   1.991   5.078
 8952SOL     OW27754   1.159   0.761   2.513
 8952SOL    HW127755   1.151   0.830   2.584
 8952SOL    HW227756   1.124   0.799   2.427
 8953SOL     OW27757   1.073   3.601   6.870
 8953SOL    HW127758   1.041   3.634   6.781
 8953SOL    HW227759   1.055   3.670   6.940
 8954SOL     OW27760   0.477   5.885   5.232
 8954SOL    HW127761   0.494   5.827   5.312
 8954SOL    HW227762   0.510   5.977   5.250
 8955SOL     OW27763   6.945   4.416   2.802
 8955SOL    HW127764   6.980   4.509   2.791
 8955SOL    HW227765   6.897   4.390   2.718
 8956SOL     OW27766   0.047   1.335   6.637
 8956SOL    HW127767   6.998   1.358   6.572
 8956SOL    HW227768   0.011   1.273   6.707
 8957SOL     OW27769   3.069   4.233   1.338
 8957SOL    HW127770   3.048   4.145   1.294
 8957SOL    HW227771   3.063   4.222   1.437
 8958SOL     OW27772   1.038   0.477   4.161
 8958SOL    HW127773   0.957   0.496   4.216
 8958SOL    HW227774   1.015   0.488   4.064
 8959SOL     OW27775   0.945   4.290   0.414
 8959SOL    HW127776   0.951   4.320   0.319
 8959SOL    HW227777   0.961   4.368   0.475
 8960SOL     OW27778   4.415   5.445   2.834
 8960SOL    HW127779   4.492   5.405   2.884
 8960SOL    HW227780   4.406   5.400   2.745
 8961SOL     OW27781   1.345   2.176   4.317
 8961SOL    HW127782   1.394   2.227   4.247
 8961SOL    HW227783   1.395   2.180   4.404
 8962SOL     OW27784   5.842   6.704   2.312
 8962SOL    HW127785   5.811   6.650   2.390
 8962SOL    HW227786   5.764   6.753   2.272
 8963SOL     OW27787   4.951   6.443   4.011
 8963SOL    HW127788   4.971   6.540   4.020
 8963SOL    HW227789   4.943   6.401   4.101
 8964SOL     OW27790   6.288   4.231   2.613
 8964SOL    HW127791   6.285   4.195   2.706
 8964SOL    HW227792   6.352   4.177   2.559
 8965SOL     OW27793   1.468   4.678   1.031
 8965SOL    HW127794   1.549   4.642   0.986
 8965SOL    HW227795   1.462   4.642   1.124
 8966SOL     OW27796   1.826   2.975   5.377
 8966SOL    HW127797   1.871   2.890   5.404
 8966SOL    HW227798   1.884   3.052   5.403
 8967SOL     OW27799   2.794   6.159   1.754
 8967SOL    HW127800   2.823   6.178   1.848
 8967SOL    HW227801   2.876   6.147   1.697
 8968SOL     OW27802   4.725   5.372   2.397
 8968SOL    HW127803   4.668   5.454   2.391
 8968SOL    HW227804   4.688   5.310   2.466
 8969SOL     OW27805   6.140   0.561   4.055
 8969SOL    HW127806   6.221   0.505   4.073
 8969SOL    HW227807   6.057   0.507   4.075
 8970SOL     OW27808   3.066   2.948   0.392
 8970SOL    HW127809   3.053   2.903   0.481
 8970SOL    HW227810   3.073   3.047   0.405
 8971SOL     OW27811   3.467   5.910   2.424
 8971SOL    HW127812   3.566   5.914   2.423
 8971SOL    HW227813   3.437   5.822   2.461
 8972SOL     OW27814   4.691   6.153   6.716
 8972SOL    HW127815   4.733   6.086   6.777
 8972SOL    HW227816   4.592   6.140   6.714
 8973SOL     OW27817   0.908   3.839   2.077
 8973SOL    HW127818   0.826   3.871   2.029
 8973SOL    HW227819   0.933   3.906   2.147
 8974SOL     OW27820   1.226   4.359   6.208
 8974SOL    HW127821   1.245   4.442   6.155
 8974SOL    HW227822   1.135   4.366   6.248
 8975SOL     OW27823   2.316   1.038   6.836
 8975SOL    HW127824   2.416   1.033   6.825
 8975SOL    HW227825   2.289   0.979   6.913
 8976SOL     OW27826   1.071   5.096   5.250
 8976SOL    HW127827   1.148   5.107   5.188
 8976SOL    HW227828   0.990   5.140   5.212
 8977SOL     OW27829   5.919   1.465   6.632
 8977SOL    HW127830   5.905   1.464   6.533
 8977SOL    HW227831   6.003   1.415   6.655
 8978SOL     OW27832   6.511   6.227   6.759
 8978SOL    HW127833   6.570   6.147   6.751
 8978SOL    HW227834   6.426   6.211   6.709
 8979SOL     OW27835   1.534   3.371   4.303
 8979SOL    HW127836   1.515   3.344   4.397
 8979SOL    HW227837   1.466   3.437   4.273
 8980SOL     OW27838   2.423   3.108   5.607
 8980SOL    HW127839   2.373   3.075   5.687
 8980SOL    HW227840   2.443   3.205   5.618
 8981SOL     OW27841   3.984   1.507   4.767
 8981SOL    HW127842   3.928   1.579   4.808
 8981SOL    HW227843   4.071   1.500   4.816
 8982SOL     OW27844   1.268   2.838   0.231
 8982SOL    HW127845   1.359   2.820   0.269
 8982SOL    HW227846   1.235   2.926   0.265
 8983SOL     OW27847   2.817   5.847   6.708
 8983SOL    HW127848   2.910   5.848   6.673
 8983SOL    HW227849   2.766   5.773   6.665
 8984SOL     OW27850   1.270   6.881   3.552
 8984SOL    HW127851   1.178   6.845   3.539
 8984SOL    HW227852   1.285   6.959   3.492
 8985SOL     OW27853   3.811   2.181   1.135
 8985SOL    HW127854   3.722   2.151   1.102
 8985SOL    HW227855   3.804   2.274   1.170
 8986SOL     OW27856   4.154   5.040   2.768
 8986SOL    HW127857   4.126   5.109   2.835
 8986SOL    HW227858   4.242   5.068   2.727
 8987SOL     OW27859   3.735   6.472   2.498
 8987SOL    HW127860   3.738   6.417   2.415
 8987SOL    HW227861   3.828   6.481   2.535
 8988SOL     OW27862   1.192   5.225   4.048
 8988SOL    HW127863   1.283   5.249   4.014
 8988SOL    HW227864   1.142   5.308   4.072
 8989SOL     OW27865   4.187   3.078   6.900
 8989SOL    HW127866   4.271   3.110   6.855
 8989SOL    HW227867   4.198   2.982   6.925
 8990SOL     OW27868   1.129   4.991   3.875
 8990SOL    HW127869   1.141   5.077   3.924
 8990SOL    HW227870   1.126   4.916   3.940
 8991SOL     OW27871   1.481   3.660   4.802
 8991SOL    HW127872   1.566   3.676   4.853
 8991SOL    HW227873   1.426   3.744   4.802
 8992SOL     OW27874   4.895   1.955   1.028
 8992SOL    HW127875   4.880   2.036   0.971
 8992SOL    HW227876   4.824   1.950   1.098
 8993SOL     OW27877   4.033   3.178   0.680
 8993SOL    HW127878   3.952   3.125   0.705
 8993SOL    HW227879   4.006   3.265   0.641
 8994SOL     OW27880   1.516   4.761   5.205
 8994SOL    HW127881   1.592   4.735   5.146
 8994SOL    HW227882   1.465   4.679   5.232
 8995SOL     OW27883   0.250   1.848   0.022
 8995SOL    HW127884   0.266   1.749   0.018
 8995SOL    HW227885   0.202   1.878   6.963
 8996SOL     OW27886   5.377   4.180   6.537
 8996SOL    HW127887   5.452   4.196   6.473
 8996SOL    HW227888   5.290   4.202   6.492
 8997SOL     OW27889   4.451   1.411   6.038
 8997SOL    HW127890   4.482   1.427   6.132
 8997SOL    HW227891   4.403   1.324   6.033
 8998SOL     OW27892   5.787   3.417   4.177
 8998SOL    HW127893   5.703   3.434   4.228
 8998SOL    HW227894   5.862   3.396   4.240
 8999SOL     OW27895   4.885   6.586   6.340
 8999SOL    HW127896   4.873   6.510   6.276
 8999SOL    HW227897   4.827   6.573   6.419
 9000SOL     OW27898   1.903   2.943   2.261
 9000SOL    HW127899   1.860   2.918   2.348
 9000SOL    HW227900   1.882   3.039   2.241
 9001SOL     OW27901   1.136   4.964   1.757
 9001SOL    HW127902   1.054   5.020   1.759
 9001SOL    HW227903   1.211   5.016   1.714
 9002SOL     OW27904   1.871   4.936   5.576
 9002SOL    HW127905   1.824   4.989   5.505
 9002SOL    HW227906   1.960   4.907   5.542
 9003SOL     OW27907   5.354   3.910   1.588
 9003SOL    HW127908   5.410   3.843   1.638
 9003SOL    HW227909   5.403   3.939   1.506
 9004SOL     OW27910   4.512   4.971   0.754
 9004SOL    HW127911   4.431   4.992   0.699
 9004SOL    HW227912   4.580   4.925   0.697
 9005SOL     OW27913   6.767   2.015   5.208
 9005SOL    HW127914   6.680   1.980   5.172
 9005SOL    HW227915   6.761   2.022   5.307
 9006SOL     OW27916   2.838   6.031   1.252
 9006SOL    HW127917   2.788   5.993   1.330
 9006SOL    HW227918   2.784   6.103   1.209
 9007SOL     OW27919   2.901   1.129   2.704
 9007SOL    HW127920   2.837   1.164   2.636
 9007SOL    HW227921   2.946   1.047   2.668
 9008SOL     OW27922   0.180   4.869   2.568
 9008SOL    HW127923   0.224   4.907   2.649
 9008SOL    HW227924   0.246   4.812   2.519
 9009SOL     OW27925   3.273   4.974   0.962
 9009SOL    HW127926   3.271   4.984   1.061
 9009SOL    HW227927   3.334   4.898   0.937
 9010SOL     OW27928   1.851   6.463   4.374
 9010SOL    HW127929   1.801   6.544   4.343
 9010SOL    HW227930   1.842   6.455   4.474
 9011SOL     OW27931   4.308   1.077   1.405
 9011SOL    HW127932   4.253   1.002   1.441
 9011SOL    HW227933   4.400   1.044   1.384
 9012SOL     OW27934   2.507   4.990   0.047
 9012SOL    HW127935   2.478   5.032   6.984
 9012SOL    HW227936   2.604   4.967   0.043
 9013SOL     OW27937   1.283   0.867   6.044
 9013SOL    HW127938   1.195   0.907   6.019
 9013SOL    HW227939   1.292   0.778   6.000
 9014SOL     OW27940   6.504   2.306   0.424
 9014SOL    HW127941   6.544   2.217   0.402
 9014SOL    HW227942   6.407   2.305   0.403
 9015SOL     OW27943   4.775   2.178   1.749
 9015SOL    HW127944   4.869   2.195   1.719
 9015SOL    HW227945   4.728   2.123   1.680
 9016SOL     OW27946   6.436   5.863   6.796
 9016SOL    HW127947   6.435   5.766   6.823
 9016SOL    HW227948   6.467   5.919   6.872
 9017SOL     OW27949   4.773   1.504   4.067
 9017SOL    HW127950   4.770   1.568   4.143
 9017SOL    HW227951   4.703   1.528   4.000
 9018SOL     OW27952   2.494   3.665   5.324
 9018SOL    HW127953   2.592   3.685   5.320
 9018SOL    HW227954   2.477   3.575   5.283
 9019SOL     OW27955   1.015   5.093   2.481
 9019SOL    HW127956   0.954   5.080   2.559
 9019SOL    HW227957   1.066   5.008   2.464
 9020SOL     OW27958   6.785   4.230   0.858
 9020SOL    HW127959   6.691   4.233   0.824
 9020SOL    HW227960   6.784   4.240   0.958
 9021SOL     OW27961   6.483   1.076   3.261
 9021SOL    HW127962   6.400   1.077   3.206
 9021SOL    HW227963   6.542   1.152   3.232
 9022SOL     OW27964   3.408   1.156   0.201
 9022SOL    HW127965   3.418   1.181   0.104
 9022SOL    HW227966   3.432   1.235   0.258
 9023SOL     OW27967   3.953   3.737   1.638
 9023SOL    HW127968   3.996   3.663   1.691
 9023SOL    HW227969   3.856   3.716   1.624
 9024SOL     OW27970   1.392   4.164   5.338
 9024SOL    HW127971   1.416   4.247   5.389
 9024SOL    HW227972   1.318   4.116   5.385
 9025SOL     OW27973   0.243   5.431   1.215
 9025SOL    HW127974   0.148   5.459   1.223
 9025SOL    HW227975   0.251   5.358   1.147
 9026SOL     OW27976   3.546   2.147   1.044
 9026SOL    HW127977   3.524   2.244   1.049
 9026SOL    HW227978   3.473   2.094   1.087
 9027SOL     OW27979   0.816   3.474   2.992
 9027SOL    HW127980   0.829   3.569   3.022
 9027SOL    HW227981   0.829   3.412   3.069
 9028SOL     OW27982   3.408   3.085   5.378
 9028SOL    HW127983   3.361   3.093   5.465
 9028SOL    HW227984   3.379   3.002   5.331
 9029SOL     OW27985   4.021   6.637   4.923
 9029SOL    HW127986   3.965   6.703   4.973
 9029SOL    HW227987   4.032   6.667   4.828
 9030SOL     OW27988   2.402   1.947   4.018
 9030SOL    HW127989   2.333   1.874   4.022
 9030SOL    HW227990   2.412   1.977   3.923
 9031SOL     OW27991   4.246   6.668   4.361
 9031SOL    HW127992   4.167   6.642   4.416
 9031SOL    HW227993   4.272   6.762   4.381
 9032SOL     OW27994   4.987   4.242   1.069
 9032SOL    HW127995   5.056   4.183   1.028
 9032SOL    HW227996   4.916   4.186   1.113
 9033SOL     OW27997   0.887   4.610   2.589
 9033SOL    HW127998   0.966   4.599   2.529
 9033SOL    HW227999   0.895   4.696   2.639
 9034SOL     OW28000   3.332   6.118   4.705
 9034SOL    HW128001   3.300   6.039   4.651
 9034SOL    HW228002   3.427   6.138   4.683
 9035SOL     OW28003   2.478   5.238   0.430
 9035SOL    HW128004   2.529   5.192   0.358
 9035SOL    HW228005   2.518   5.329   0.446
 9036SOL     OW28006   1.874   3.526   5.559
 9036SOL    HW128007   1.933   3.561   5.486
 9036SOL    HW228008   1.819   3.601   5.596
 9037SOL     OW28009   1.272   3.639   3.840
 9037SOL    HW128010   1.301   3.669   3.931
 9037SOL    HW228011   1.191   3.581   3.849
 9038SOL     OW28012   4.444   2.443   6.723
 9038SOL    HW128013   4.461   2.375   6.651
 9038SOL    HW228014   4.499   2.419   6.804
 9039SOL     OW28015   2.696   4.720   6.390
 9039SOL    HW128016   2.772   4.659   6.366
 9039SOL    HW228017   2.639   4.735   6.309
 9040SOL     OW28018   2.686   2.335   2.458
 9040SOL    HW128019   2.595   2.322   2.497
 9040SOL    HW228020   2.705   2.433   2.451
 9041SOL     OW28021   1.227   2.091   1.256
 9041SOL    HW128022   1.320   2.115   1.287
 9041SOL    HW228023   1.207   2.141   1.172
 9042SOL     OW28024   3.861   0.457   4.252
 9042SOL    HW128025   3.881   0.361   4.229
 9042SOL    HW228026   3.828   0.505   4.170
 9043SOL     OW28027   2.727   1.014   6.196
 9043SOL    HW128028   2.808   1.071   6.213
 9043SOL    HW228029   2.725   0.986   6.100
 9044SOL     OW28030   6.765   1.069   0.111
 9044SOL    HW128031   6.820   1.065   0.195
 9044SOL    HW228032   6.804   1.008   0.042
 9045SOL     OW28033   3.528   0.662   2.480
 9045SOL    HW128034   3.588   0.675   2.558
 9045SOL    HW228035   3.501   0.751   2.443
 9046SOL     OW28036   3.972   3.963   2.686
 9046SOL    HW128037   4.028   3.978   2.605
 9046SOL    HW228038   3.985   3.869   2.718
 9047SOL     OW28039   1.397   3.920   4.850
 9047SOL    HW128040   1.339   3.982   4.902
 9047SOL    HW228041   1.473   3.889   4.907
 9048SOL     OW28042   6.200   2.870   5.996
 9048SOL    HW128043   6.147   2.786   6.002
 9048SOL    HW228044   6.218   2.890   5.899
 9049SOL     OW28045   4.346   6.354   5.583
 9049SOL    HW128046   4.289   6.279   5.616
 9049SOL    HW228047   4.406   6.385   5.657
 9050SOL     OW28048   0.075   3.424   1.629
 9050SOL    HW128049   0.051   3.342   1.682
 9050SOL    HW228050   0.028   3.422   1.541
 9051SOL     OW28051   2.383   0.107   1.616
 9051SOL    HW128052   2.379   0.029   1.679
 9051SOL    HW228053   2.390   0.074   1.522
 9052SOL     OW28054   2.145   2.741   4.044
 9052SOL    HW128055   2.188   2.832   4.046
 9052SOL    HW228056   2.080   2.734   4.121
 9053SOL     OW28057   1.987   1.241   1.379
 9053SOL    HW128058   1.941   1.229   1.466
 9053SOL    HW228059   2.000   1.152   1.335
 9054SOL     OW28060   2.558   5.876   4.681
 9054SOL    HW128061   2.629   5.903   4.745
 9054SOL    HW228062   2.481   5.940   4.687
 9055SOL     OW28063   6.475   2.590   3.840
 9055SOL    HW128064   6.419   2.529   3.897
 9055SOL    HW228065   6.435   2.682   3.841
 9056SOL     OW28066   6.979   2.139   1.473
 9056SOL    HW128067   7.007   2.049   1.505
 9056SOL    HW228068   7.008   2.151   1.378
 9057SOL     OW28069   4.513   2.537   5.142
 9057SOL    HW128070   4.539   2.476   5.068
 9057SOL    HW228071   4.552   2.628   5.126
 9058SOL     OW28072   1.392   0.866   1.403
 9058SOL    HW128073   1.395   0.804   1.481
 9058SOL    HW228074   1.299   0.903   1.394
 9059SOL     OW28075   1.103   2.412   3.134
 9059SOL    HW128076   1.168   2.422   3.210
 9059SOL    HW228077   1.106   2.318   3.099
 9060SOL     OW28078   5.853   2.767   4.413
 9060SOL    HW128079   5.893   2.683   4.449
 9060SOL    HW228080   5.926   2.829   4.384
 9061SOL     OW28081   3.168   5.624   2.353
 9061SOL    HW128082   3.115   5.548   2.316
 9061SOL    HW228083   3.145   5.708   2.304
 9062SOL     OW28084   1.158   6.378   1.424
 9062SOL    HW128085   1.149   6.410   1.329
 9062SOL    HW228086   1.241   6.418   1.464
 9063SOL     OW28087   3.049   0.486   3.558
 9063SOL    HW128088   2.982   0.550   3.521
 9063SOL    HW228089   3.049   0.492   3.657
 9064SOL     OW28090   6.442   3.574   6.184
 9064SOL    HW128091   6.502   3.514   6.239
 9064SOL    HW228092   6.491   3.658   6.163
 9065SOL     OW28093   3.752   0.163   0.315
 9065SOL    HW128094   3.678   0.217   0.355
 9065SOL    HW228095   3.818   0.224   0.272
 9066SOL     OW28096   5.456   0.025   0.476
 9066SOL    HW128097   5.484   0.090   0.405
 9066SOL    HW228098   5.360   0.001   0.463
 9067SOL     OW28099   1.418   0.416   3.654
 9067SOL    HW128100   1.393   0.512   3.644
 9067SOL    HW228101   1.494   0.407   3.717
 9068SOL     OW28102   1.214   6.896   4.918
 9068SOL    HW128103   1.304   6.909   4.959
 9068SOL    HW228104   1.163   6.828   4.970
 9069SOL     OW28105   1.543   3.065   6.987
 9069SOL    HW128106   1.571   3.018   6.903
 9069SOL    HW228107   1.448   3.093   6.980
 9070SOL     OW28108   1.891   3.913   4.838
 9070SOL    HW128109   1.988   3.891   4.853
 9070SOL    HW228110   1.838   3.829   4.839
 9071SOL     OW28111   6.564   6.198   0.865
 9071SOL    HW128112   6.617   6.252   0.798
 9071SOL    HW228113   6.594   6.221   0.957
 9072SOL     OW28114   6.779   3.015   0.981
 9072SOL    HW128115   6.807   3.000   0.886
 9072SOL    HW228116   6.700   2.957   1.002
 9073SOL     OW28117   1.774   6.719   1.977
 9073SOL    HW128118   1.742   6.673   2.059
 9073SOL    HW228119   1.811   6.809   2.002
 9074SOL     OW28120   1.604   0.748   2.759
 9074SOL    HW128121   1.534   0.810   2.793
 9074SOL    HW228122   1.561   0.678   2.701
 9075SOL     OW28123   6.929   1.194   2.431
 9075SOL    HW128124   6.871   1.132   2.377
 9075SOL    HW228125   6.925   1.286   2.392
 9076SOL     OW28126   0.705   1.536   6.543
 9076SOL    HW128127   0.781   1.557   6.481
 9076SOL    HW228128   0.725   1.452   6.593
 9077SOL     OW28129   4.447   6.400   1.746
 9077SOL    HW128130   4.511   6.413   1.822
 9077SOL    HW228131   4.380   6.330   1.771
 9078SOL     OW28132   3.520   2.912   4.482
 9078SOL    HW128133   3.526   2.948   4.575
 9078SOL    HW228134   3.425   2.884   4.463
 9079SOL     OW28135   2.755   0.628   4.574
 9079SOL    HW128136   2.771   0.551   4.512
 9079SOL    HW228137   2.798   0.609   4.662
 9080SOL     OW28138   5.091   2.631   6.938
 9080SOL    HW128139   5.060   2.554   6.993
 9080SOL    HW228140   5.031   2.710   6.953
 9081SOL     OW28141   5.087   6.359   2.757
 9081SOL    HW128142   5.030   6.424   2.806
 9081SOL    HW228143   5.141   6.306   2.823
 9082SOL     OW28144   1.671   0.064   4.662
 9082SOL    HW128145   1.572   0.066   4.650
 9082SOL    HW228146   1.694   0.010   4.743
 9083SOL     OW28147   4.775   4.684   5.868
 9083SOL    HW128148   4.685   4.642   5.866
 9083SOL    HW228149   4.767   4.782   5.848
 9084SOL     OW28150   3.846   3.505   2.986
 9084SOL    HW128151   3.751   3.495   3.016
 9084SOL    HW228152   3.862   3.448   2.906
 9085SOL     OW28153   2.585   0.980   0.783
 9085SOL    HW128154   2.636   0.974   0.697
 9085SOL    HW228155   2.541   0.891   0.801
 9086SOL     OW28156   0.415   4.151   0.514
 9086SOL    HW128157   0.499   4.148   0.460
 9086SOL    HW228158   0.404   4.242   0.555
 9087SOL     OW28159   5.323   2.936   2.544
 9087SOL    HW128160   5.288   2.898   2.458
 9087SOL    HW228161   5.408   2.986   2.526
 9088SOL     OW28162   6.206   0.386   0.498
 9088SOL    HW128163   6.203   0.486   0.500
 9088SOL    HW228164   6.269   0.354   0.569
 9089SOL     OW28165   4.979   6.360   5.864
 9089SOL    HW128166   5.073   6.327   5.863
 9089SOL    HW228167   4.917   6.284   5.881
 9090SOL     OW28168   6.211   1.009   5.069
 9090SOL    HW128169   6.301   1.043   5.043
 9090SOL    HW228170   6.145   1.084   5.065
 9091SOL     OW28171   2.934   3.411   6.944
 9091SOL    HW128172   2.895   3.332   6.992
 9091SOL    HW228173   2.860   3.465   6.903
 9092SOL     OW28174   6.563   1.466   6.621
 9092SOL    HW128175   6.577   1.412   6.538
 9092SOL    HW228176   6.498   1.419   6.681
 9093SOL     OW28177   1.363   6.031   5.150
 9093SOL    HW128178   1.334   6.073   5.236
 9093SOL    HW228179   1.453   5.990   5.162
 9094SOL     OW28180   0.612   3.685   3.170
 9094SOL    HW128181   0.548   3.729   3.233
 9094SOL    HW228182   0.562   3.653   3.090
 9095SOL     OW28183   4.319   4.656   5.656
 9095SOL    HW128184   4.378   4.679   5.579
 9095SOL    HW228185   4.239   4.606   5.623
 9096SOL     OW28186   6.639   4.743   3.610
 9096SOL    HW128187   6.706   4.715   3.542
 9096SOL    HW228188   6.675   4.819   3.663
 9097SOL     OW28189   1.177   2.640   6.317
 9097SOL    HW128190   1.208   2.579   6.243
 9097SOL    HW228191   1.117   2.589   6.378
 9098SOL     OW28192   2.194   2.217   5.213
 9098SOL    HW128193   2.292   2.232   5.222
 9098SOL    HW228194   2.177   2.122   5.185
 9099SOL     OW28195   2.557   2.884   6.094
 9099SOL    HW128196   2.600   2.936   6.021
 9099SOL    HW228197   2.618   2.882   6.174
 9100SOL     OW28198   1.293   3.730   2.412
 9100SOL    HW128199   1.198   3.708   2.388
 9100SOL    HW228200   1.350   3.649   2.396
 9101SOL     OW28201   2.994   1.406   2.477
 9101SOL    HW128202   3.049   1.430   2.397
 9101SOL    HW228203   2.969   1.489   2.526
 9102SOL     OW28204   4.460   6.311   2.788
 9102SOL    HW128205   4.526   6.274   2.853
 9102SOL    HW228206   4.368   6.283   2.815
 9103SOL     OW28207   6.285   1.477   6.773
 9103SOL    HW128208   6.269   1.483   6.872
 9103SOL    HW228209   6.228   1.404   6.735
 9104SOL     OW28210   6.751   0.815   1.136
 9104SOL    HW128211   6.682   0.888   1.134
 9104SOL    HW228212   6.785   0.804   1.229
 9105SOL     OW28213   1.257   7.007   5.266
 9105SOL    HW128214   1.201   0.064   5.245
 9105SOL    HW228215   1.203   6.924   5.255
 9106SOL     OW28216   0.621   4.037   0.239
 9106SOL    HW128217   0.674   4.008   0.319
 9106SOL    HW228218   0.543   3.977   0.227
 9107SOL     OW28219   2.706   0.439   6.309
 9107SOL    HW128220   2.759   0.406   6.231
 9107SOL    HW228221   2.765   0.489   6.372
 9108SOL     OW28222   5.120   5.104   5.414
 9108SOL    HW128223   5.055   5.085   5.340
 9108SOL    HW228224   5.202   5.049   5.401
 9109SOL     OW28225   5.192   3.318   2.548
 9109SOL    HW128226   5.199   3.240   2.611
 9109SOL    HW228227   5.250   3.302   2.468
 9110SOL     OW28228   1.198   5.694   4.985
 9110SOL    HW128229   1.105   5.658   4.983
 9110SOL    HW228230   1.204   5.776   4.929
 9111SOL     OW28231   4.730   2.923   6.189
 9111SOL    HW128232   4.748   2.851   6.122
 9111SOL    HW228233   4.794   2.999   6.174
 9112SOL     OW28234   1.835   5.060   2.698
 9112SOL    HW128235   1.903   5.060   2.625
 9112SOL    HW228236   1.881   5.057   2.787
 9113SOL     OW28237   5.328   2.346   3.169
 9113SOL    HW128238   5.288   2.371   3.081
 9113SOL    HW228239   5.313   2.249   3.186
 9114SOL     OW28240   1.726   6.203   4.339
 9114SOL    HW128241   1.780   6.126   4.305
 9114SOL    HW228242   1.776   6.288   4.322
 9115SOL     OW28243   5.389   4.833   3.517
 9115SOL    HW128244   5.476   4.875   3.544
 9115SOL    HW228245   5.382   4.833   3.417
 9116SOL     OW28246   0.254   6.440   3.226
 9116SOL    HW128247   0.171   6.494   3.219
 9116SOL    HW228248   0.245   6.357   3.171
 9117SOL     OW28249   4.270   1.274   6.800
 9117SOL    HW128250   4.225   1.185   6.805
 9117SOL    HW228251   4.358   1.270   6.847
 9118SOL     OW28252   6.028   3.517   0.285
 9118SOL    HW128253   6.066   3.608   0.270
 9118SOL    HW228254   5.963   3.495   0.212
 9119SOL     OW28255   3.497   6.263   1.150
 9119SOL    HW128256   3.484   6.165   1.169
 9119SOL    HW228257   3.442   6.289   1.071
 9120SOL     OW28258   6.336   2.518   6.264
 9120SOL    HW128259   6.359   2.578   6.188
 9120SOL    HW228260   6.381   2.551   6.347
 9121SOL     OW28261   4.145   0.660   5.592
 9121SOL    HW128262   4.073   0.596   5.620
 9121SOL    HW228263   4.234   0.616   5.601
 9122SOL     OW28264   2.244   4.408   2.030
 9122SOL    HW128265   2.278   4.367   2.115
 9122SOL    HW228266   2.217   4.502   2.046
 9123SOL     OW28267   1.663   0.431   3.447
 9123SOL    HW128268   1.574   0.395   3.475
 9123SOL    HW228269   1.659   0.456   3.350
 9124SOL     OW28270   3.372   5.230   1.391
 9124SOL    HW128271   3.398   5.143   1.351
 9124SOL    HW228272   3.451   5.292   1.390
 9125SOL     OW28273   3.522   6.056   6.809
 9125SOL    HW128274   3.479   5.976   6.850
 9125SOL    HW228275   3.498   6.138   6.861
 9126SOL     OW28276   4.154   4.572   0.868
 9126SOL    HW128277   4.077   4.515   0.841
 9126SOL    HW228278   4.226   4.516   0.909
 9127SOL     OW28279   0.085   3.697   5.077
 9127SOL    HW128280   0.049   3.746   5.156
 9127SOL    HW228281   0.057   3.601   5.080
 9128SOL     OW28282   6.173   3.107   4.790
 9128SOL    HW128283   6.151   3.030   4.850
 9128SOL    HW228284   6.116   3.186   4.815
 9129SOL     OW28285   2.213   1.854   1.058
 9129SOL    HW128286   2.214   1.806   0.971
 9129SOL    HW228287   2.291   1.916   1.063
 9130SOL     OW28288   2.860   4.472   5.504
 9130SOL    HW128289   2.768   4.472   5.464
 9130SOL    HW228290   2.921   4.526   5.447
 9131SOL     OW28291   6.222   3.053   0.772
 9131SOL    HW128292   6.277   3.083   0.694
 9131SOL    HW228293   6.174   2.969   0.749
 9132SOL     OW28294   0.946   4.636   3.210
 9132SOL    HW128295   0.923   4.543   3.240
 9132SOL    HW228296   0.964   4.636   3.112
 9133SOL     OW28297   4.375   0.778   1.252
 9133SOL    HW128298   4.440   0.760   1.325
 9133SOL    HW228299   4.422   0.823   1.176
 9134SOL     OW28300   4.733   5.158   0.887
 9134SOL    HW128301   4.798   5.085   0.908
 9134SOL    HW228302   4.772   5.219   0.819
 9135SOL     OW28303   1.106   6.113   1.461
 9135SOL    HW128304   1.122   6.073   1.371
 9135SOL    HW228305   1.110   6.213   1.455
 9136SOL     OW28306   5.468   4.980   6.456
 9136SOL    HW128307   5.467   5.059   6.516
 9136SOL    HW228308   5.434   4.900   6.505
 9137SOL     OW28309   4.393   6.224   6.617
 9137SOL    HW128310   4.382   6.199   6.521
 9137SOL    HW228311   4.354   6.314   6.633
 9138SOL     OW28312   2.927   2.585   0.225
 9138SOL    HW128313   2.953   2.572   0.130
 9138SOL    HW228314   2.880   2.672   0.236
 9139SOL     OW28315   0.072   0.028   1.316
 9139SOL    HW128316   0.128   0.030   1.233
 9139SOL    HW228317   0.132   0.017   1.396
 9140SOL     OW28318   0.674   3.930   2.776
 9140SOL    HW128319   0.678   3.842   2.729
 9140SOL    HW228320   0.765   3.969   2.783
 9141SOL     OW28321   0.012   5.566   5.956
 9141SOL    HW128322   7.008   5.605   5.868
 9141SOL    HW228323   6.970   5.593   6.026
 9142SOL     OW28324   1.024   3.688   2.506
 9142SOL    HW128325   1.010   3.752   2.582
 9142SOL    HW228326   0.936   3.650   2.478
 9143SOL     OW28327   0.440   3.844   2.881
 9143SOL    HW128328   0.525   3.892   2.858
 9143SOL    HW228329   0.462   3.750   2.909
 9144SOL     OW28330   2.768   4.925   5.304
 9144SOL    HW128331   2.749   5.023   5.297
 9144SOL    HW228332   2.686   4.873   5.280
 9145SOL     OW28333   1.103   6.942   6.449
 9145SOL    HW128334   1.131   6.854   6.487
 9145SOL    HW228335   1.045   6.927   6.370
 9146SOL     OW28336   5.560   3.348   3.534
 9146SOL    HW128337   5.524   3.293   3.458
 9146SOL    HW228338   5.497   3.422   3.554
 9147SOL     OW28339   5.205   0.029   4.094
 9147SOL    HW128340   5.107   0.037   4.108
 9147SOL    HW228341   5.223   7.008   4.007
 9148SOL     OW28342   6.540   0.401   1.522
 9148SOL    HW128343   6.519   0.336   1.450
 9148SOL    HW228344   6.491   0.376   1.605
 9149SOL     OW28345   5.975   4.328   1.456
 9149SOL    HW128346   5.934   4.243   1.426
 9149SOL    HW228347   6.073   4.328   1.433
 9150SOL     OW28348   2.734   4.094   6.952
 9150SOL    HW128349   2.833   4.082   6.943
 9150SOL    HW228350   2.690   4.004   6.954
 9151SOL     OW28351   1.907   3.775   3.780
 9151SOL    HW128352   1.875   3.793   3.873
 9151SOL    HW228353   1.829   3.777   3.717
 9152SOL     OW28354   1.979   4.316   3.885
 9152SOL    HW128355   1.975   4.387   3.815
 9152SOL    HW228356   2.051   4.338   3.951
 9153SOL     OW28357   0.600   2.524   6.497
 9153SOL    HW128358   0.505   2.542   6.473
 9153SOL    HW228359   0.654   2.608   6.486
 9154SOL     OW28360   5.715   5.006   3.037
 9154SOL    HW128361   5.641   4.967   2.983
 9154SOL    HW228362   5.781   4.935   3.060
 9155SOL     OW28363   1.021   5.895   2.255
 9155SOL    HW128364   0.924   5.922   2.250
 9155SOL    HW228365   1.052   5.868   2.163
 9156SOL     OW28366   6.975   3.942   0.300
 9156SOL    HW128367   7.010   3.863   0.249
 9156SOL    HW228368   0.025   3.985   0.352
 9157SOL     OW28369   3.298   4.394   6.613
 9157SOL    HW128370   3.330   4.379   6.519
 9157SOL    HW228371   3.372   4.372   6.677
 9158SOL     OW28372   0.371   3.609   3.792
 9158SOL    HW128373   0.466   3.587   3.767
 9158SOL    HW228374   0.329   3.529   3.834
 9159SOL     OW28375   3.665   0.415   3.543
 9159SOL    HW128376   3.583   0.358   3.534
 9159SOL    HW228377   3.720   0.408   3.461
 9160SOL     OW28378   0.238   4.688   6.602
 9160SOL    HW128379   0.275   4.620   6.666
 9160SOL    HW228380   0.177   4.750   6.652
 9161SOL     OW28381   5.507   3.794   1.756
 9161SOL    HW128382   5.571   3.718   1.767
 9161SOL    HW228383   5.537   3.872   1.811
 9162SOL     OW28384   5.114   1.968   2.288
 9162SOL    HW128385   5.103   1.946   2.384
 9162SOL    HW228386   5.117   2.068   2.276
 9163SOL     OW28387   1.352   1.997   3.048
 9163SOL    HW128388   1.439   1.966   3.009
 9163SOL    HW228389   1.332   1.943   3.130
 9164SOL     OW28390   2.982   0.652   6.651
 9164SOL    HW128391   2.980   0.740   6.699
 9164SOL    HW228392   3.058   0.597   6.688
 9165SOL     OW28393   4.857   2.752   5.390
 9165SOL    HW128394   4.855   2.708   5.480
 9165SOL    HW228395   4.780   2.816   5.382
 9166SOL     OW28396   5.001   5.397   1.875
 9166SOL    HW128397   4.953   5.409   1.788
 9166SOL    HW228398   5.097   5.422   1.863
 9167SOL     OW28399   1.230   0.429   5.654
 9167SOL    HW128400   1.214   0.341   5.611
 9167SOL    HW228401   1.220   0.420   5.753
 9168SOL     OW28402   6.498   5.773   4.467
 9168SOL    HW128403   6.483   5.858   4.416
 9168SOL    HW228404   6.574   5.786   4.531
 9169SOL     OW28405   6.124   6.279   0.163
 9169SOL    HW128406   6.065   6.341   0.111
 9169SOL    HW228407   6.077   6.192   0.177
 9170SOL     OW28408   1.287   1.423   6.338
 9170SOL    HW128409   1.188   1.407   6.333
 9170SOL    HW228410   1.328   1.404   6.249
 9171SOL     OW28411   3.439   4.922   0.591
 9171SOL    HW128412   3.432   4.832   0.546
 9171SOL    HW228413   3.461   4.909   0.687
 9172SOL     OW28414   4.966   1.238   4.537
 9172SOL    HW128415   5.024   1.246   4.617
 9172SOL    HW228416   4.943   1.330   4.503
 9173SOL     OW28417   6.279   2.295   4.384
 9173SOL    HW128418   6.195   2.270   4.335
 9173SOL    HW228419   6.353   2.233   4.358
 9174SOL     OW28420   0.500   5.811   6.966
 9174SOL    HW128421   0.460   5.902   6.959
 9174SOL    HW228422   0.594   5.819   6.999
 9175SOL     OW28423   1.809   0.140   0.222
 9175SOL    HW128424   1.801   0.176   0.315
 9175SOL    HW228425   1.728   0.085   0.200
 9176SOL     OW28426   1.425   1.442   2.788
 9176SOL    HW128427   1.389   1.467   2.698
 9176SOL    HW228428   1.448   1.526   2.838
 9177SOL     OW28429   0.098   4.238   3.665
 9177SOL    HW128430   7.023   4.229   3.678
 9177SOL    HW228431   0.138   4.148   3.649
 9178SOL     OW28432   1.491   6.444   0.239
 9178SOL    HW128433   1.541   6.378   0.183
 9178SOL    HW228434   1.499   6.535   0.198
 9179SOL     OW28435   4.704   6.274   5.128
 9179SOL    HW128436   4.675   6.179   5.141
 9179SOL    HW228437   4.666   6.331   5.201
 9180SOL     OW28438   6.650   1.557   3.935
 9180SOL    HW128439   6.554   1.585   3.936
 9180SOL    HW228440   6.687   1.572   3.843
 9181SOL     OW28441   3.656   1.803   3.942
 9181SOL    HW128442   3.661   1.796   4.041
 9181SOL    HW228443   3.639   1.712   3.903
 9182SOL     OW28444   1.961   1.400   3.199
 9182SOL    HW128445   1.967   1.476   3.135
 9182SOL    HW228446   1.994   1.316   3.155
 9183SOL     OW28447   5.927   3.017   6.027
 9183SOL    HW128448   5.851   2.960   6.059
 9183SOL    HW228449   5.929   3.015   5.927
 9184SOL     OW28450   3.785   3.430   1.475
 9184SOL    HW128451   3.884   3.419   1.464
 9184SOL    HW228452   3.766   3.476   1.562
 9185SOL     OW28453   0.448   0.387   6.293
 9185SOL    HW128454   0.402   0.314   6.242
 9185SOL    HW228455   0.394   0.410   6.373
 9186SOL     OW28456   5.244   0.691   6.073
 9186SOL    HW128457   5.256   0.709   6.170
 9186SOL    HW228458   5.299   0.613   6.045
 9187SOL     OW28459   5.138   1.793   0.313
 9187SOL    HW128460   5.128   1.851   0.394
 9187SOL    HW228461   5.063   1.727   0.309
 9188SOL     OW28462   1.058   7.017   2.139
 9188SOL    HW128463   1.115   6.973   2.070
 9188SOL    HW228464   1.112   0.011   2.221
 9189SOL     OW28465   3.251   1.286   3.681
 9189SOL    HW128466   3.224   1.220   3.612
 9189SOL    HW228467   3.216   1.258   3.770
 9190SOL     OW28468   5.905   4.045   5.406
 9190SOL    HW128469   5.817   4.046   5.454
 9190SOL    HW228470   5.917   4.132   5.357
 9191SOL     OW28471   4.823   5.864   6.522
 9191SOL    HW128472   4.745   5.832   6.468
 9191SOL    HW228473   4.869   5.938   6.473
 9192SOL     OW28474   6.490   4.347   5.410
 9192SOL    HW128475   6.456   4.271   5.353
 9192SOL    HW228476   6.557   4.312   5.475
 9193SOL     OW28477   3.446   2.859   3.062
 9193SOL    HW128478   3.370   2.913   3.098
 9193SOL    HW228479   3.491   2.811   3.137
 9194SOL     OW28480   2.905   5.246   3.395
 9194SOL    HW128481   2.890   5.338   3.430
 9194SOL    HW228482   3.003   5.228   3.391
 9195SOL     OW28483   0.513   3.004   3.389
 9195SOL    HW128484   0.611   3.010   3.369
 9195SOL    HW228485   0.461   3.014   3.305
 9196SOL     OW28486   4.668   0.228   3.242
 9196SOL    HW128487   4.658   0.260   3.336
 9196SOL    HW228488   4.761   0.192   3.229
 9197SOL     OW28489   3.148   2.939   6.360
 9197SOL    HW128490   3.091   2.859   6.379
 9197SOL    HW228491   3.147   2.958   6.261
 9198SOL     OW28492   6.088   3.087   6.235
 9198SOL    HW128493   6.037   3.022   6.179
 9198SOL    HW228494   6.139   3.149   6.175
 9199SOL     OW28495   1.490   4.332   6.582
 9199SOL    HW128496   1.443   4.263   6.637
 9199SOL    HW228497   1.588   4.313   6.580
 9200SOL     OW28498   6.500   0.067   0.476
 9200SOL    HW128499   6.507   0.047   0.573
 9200SOL    HW228500   6.515   0.164   0.459
 9201SOL     OW28501   0.433   3.913   2.148
 9201SOL    HW128502   0.432   3.936   2.051
 9201SOL    HW228503   0.435   3.996   2.203
 9202SOL     OW28504   2.816   5.319   4.275
 9202SOL    HW128505   2.779   5.410   4.254
 9202SOL    HW228506   2.915   5.319   4.258
 9203SOL     OW28507   5.165   0.996   5.535
 9203SOL    HW128508   5.156   1.086   5.578
 9203SOL    HW228509   5.142   0.925   5.601
 9204SOL     OW28510   5.462   4.288   2.658
 9204SOL    HW128511   5.394   4.267   2.588
 9204SOL    HW228512   5.494   4.202   2.699
 9205SOL     OW28513   5.859   2.652   2.891
 9205SOL    HW128514   5.890   2.670   2.797
 9205SOL    HW228515   5.761   2.636   2.891
 9206SOL     OW28516   0.983   6.582   3.143
 9206SOL    HW128517   1.068   6.601   3.191
 9206SOL    HW228518   0.905   6.608   3.200
 9207SOL     OW28519   3.985   6.387   7.023
 9207SOL    HW128520   3.922   6.338   0.060
 9207SOL    HW228521   3.944   6.394   6.932
 9208SOL     OW28522   5.334   3.230   2.287
 9208SOL    HW128523   5.412   3.187   2.240
 9208SOL    HW228524   5.250   3.208   2.238
 9209SOL     OW28525   4.257   1.101   2.665
 9209SOL    HW128526   4.308   1.036   2.610
 9209SOL    HW228527   4.214   1.053   2.742
 9210SOL     OW28528   2.045   6.945   1.386
 9210SOL    HW128529   1.968   6.905   1.337
 9210SOL    HW228530   2.017   6.967   1.480
 9211SOL     OW28531   5.183   1.695   6.408
 9211SOL    HW128532   5.238   1.655   6.481
 9211SOL    HW228533   5.111   1.631   6.381
 9212SOL     OW28534   5.654   4.319   4.431
 9212SOL    HW128535   5.733   4.300   4.489
 9212SOL    HW228536   5.682   4.378   4.356
 9213SOL     OW28537   5.814   6.664   3.615
 9213SOL    HW128538   5.746   6.658   3.542
 9213SOL    HW228539   5.848   6.573   3.636
 9214SOL     OW28540   2.466   2.085   4.535
 9214SOL    HW128541   2.540   2.128   4.587
 9214SOL    HW228542   2.490   2.085   4.438
 9215SOL     OW28543   0.541   4.112   2.987
 9215SOL    HW128544   0.508   4.201   2.956
 9215SOL    HW228545   0.563   4.055   2.908
 9216SOL     OW28546   2.266   5.929   4.979
 9216SOL    HW128547   2.226   5.894   4.894
 9216SOL    HW228548   2.357   5.891   4.992
 9217SOL     OW28549   4.548   1.395   6.546
 9217SOL    HW128550   4.455   1.406   6.579
 9217SOL    HW228551   4.612   1.422   6.618
 9218SOL     OW28552   6.034   6.019   6.091
 9218SOL    HW128553   5.952   6.027   6.149
 9218SOL    HW228554   6.056   5.922   6.079
 9219SOL     OW28555   3.747   3.152   4.987
 9219SOL    HW128556   3.777   3.064   4.950
 9219SOL    HW228557   3.692   3.136   5.068
 9220SOL     OW28558   1.590   6.466   3.075
 9220SOL    HW128559   1.575   6.513   3.162
 9220SOL    HW228560   1.564   6.526   3.000
 9221SOL     OW28561   2.634   0.890   6.448
 9221SOL    HW128562   2.538   0.913   6.463
 9221SOL    HW228563   2.664   0.928   6.360
 9222SOL     OW28564   1.458   4.266   3.463
 9222SOL    HW128565   1.488   4.359   3.482
 9222SOL    HW228566   1.380   4.243   3.521
 9223SOL     OW28567   1.288   3.864   4.602
 9223SOL    HW128568   1.188   3.867   4.591
 9223SOL    HW228569   1.312   3.882   4.698
 9224SOL     OW28570   2.088   4.128   3.652
 9224SOL    HW128571   2.101   4.207   3.711
 9224SOL    HW228572   2.103   4.044   3.704
 9225SOL     OW28573   4.709   6.924   6.385
 9225SOL    HW128574   4.781   6.950   6.320
 9225SOL    HW228575   4.746   6.928   6.478
 9226SOL     OW28576   1.061   0.509   0.455
 9226SOL    HW128577   1.156   0.484   0.439
 9226SOL    HW228578   1.005   0.426   0.457
 9227SOL     OW28579   2.556   5.479   0.722
 9227SOL    HW128580   2.498   5.554   0.754
 9227SOL    HW228581   2.579   5.493   0.626
 9228SOL     OW28582   3.208   2.766   5.767
 9228SOL    HW128583   3.235   2.675   5.736
 9228SOL    HW228584   3.111   2.766   5.788
 9229SOL     OW28585   6.986   4.842   6.771
 9229SOL    HW128586   6.994   4.931   6.725
 9229SOL    HW228587   6.984   4.856   6.870
 9230SOL     OW28588   5.020   1.653   4.012
 9230SOL    HW128589   5.041   1.726   4.078
 9230SOL    HW228590   5.036   1.564   4.055
 9231SOL     OW28591   0.387   5.237   4.629
 9231SOL    HW128592   0.296   5.196   4.619
 9231SOL    HW228593   0.429   5.204   4.713
 9232SOL     OW28594   1.596   5.450   1.664
 9232SOL    HW128595   1.635   5.360   1.680
 9232SOL    HW228596   1.621   5.512   1.738
 9233SOL     OW28597   0.920   0.722   6.835
 9233SOL    HW128598   0.869   0.705   6.751
 9233SOL    HW228599   0.900   0.814   6.868
 9234SOL     OW28600   2.088   4.751   1.084
 9234SOL    HW128601   2.082   4.725   0.988
 9234SOL    HW228602   2.163   4.701   1.127
 9235SOL     OW28603   2.530   2.577   4.285
 9235SOL    HW128604   2.517   2.516   4.207
 9235SOL    HW228605   2.441   2.602   4.324
 9236SOL     OW28606   2.025   3.431   6.269
 9236SOL    HW128607   1.928   3.436   6.245
 9236SOL    HW228608   2.038   3.365   6.342
 9237SOL     OW28609   6.093   5.356   3.268
 9237SOL    HW128610   6.156   5.376   3.193
 9237SOL    HW228611   6.005   5.401   3.251
 9238SOL     OW28612   1.429   3.279   5.524
 9238SOL    HW128613   1.474   3.241   5.605
 9238SOL    HW228614   1.462   3.232   5.442
 9239SOL     OW28615   0.521   4.882   6.866
 9239SOL    HW128616   0.553   4.827   6.789
 9239SOL    HW228617   0.422   4.876   6.873
 9240SOL     OW28618   4.846   2.901   2.794
 9240SOL    HW128619   4.851   2.962   2.873
 9240SOL    HW228620   4.926   2.840   2.793
 9241SOL     OW28621   5.810   6.564   0.851
 9241SOL    HW128622   5.783   6.492   0.915
 9241SOL    HW228623   5.845   6.523   0.767
 9242SOL     OW28624   1.457   2.001   1.517
 9242SOL    HW128625   1.482   1.904   1.511
 9242SOL    HW228626   1.515   2.054   1.456
 9243SOL     OW28627   0.969   0.639   1.090
 9243SOL    HW128628   1.065   0.634   1.118
 9243SOL    HW228629   0.948   0.563   1.028
 9244SOL     OW28630   4.519   6.733   5.222
 9244SOL    HW128631   4.442   6.717   5.159
 9244SOL    HW228632   4.581   6.801   5.183
 9245SOL     OW28633   1.221   4.977   2.724
 9245SOL    HW128634   1.281   4.931   2.789
 9245SOL    HW228635   1.242   5.075   2.723
 9246SOL     OW28636   6.713   1.168   4.228
 9246SOL    HW128637   6.646   1.231   4.267
 9246SOL    HW228638   6.666   1.090   4.187
 9247SOL     OW28639   3.618   5.662   3.476
 9247SOL    HW128640   3.524   5.677   3.507
 9247SOL    HW228641   3.654   5.579   3.519
 9248SOL     OW28642   2.365   1.490   5.459
 9248SOL    HW128643   2.318   1.406   5.431
 9248SOL    HW228644   2.455   1.494   5.416
 9249SOL     OW28645   3.726   4.959   1.794
 9249SOL    HW128646   3.796   4.929   1.859
 9249SOL    HW228647   3.658   4.887   1.783
 9250SOL     OW28648   0.212   3.245   4.236
 9250SOL    HW128649   0.295   3.224   4.287
 9250SOL    HW228650   0.148   3.168   4.244
 9251SOL     OW28651   3.439   2.575   0.788
 9251SOL    HW128652   3.468   2.481   0.768
 9251SOL    HW228653   3.519   2.635   0.784
 9252SOL     OW28654   5.204   0.307   5.362
 9252SOL    HW128655   5.157   0.379   5.414
 9252SOL    HW228656   5.302   0.311   5.379
 9253SOL     OW28657   1.316   4.666   5.443
 9253SOL    HW128658   1.217   4.663   5.432
 9253SOL    HW228659   1.344   4.758   5.469
 9254SOL     OW28660   6.061   5.032   2.959
 9254SOL    HW128661   6.061   5.070   2.866
 9254SOL    HW228662   6.058   4.933   2.954
 9255SOL     OW28663   6.282   4.757   0.552
 9255SOL    HW128664   6.244   4.775   0.462
 9255SOL    HW228665   6.253   4.666   0.583
 9256SOL     OW28666   2.054   6.553   1.873
 9256SOL    HW128667   2.034   6.598   1.960
 9256SOL    HW228668   1.978   6.492   1.849
 9257SOL     OW28669   0.269   5.141   3.975
 9257SOL    HW128670   0.188   5.090   4.006
 9257SOL    HW228671   0.273   5.139   3.875
 9258SOL     OW28672   3.570   3.989   0.777
 9258SOL    HW128673   3.626   3.916   0.738
 9258SOL    HW228674   3.629   4.055   0.824
 9259SOL     OW28675   2.297   1.978   6.870
 9259SOL    HW128676   2.380   1.978   6.814
 9259SOL    HW228677   2.219   1.947   6.816
 9260SOL     OW28678   5.357   2.925   5.001
 9260SOL    HW128679   5.406   2.844   4.970
 9260SOL    HW228680   5.325   2.911   5.095
 9261SOL     OW28681   4.475   1.872   1.363
 9261SOL    HW128682   4.506   1.849   1.455
 9261SOL    HW228683   4.400   1.810   1.336
 9262SOL     OW28684   6.256   6.165   3.587
 9262SOL    HW128685   6.271   6.255   3.627
 9262SOL    HW228686   6.158   6.149   3.576
 9263SOL     OW28687   2.169   3.626   3.587
 9263SOL    HW128688   2.167   3.527   3.596
 9263SOL    HW228689   2.168   3.651   3.490
 9264SOL     OW28690   4.806   4.355   6.719
 9264SOL    HW128691   4.797   4.302   6.803
 9264SOL    HW228692   4.844   4.296   6.647
 9265SOL     OW28693   4.949   2.081   6.929
 9265SOL    HW128694   4.851   2.089   6.948
 9265SOL    HW228695   4.988   2.007   6.985
 9266SOL     OW28696   0.215   4.289   1.235
 9266SOL    HW128697   0.232   4.365   1.297
 9266SOL    HW228698   0.298   4.234   1.226
 9267SOL     OW28699   0.353   1.000   3.784
 9267SOL    HW128700   0.414   0.940   3.733
 9267SOL    HW228701   0.323   1.076   3.725
 9268SOL     OW28702   0.685   6.553   1.505
 9268SOL    HW128703   0.616   6.612   1.546
 9268SOL    HW228704   0.774   6.598   1.509
 9269SOL     OW28705   4.208   0.365   0.413
 9269SOL    HW128706   4.178   0.417   0.333
 9269SOL    HW228707   4.232   0.272   0.387
 9270SOL     OW28708   3.013   1.186   5.987
 9270SOL    HW128709   3.087   1.131   5.947
 9270SOL    HW228710   3.045   1.280   5.999
 9271SOL     OW28711   1.208   0.654   6.497
 9271SOL    HW128712   1.121   0.694   6.526
 9271SOL    HW228713   1.257   0.620   6.577
 9272SOL     OW28714   0.061   6.476   5.791
 9272SOL    HW128715   0.082   6.385   5.828
 9272SOL    HW228716   7.016   6.467   5.719
 9273SOL     OW28717   5.027   5.316   4.124
 9273SOL    HW128718   5.113   5.323   4.073
 9273SOL    HW228719   4.950   5.326   4.061
 9274SOL     OW28720   0.747   3.261   0.503
 9274SOL    HW128721   0.705   3.294   0.418
 9274SOL    HW228722   0.829   3.315   0.522
 9275SOL     OW28723   0.920   6.223   1.069
 9275SOL    HW128724   0.907   6.273   1.155
 9275SOL    HW228725   1.015   6.232   1.040
 9276SOL     OW28726   3.445   4.564   0.241
 9276SOL    HW128727   3.512   4.545   0.170
 9276SOL    HW228728   3.415   4.659   0.235
 9277SOL     OW28729   4.493   4.870   2.560
 9277SOL    HW128730   4.437   4.838   2.636
 9277SOL    HW228731   4.490   4.804   2.485
 9278SOL     OW28732   0.737   0.850   4.311
 9278SOL    HW128733   0.697   0.844   4.402
 9278SOL    HW228734   0.744   0.759   4.271
 9279SOL     OW28735   3.804   5.332   1.219
 9279SOL    HW128736   3.789   5.414   1.275
 9279SOL    HW228737   3.902   5.319   1.205
 9280SOL     OW28738   1.262   1.131   2.934
 9280SOL    HW128739   1.248   1.156   2.838
 9280SOL    HW228740   1.317   1.201   2.979
 9281SOL     OW28741   3.190   4.452   0.291
 9281SOL    HW128742   3.278   4.498   0.305
 9281SOL    HW228743   3.163   4.460   0.195
 9282SOL     OW28744   3.539   7.017   4.933
 9282SOL    HW128745   3.448   0.004   4.892
 9282SOL    HW228746   3.609   0.008   4.863
 9283SOL     OW28747   4.460   5.990   6.718
 9283SOL    HW128748   4.445   5.917   6.652
 9283SOL    HW228749   4.447   6.079   6.674
 9284SOL     OW28750   2.993   4.183   5.273
 9284SOL    HW128751   3.016   4.275   5.243
 9284SOL    HW228752   3.027   4.117   5.205
 9285SOL     OW28753   6.436   3.537   2.425
 9285SOL    HW128754   6.447   3.591   2.342
 9285SOL    HW228755   6.499   3.459   2.423
 9286SOL     OW28756   4.717   5.779   1.327
 9286SOL    HW128757   4.645   5.848   1.332
 9286SOL    HW228758   4.689   5.706   1.265
 9287SOL     OW28759   3.267   4.592   6.401
 9287SOL    HW128760   3.258   4.691   6.390
 9287SOL    HW228761   3.185   4.555   6.443
 9288SOL     OW28762   4.299   2.025   3.593
 9288SOL    HW128763   4.211   2.067   3.573
 9288SOL    HW228764   4.286   1.946   3.653
 9289SOL     OW28765   4.585   6.561   0.016
 9289SOL    HW128766   4.613   6.499   0.090
 9289SOL    HW228767   4.562   6.508   6.958
 9290SOL     OW28768   5.685   0.491   4.678
 9290SOL    HW128769   5.710   0.406   4.633
 9290SOL    HW228770   5.592   0.516   4.653
 9291SOL     OW28771   1.095   5.628   5.902
 9291SOL    HW128772   1.188   5.657   5.921
 9291SOL    HW228773   1.088   5.595   5.808
 9292SOL     OW28774   1.524   1.591   6.342
 9292SOL    HW128775   1.440   1.541   6.323
 9292SOL    HW228776   1.592   1.528   6.379
 9293SOL     OW28777   5.072   3.030   5.761
 9293SOL    HW128778   5.041   3.021   5.666
 9293SOL    HW228779   5.000   2.998   5.823
 9294SOL     OW28780   4.910   1.021   0.417
 9294SOL    HW128781   4.968   0.954   0.371
 9294SOL    HW228782   4.823   1.030   0.369
 9295SOL     OW28783   0.775   0.718   5.553
 9295SOL    HW128784   0.861   0.743   5.597
 9295SOL    HW228785   0.786   0.631   5.504
 9296SOL     OW28786   2.614   4.739   0.785
 9296SOL    HW128787   2.695   4.792   0.761
 9296SOL    HW228788   2.538   4.765   0.725
 9297SOL     OW28789   6.637   6.334   2.638
 9297SOL    HW128790   6.572   6.345   2.563
 9297SOL    HW228791   6.593   6.358   2.724
 9298SOL     OW28792   1.490   6.216   5.975
 9298SOL    HW128793   1.475   6.314   5.964
 9298SOL    HW228794   1.438   6.182   6.054
 9299SOL     OW28795   2.187   2.614   4.878
 9299SOL    HW128796   2.163   2.537   4.819
 9299SOL    HW228797   2.119   2.625   4.950
 9300SOL     OW28798   1.622   5.971   5.626
 9300SOL    HW128799   1.694   6.006   5.565
 9300SOL    HW228800   1.582   6.048   5.677
 9301SOL     OW28801   0.398   4.125   4.534
 9301SOL    HW128802   0.450   4.133   4.619
 9301SOL    HW228803   0.459   4.094   4.460
 9302SOL     OW28804   2.203   3.364   4.657
 9302SOL    HW128805   2.182   3.442   4.716
 9302SOL    HW228806   2.206   3.395   4.562
 9303SOL     OW28807   2.781   4.496   0.680
 9303SOL    HW128808   2.761   4.461   0.771
 9303SOL    HW228809   2.728   4.580   0.665
 9304SOL     OW28810   5.302   5.124   0.130
 9304SOL    HW128811   5.386   5.072   0.114
 9304SOL    HW228812   5.311   5.176   0.215
 9305SOL     OW28813   3.268   1.832   1.131
 9305SOL    HW128814   3.289   1.927   1.155
 9305SOL    HW228815   3.316   1.807   1.047
 9306SOL     OW28816   0.667   4.627   5.025
 9306SOL    HW128817   0.576   4.661   5.049
 9306SOL    HW228818   0.659   4.561   4.951
 9307SOL     OW28819   2.564   2.943   1.451
 9307SOL    HW128820   2.584   2.929   1.548
 9307SOL    HW228821   2.644   2.919   1.396
 9308SOL     OW28822   1.750   4.196   1.567
 9308SOL    HW128823   1.837   4.207   1.615
 9308SOL    HW228824   1.677   4.176   1.633
 9309SOL     OW28825   4.445   5.721   5.033
 9309SOL    HW128826   4.437   5.796   5.098
 9309SOL    HW228827   4.354   5.681   5.017
 9310SOL     OW28828   4.517   6.141   6.176
 9310SOL    HW128829   4.549   6.180   6.090
 9310SOL    HW228830   4.543   6.044   6.181
 9311SOL     OW28831   5.051   3.394   2.017
 9311SOL    HW128832   5.117   3.442   1.960
 9311SOL    HW228833   4.958   3.413   1.984
 9312SOL     OW28834   0.689   2.359   1.172
 9312SOL    HW128835   0.643   2.448   1.165
 9312SOL    HW228836   0.773   2.361   1.117
 9313SOL     OW28837   1.182   6.844   1.953
 9313SOL    HW128838   1.263   6.863   1.898
 9313SOL    HW228839   1.122   6.780   1.904
 9314SOL     OW28840   5.186   2.786   0.721
 9314SOL    HW128841   5.172   2.881   0.749
 9314SOL    HW228842   5.277   2.776   0.681
 9315SOL     OW28843   5.732   0.867   6.555
 9315SOL    HW128844   5.819   0.908   6.584
 9315SOL    HW228845   5.670   0.939   6.525
 9316SOL     OW28846   3.978   1.349   5.523
 9316SOL    HW128847   3.994   1.291   5.603
 9316SOL    HW228848   4.013   1.441   5.541
 9317SOL     OW28849   3.385   5.919   3.557
 9317SOL    HW128850   3.386   5.892   3.653
 9317SOL    HW228851   3.435   6.005   3.546
 9318SOL     OW28852   4.731   5.949   0.937
 9318SOL    HW128853   4.637   5.950   0.971
 9318SOL    HW228854   4.746   6.028   0.878
 9319SOL     OW28855   2.272   4.321   0.763
 9319SOL    HW128856   2.176   4.309   0.789
 9319SOL    HW228857   2.283   4.302   0.665
 9320SOL     OW28858   6.098   6.949   6.209
 9320SOL    HW128859   6.018   6.922   6.155
 9320SOL    HW228860   6.179   6.902   6.175
 9321SOL     OW28861   0.347   3.466   5.339
 9321SOL    HW128862   0.384   3.505   5.423
 9321SOL    HW228863   0.376   3.370   5.331
 9322SOL     OW28864   5.782   4.456   5.653
 9322SOL    HW128865   5.708   4.516   5.684
 9322SOL    HW228866   5.749   4.396   5.580
 9323SOL     OW28867   1.110   3.129   3.372
 9323SOL    HW128868   1.138   3.182   3.452
 9323SOL    HW228869   1.166   3.155   3.293
 9324SOL     OW28870   0.448   3.952   1.404
 9324SOL    HW128871   0.481   3.979   1.494
 9324SOL    HW228872   0.443   4.032   1.345
 9325SOL     OW28873   1.404   5.229   2.471
 9325SOL    HW128874   1.447   5.153   2.423
 9325SOL    HW228875   1.441   5.236   2.563
 9326SOL     OW28876   4.227   3.979   0.435
 9326SOL    HW128877   4.252   3.896   0.485
 9326SOL    HW228878   4.309   4.022   0.399
 9327SOL     OW28879   4.322   0.854   3.107
 9327SOL    HW128880   4.242   0.824   3.056
 9327SOL    HW228881   4.294   0.912   3.183
 9328SOL     OW28882   2.830   6.383   4.391
 9328SOL    HW128883   2.930   6.385   4.392
 9328SOL    HW228884   2.795   6.388   4.484
 9329SOL     OW28885   0.522   6.218   6.117
 9329SOL    HW128886   0.601   6.196   6.174
 9329SOL    HW228887   0.552   6.273   6.038
 9330SOL     OW28888   5.818   6.616   6.136
 9330SOL    HW128889   5.726   6.618   6.095
 9330SOL    HW228890   5.876   6.554   6.084
 9331SOL     OW28891   1.774   3.619   4.869
 9331SOL    HW128892   1.749   3.523   4.852
 9331SOL    HW228893   1.807   3.629   4.963
 9332SOL     OW28894   4.823   5.348   0.720
 9332SOL    HW128895   4.893   5.419   0.733
 9332SOL    HW228896   4.803   5.339   0.622
 9333SOL     OW28897   3.605   5.088   0.487
 9333SOL    HW128898   3.523   5.046   0.524
 9333SOL    HW228899   3.671   5.017   0.463
 9334SOL     OW28900   4.807   6.420   5.627
 9334SOL    HW128901   4.835   6.404   5.722
 9334SOL    HW228902   4.729   6.482   5.625
 9335SOL     OW28903   2.336   2.208   1.556
 9335SOL    HW128904   2.417   2.224   1.612
 9335SOL    HW228905   2.360   2.148   1.479
 9336SOL     OW28906   6.517   1.122   5.055
 9336SOL    HW128907   6.504   1.123   5.154
 9336SOL    HW228908   6.591   1.058   5.032
 9337SOL     OW28909   3.966   0.234   5.906
 9337SOL    HW128910   3.915   0.279   5.980
 9337SOL    HW228911   3.942   0.137   5.903
 9338SOL     OW28912   6.499   6.010   7.021
 9338SOL    HW128913   6.594   6.026   0.025
 9338SOL    HW228914   6.444   6.091   0.018
 9339SOL     OW28915   6.444   4.912   5.615
 9339SOL    HW128916   6.499   4.848   5.670
 9339SOL    HW228917   6.373   4.861   5.567
 9340SOL     OW28918   3.544   6.172   2.218
 9340SOL    HW128919   3.515   6.083   2.182
 9340SOL    HW228920   3.574   6.162   2.313
 9341SOL     OW28921   5.148   4.224   6.870
 9341SOL    HW128922   5.076   4.159   6.845
 9341SOL    HW228923   5.238   4.181   6.856
 9342SOL     OW28924   3.030   0.150   4.063
 9342SOL    HW128925   3.089   0.226   4.092
 9342SOL    HW228926   2.940   0.160   4.106
 9343SOL     OW28927   4.769   4.395   2.041
 9343SOL    HW128928   4.670   4.382   2.045
 9343SOL    HW228929   4.811   4.360   2.125
 9344SOL     OW28930   6.407   5.313   5.261
 9344SOL    HW128931   6.427   5.322   5.358
 9344SOL    HW228932   6.311   5.334   5.244
 9345SOL     OW28933   0.178   5.906   0.105
 9345SOL    HW128934   0.084   5.923   0.137
 9345SOL    HW228935   0.242   5.921   0.180
 9346SOL     OW28936   5.742   6.605   1.964
 9346SOL    HW128937   5.792   6.526   2.000
 9346SOL    HW228938   5.644   6.589   1.972
 9347SOL     OW28939   4.266   5.509   0.687
 9347SOL    HW128940   4.321   5.530   0.605
 9347SOL    HW228941   4.228   5.594   0.723
 9348SOL     OW28942   2.471   6.034   2.632
 9348SOL    HW128943   2.386   6.053   2.680
 9348SOL    HW228944   2.458   5.957   2.569
 9349SOL     OW28945   6.326   5.148   1.681
 9349SOL    HW128946   6.412   5.199   1.674
 9349SOL    HW228947   6.272   5.184   1.757
 9350SOL     OW28948   7.005   1.079   4.780
 9350SOL    HW128949   6.949   1.161   4.793
 9350SOL    HW228950   0.013   1.047   4.869
 9351SOL     OW28951   3.326   0.795   5.769
 9351SOL    HW128952   3.399   0.735   5.802
 9351SOL    HW228953   3.248   0.740   5.739
 9352SOL     OW28954   2.838   2.421   5.908
 9352SOL    HW128955   2.794   2.399   5.820
 9352SOL    HW228956   2.799   2.364   5.980
 9353SOL     OW28957   1.375   3.876   1.602
 9353SOL    HW128958   1.389   3.787   1.645
 9353SOL    HW228959   1.278   3.897   1.599
 9354SOL     OW28960   6.359   2.157   1.285
 9354SOL    HW128961   6.294   2.097   1.239
 9354SOL    HW228962   6.324   2.251   1.286
 9355SOL     OW28963   6.999   0.110   4.109
 9355SOL    HW128964   6.956   0.176   4.048
 9355SOL    HW228965   6.932   0.040   4.135
 9356SOL     OW28966   4.117   5.307   1.795
 9356SOL    HW128967   4.051   5.308   1.870
 9356SOL    HW228968   4.125   5.399   1.758
 9357SOL     OW28969   2.853   2.998   0.738
 9357SOL    HW128970   2.770   2.996   0.682
 9357SOL    HW228971   2.836   3.054   0.820
 9358SOL     OW28972   6.361   4.233   1.868
 9358SOL    HW128973   6.427   4.308   1.858
 9358SOL    HW228974   6.286   4.245   1.803
 9359SOL     OW28975   6.990   4.280   6.421
 9359SOL    HW128976   6.960   4.241   6.508
 9359SOL    HW228977   6.921   4.345   6.388
 9360SOL     OW28978   2.212   0.381   5.736
 9360SOL    HW128979   2.273   0.365   5.814
 9360SOL    HW228980   2.262   0.366   5.651
 9361SOL     OW28981   2.902   5.804   2.590
 9361SOL    HW128982   2.887   5.718   2.541
 9361SOL    HW228983   2.995   5.836   2.574
 9362SOL     OW28984   2.467   1.152   2.192
 9362SOL    HW128985   2.516   1.068   2.170
 9362SOL    HW228986   2.401   1.173   2.120
 9363SOL     OW28987   3.612   5.843   2.709
 9363SOL    HW128988   3.562   5.898   2.642
 9363SOL    HW228989   3.557   5.764   2.735
 9364SOL     OW28990   4.252   3.043   6.483
 9364SOL    HW128991   4.343   3.070   6.452
 9364SOL    HW228992   4.249   2.944   6.496
 9365SOL     OW28993   2.701   2.093   4.962
 9365SOL    HW128994   2.781   2.086   4.903
 9365SOL    HW228995   2.634   2.024   4.936
 9366SOL     OW28996   3.217   1.992   0.588
 9366SOL    HW128997   3.180   2.015   0.498
 9366SOL    HW228998   3.232   1.893   0.594
 9367SOL     OW28999   6.456   5.684   3.600
 9367SOL    HW129000   6.434   5.624   3.676
 9367SOL    HW229001   6.555   5.691   3.591
 9368SOL     OW29002   3.282   1.902   1.867
 9368SOL    HW129003   3.237   1.928   1.782
 9368SOL    HW229004   3.361   1.843   1.847
 9369SOL     OW29005   6.457   1.693   5.705
 9369SOL    HW129006   6.504   1.629   5.766
 9369SOL    HW229007   6.479   1.671   5.610
 9370SOL     OW29008   5.984   0.938   2.882
 9370SOL    HW129009   5.999   0.854   2.934
 9370SOL    HW229010   6.072   0.977   2.856
 9371SOL     OW29011   1.103   5.455   0.255
 9371SOL    HW129012   1.005   5.441   0.237
 9371SOL    HW229013   1.120   5.444   0.353
 9372SOL     OW29014   5.653   6.626   3.391
 9372SOL    HW129015   5.611   6.635   3.301
 9372SOL    HW229016   5.581   6.624   3.461
 9373SOL     OW29017   4.198   1.653   3.275
 9373SOL    HW129018   4.133   1.630   3.203
 9373SOL    HW229019   4.291   1.648   3.239
 9374SOL     OW29020   5.795   2.863   0.251
 9374SOL    HW129021   5.778   2.791   0.184
 9374SOL    HW229022   5.844   2.938   0.207
 9375SOL     OW29023   6.468   1.055   2.912
 9375SOL    HW129024   6.377   1.063   2.955
 9375SOL    HW229025   6.486   0.959   2.893
 9376SOL     OW29026   3.118   3.705   0.832
 9376SOL    HW129027   3.077   3.702   0.922
 9376SOL    HW229028   3.216   3.722   0.841
 9377SOL     OW29029   6.424   5.541   3.822
 9377SOL    HW129030   6.370   5.517   3.903
 9377SOL    HW229031   6.475   5.462   3.791
 9378SOL     OW29032   2.778   0.119   6.539
 9378SOL    HW129033   2.697   0.175   6.518
 9378SOL    HW229034   2.857   0.178   6.553
 9379SOL     OW29035   4.766   4.245   4.239
 9379SOL    HW129036   4.761   4.173   4.308
 9379SOL    HW229037   4.720   4.327   4.274
 9380SOL     OW29038   0.039   6.190   5.446
 9380SOL    HW129039   0.082   6.271   5.406
 9380SOL    HW229040   7.005   6.146   5.377
 9381SOL     OW29041   2.622   2.937   5.387
 9381SOL    HW129042   2.565   2.953   5.468
 9381SOL    HW229043   2.592   2.997   5.313
 9382SOL     OW29044   4.200   0.395   3.034
 9382SOL    HW129045   4.118   0.398   2.977
 9382SOL    HW229046   4.274   0.351   2.982
 9383SOL     OW29047   3.463   6.768   4.719
 9383SOL    HW129048   3.423   6.775   4.811
 9383SOL    HW229049   3.394   6.730   4.656
 9384SOL     OW29050   4.185   5.822   2.597
 9384SOL    HW129051   4.225   5.832   2.505
 9384SOL    HW229052   4.168   5.913   2.636
 9385SOL     OW29053   3.761   1.412   2.801
 9385SOL    HW129054   3.696   1.457   2.739
 9385SOL    HW229055   3.776   1.470   2.881
 9386SOL     OW29056   3.557   6.390   4.730
 9386SOL    HW129057   3.532   6.352   4.819
 9386SOL    HW229058   3.646   6.434   4.737
 9387SOL     OW29059   3.535   6.737   1.400
 9387SOL    HW129060   3.591   6.734   1.483
 9387SOL    HW229061   3.512   6.644   1.371
 9388SOL     OW29062   1.321   6.207   2.526
 9388SOL    HW129063   1.230   6.170   2.505
 9388SOL    HW229064   1.343   6.280   2.460
 9389SOL     OW29065   2.417   0.108   5.322
 9389SOL    HW129066   2.339   0.145   5.270
 9389SOL    HW229067   2.455   0.029   5.274
 9390SOL     OW29068   4.085   5.918   3.511
 9390SOL    HW129069   4.032   5.838   3.481
 9390SOL    HW229070   4.109   5.973   3.432
 9391SOL     OW29071   1.922   0.791   5.343
 9391SOL    HW129072   2.004   0.815   5.395
 9391SOL    HW229073   1.850   0.763   5.406
 9392SOL     OW29074   0.472   6.638   5.138
 9392SOL    HW129075   0.494   6.720   5.085
 9392SOL    HW229076   0.468   6.662   5.235
 9393SOL     OW29077   3.467   1.690   4.808
 9393SOL    HW129078   3.451   1.736   4.721
 9393SOL    HW229079   3.543   1.734   4.856
 9394SOL     OW29080   6.346   2.545   3.255
 9394SOL    HW129081   6.439   2.549   3.217
 9394SOL    HW229082   6.315   2.637   3.277
 9395SOL     OW29083   2.647   2.224   0.415
 9395SOL    HW129084   2.695   2.200   0.500
 9395SOL    HW229085   2.597   2.310   0.428
 9396SOL     OW29086   6.790   6.568   4.645
 9396SOL    HW129087   6.881   6.545   4.679
 9396SOL    HW229088   6.769   6.511   4.566
 9397SOL     OW29089   2.465   0.482   0.623
 9397SOL    HW129090   2.532   0.549   0.590
 9397SOL    HW229091   2.458   0.408   0.556
 9398SOL     OW29092   2.253   0.860   0.005
 9398SOL    HW129093   2.301   0.808   0.075
 9398SOL    HW229094   2.197   0.931   0.049
 9399SOL     OW29095   6.764   2.207   0.128
 9399SOL    HW129096   6.811   2.296   0.128
 9399SOL    HW229097   6.716   2.195   0.042
 9400SOL     OW29098   5.243   3.574   1.930
 9400SOL    HW129099   5.340   3.573   1.906
 9400SOL    HW229100   5.212   3.668   1.941
 9401SOL     OW29101   2.310   6.670   3.530
 9401SOL    HW129102   2.377   6.633   3.594
 9401SOL    HW229103   2.356   6.697   3.445
 9402SOL     OW29104   2.109   4.569   6.396
 9402SOL    HW129105   2.204   4.548   6.418
 9402SOL    HW229106   2.049   4.500   6.438
 9403SOL     OW29107   4.669   1.723   3.671
 9403SOL    HW129108   4.720   1.710   3.586
 9403SOL    HW229109   4.602   1.797   3.659
 9404SOL     OW29110   0.722   4.932   6.635
 9404SOL    HW129111   0.781   4.889   6.568
 9404SOL    HW229112   0.631   4.890   6.631
 9405SOL     OW29113   6.064   6.738   1.523
 9405SOL    HW129114   6.050   6.757   1.620
 9405SOL    HW229115   6.014   6.655   1.497
 9406SOL     OW29116   0.257   1.757   5.360
 9406SOL    HW129117   0.186   1.715   5.304
 9406SOL    HW229118   0.315   1.816   5.303
 9407SOL     OW29119   3.276   6.872   2.792
 9407SOL    HW129120   3.277   6.972   2.791
 9407SOL    HW229121   3.333   6.837   2.718
 9408SOL     OW29122   3.955   1.204   5.763
 9408SOL    HW129123   3.889   1.131   5.747
 9408SOL    HW229124   3.926   1.258   5.842
 9409SOL     OW29125   4.663   4.344   4.568
 9409SOL    HW129126   4.662   4.414   4.496
 9409SOL    HW229127   4.575   4.345   4.616
 9410SOL     OW29128   3.465   6.310   1.718
 9410SOL    HW129129   3.422   6.311   1.627
 9410SOL    HW229130   3.528   6.232   1.724
 9411SOL     OW29131   3.618   4.977   1.083
 9411SOL    HW129132   3.534   4.961   1.134
 9411SOL    HW229133   3.695   4.980   1.146
 9412SOL     OW29134   1.002   2.651   1.625
 9412SOL    HW129135   0.981   2.744   1.594
 9412SOL    HW229136   1.031   2.654   1.721
 9413SOL     OW29137   4.190   5.682   4.968
 9413SOL    HW129138   4.099   5.724   4.965
 9413SOL    HW229139   4.181   5.584   4.988
 9414SOL     OW29140   2.924   1.610   2.650
 9414SOL    HW129141   2.918   1.551   2.730
 9414SOL    HW229142   2.856   1.684   2.658
 9415SOL     OW29143   1.415   6.669   2.674
 9415SOL    HW129144   1.381   6.687   2.581
 9415SOL    HW229145   1.338   6.658   2.736
 9416SOL     OW29146   0.757   1.204   1.505
 9416SOL    HW129147   0.778   1.205   1.603
 9416SOL    HW229148   0.837   1.232   1.453
 9417SOL     OW29149   3.264   6.974   5.572
 9417SOL    HW129150   3.352   6.965   5.620
 9417SOL    HW229151   3.281   7.008   5.480
 9418SOL     OW29152   2.356   6.175   1.009
 9418SOL    HW129153   2.371   6.083   0.974
 9418SOL    HW229154   2.263   6.182   1.046
 9419SOL     OW29155   3.471   6.830   5.132
 9419SOL    HW129156   3.513   6.741   5.113
 9419SOL    HW229157   3.516   6.900   5.076
 9420SOL     OW29158   0.209   1.516   4.690
 9420SOL    HW129159   0.188   1.463   4.772
 9420SOL    HW229160   0.124   1.552   4.651
 9421SOL     OW29161   2.261   5.856   5.388
 9421SOL    HW129162   2.202   5.862   5.308
 9421SOL    HW229163   2.210   5.885   5.469
 9422SOL     OW29164   5.276   0.257   2.441
 9422SOL    HW129165   5.252   0.319   2.516
 9422SOL    HW229166   5.196   0.201   2.418
 9423SOL     OW29167   4.397   0.266   2.904
 9423SOL    HW129168   4.348   0.191   2.861
 9423SOL    HW229169   4.441   0.322   2.833
 9424SOL     OW29170   5.307   0.603   5.722
 9424SOL    HW129171   5.376   0.643   5.783
 9424SOL    HW229172   5.228   0.664   5.716
 9425SOL     OW29173   0.477   3.067   5.912
 9425SOL    HW129174   0.496   3.162   5.886
 9425SOL    HW229175   0.448   3.064   6.008
 9426SOL     OW29176   2.898   1.492   0.515
 9426SOL    HW129177   2.939   1.443   0.591
 9426SOL    HW229178   2.814   1.445   0.487
 9427SOL     OW29179   2.912   4.713   5.358
 9427SOL    HW129180   2.881   4.642   5.295
 9427SOL    HW229181   2.856   4.795   5.345
 9428SOL     OW29182   5.615   0.067   2.629
 9428SOL    HW129183   5.685   0.138   2.622
 9428SOL    HW229184   5.593   0.032   2.538
 9429SOL     OW29185   1.555   3.689   2.200
 9429SOL    HW129186   1.457   3.671   2.191
 9429SOL    HW229187   1.569   3.785   2.225
 9430SOL     OW29188   6.702   6.505   1.743
 9430SOL    HW129189   6.771   6.547   1.684
 9430SOL    HW229190   6.623   6.565   1.749
 9431SOL     OW29191   5.988   4.057   0.137
 9431SOL    HW129192   5.951   3.996   0.067
 9431SOL    HW229193   5.950   4.033   0.226
 9432SOL     OW29194   6.241   0.116   4.006
 9432SOL    HW129195   6.251   0.017   3.998
 9432SOL    HW229196   6.180   0.137   4.083
 9433SOL     OW29197   3.271   4.960   4.457
 9433SOL    HW129198   3.229   5.050   4.469
 9433SOL    HW229199   3.320   4.935   4.540
 9434SOL     OW29200   5.560   4.033   3.545
 9434SOL    HW129201   5.568   3.962   3.475
 9434SOL    HW229202   5.640   4.093   3.541
 9435SOL     OW29203   1.245   1.056   4.535
 9435SOL    HW129204   1.190   1.079   4.455
 9435SOL    HW229205   1.193   0.993   4.593
 9436SOL     OW29206   1.215   3.419   1.520
 9436SOL    HW129207   1.315   3.416   1.513
 9436SOL    HW229208   1.190   3.461   1.608
 9437SOL     OW29209   1.223   6.145   3.165
 9437SOL    HW129210   1.131   6.160   3.129
 9437SOL    HW229211   1.290   6.193   3.108
 9438SOL     OW29212   0.813   6.525   1.177
 9438SOL    HW129213   0.852   6.533   1.085
 9438SOL    HW229214   0.809   6.428   1.202
 9439SOL     OW29215   0.061   3.160   2.272
 9439SOL    HW129216   0.034   3.077   2.321
 9439SOL    HW229217   0.114   3.135   2.191
 9440SOL     OW29218   4.911   5.481   5.070
 9440SOL    HW129219   4.833   5.540   5.052
 9440SOL    HW229220   4.968   5.474   4.989
 9441SOL     OW29221   1.352   5.302   5.334
 9441SOL    HW129222   1.389   5.262   5.418
 9441SOL    HW229223   1.273   5.249   5.305
 9442SOL     OW29224   6.588   1.584   6.900
 9442SOL    HW129225   6.517   1.515   6.880
 9442SOL    HW229226   6.551   1.653   6.961
 9443SOL     OW29227   2.186   4.366   1.637
 9443SOL    HW129228   2.130   4.285   1.655
 9443SOL    HW229229   2.156   4.410   1.553
 9444SOL     OW29230   0.404   3.266   0.332
 9444SOL    HW129231   0.377   3.349   0.382
 9444SOL    HW229232   0.445   3.292   0.245
 9445SOL     OW29233   5.079   3.190   2.186
 9445SOL    HW129234   5.058   3.260   2.117
 9445SOL    HW229235   5.040   3.103   2.157
 9446SOL     OW29236   6.363   6.701   3.124
 9446SOL    HW129237   6.357   6.680   3.026
 9446SOL    HW229238   6.420   6.783   3.136
 9447SOL     OW29239   5.656   3.625   3.258
 9447SOL    HW129240   5.658   3.555   3.186
 9447SOL    HW229241   5.747   3.662   3.271
 9448SOL     OW29242   5.084   5.860   6.247
 9448SOL    HW129243   5.106   5.880   6.342
 9448SOL    HW229244   4.989   5.829   6.239
 9449SOL     OW29245   6.860   5.688   5.605
 9449SOL    HW129246   6.939   5.627   5.603
 9449SOL    HW229247   6.819   5.685   5.697
 9450SOL     OW29248   2.720   4.759   4.831
 9450SOL    HW129249   2.779   4.828   4.790
 9450SOL    HW229250   2.776   4.692   4.880
 9451SOL     OW29251   4.630   5.678   6.029
 9451SOL    HW129252   4.617   5.634   6.118
 9451SOL    HW229253   4.724   5.713   6.023
 9452SOL     OW29254   1.880   3.428   0.426
 9452SOL    HW129255   1.833   3.509   0.392
 9452SOL    HW229256   1.820   3.349   0.420
 9453SOL     OW29257   1.455   3.754   3.153
 9453SOL    HW129258   1.550   3.758   3.186
 9453SOL    HW229259   1.454   3.733   3.056
 9454SOL     OW29260   1.576   3.738   5.938
 9454SOL    HW129261   1.648   3.670   5.954
 9454SOL    HW229262   1.582   3.772   5.844
 9455SOL     OW29263   3.562   1.151   2.559
 9455SOL    HW129264   3.616   1.211   2.501
 9455SOL    HW229265   3.561   1.186   2.653
 9456SOL     OW29266   0.160   4.362   0.965
 9456SOL    HW129267   0.222   4.341   0.889
 9456SOL    HW229268   0.198   4.325   1.049
 9457SOL     OW29269   1.197   3.811   6.319
 9457SOL    HW129270   1.238   3.800   6.409
 9457SOL    HW229271   1.268   3.805   6.249
 9458SOL     OW29272   0.872   4.803   6.426
 9458SOL    HW129273   0.913   4.857   6.353
 9458SOL    HW229274   0.799   4.745   6.389
 9459SOL     OW29275   6.743   5.183   1.916
 9459SOL    HW129276   6.708   5.172   1.823
 9459SOL    HW229277   6.743   5.094   1.962
 9460SOL     OW29278   0.124   2.242   5.327
 9460SOL    HW129279   0.100   2.150   5.296
 9460SOL    HW229280   0.041   2.291   5.354
 9461SOL     OW29281   6.476   1.645   3.144
 9461SOL    HW129282   6.452   1.689   3.057
 9461SOL    HW229283   6.568   1.607   3.137
 9462SOL     OW29284   1.658   3.387   3.365
 9462SOL    HW129285   1.587   3.351   3.426
 9462SOL    HW229286   1.723   3.441   3.419
 9463SOL     OW29287   0.172   0.417   1.005
 9463SOL    HW129288   0.172   0.516   1.023
 9463SOL    HW229289   0.080   0.388   0.978
 9464SOL     OW29290   5.525   6.906   6.330
 9464SOL    HW129291   5.610   6.954   6.306
 9464SOL    HW229292   5.520   6.894   6.429
 9465SOL     OW29293   6.762   0.197   3.162
 9465SOL    HW129294   6.716   0.273   3.116
 9465SOL    HW229295   6.753   0.207   3.261
 9466SOL     OW29296   3.469   3.534   5.358
 9466SOL    HW129297   3.486   3.632   5.350
 9466SOL    HW229298   3.392   3.509   5.299
 9467SOL     OW29299   1.648   2.827   1.304
 9467SOL    HW129300   1.659   2.752   1.369
 9467SOL    HW229301   1.574   2.887   1.335
 9468SOL     OW29302   5.750   2.772   6.176
 9468SOL    HW129303   5.723   2.680   6.202
 9468SOL    HW229304   5.676   2.836   6.197
 9469SOL     OW29305   5.960   5.441   1.929
 9469SOL    HW129306   5.867   5.411   1.907
 9469SOL    HW229307   5.957   5.499   2.010
 9470SOL     OW29308   5.057   3.090   6.678
 9470SOL    HW129309   4.979   3.029   6.669
 9470SOL    HW229310   5.136   3.049   6.632
 9471SOL     OW29311   6.897   2.346   5.624
 9471SOL    HW129312   6.905   2.275   5.694
 9471SOL    HW229313   6.880   2.303   5.535
 9472SOL     OW29314   6.585   3.644   4.157
 9472SOL    HW129315   6.531   3.650   4.241
 9472SOL    HW229316   6.678   3.678   4.175
 9473SOL     OW29317   3.924   6.667   5.312
 9473SOL    HW129318   3.839   6.645   5.358
 9473SOL    HW229319   3.905   6.712   5.224
 9474SOL     OW29320   5.905   4.544   1.873
 9474SOL    HW129321   5.918   4.617   1.940
 9474SOL    HW229322   5.842   4.576   1.802
 9475SOL     OW29323   3.390   3.254   0.983
 9475SOL    HW129324   3.375   3.156   0.966
 9475SOL    HW229325   3.305   3.304   0.968
 9476SOL     OW29326   2.907   3.452   4.414
 9476SOL    HW129327   2.887   3.543   4.452
 9476SOL    HW229328   2.880   3.382   4.480
 9477SOL     OW29329   0.973   3.286   1.572
 9477SOL    HW129330   0.948   3.358   1.636
 9477SOL    HW229331   1.053   3.314   1.520
 9478SOL     OW29332   5.558   4.228   6.125
 9478SOL    HW129333   5.514   4.295   6.183
 9478SOL    HW229334   5.592   4.273   6.042
 9479SOL     OW29335   5.948   6.207   6.415
 9479SOL    HW129336   5.988   6.218   6.324
 9479SOL    HW229337   5.854   6.239   6.414
 9480SOL     OW29338   4.470   4.423   6.481
 9480SOL    HW129339   4.536   4.455   6.550
 9480SOL    HW229340   4.517   4.413   6.393
 9481SOL     OW29341   6.031   3.787   1.465
 9481SOL    HW129342   6.080   3.857   1.516
 9481SOL    HW229343   5.935   3.814   1.455
 9482SOL     OW29344   6.036   0.781   3.110
 9482SOL    HW129345   6.130   0.797   3.138
 9482SOL    HW229346   5.979   0.765   3.190
 9483SOL     OW29347   1.891   1.636   1.069
 9483SOL    HW129348   1.800   1.654   1.032
 9483SOL    HW229349   1.886   1.561   1.134
 9484SOL     OW29350   5.590   1.715   3.562
 9484SOL    HW129351   5.514   1.689   3.620
 9484SOL    HW229352   5.567   1.797   3.510
 9485SOL     OW29353   1.107   0.108   1.577
 9485SOL    HW129354   1.133   0.166   1.499
 9485SOL    HW229355   1.052   0.032   1.544
 9486SOL     OW29356   2.245   5.252   1.053
 9486SOL    HW129357   2.216   5.163   1.088
 9486SOL    HW229358   2.166   5.300   1.014
 9487SOL     OW29359   2.913   3.706   3.318
 9487SOL    HW129360   2.897   3.655   3.234
 9487SOL    HW229361   2.848   3.782   3.324
 9488SOL     OW29362   2.336   6.378   1.214
 9488SOL    HW129363   2.346   6.345   1.120
 9488SOL    HW229364   2.284   6.310   1.267
 9489SOL     OW29365   3.334   4.088   1.045
 9489SOL    HW129366   3.375   4.047   0.964
 9489SOL    HW229367   3.319   4.018   1.115
 9490SOL     OW29368   5.618   6.933   0.824
 9490SOL    HW129369   5.628   0.003   0.792
 9490SOL    HW229370   5.526   6.920   0.861
 9491SOL     OW29371   6.748   4.577   4.952
 9491SOL    HW129372   6.660   4.606   4.915
 9491SOL    HW229373   6.740   4.562   5.050
 9492SOL     OW29374   3.194   3.532   2.510
 9492SOL    HW129375   3.230   3.557   2.419
 9492SOL    HW229376   3.253   3.462   2.551
 9493SOL     OW29377   4.805   5.141   3.818
 9493SOL    HW129378   4.824   5.239   3.820
 9493SOL    HW229379   4.706   5.127   3.817
 9494SOL     OW29380   5.058   4.140   0.681
 9494SOL    HW129381   4.968   4.150   0.724
 9494SOL    HW229382   5.119   4.091   0.743
 9495SOL     OW29383   6.515   2.174   4.307
 9495SOL    HW129384   6.561   2.120   4.237
 9495SOL    HW229385   6.522   2.128   4.395
 9496SOL     OW29386   5.100   4.753   6.987
 9496SOL    HW129387   5.032   4.787   6.922
 9496SOL    HW229388   5.154   4.681   6.944
 9497SOL     OW29389   4.517   4.021   0.812
 9497SOL    HW129390   4.428   4.056   0.783
 9497SOL    HW229391   4.515   3.921   0.811
 9498SOL     OW29392   5.403   0.475   5.970
 9498SOL    HW129393   5.490   0.453   6.014
 9498SOL    HW229394   5.398   0.433   5.880
 9499SOL     OW29395   2.022   3.631   5.288
 9499SOL    HW129396   2.095   3.699   5.298
 9499SOL    HW229397   2.063   3.542   5.267
 9500SOL     OW29398   3.360   6.674   1.845
 9500SOL    HW129399   3.359   6.769   1.815
 9500SOL    HW229400   3.281   6.656   1.904
 9501SOL     OW29401   3.180   1.664   4.847
 9501SOL    HW129402   3.141   1.692   4.759
 9501SOL    HW229403   3.263   1.610   4.831
 9502SOL     OW29404   0.307   2.175   5.145
 9502SOL    HW129405   0.299   2.274   5.133
 9502SOL    HW229406   0.252   2.146   5.223
 9503SOL     OW29407   0.453   0.870   1.187
 9503SOL    HW129408   0.539   0.907   1.219
 9503SOL    HW229409   0.386   0.870   1.261
 9504SOL     OW29410   6.515   2.368   0.692
 9504SOL    HW129411   6.436   2.308   0.704
 9504SOL    HW229412   6.525   2.390   0.595
 9505SOL     OW29413   5.748   3.638   3.663
 9505SOL    HW129414   5.698   3.571   3.609
 9505SOL    HW229415   5.847   3.626   3.649
 9506SOL     OW29416   0.444   3.214   6.755
 9506SOL    HW129417   0.375   3.190   6.824
 9506SOL    HW229418   0.535   3.194   6.791
 9507SOL     OW29419   2.209   1.077   4.197
 9507SOL    HW129420   2.302   1.041   4.204
 9507SOL    HW229421   2.178   1.109   4.287
 9508SOL     OW29422   5.813   2.367   0.503
 9508SOL    HW129423   5.886   2.367   0.572
 9508SOL    HW229424   5.749   2.440   0.522
 9509SOL     OW29425   1.521   6.675   5.535
 9509SOL    HW129426   1.464   6.603   5.496
 9509SOL    HW229427   1.465   6.756   5.552
 9510SOL     OW29428   0.571   4.011   1.637
 9510SOL    HW129429   0.617   4.022   1.549
 9510SOL    HW229430   0.620   3.944   1.692
 9511SOL     OW29431   0.698   2.199   6.932
 9511SOL    HW129432   0.667   2.142   6.856
 9511SOL    HW229433   0.681   2.150   7.018
 9512SOL     OW29434   6.131   2.049   3.643
 9512SOL    HW129435   6.168   2.108   3.715
 9512SOL    HW229436   6.112   1.958   3.682
 9513SOL     OW29437   1.929   3.250   4.640
 9513SOL    HW129438   1.942   3.166   4.586
 9513SOL    HW229439   2.017   3.295   4.653
 9514SOL     OW29440   1.496   4.060   0.047
 9514SOL    HW129441   1.571   3.994   0.044
 9514SOL    HW229442   1.419   4.026   7.017
 9515SOL     OW29443   1.314   5.639   7.014
 9515SOL    HW129444   1.260   5.564   0.030
 9515SOL    HW229445   1.388   5.602   6.959
 9516SOL     OW29446   4.967   3.275   4.483
 9516SOL    HW129447   5.043   3.340   4.477
 9516SOL    HW229448   4.902   3.293   4.409
 9517SOL     OW29449   1.471   4.786   0.550
 9517SOL    HW129450   1.492   4.855   0.481
 9517SOL    HW229451   1.555   4.759   0.597
 9518SOL     OW29452   1.925   2.460   6.618
 9518SOL    HW129453   1.896   2.433   6.526
 9518SOL    HW229454   1.846   2.494   6.669
 9519SOL     OW29455   3.093   3.482   2.842
 9519SOL    HW129456   3.064   3.419   2.914
 9519SOL    HW229457   3.013   3.527   2.803
 9520SOL     OW29458   6.403   1.150   4.190
 9520SOL    HW129459   6.446   1.202   4.264
 9520SOL    HW229460   6.387   1.056   4.221
 9521SOL     OW29461   3.367   4.926   1.229
 9521SOL    HW129462   3.330   4.835   1.210
 9521SOL    HW229463   3.383   4.936   1.327
 9522SOL     OW29464   4.387   5.400   2.570
 9522SOL    HW129465   4.296   5.417   2.533
 9522SOL    HW229466   4.455   5.455   2.520
 9523SOL     OW29467   2.393   5.504   5.137
 9523SOL    HW129468   2.416   5.558   5.218
 9523SOL    HW229469   2.402   5.560   5.055
 9524SOL     OW29470   1.796   3.238   1.373
 9524SOL    HW129471   1.801   3.152   1.324
 9524SOL    HW229472   1.880   3.290   1.360
 9525SOL     OW29473   1.725   1.492   6.014
 9525SOL    HW129474   1.806   1.522   5.963
 9525SOL    HW229475   1.754   1.447   6.099
 9526SOL     OW29476   5.762   5.034   0.684
 9526SOL    HW129477   5.783   5.124   0.722
 9526SOL    HW229478   5.669   5.008   0.707
 9527SOL     OW29479   2.806   0.109   4.234
 9527SOL    HW129480   2.720   0.140   4.274
 9527SOL    HW229481   2.821   0.013   4.257
 9528SOL     OW29482   6.473   1.707   1.394
 9528SOL    HW129483   6.393   1.746   1.440
 9528SOL    HW229484   6.476   1.608   1.411
 9529SOL     OW29485   5.577   3.849   1.232
 9529SOL    HW129486   5.538   3.769   1.278
 9529SOL    HW229487   5.677   3.847   1.241
 9530SOL     OW29488   0.866   4.836   4.052
 9530SOL    HW129489   0.965   4.846   4.043
 9530SOL    HW229490   0.847   4.776   4.129
 9531SOL     OW29491   4.082   5.018   3.279
 9531SOL    HW129492   4.121   4.926   3.276
 9531SOL    HW229493   4.123   5.073   3.207
 9532SOL     OW29494   6.356   4.677   1.342
 9532SOL    HW129495   6.359   4.686   1.242
 9532SOL    HW229496   6.443   4.706   1.380
 9533SOL     OW29497   0.752   5.250   3.758
 9533SOL    HW129498   0.749   5.309   3.677
 9533SOL    HW229499   0.733   5.305   3.839
 9534SOL     OW29500   5.974   4.254   5.195
 9534SOL    HW129501   5.971   4.237   5.097
 9534SOL    HW229502   6.027   4.336   5.214
 9535SOL     OW29503   2.191   1.569   5.988
 9535SOL    HW129504   2.191   1.665   6.017
 9535SOL    HW229505   2.196   1.509   6.068
 9536SOL     OW29506   3.610   3.250   5.217
 9536SOL    HW129507   3.556   3.321   5.172
 9536SOL    HW229508   3.549   3.186   5.263
 9537SOL     OW29509   2.639   1.902   4.348
 9537SOL    HW129510   2.683   1.958   4.277
 9537SOL    HW229511   2.555   1.862   4.311
 9538SOL     OW29512   4.714   1.282   4.293
 9538SOL    HW129513   4.791   1.318   4.241
 9538SOL    HW229514   4.652   1.232   4.232
 9539SOL     OW29515   2.857   3.470   3.964
 9539SOL    HW129516   2.815   3.546   4.015
 9539SOL    HW229517   2.953   3.490   3.949
 9540SOL     OW29518   4.681   5.696   4.136
 9540SOL    HW129519   4.780   5.700   4.122
 9540SOL    HW229520   4.635   5.741   4.059
 9541SOL     OW29521   1.409   0.663   5.569
 9541SOL    HW129522   1.349   0.610   5.628
 9541SOL    HW229523   1.500   0.622   5.568
 9542SOL     OW29524   5.377   5.118   4.760
 9542SOL    HW129525   5.295   5.159   4.721
 9542SOL    HW229526   5.452   5.123   4.694
 9543SOL     OW29527   3.237   0.363   5.911
 9543SOL    HW129528   3.180   0.437   5.946
 9543SOL    HW229529   3.213   0.345   5.816
 9544SOL     OW29530   5.095   3.489   3.977
 9544SOL    HW129531   5.086   3.389   3.982
 9544SOL    HW229532   5.008   3.529   3.948
 9545SOL     OW29533   6.769   5.168   2.357
 9545SOL    HW129534   6.811   5.254   2.384
 9545SOL    HW229535   6.820   5.128   2.281
 9546SOL     OW29536   3.886   1.711   5.577
 9546SOL    HW129537   3.975   1.720   5.532
 9546SOL    HW229538   3.835   1.797   5.567
 9547SOL     OW29539   2.501   5.599   4.095
 9547SOL    HW129540   2.535   5.680   4.048
 9547SOL    HW229541   2.471   5.531   4.028
 9548SOL     OW29542   0.802   5.519   4.644
 9548SOL    HW129543   0.782   5.426   4.610
 9548SOL    HW229544   0.887   5.517   4.697
 9549SOL     OW29545   2.916   0.592   2.217
 9549SOL    HW129546   2.971   0.561   2.294
 9549SOL    HW229547   2.950   0.681   2.184
 9550SOL     OW29548   6.377   2.048   0.652
 9550SOL    HW129549   6.468   2.039   0.611
 9550SOL    HW229550   6.310   2.063   0.580
 9551SOL     OW29551   6.296   3.662   5.894
 9551SOL    HW129552   6.364   3.590   5.907
 9551SOL    HW229553   6.204   3.623   5.907
 9552SOL     OW29554   2.445   6.569   6.170
 9552SOL    HW129555   2.504   6.517   6.108
 9552SOL    HW229556   2.485   6.659   6.187
 9553SOL     OW29557   5.388   2.465   6.653
 9553SOL    HW129558   5.412   2.562   6.664
 9553SOL    HW229559   5.416   2.415   6.735
 9554SOL     OW29560   1.676   6.708   4.056
 9554SOL    HW129561   1.706   6.803   4.068
 9554SOL    HW229562   1.639   6.695   3.965
 9555SOL     OW29563   0.394   1.367   3.365
 9555SOL    HW129564   0.442   1.452   3.389
 9555SOL    HW229565   0.320   1.388   3.301
 9556SOL     OW29566   1.987   3.933   1.208
 9556SOL    HW129567   1.912   3.992   1.238
 9556SOL    HW229568   1.982   3.846   1.256
 9557SOL     OW29569   5.287   0.021   1.702
 9557SOL    HW129570   5.372   6.992   1.704
 9557SOL    HW229571   5.307   0.116   1.680
 9558SOL     OW29572   5.384   6.011   5.769
 9558SOL    HW129573   5.332   5.988   5.851
 9558SOL    HW229574   5.408   5.928   5.719
 9559SOL     OW29575   1.308   3.750   6.958
 9559SOL    HW129576   1.404   3.722   6.957
 9559SOL    HW229577   1.259   3.704   6.883
 9560SOL     OW29578   2.748   0.932   2.394
 9560SOL    HW129579   2.823   0.999   2.390
 9560SOL    HW229580   2.782   0.847   2.433
 9561SOL     OW29581   0.323   0.561   1.371
 9561SOL    HW129582   0.280   0.639   1.417
 9561SOL    HW229583   0.254   0.490   1.354
 9562SOL     OW29584   2.575   6.169   4.349
 9562SOL    HW129585   2.491   6.195   4.301
 9562SOL    HW229586   2.645   6.239   4.334
 9563SOL     OW29587   0.220   6.846   6.886
 9563SOL    HW129588   0.141   6.785   6.882
 9563SOL    HW229589   0.243   6.863   6.981
 9564SOL     OW29590   2.348   1.287   1.215
 9564SOL    HW129591   2.283   1.310   1.143
 9564SOL    HW229592   2.400   1.206   1.188
 9565SOL     OW29593   3.456   1.380   5.165
 9565SOL    HW129594   3.459   1.426   5.077
 9565SOL    HW229595   3.378   1.412   5.218
 9566SOL     OW29596   2.592   5.668   0.046
 9566SOL    HW129597   2.549   5.748   0.086
 9566SOL    HW229598   2.533   5.630   6.999
 9567SOL     OW29599   5.677   4.464   0.336
 9567SOL    HW129600   5.592   4.509   0.309
 9567SOL    HW229601   5.740   4.460   0.258
 9568SOL     OW29602   4.156   1.398   0.100
 9568SOL    HW129603   4.182   1.321   0.158
 9568SOL    HW229604   4.101   1.364   0.023
 9569SOL     OW29605   0.242   1.092   2.054
 9569SOL    HW129606   0.223   1.163   2.122
 9569SOL    HW229607   0.327   1.044   2.078
 9570SOL     OW29608   0.091   2.637   0.904
 9570SOL    HW129609   7.018   2.635   0.930
 9570SOL    HW229610   0.144   2.588   0.973
 9571SOL     OW29611   2.829   3.477   5.557
 9571SOL    HW129612   2.806   3.569   5.589
 9571SOL    HW229613   2.835   3.478   5.457
 9572SOL     OW29614   1.538   4.831   2.502
 9572SOL    HW129615   1.513   4.800   2.410
 9572SOL    HW229616   1.561   4.752   2.559
 9573SOL     OW29617   6.992   1.774   6.493
 9573SOL    HW129618   7.020   1.767   6.397
 9573SOL    HW229619   7.020   1.691   6.542
 9574SOL     OW29620   3.390   2.841   2.294
 9574SOL    HW129621   3.298   2.842   2.334
 9574SOL    HW229622   3.457   2.860   2.365
 9575SOL     OW29623   6.756   0.870   1.957
 9575SOL    HW129624   6.807   0.786   1.941
 9575SOL    HW229625   6.667   0.864   1.913
 9576SOL     OW29626   1.773   2.105   0.487
 9576SOL    HW129627   1.799   2.112   0.583
 9576SOL    HW229628   1.845   2.143   0.429
 9577SOL     OW29629   0.769   6.794   5.408
 9577SOL    HW129630   0.687   6.848   5.392
 9577SOL    HW229631   0.790   6.792   5.506
 9578SOL     OW29632   0.981   2.908   2.752
 9578SOL    HW129633   0.945   2.962   2.829
 9578SOL    HW229634   0.934   2.820   2.749
 9579SOL     OW29635   0.027   6.162   3.232
 9579SOL    HW129636   0.003   6.160   3.329
 9579SOL    HW229637   0.003   6.074   3.190
 9580SOL     OW29638   5.106   3.497   1.156
 9580SOL    HW129639   5.189   3.441   1.156
 9580SOL    HW229640   5.032   3.448   1.201
 9581SOL     OW29641   0.374   7.010   6.206
 9581SOL    HW129642   0.463   6.990   6.247
 9581SOL    HW229643   0.315   6.930   6.217
 9582SOL     OW29644   4.027   5.898   4.717
 9582SOL    HW129645   4.000   5.921   4.811
 9582SOL    HW229646   4.125   5.910   4.707
 9583SOL     OW29647   3.013   3.657   1.079
 9583SOL    HW129648   2.978   3.564   1.083
 9583SOL    HW229649   3.068   3.676   1.160
 9584SOL     OW29650   0.583   4.764   6.079
 9584SOL    HW129651   0.551   4.685   6.130
 9584SOL    HW229652   0.609   4.736   5.986
 9585SOL     OW29653   5.261   6.589   3.096
 9585SOL    HW129654   5.228   6.598   3.190
 9585SOL    HW229655   5.359   6.606   3.094
 9586SOL     OW29656   4.568   5.573   2.428
 9586SOL    HW129657   4.505   5.567   2.351
 9586SOL    HW229658   4.604   5.666   2.434
 9587SOL     OW29659   0.943   6.941   1.483
 9587SOL    HW129660   0.973   6.860   1.434
 9587SOL    HW229661   0.898   7.005   1.420
 9588SOL     OW29662   6.122   6.546   0.347
 9588SOL    HW129663   6.093   6.638   0.320
 9588SOL    HW229664   6.054   6.479   0.317
 9589SOL     OW29665   1.709   4.189   6.937
 9589SOL    HW129666   1.628   4.168   6.992
 9589SOL    HW229667   1.746   4.277   6.964
 9590SOL     OW29668   6.112   2.688   1.640
 9590SOL    HW129669   6.181   2.649   1.578
 9590SOL    HW229670   6.109   2.634   1.724
 9591SOL     OW29671   3.418   5.352   5.939
 9591SOL    HW129672   3.364   5.271   5.914
 9591SOL    HW229673   3.360   5.433   5.934
 9592SOL     OW29674   3.375   4.562   0.746
 9592SOL    HW129675   3.465   4.586   0.710
 9592SOL    HW229676   3.304   4.608   0.692
 9593SOL     OW29677   0.966   1.149   6.236
 9593SOL    HW129678   0.883   1.140   6.291
 9593SOL    HW229679   0.983   1.246   6.218
 9594SOL     OW29680   2.423   5.472   4.350
 9594SOL    HW129681   2.492   5.480   4.422
 9594SOL    HW229682   2.456   5.520   4.268
 9595SOL     OW29683   0.378   2.465   4.133
 9595SOL    HW129684   0.403   2.387   4.190
 9595SOL    HW229685   0.343   2.539   4.190
 9596SOL     OW29686   0.641   5.082   7.018
 9596SOL    HW129687   0.600   5.010   6.962
 9596SOL    HW229688   0.655   5.048   0.087
 9597SOL     OW29689   0.012   3.977   1.510
 9597SOL    HW129690   0.079   3.963   1.583
 9597SOL    HW229691   6.969   3.902   1.511
 9598SOL     OW29692   1.971   4.454   3.439
 9598SOL    HW129693   2.010   4.516   3.370
 9598SOL    HW229694   1.983   4.360   3.410
 9599SOL     OW29695   3.052   0.481   3.840
 9599SOL    HW129696   3.005   0.393   3.849
 9599SOL    HW229697   3.097   0.503   3.927
 9600SOL     OW29698   3.122   0.332   6.965
 9600SOL    HW129699   3.100   0.420   6.923
 9600SOL    HW229700   3.124   0.261   6.895
 9601SOL     OW29701   5.355   4.674   0.154
 9601SOL    HW129702   5.420   4.693   0.081
 9601SOL    HW229703   5.263   4.701   0.125
 9602SOL     OW29704   5.617   4.158   6.433
 9602SOL    HW129705   5.695   4.213   6.463
 9602SOL    HW229706   5.648   4.089   6.367
 9603SOL     OW29707   4.380   0.920   6.643
 9603SOL    HW129708   4.331   0.988   6.588
 9603SOL    HW229709   4.398   0.957   6.734
 9604SOL     OW29710   4.973   0.045   1.097
 9604SOL    HW129711   4.946   6.995   1.159
 9604SOL    HW229712   5.004   0.124   1.149
 9605SOL     OW29713   1.249   5.872   3.141
 9605SOL    HW129714   1.222   5.849   3.048
 9605SOL    HW229715   1.247   5.971   3.153
 9606SOL     OW29716   1.719   6.608   6.520
 9606SOL    HW129717   1.672   6.571   6.440
 9606SOL    HW229718   1.712   6.542   6.596
 9607SOL     OW29719   2.622   1.185   6.867
 9607SOL    HW129720   2.668   1.243   6.800
 9607SOL    HW229721   2.689   1.154   6.935
 9608SOL     OW29722   0.220   4.433   1.474
 9608SOL    HW129723   0.291   4.489   1.518
 9608SOL    HW229724   0.190   4.362   1.537
 9609SOL     OW29725   3.098   2.881   0.101
 9609SOL    HW129726   3.007   2.886   0.061
 9609SOL    HW229727   3.091   2.882   0.201
 9610SOL     OW29728   1.714   4.976   3.360
 9610SOL    HW129729   1.673   4.967   3.269
 9610SOL    HW229730   1.684   5.062   3.402
 9611SOL     OW29731   1.402   6.288   0.466
 9611SOL    HW129732   1.412   6.364   0.402
 9611SOL    HW229733   1.324   6.306   0.526
 9612SOL     OW29734   6.989   3.532   1.882
 9612SOL    HW129735   0.025   3.530   1.802
 9612SOL    HW229736   0.020   3.513   1.964
 9613SOL     OW29737   4.928   6.989   3.420
 9613SOL    HW129738   4.927   0.003   3.513
 9613SOL    HW229739   4.927   0.041   3.354
 9614SOL     OW29740   4.101   2.233   1.975
 9614SOL    HW129741   4.059   2.223   2.065
 9614SOL    HW229742   4.030   2.232   1.904
 9615SOL     OW29743   2.690   1.023   1.062
 9615SOL    HW129744   2.766   1.084   1.084
 9615SOL    HW229745   2.700   0.990   0.968
 9616SOL     OW29746   3.483   4.386   1.433
 9616SOL    HW129747   3.582   4.372   1.435
 9616SOL    HW229748   3.456   4.441   1.511
 9617SOL     OW29749   1.898   3.142   3.134
 9617SOL    HW129750   1.899   3.156   3.233
 9617SOL    HW229751   1.911   3.045   3.114
 9618SOL     OW29752   2.771   6.615   0.669
 9618SOL    HW129753   2.714   6.540   0.636
 9618SOL    HW229754   2.799   6.673   0.592
 9619SOL     OW29755   1.531   0.323   6.393
 9619SOL    HW129756   1.581   0.245   6.431
 9619SOL    HW229757   1.593   0.401   6.384
 9620SOL     OW29758   4.531   0.514   5.883
 9620SOL    HW129759   4.528   0.435   5.821
 9620SOL    HW229760   4.576   0.488   5.968
 9621SOL     OW29761   1.662   2.687   1.996
 9621SOL    HW129762   1.755   2.721   2.000
 9621SOL    HW229763   1.641   2.635   2.079
 9622SOL     OW29764   6.850   1.446   0.267
 9622SOL    HW129765   6.919   1.422   0.198
 9622SOL    HW229766   6.876   1.532   0.311
 9623SOL     OW29767   2.750   3.730   5.575
 9623SOL    HW129768   2.718   3.755   5.484
 9623SOL    HW229769   2.797   3.808   5.616
 9624SOL     OW29770   6.755   4.123   2.631
 9624SOL    HW129771   6.704   4.040   2.609
 9624SOL    HW229772   6.826   4.102   2.698
 9625SOL     OW29773   4.817   5.347   6.831
 9625SOL    HW129774   4.739   5.289   6.806
 9625SOL    HW229775   4.901   5.308   6.793
 9626SOL     OW29776   4.403   5.503   0.436
 9626SOL    HW129777   4.370   5.590   0.399
 9626SOL    HW229778   4.493   5.483   0.399
 9627SOL     OW29779   0.113   6.014   4.830
 9627SOL    HW129780   0.090   5.985   4.923
 9627SOL    HW229781   0.213   6.020   4.821
 9628SOL     OW29782   4.647   4.802   0.603
 9628SOL    HW129783   4.740   4.824   0.576
 9628SOL    HW229784   4.611   4.730   0.543
 9629SOL     OW29785   0.985   0.210   1.821
 9629SOL    HW129786   1.038   0.194   1.738
 9629SOL    HW229787   0.888   0.214   1.799
 9630SOL     OW29788   6.260   6.956   4.438
 9630SOL    HW129789   6.200   6.928   4.363
 9630SOL    HW229790   6.281   6.876   4.495
 9631SOL     OW29791   0.048   6.637   6.934
 9631SOL    HW129792   7.001   6.636   6.863
 9631SOL    HW229793   0.048   6.549   6.981
 9632SOL     OW29794   1.439   0.064   2.908
 9632SOL    HW129795   1.498   0.143   2.925
 9632SOL    HW229796   1.364   0.090   2.848
 9633SOL     OW29797   4.949   5.091   5.966
 9633SOL    HW129798   5.015   5.163   5.943
 9633SOL    HW229799   4.989   5.001   5.950
 9634SOL     OW29800   1.369   5.866   4.063
 9634SOL    HW129801   1.327   5.810   4.135
 9634SOL    HW229802   1.335   5.960   4.069
 9635SOL     OW29803   1.915   5.779   4.965
 9635SOL    HW129804   1.978   5.766   4.888
 9635SOL    HW229805   1.833   5.723   4.951
 9636SOL     OW29806   3.923   2.199   5.728
 9636SOL    HW129807   3.931   2.292   5.693
 9636SOL    HW229808   3.956   2.196   5.822
 9637SOL     OW29809   2.535   1.845   6.606
 9637SOL    HW129810   2.615   1.884   6.562
 9637SOL    HW229811   2.563   1.779   6.676
 9638SOL     OW29812   6.758   3.962   6.424
 9638SOL    HW129813   6.708   3.880   6.394
 9638SOL    HW229814   6.822   3.989   6.352
 9639SOL     OW29815   3.933   1.257   2.417
 9639SOL    HW129816   4.024   1.294   2.401
 9639SOL    HW229817   3.905   1.203   2.338
 9640SOL     OW29818   2.258   2.519   3.928
 9640SOL    HW129819   2.199   2.575   3.987
 9640SOL    HW229820   2.205   2.489   3.848
 9641SOL     OW29821   4.099   5.827   1.027
 9641SOL    HW129822   4.007   5.863   1.044
 9641SOL    HW229823   4.166   5.889   1.068
 9642SOL     OW29824   3.250   6.800   4.963
 9642SOL    HW129825   3.203   6.886   4.943
 9642SOL    HW229826   3.302   6.809   5.048
 9643SOL     OW29827   5.465   5.114   3.890
 9643SOL    HW129828   5.524   5.068   3.824
 9643SOL    HW229829   5.513   5.193   3.928
 9644SOL     OW29830   0.979   4.335   6.315
 9644SOL    HW129831   1.020   4.313   6.404
 9644SOL    HW229832   0.958   4.251   6.266
 9645SOL     OW29833   2.562   5.568   4.857
 9645SOL    HW129834   2.595   5.662   4.857
 9645SOL    HW229835   2.611   5.516   4.927
 9646SOL     OW29836   2.765   4.875   1.931
 9646SOL    HW129837   2.803   4.877   1.839
 9646SOL    HW229838   2.782   4.786   1.972
 9647SOL     OW29839   6.364   5.039   1.310
 9647SOL    HW129840   6.449   5.090   1.303
 9647SOL    HW229841   6.307   5.058   1.230
 9648SOL     OW29842   4.628   1.315   0.876
 9648SOL    HW129843   4.591   1.376   0.807
 9648SOL    HW229844   4.569   1.235   0.885
 9649SOL     OW29845   2.788   6.748   0.418
 9649SOL    HW129846   2.872   6.761   0.366
 9649SOL    HW229847   2.724   6.692   0.365
 9650SOL     OW29848   6.550   5.018   2.174
 9650SOL    HW129849   6.614   5.038   2.248
 9650SOL    HW229850   6.586   4.943   2.118
 9651SOL     OW29851   6.932   1.486   5.958
 9651SOL    HW129852   6.943   1.388   5.943
 9651SOL    HW229853   6.887   1.502   6.046
 9652SOL     OW29854   2.006   4.289   0.915
 9652SOL    HW129855   2.075   4.303   0.986
 9652SOL    HW229856   1.915   4.299   0.955
 9653SOL     OW29857   4.022   4.828   4.674
 9653SOL    HW129858   4.005   4.757   4.742
 9653SOL    HW229859   4.072   4.788   4.597
 9654SOL     OW29860   3.410   2.721   1.126
 9654SOL    HW129861   3.397   2.730   1.028
 9654SOL    HW229862   3.508   2.720   1.147
 9655SOL     OW29863   0.065   0.980   7.014
 9655SOL    HW129864   0.078   1.052   0.059
 9655SOL    HW229865   0.133   0.991   6.941
 9656SOL     OW29866   2.406   0.689   1.657
 9656SOL    HW129867   2.378   0.707   1.563
 9656SOL    HW229868   2.325   0.675   1.714
 9657SOL     OW29869   5.394   0.409   3.812
 9657SOL    HW129870   5.398   0.386   3.909
 9657SOL    HW229871   5.301   0.393   3.778
 9658SOL     OW29872   6.918   2.238   3.082
 9658SOL    HW129873   6.934   2.159   3.141
 9658SOL    HW229874   6.833   2.224   3.030
 9659SOL     OW29875   6.532   4.527   0.339
 9659SOL    HW129876   6.611   4.576   0.301
 9659SOL    HW229877   6.448   4.572   0.310
 9660SOL     OW29878   0.274   5.450   0.561
 9660SOL    HW129879   0.242   5.476   0.652
 9660SOL    HW229880   0.198   5.417   0.506
 9661SOL     OW29881   4.479   5.596   1.331
 9661SOL    HW129882   4.465   5.549   1.243
 9661SOL    HW229883   4.458   5.693   1.320
 9662SOL     OW29884   6.196   2.750   4.710
 9662SOL    HW129885   6.124   2.793   4.764
 9662SOL    HW229886   6.284   2.766   4.753
 9663SOL     OW29887   1.425   5.619   3.904
 9663SOL    HW129888   1.384   5.691   3.961
 9663SOL    HW229889   1.454   5.658   3.817
 9664SOL     OW29890   5.318   6.907   2.914
 9664SOL    HW129891   5.333   6.999   2.879
 9664SOL    HW229892   5.326   6.908   3.014
 9665SOL     OW29893   5.956   5.040   5.506
 9665SOL    HW129894   6.024   5.107   5.535
 9665SOL    HW229895   5.999   4.973   5.446
 9666SOL     OW29896   5.603   4.006   1.874
 9666SOL    HW129897   5.547   4.087   1.854
 9666SOL    HW229898   5.697   4.021   1.844
 9667SOL     OW29899   3.806   3.198   4.431
 9667SOL    HW129900   3.884   3.225   4.374
 9667SOL    HW229901   3.775   3.107   4.404
 9668SOL     OW29902   6.911   1.908   6.084
 9668SOL    HW129903   6.983   1.972   6.111
 9668SOL    HW229904   6.829   1.925   6.139
 9669SOL     OW29905   0.629   1.531   0.913
 9669SOL    HW129906   0.673   1.471   0.980
 9669SOL    HW229907   0.604   1.477   0.832
 9670SOL     OW29908   4.689   4.947   5.754
 9670SOL    HW129909   4.645   5.037   5.759
 9670SOL    HW229910   4.764   4.950   5.689
 9671SOL     OW29911   0.601   5.266   6.263
 9671SOL    HW129912   0.523   5.321   6.294
 9671SOL    HW229913   0.571   5.201   6.193
 9672SOL     OW29914   1.007   6.796   4.521
 9672SOL    HW129915   0.970   6.869   4.579
 9672SOL    HW229916   1.102   6.778   4.546
 9673SOL     OW29917   4.401   4.286   6.793
 9673SOL    HW129918   4.317   4.232   6.800
 9673SOL    HW229919   4.472   4.229   6.751
 9674SOL     OW29920   3.004   5.730   2.864
 9674SOL    HW129921   2.955   5.722   2.777
 9674SOL    HW229922   2.996   5.645   2.915
 9675SOL     OW29923   5.858   1.220   1.989
 9675SOL    HW129924   5.918   1.290   1.952
 9675SOL    HW229925   5.857   1.227   2.089
 9676SOL     OW29926   1.423   3.655   5.603
 9676SOL    HW129927   1.472   3.591   5.662
 9676SOL    HW229928   1.446   3.749   5.628
 9677SOL     OW29929   2.723   4.678   5.920
 9677SOL    HW129930   2.768   4.607   5.866
 9677SOL    HW229931   2.792   4.737   5.962
 9678SOL     OW29932   3.502   4.169   2.915
 9678SOL    HW129933   3.573   4.108   2.881
 9678SOL    HW229934   3.532   4.209   3.002
 9679SOL     OW29935   0.691   1.664   1.934
 9679SOL    HW129936   0.669   1.731   2.005
 9679SOL    HW229937   0.656   1.695   1.846
 9680SOL     OW29938   6.081   0.081   3.295
 9680SOL    HW129939   6.130   0.139   3.230
 9680SOL    HW229940   6.106   7.009   3.279
 9681SOL     OW29941   2.759   0.313   1.192
 9681SOL    HW129942   2.840   0.370   1.200
 9681SOL    HW229943   2.700   0.327   1.271
 9682SOL     OW29944   4.851   5.567   2.894
 9682SOL    HW129945   4.829   5.587   2.990
 9682SOL    HW229946   4.827   5.646   2.837
 9683SOL     OW29947   4.013   5.363   0.674
 9683SOL    HW129948   4.035   5.373   0.771
 9683SOL    HW229949   4.094   5.383   0.619
 9684SOL     OW29950   0.411   3.782   4.902
 9684SOL    HW129951   0.465   3.788   4.819
 9684SOL    HW229952   0.420   3.690   4.941
 9685SOL     OW29953   2.270   2.980   1.154
 9685SOL    HW129954   2.245   3.072   1.126
 9685SOL    HW229955   2.266   2.974   1.254
 9686SOL     OW29956   6.266   1.452   0.576
 9686SOL    HW129957   6.240   1.503   0.658
 9686SOL    HW229958   6.341   1.390   0.598
 9687SOL     OW29959   1.883   0.954   3.009
 9687SOL    HW129960   1.857   0.857   3.006
 9687SOL    HW229961   1.896   0.988   2.916
 9688SOL     OW29962   6.578   2.634   3.173
 9688SOL    HW129963   6.559   2.712   3.232
 9688SOL    HW229964   6.670   2.600   3.190
 9689SOL     OW29965   1.493   0.100   0.592
 9689SOL    HW129966   1.576   0.147   0.562
 9689SOL    HW229967   1.482   0.112   0.691
 9690SOL     OW29968   5.826   5.336   6.462
 9690SOL    HW129969   5.878   5.354   6.379
 9690SOL    HW229970   5.738   5.383   6.457
 9691SOL     OW29971   2.682   4.629   1.305
 9691SOL    HW129972   2.652   4.632   1.209
 9691SOL    HW229973   2.734   4.711   1.326
 9692SOL     OW29974   2.175   5.515   2.767
 9692SOL    HW129975   2.239   5.448   2.729
 9692SOL    HW229976   2.220   5.604   2.772
 9693SOL     OW29977   0.014   5.242   1.754
 9693SOL    HW129978   0.066   5.196   1.827
 9693SOL    HW229979   0.002   5.179   1.677
 9694SOL     OW29980   1.897   0.811   6.184
 9694SOL    HW129981   1.931   0.726   6.224
 9694SOL    HW229982   1.951   0.888   6.217
 9695SOL     OW29983   5.707   4.680   1.394
 9695SOL    HW129984   5.748   4.751   1.450
 9695SOL    HW229985   5.726   4.698   1.297
 9696SOL     OW29986   4.561   2.501   1.460
 9696SOL    HW129987   4.587   2.443   1.538
 9696SOL    HW229988   4.563   2.447   1.376
 9697SOL     OW29989   0.218   5.367   6.716
 9697SOL    HW129990   0.292   5.301   6.729
 9697SOL    HW229991   0.249   5.439   6.654
 9698SOL     OW29992   5.921   0.982   5.389
 9698SOL    HW129993   5.875   0.999   5.476
 9698SOL    HW229994   5.974   0.897   5.394
 9699SOL     OW29995   0.505   3.904   6.205
 9699SOL    HW129996   0.530   3.906   6.301
 9699SOL    HW229997   0.546   3.982   6.158
 9700SOL     OW29998   3.656   4.848   5.876
 9700SOL    HW129999   3.718   4.770   5.875
 9700SOL    HW230000   3.692   4.920   5.816
 9701SOL     OW30001   3.849   5.670   5.045
 9701SOL    HW130002   3.772   5.628   4.998
 9701SOL    HW230003   3.815   5.739   5.109
 9702SOL     OW30004   5.307   0.401   6.895
 9702SOL    HW130005   5.377   0.356   6.951
 9702SOL    HW230006   5.314   0.368   6.801
 9703SOL     OW30007   3.533   6.067   4.409
 9703SOL    HW130008   3.577   6.104   4.327
 9703SOL    HW230009   3.442   6.033   4.386
 9704SOL     OW30010   2.996   0.516   2.470
 9704SOL    HW130011   3.007   0.418   2.453
 9704SOL    HW230012   3.066   0.548   2.533
 9705SOL     OW30013   5.226   5.029   0.567
 9705SOL    HW130014   5.295   5.071   0.626
 9705SOL    HW230015   5.272   4.980   0.492
 9706SOL     OW30016   0.003   2.277   0.963
 9706SOL    HW130017   6.943   2.306   0.916
 9706SOL    HW230018   0.066   2.235   0.897
 9707SOL     OW30019   6.983   4.204   2.033
 9707SOL    HW130020   6.934   4.246   2.110
 9707SOL    HW230021   0.002   4.276   1.979
 9708SOL     OW30022   1.751   2.391   3.492
 9708SOL    HW130023   1.710   2.355   3.408
 9708SOL    HW230024   1.791   2.481   3.474
 9709SOL     OW30025   0.075   5.648   3.496
 9709SOL    HW130026   0.110   5.601   3.577
 9709SOL    HW230027   0.090   5.746   3.505
 9710SOL     OW30028   0.308   1.320   3.003
 9710SOL    HW130029   0.223   1.359   2.967
 9710SOL    HW230030   0.299   1.221   3.011
 9711SOL     OW30031   1.371   3.466   5.928
 9711SOL    HW130032   1.345   3.376   5.964
 9711SOL    HW230033   1.450   3.456   5.868
 9712SOL     OW30034   5.369   3.336   4.807
 9712SOL    HW130035   5.278   3.354   4.842
 9712SOL    HW230036   5.411   3.263   4.861
 9713SOL     OW30037   0.293   4.648   2.812
 9713SOL    HW130038   0.299   4.638   2.713
 9713SOL    HW230039   0.199   4.669   2.838
 9714SOL     OW30040   1.926   1.029   1.615
 9714SOL    HW130041   1.965   1.045   1.706
 9714SOL    HW230042   1.843   0.974   1.623
 9715SOL     OW30043   6.880   6.021   4.230
 9715SOL    HW130044   6.786   6.046   4.204
 9715SOL    HW230045   6.883   5.924   4.252
 9716SOL     OW30046   3.983   2.448   0.137
 9716SOL    HW130047   3.979   2.506   0.219
 9716SOL    HW230048   4.078   2.420   0.121
 9717SOL     OW30049   5.762   5.948   5.016
 9717SOL    HW130050   5.730   6.014   4.948
 9717SOL    HW230051   5.698   5.946   5.093
 9718SOL     OW30052   4.915   3.086   1.832
 9718SOL    HW130053   4.964   3.053   1.912
 9718SOL    HW230054   4.816   3.082   1.849
 9719SOL     OW30055   0.556   2.119   6.433
 9719SOL    HW130056   0.519   2.178   6.361
 9719SOL    HW230057   0.633   2.066   6.397
 9720SOL     OW30058   0.736   5.639   1.458
 9720SOL    HW130059   0.746   5.580   1.378
 9720SOL    HW230060   0.638   5.651   1.478
 9721SOL     OW30061   0.890   2.515   1.939
 9721SOL    HW130062   0.948   2.435   1.924
 9721SOL    HW230063   0.816   2.491   2.002
 9722SOL     OW30064   0.313   6.934   3.382
 9722SOL    HW130065   0.372   6.925   3.462
 9722SOL    HW230066   0.361   6.904   3.300
 9723SOL     OW30067   1.285   5.947   2.748
 9723SOL    HW130068   1.204   5.982   2.794
 9723SOL    HW230069   1.296   5.992   2.660
 9724SOL     OW30070   3.004   2.950   1.562
 9724SOL    HW130071   2.969   3.006   1.487
 9724SOL    HW230072   3.016   3.006   1.643
 9725SOL     OW30073   4.152   3.578   6.046
 9725SOL    HW130074   4.126   3.490   6.085
 9725SOL    HW230075   4.233   3.613   6.093
 9726SOL     OW30076   4.682   0.468   4.730
 9726SOL    HW130077   4.774   0.474   4.769
 9726SOL    HW230078   4.650   0.560   4.708
 9727SOL     OW30079   1.588   3.962   5.386
 9727SOL    HW130080   1.515   4.016   5.344
 9727SOL    HW230081   1.591   3.871   5.345
 9728SOL     OW30082   1.159   6.463   6.730
 9728SOL    HW130083   1.162   6.551   6.778
 9728SOL    HW230084   1.240   6.409   6.754
 9729SOL     OW30085   1.391   4.571   2.846
 9729SOL    HW130086   1.390   4.657   2.897
 9729SOL    HW230087   1.379   4.495   2.909
 9730SOL     OW30088   0.294   3.091   2.907
 9730SOL    HW130089   0.220   3.140   2.953
 9730SOL    HW230090   0.351   3.156   2.856
 9731SOL     OW30091   4.324   4.988   1.061
 9731SOL    HW130092   4.277   4.954   1.142
 9731SOL    HW230093   4.263   4.983   0.982
 9732SOL     OW30094   5.934   5.959   2.906
 9732SOL    HW130095   6.032   5.977   2.898
 9732SOL    HW230096   5.882   6.025   2.852
 9733SOL     OW30097   5.772   5.480   4.686
 9733SOL    HW130098   5.696   5.465   4.749
 9733SOL    HW230099   5.761   5.422   4.605
 9734SOL     OW30100   5.405   1.889   4.153
 9734SOL    HW130101   5.321   1.835   4.150
 9734SOL    HW230102   5.382   1.986   4.148
 9735SOL     OW30103   1.725   4.817   2.804
 9735SOL    HW130104   1.698   4.764   2.724
 9735SOL    HW230105   1.763   4.905   2.775
 9736SOL     OW30106   5.341   1.337   5.815
 9736SOL    HW130107   5.404   1.379   5.749
 9736SOL    HW230108   5.320   1.402   5.888
 9737SOL     OW30109   4.677   2.786   5.090
 9737SOL    HW130110   4.747   2.853   5.067
 9737SOL    HW230111   4.625   2.818   5.169
 9738SOL     OW30112   1.739   0.103   2.660
 9738SOL    HW130113   1.715   0.179   2.598
 9738SOL    HW230114   1.695   0.019   2.628
 9739SOL     OW30115   0.872   4.805   1.815
 9739SOL    HW130116   0.971   4.810   1.813
 9739SOL    HW230117   0.841   4.727   1.762
 9740SOL     OW30118   6.235   3.455   3.042
 9740SOL    HW130119   6.241   3.355   3.041
 9740SOL    HW230120   6.320   3.494   3.006
 9741SOL     OW30121   4.485   1.286   2.740
 9741SOL    HW130122   4.518   1.242   2.657
 9741SOL    HW230123   4.398   1.245   2.768
 9742SOL     OW30124   4.458   0.047   3.362
 9742SOL    HW130125   4.409   0.067   3.278
 9742SOL    HW230126   4.547   0.093   3.362
 9743SOL     OW30127   2.259   2.277   5.896
 9743SOL    HW130128   2.178   2.333   5.914
 9743SOL    HW230129   2.267   2.261   5.797
 9744SOL     OW30130   0.991   0.551   2.577
 9744SOL    HW130131   1.011   0.474   2.638
 9744SOL    HW230132   1.070   0.611   2.572
 9745SOL     OW30133   0.587   2.333   5.736
 9745SOL    HW130134   0.616   2.266   5.803
 9745SOL    HW230135   0.623   2.309   5.646
 9746SOL     OW30136   5.373   1.785   4.946
 9746SOL    HW130137   5.377   1.687   4.927
 9746SOL    HW230138   5.402   1.802   5.040
 9747SOL     OW30139   1.354   1.319   1.706
 9747SOL    HW130140   1.275   1.296   1.763
 9747SOL    HW230141   1.435   1.327   1.764
 9748SOL     OW30142   0.979   6.839   5.235
 9748SOL    HW130143   0.964   6.933   5.205
 9748SOL    HW230144   0.904   6.810   5.294
 9749SOL     OW30145   1.762   2.298   5.561
 9749SOL    HW130146   1.682   2.278   5.617
 9749SOL    HW230147   1.751   2.256   5.471
 9750SOL     OW30148   5.765   5.071   3.932
 9750SOL    HW130149   5.830   5.000   3.962
 9750SOL    HW230150   5.781   5.155   3.984
 9751SOL     OW30151   1.998   2.304   1.404
 9751SOL    HW130152   2.022   2.294   1.500
 9751SOL    HW230153   1.990   2.402   1.382
 9752SOL     OW30154   4.634   0.722   6.194
 9752SOL    HW130155   4.622   0.810   6.147
 9752SOL    HW230156   4.730   0.710   6.218
 9753SOL     OW30157   6.382   6.696   5.017
 9753SOL    HW130158   6.400   6.670   4.922
 9753SOL    HW230159   6.372   6.614   5.073
 9754SOL     OW30160   1.124   1.997   6.888
 9754SOL    HW130161   1.117   1.925   6.958
 9754SOL    HW230162   1.217   2.033   6.888
 9755SOL     OW30163   4.083   3.589   5.174
 9755SOL    HW130164   4.127   3.515   5.124
 9755SOL    HW230165   4.083   3.672   5.117
 9756SOL     OW30166   6.060   2.899   0.149
 9756SOL    HW130167   6.007   2.816   0.127
 9756SOL    HW230168   6.002   2.979   0.138
 9757SOL     OW30169   4.856   3.192   3.441
 9757SOL    HW130170   4.799   3.151   3.369
 9757SOL    HW230171   4.921   3.124   3.474
 9758SOL     OW30172   1.529   7.017   5.725
 9758SOL    HW130173   1.624   6.988   5.712
 9758SOL    HW230174   1.480   7.010   5.639
 9759SOL     OW30175   2.126   0.008   1.137
 9759SOL    HW130176   2.224   0.025   1.133
 9759SOL    HW230177   2.106   6.969   1.212
 9760SOL     OW30178   5.080   4.296   4.991
 9760SOL    HW130179   5.179   4.286   4.975
 9760SOL    HW230180   5.063   4.306   5.089
 9761SOL     OW30181   5.579   5.876   1.815
 9761SOL    HW130182   5.568   5.778   1.833
 9761SOL    HW230183   5.538   5.898   1.726
 9762SOL     OW30184   2.212   2.065   4.615
 9762SOL    HW130185   2.216   2.096   4.710
 9762SOL    HW230186   2.300   2.081   4.571
 9763SOL     OW30187   4.677   1.433   1.980
 9763SOL    HW130188   4.583   1.467   1.980
 9763SOL    HW230189   4.725   1.467   1.899
 9764SOL     OW30190   1.353   2.251   3.252
 9764SOL    HW130191   1.346   2.347   3.226
 9764SOL    HW230192   1.284   2.197   3.204
 9765SOL     OW30193   6.605   1.985   4.893
 9765SOL    HW130194   6.677   2.054   4.903
 9765SOL    HW230195   6.517   2.031   4.878
 9766SOL     OW30196   2.548   0.582   2.735
 9766SOL    HW130197   2.450   0.564   2.743
 9766SOL    HW230198   2.597   0.496   2.725
 9767SOL     OW30199   5.306   2.043   4.732
 9767SOL    HW130200   5.220   2.022   4.780
 9767SOL    HW230201   5.313   2.141   4.718
 9768SOL     OW30202   5.233   2.206   2.238
 9768SOL    HW130203   5.321   2.243   2.267
 9768SOL    HW230204   5.233   2.194   2.139
 9769SOL     OW30205   1.500   1.910   1.905
 9769SOL    HW130206   1.586   1.962   1.907
 9769SOL    HW230207   1.519   1.816   1.876
 9770SOL     OW30208   5.967   5.920   6.498
 9770SOL    HW130209   5.964   6.011   6.457
 9770SOL    HW230210   6.046   5.912   6.558
 9771SOL     OW30211   4.716   4.363   0.977
 9771SOL    HW130212   4.641   4.313   1.022
 9771SOL    HW230213   4.785   4.388   1.045
 9772SOL     OW30214   0.005   6.754   1.482
 9772SOL    HW130215   6.942   6.745   1.530
 9772SOL    HW230216   0.066   6.814   1.535
 9773SOL     OW30217   5.984   6.165   3.497
 9773SOL    HW130218   5.980   6.224   3.417
 9773SOL    HW230219   5.970   6.070   3.469
 9774SOL     OW30220   5.939   5.212   3.496
 9774SOL    HW130221   5.964   5.129   3.546
 9774SOL    HW230222   6.017   5.244   3.443
 9775SOL     OW30223   1.827   2.034   4.752
 9775SOL    HW130224   1.799   2.110   4.812
 9775SOL    HW230225   1.922   2.011   4.770
 9776SOL     OW30226   0.028   5.473   4.106
 9776SOL    HW130227   0.098   5.443   4.170
 9776SOL    HW230228   0.070   5.520   4.029
 9777SOL     OW30229   5.936   4.816   6.026
 9777SOL    HW130230   5.912   4.730   6.072
 9777SOL    HW230231   5.915   4.808   5.929
 9778SOL     OW30232   5.420   6.947   3.541
 9778SOL    HW130233   5.337   6.894   3.523
 9778SOL    HW230234   5.467   6.907   3.620
 9779SOL     OW30235   2.384   1.668   4.691
 9779SOL    HW130236   2.458   1.602   4.693
 9779SOL    HW230237   2.348   1.675   4.597
 9780SOL     OW30238   2.166   2.581   0.610
 9780SOL    HW130239   2.081   2.629   0.632
 9780SOL    HW230240   2.144   2.488   0.581
 9781SOL     OW30241   1.929   4.890   4.128
 9781SOL    HW130242   1.907   4.796   4.101
 9781SOL    HW230243   2.026   4.897   4.147
 9782SOL     OW30244   6.302   0.134   0.839
 9782SOL    HW130245   6.267   0.077   0.914
 9782SOL    HW230246   6.327   0.224   0.875
 9783SOL     OW30247   6.349   0.974   1.607
 9783SOL    HW130248   6.325   0.881   1.577
 9783SOL    HW230249   6.380   0.971   1.702
 9784SOL     OW30250   4.206   1.395   3.418
 9784SOL    HW130251   4.205   1.333   3.339
 9784SOL    HW230252   4.211   1.489   3.385
 9785SOL     OW30253   0.330   2.655   3.213
 9785SOL    HW130254   0.365   2.612   3.296
 9785SOL    HW230255   0.382   2.624   3.134
 9786SOL     OW30256   1.946   4.480   6.012
 9786SOL    HW130257   1.856   4.523   6.011
 9786SOL    HW230258   1.989   4.493   5.922
 9787SOL     OW30259   5.446   3.328   1.682
 9787SOL    HW130260   5.367   3.267   1.695
 9787SOL    HW230261   5.504   3.292   1.609
 9788SOL     OW30262   0.303   6.942   4.077
 9788SOL    HW130263   0.244   6.966   3.999
 9788SOL    HW230264   0.321   0.001   4.131
 9789SOL     OW30265   2.254   5.286   6.251
 9789SOL    HW130266   2.266   5.202   6.304
 9789SOL    HW230267   2.172   5.278   6.194
 9790SOL     OW30268   5.823   2.189   4.312
 9790SOL    HW130269   5.784   2.115   4.366
 9790SOL    HW230270   5.751   2.232   4.257
 9791SOL     OW30271   0.958   0.988   1.793
 9791SOL    HW130272   0.935   0.894   1.770
 9791SOL    HW230273   1.041   1.015   1.744
 9792SOL     OW30274   4.444   5.268   1.637
 9792SOL    HW130275   4.468   5.365   1.651
 9792SOL    HW230276   4.526   5.212   1.652
 9793SOL     OW30277   4.807   5.962   2.889
 9793SOL    HW130278   4.825   6.048   2.842
 9793SOL    HW230279   4.822   5.886   2.825
 9794SOL     OW30280   5.163   3.464   6.430
 9794SOL    HW130281   5.216   3.493   6.510
 9794SOL    HW230282   5.089   3.529   6.413
 9795SOL     OW30283   0.974   2.925   3.906
 9795SOL    HW130284   0.927   2.846   3.947
 9795SOL    HW230285   1.026   2.973   3.976
 9796SOL     OW30286   3.137   4.693   0.648
 9796SOL    HW130287   3.072   4.705   0.722
 9796SOL    HW230288   3.088   4.674   0.563
 9797SOL     OW30289   4.776   3.926   6.919
 9797SOL    HW130290   4.853   3.947   6.860
 9797SOL    HW230291   4.724   3.850   6.881
 9798SOL     OW30292   2.520   0.621   1.129
 9798SOL    HW130293   2.449   0.591   1.065
 9798SOL    HW230294   2.484   0.618   1.222
 9799SOL     OW30295   3.318   3.300   2.602
 9799SOL    HW130296   3.274   3.218   2.565
 9799SOL    HW230297   3.320   3.294   2.702
 9800SOL     OW30298   4.348   5.770   6.086
 9800SOL    HW130299   4.257   5.750   6.122
 9800SOL    HW230300   4.377   5.697   6.025
 9801SOL     OW30301   4.758   5.503   0.095
 9801SOL    HW130302   4.713   5.571   0.038
 9801SOL    HW230303   4.794   5.430   0.037
 9802SOL     OW30304   0.428   3.403   1.840
 9802SOL    HW130305   0.410   3.432   1.934
 9802SOL    HW230306   0.490   3.469   1.796
 9803SOL     OW30307   6.132   7.016   6.490
 9803SOL    HW130308   6.065   6.943   6.503
 9803SOL    HW230309   6.145   0.010   6.393
 9804SOL     OW30310   6.836   5.012   3.311
 9804SOL    HW130311   6.755   5.056   3.350
 9804SOL    HW230312   6.891   5.081   3.264
 9805SOL     OW30313   1.115   5.579   6.824
 9805SOL    HW130314   1.169   5.618   6.898
 9805SOL    HW230315   1.079   5.653   6.766
 9806SOL     OW30316   0.830   2.552   1.437
 9806SOL    HW130317   0.879   2.588   1.517
 9806SOL    HW230318   0.772   2.476   1.465
 9807SOL     OW30319   3.858   1.774   0.347
 9807SOL    HW130320   3.880   1.678   0.365
 9807SOL    HW230321   3.759   1.786   0.345
 9808SOL     OW30322   5.628   1.473   5.185
 9808SOL    HW130323   5.727   1.480   5.202
 9808SOL    HW230324   5.599   1.378   5.195
 9809SOL     OW30325   0.923   1.391   5.550
 9809SOL    HW130326   0.907   1.485   5.520
 9809SOL    HW230327   0.898   1.382   5.646
 9810SOL     OW30328   2.589   1.567   3.268
 9810SOL    HW130329   2.532   1.507   3.323
 9810SOL    HW230330   2.637   1.631   3.328
 9811SOL     OW30331   6.462   6.174   3.397
 9811SOL    HW130332   6.428   6.212   3.310
 9811SOL    HW230333   6.391   6.181   3.466
 9812SOL     OW30334   4.139   2.015   6.102
 9812SOL    HW130335   4.217   1.980   6.154
 9812SOL    HW230336   4.128   1.963   6.018
 9813SOL     OW30337   6.316   5.399   0.202
 9813SOL    HW130338   6.402   5.441   0.232
 9813SOL    HW230339   6.267   5.463   0.143
 9814SOL     OW30340   6.569   0.575   5.760
 9814SOL    HW130341   6.530   0.532   5.842
 9814SOL    HW230342   6.551   0.518   5.680
 9815SOL     OW30343   6.420   3.492   1.233
 9815SOL    HW130344   6.449   3.497   1.137
 9815SOL    HW230345   6.360   3.569   1.254
 9816SOL     OW30346   6.423   0.646   6.667
 9816SOL    HW130347   6.384   0.696   6.590
 9816SOL    HW230348   6.424   0.548   6.646
 9817SOL     OW30349   3.063   5.038   1.957
 9817SOL    HW130350   3.004   5.102   2.007
 9817SOL    HW230351   3.140   5.087   1.918
 9818SOL     OW30352   2.122   1.378   3.422
 9818SOL    HW130353   2.061   1.383   3.343
 9818SOL    HW230354   2.156   1.285   3.432
 9819SOL     OW30355   5.948   3.583   4.682
 9819SOL    HW130356   5.916   3.598   4.775
 9819SOL    HW230357   6.034   3.533   4.683
 9820SOL     OW30358   3.000   1.779   6.844
 9820SOL    HW130359   2.967   1.686   6.831
 9820SOL    HW230360   3.100   1.780   6.838
 9821SOL     OW30361   4.596   2.093   1.933
 9821SOL    HW130362   4.500   2.083   1.909
 9821SOL    HW230363   4.649   2.110   1.850
 9822SOL     OW30364   4.000   5.745   4.503
 9822SOL    HW130365   4.099   5.753   4.487
 9822SOL    HW230366   3.976   5.793   4.587
 9823SOL     OW30367   0.904   0.659   2.202
 9823SOL    HW130368   0.882   0.663   2.105
 9823SOL    HW230369   0.972   0.588   2.218
 9824SOL     OW30370   2.166   6.253   5.752
 9824SOL    HW130371   2.078   6.226   5.790
 9824SOL    HW230372   2.201   6.179   5.694
 9825SOL     OW30373   4.996   6.017   5.293
 9825SOL    HW130374   5.091   6.026   5.322
 9825SOL    HW230375   4.977   6.083   5.220
 9826SOL     OW30376   3.263   0.041   5.301
 9826SOL    HW130377   3.315   6.995   5.250
 9826SOL    HW230378   3.261   0.126   5.248
 9827SOL     OW30379   1.761   5.839   2.665
 9827SOL    HW130380   1.822   5.762   2.649
 9827SOL    HW230381   1.811   5.912   2.712
 9828SOL     OW30382   3.684   1.855   4.925
 9828SOL    HW130383   3.645   1.834   5.014
 9828SOL    HW230384   3.672   1.952   4.906
 9829SOL     OW30385   4.258   6.142   5.979
 9829SOL    HW130386   4.268   6.232   6.022
 9829SOL    HW230387   4.340   6.087   5.996
 9830SOL     OW30388   6.142   1.725   2.669
 9830SOL    HW130389   6.100   1.742   2.758
 9830SOL    HW230390   6.079   1.753   2.597
 9831SOL     OW30391   0.413   3.708   2.533
 9831SOL    HW130392   0.383   3.618   2.565
 9831SOL    HW230393   0.359   3.779   2.577
 9832SOL     OW30394   4.986   4.698   4.672
 9832SOL    HW130395   5.004   4.600   4.667
 9832SOL    HW230396   4.906   4.715   4.729
 9833SOL     OW30397   3.918   3.953   3.784
 9833SOL    HW130398   3.961   3.948   3.875
 9833SOL    HW230399   3.838   4.013   3.788
 9834SOL     OW30400   2.498   5.838   5.655
 9834SOL    HW130401   2.576   5.897   5.633
 9834SOL    HW230402   2.522   5.743   5.638
 9835SOL     OW30403   3.627   4.210   4.830
 9835SOL    HW130404   3.674   4.128   4.796
 9835SOL    HW230405   3.675   4.291   4.796
 9836SOL     OW30406   0.798   3.453   6.106
 9836SOL    HW130407   0.783   3.454   6.007
 9836SOL    HW230408   0.768   3.540   6.144
 9837SOL     OW30409   5.947   1.746   1.456
 9837SOL    HW130410   5.915   1.798   1.377
 9837SOL    HW230411   6.004   1.670   1.425
 9838SOL     OW30412   1.172   5.813   1.059
 9838SOL    HW130413   1.084   5.861   1.054
 9838SOL    HW230414   1.187   5.780   1.152
 9839SOL     OW30415   4.184   0.792   2.732
 9839SOL    HW130416   4.278   0.811   2.705
 9839SOL    HW230417   4.143   0.727   2.668
 9840SOL     OW30418   5.500   2.092   6.887
 9840SOL    HW130419   5.430   2.031   6.923
 9840SOL    HW230420   5.576   2.038   6.850
 9841SOL     OW30421   6.942   5.332   3.468
 9841SOL    HW130422   7.016   5.304   3.530
 9841SOL    HW230423   6.915   5.426   3.489
 9842SOL     OW30424   3.378   2.594   0.189
 9842SOL    HW130425   3.422   2.506   0.171
 9842SOL    HW230426   3.304   2.581   0.255
 9843SOL     OW30427   6.912   6.083   0.946
 9843SOL    HW130428   6.861   6.160   0.984
 9843SOL    HW230429   6.953   6.030   1.021
 9844SOL     OW30430   4.966   0.032   4.589
 9844SOL    HW130431   4.942   7.016   4.500
 9844SOL    HW230432   4.914   0.117   4.603
 9845SOL     OW30433   1.447   2.559   1.837
 9845SOL    HW130434   1.536   2.581   1.877
 9845SOL    HW230435   1.409   2.639   1.792
 9846SOL     OW30436   5.537   1.021   1.434
 9846SOL    HW130437   5.533   1.084   1.356
 9846SOL    HW230438   5.483   0.940   1.415
 9847SOL     OW30439   3.667   3.861   1.146
 9847SOL    HW130440   3.667   3.794   1.221
 9847SOL    HW230441   3.745   3.844   1.086
 9848SOL     OW30442   3.494   3.456   5.075
 9848SOL    HW130443   3.444   3.426   4.993
 9848SOL    HW230444   3.571   3.513   5.048
 9849SOL     OW30445   1.233   1.059   6.685
 9849SOL    HW130446   1.199   1.126   6.619
 9849SOL    HW230447   1.257   0.975   6.637
 9850SOL     OW30448   0.299   0.451   4.130
 9850SOL    HW130449   0.214   0.474   4.177
 9850SOL    HW230450   0.314   0.514   4.054
 9851SOL     OW30451   3.824   5.255   4.375
 9851SOL    HW130452   3.848   5.158   4.372
 9851SOL    HW230453   3.778   5.276   4.461
 9852SOL     OW30454   1.643   1.088   6.679
 9852SOL    HW130455   1.595   1.128   6.601
 9852SOL    HW230456   1.641   0.988   6.672
 9853SOL     OW30457   6.961   4.281   4.097
 9853SOL    HW130458   6.935   4.280   4.193
 9853SOL    HW230459   0.012   4.346   4.083
 9854SOL     OW30460   0.725   5.924   5.852
 9854SOL    HW130461   0.682   6.006   5.815
 9854SOL    HW230462   0.684   5.843   5.809
 9855SOL     OW30463   1.010   3.508   0.822
 9855SOL    HW130464   0.988   3.453   0.742
 9855SOL    HW230465   1.105   3.538   0.818
 9856SOL     OW30466   5.741   4.488   3.347
 9856SOL    HW130467   5.752   4.396   3.311
 9856SOL    HW230468   5.736   4.553   3.272
 9857SOL     OW30469   4.971   2.223   3.335
 9857SOL    HW130470   4.970   2.315   3.298
 9857SOL    HW230471   4.882   2.203   3.377
 9858SOL     OW30472   0.757   6.118   2.384
 9858SOL    HW130473   0.679   6.057   2.368
 9858SOL    HW230474   0.762   6.139   2.482
 9859SOL     OW30475   0.831   4.809   4.831
 9859SOL    HW130476   0.831   4.713   4.805
 9859SOL    HW230477   0.925   4.840   4.843
 9860SOL     OW30478   2.139   1.977   5.454
 9860SOL    HW130479   2.203   1.927   5.396
 9860SOL    HW230480   2.046   1.966   5.419
 9861SOL     OW30481   2.666   1.502   3.754
 9861SOL    HW130482   2.743   1.531   3.811
 9861SOL    HW230483   2.592   1.469   3.813
 9862SOL     OW30484   2.149   5.021   1.166
 9862SOL    HW130485   2.121   4.935   1.125
 9862SOL    HW230486   2.135   5.017   1.265
 9863SOL     OW30487   2.990   5.845   1.121
 9863SOL    HW130488   2.960   5.932   1.159
 9863SOL    HW230489   3.073   5.858   1.067
 9864SOL     OW30490   2.976   6.295   5.214
 9864SOL    HW130491   3.032   6.377   5.201
 9864SOL    HW230492   3.035   6.214   5.214
 9865SOL     OW30493   0.673   6.447   5.565
 9865SOL    HW130494   0.675   6.487   5.473
 9865SOL    HW230495   0.767   6.438   5.598
 9866SOL     OW30496   6.621   4.494   4.602
 9866SOL    HW130497   6.603   4.413   4.546
 9866SOL    HW230498   6.659   4.566   4.544
 9867SOL     OW30499   5.296   1.885   1.804
 9867SOL    HW130500   5.392   1.890   1.778
 9867SOL    HW230501   5.288   1.864   1.901
 9868SOL     OW30502   1.335   4.850   3.157
 9868SOL    HW130503   1.284   4.921   3.204
 9868SOL    HW230504   1.351   4.773   3.220
 9869SOL     OW30505   0.131   2.520   1.355
 9869SOL    HW130506   0.039   2.491   1.380
 9869SOL    HW230507   0.136   2.620   1.353
 9870SOL     OW30508   3.277   1.323   1.618
 9870SOL    HW130509   3.325   1.314   1.705
 9870SOL    HW230510   3.239   1.235   1.592
 9871SOL     OW30511   0.173   3.768   5.369
 9871SOL    HW130512   0.074   3.769   5.355
 9871SOL    HW230513   0.192   3.768   5.467
 9872SOL     OW30514   2.048   5.437   5.564
 9872SOL    HW130515   2.076   5.493   5.485
 9872SOL    HW230516   1.953   5.458   5.588
 9873SOL     OW30517   2.504   1.947   6.108
 9873SOL    HW130518   2.546   1.864   6.070
 9873SOL    HW230519   2.509   2.021   6.041
 9874SOL     OW30520   0.464   2.551   4.885
 9874SOL    HW130521   0.559   2.581   4.895
 9874SOL    HW230522   0.420   2.603   4.812
 9875SOL     OW30523   6.272   5.963   0.512
 9875SOL    HW130524   6.248   6.040   0.454
 9875SOL    HW230525   6.369   5.968   0.536
 9876SOL     OW30526   2.463   6.950   3.346
 9876SOL    HW130527   2.494   6.856   3.336
 9876SOL    HW230528   2.419   6.963   3.435
 9877SOL     OW30529   0.694   4.990   4.676
 9877SOL    HW130530   0.722   4.922   4.744
 9877SOL    HW230531   0.607   4.963   4.635
 9878SOL     OW30532   1.833   3.250   0.137
 9878SOL    HW130533   1.832   3.177   0.069
 9878SOL    HW230534   1.923   3.253   0.182
 9879SOL     OW30535   0.974   4.669   6.067
 9879SOL    HW130536   1.052   4.607   6.066
 9879SOL    HW230537   0.890   4.617   6.073
 9880SOL     OW30538   2.710   1.509   0.204
 9880SOL    HW130539   2.797   1.500   0.155
 9880SOL    HW230540   2.696   1.605   0.229
 9881SOL     OW30541   5.129   0.455   4.726
 9881SOL    HW130542   5.215   0.436   4.774
 9881SOL    HW230543   5.055   0.465   4.793
 9882SOL     OW30544   3.765   2.911   4.369
 9882SOL    HW130545   3.674   2.900   4.409
 9882SOL    HW230546   3.818   2.828   4.383
 9883SOL     OW30547   2.082   6.470   1.289
 9883SOL    HW130548   2.091   6.538   1.362
 9883SOL    HW230549   2.171   6.458   1.244
 9884SOL     OW30550   1.524   3.258   6.495
 9884SOL    HW130551   1.431   3.241   6.526
 9884SOL    HW230552   1.581   3.284   6.574
 9885SOL     OW30553   6.465   3.154   3.665
 9885SOL    HW130554   6.545   3.210   3.641
 9885SOL    HW230555   6.387   3.214   3.683
 9886SOL     OW30556   4.797   6.376   1.449
 9886SOL    HW130557   4.726   6.414   1.508
 9886SOL    HW230558   4.887   6.409   1.480
 9887SOL     OW30559   3.820   6.384   0.641
 9887SOL    HW130560   3.721   6.383   0.650
 9887SOL    HW230561   3.846   6.339   0.556
 9888SOL     OW30562   5.802   5.915   2.519
 9888SOL    HW130563   5.864   5.993   2.528
 9888SOL    HW230564   5.786   5.875   2.609
 9889SOL     OW30565   0.074   4.931   2.994
 9889SOL    HW130566   0.037   4.950   2.903
 9889SOL    HW230567   0.156   4.986   3.009
 9890SOL     OW30568   6.505   3.838   1.223
 9890SOL    HW130569   6.511   3.936   1.209
 9890SOL    HW230570   6.512   3.791   1.135
 9891SOL     OW30571   5.110   5.240   0.400
 9891SOL    HW130572   5.118   5.180   0.479
 9891SOL    HW230573   5.201   5.264   0.367
 9892SOL     OW30574   1.874   5.409   3.851
 9892SOL    HW130575   1.959   5.359   3.833
 9892SOL    HW230576   1.894   5.485   3.914
 9893SOL     OW30577   6.147   5.103   3.207
 9893SOL    HW130578   6.119   5.085   3.113
 9893SOL    HW230579   6.101   5.185   3.240
 9894SOL     OW30580   3.343   2.529   5.681
 9894SOL    HW130581   3.298   2.440   5.674
 9894SOL    HW230582   3.387   2.551   5.594
 9895SOL     OW30583   5.287   2.966   6.566
 9895SOL    HW130584   5.303   2.899   6.639
 9895SOL    HW230585   5.271   2.918   6.480
 9896SOL     OW30586   3.718   3.626   0.745
 9896SOL    HW130587   3.675   3.619   0.835
 9896SOL    HW230588   3.655   3.669   0.681
 9897SOL     OW30589   5.253   1.525   2.821
 9897SOL    HW130590   5.242   1.426   2.818
 9897SOL    HW230591   5.234   1.559   2.913
 9898SOL     OW30592   0.787   5.610   5.517
 9898SOL    HW130593   0.830   5.520   5.521
 9898SOL    HW230594   0.853   5.677   5.482
 9899SOL     OW30595   4.859   4.765   2.384
 9899SOL    HW130596   4.874   4.712   2.467
 9899SOL    HW230597   4.825   4.704   2.312
 9900SOL     OW30598   1.237   2.337   3.883
 9900SOL    HW130599   1.244   2.398   3.962
 9900SOL    HW230600   1.329   2.314   3.850
 9901SOL     OW30601   2.822   2.227   6.378
 9901SOL    HW130602   2.754   2.176   6.325
 9901SOL    HW230603   2.789   2.321   6.392
 9902SOL     OW30604   3.870   3.794   0.979
 9902SOL    HW130605   3.891   3.699   1.004
 9902SOL    HW230606   3.933   3.824   0.908
 9903SOL     OW30607   4.400   1.828   2.133
 9903SOL    HW130608   4.411   1.835   2.232
 9903SOL    HW230609   4.488   1.845   2.089
 9904SOL     OW30610   6.496   2.075   0.269
 9904SOL    HW130611   6.465   2.011   0.198
 9904SOL    HW230612   6.580   2.121   0.238
 9905SOL     OW30613   1.573   6.546   6.302
 9905SOL    HW130614   1.503   6.483   6.335
 9905SOL    HW230615   1.624   6.504   6.226
 9906SOL     OW30616   2.191   3.197   6.420
 9906SOL    HW130617   2.209   3.207   6.518
 9906SOL    HW230618   2.266   3.238   6.368
 9907SOL     OW30619   2.308   6.323   2.888
 9907SOL    HW130620   2.359   6.385   2.828
 9907SOL    HW230621   2.221   6.366   2.913
 9908SOL     OW30622   0.440   3.529   6.067
 9908SOL    HW130623   0.395   3.447   6.032
 9908SOL    HW230624   0.533   3.506   6.095
 9909SOL     OW30625   3.345   1.623   2.630
 9909SOL    HW130626   3.330   1.556   2.703
 9909SOL    HW230627   3.275   1.695   2.636
 9910SOL     OW30628   6.193   4.543   0.691
 9910SOL    HW130629   6.225   4.564   0.784
 9910SOL    HW230630   6.117   4.478   0.696
 9911SOL     OW30631   4.224   5.098   3.514
 9911SOL    HW130632   4.235   5.198   3.513
 9911SOL    HW230633   4.180   5.069   3.429
 9912SOL     OW30634   5.122   0.685   1.945
 9912SOL    HW130635   5.024   0.681   1.924
 9912SOL    HW230636   5.170   0.727   1.869
 9913SOL     OW30637   5.377   2.816   2.793
 9913SOL    HW130638   5.343   2.875   2.866
 9913SOL    HW230639   5.403   2.871   2.714
 9914SOL     OW30640   1.368   0.288   4.911
 9914SOL    HW130641   1.393   0.223   4.839
 9914SOL    HW230642   1.420   0.373   4.899
 9915SOL     OW30643   5.057   2.810   3.857
 9915SOL    HW130644   4.961   2.793   3.878
 9915SOL    HW230645   5.064   2.853   3.767
 9916SOL     OW30646   1.990   2.818   2.567
 9916SOL    HW130647   1.990   2.735   2.622
 9916SOL    HW230648   1.944   2.891   2.618
 9917SOL     OW30649   3.109   4.305   5.554
 9917SOL    HW130650   3.020   4.344   5.528
 9917SOL    HW230651   3.109   4.207   5.536
 9918SOL     OW30652   1.949   1.713   6.213
 9918SOL    HW130653   2.024   1.758   6.164
 9918SOL    HW230654   1.898   1.781   6.265
 9919SOL     OW30655   1.326   5.713   2.151
 9919SOL    HW130656   1.398   5.658   2.193
 9919SOL    HW230657   1.291   5.667   2.069
 9920SOL     OW30658   3.722   6.419   1.494
 9920SOL    HW130659   3.641   6.456   1.449
 9920SOL    HW230660   3.774   6.494   1.535
 9921SOL     OW30661   5.908   0.040   2.983
 9921SOL    HW130662   5.848   0.120   2.989
 9921SOL    HW230663   6.001   0.069   2.961
 9922SOL     OW30664   4.398   4.380   0.863
 9922SOL    HW130665   4.437   4.469   0.840
 9922SOL    HW230666   4.384   4.374   0.962
 9923SOL     OW30667   6.494   2.072   6.117
 9923SOL    HW130668   6.431   1.996   6.101
 9923SOL    HW230669   6.573   2.038   6.170
 9924SOL     OW30670   6.873   0.967   2.713
 9924SOL    HW130671   6.914   1.057   2.730
 9924SOL    HW230672   6.943   0.905   2.677
 9925SOL     OW30673   2.478   3.742   5.689
 9925SOL    HW130674   2.399   3.749   5.629
 9925SOL    HW230675   2.562   3.736   5.634
 9926SOL     OW30676   0.886   1.387   0.570
 9926SOL    HW130677   0.870   1.464   0.632
 9926SOL    HW230678   0.935   1.420   0.489
 9927SOL     OW30679   0.353   1.871   2.595
 9927SOL    HW130680   0.294   1.950   2.581
 9927SOL    HW230681   0.314   1.811   2.665
 9928SOL     OW30682   0.414   4.018   1.877
 9928SOL    HW130683   0.421   4.115   1.900
 9928SOL    HW230684   0.460   4.002   1.790
 9929SOL     OW30685   3.186   4.644   6.780
 9929SOL    HW130686   3.281   4.636   6.810
 9929SOL    HW230687   3.176   4.606   6.688
 9930SOL     OW30688   6.523   0.074   6.234
 9930SOL    HW130689   6.520   6.999   6.250
 9930SOL    HW230690   6.460   0.119   6.297
 9931SOL     OW30691   1.855   6.344   5.556
 9931SOL    HW130692   1.895   6.318   5.468
 9931SOL    HW230693   1.897   6.290   5.629
 9932SOL     OW30694   1.991   1.387   0.571
 9932SOL    HW130695   1.943   1.472   0.593
 9932SOL    HW230696   1.943   1.339   0.497
 9933SOL     OW30697   2.493   1.756   2.842
 9933SOL    HW130698   2.449   1.688   2.783
 9933SOL    HW230699   2.566   1.712   2.894
 9934SOL     OW30700   5.429   1.774   5.962
 9934SOL    HW130701   5.417   1.825   6.047
 9934SOL    HW230702   5.526   1.776   5.935
 9935SOL     OW30703   3.074   2.218   0.657
 9935SOL    HW130704   3.132   2.279   0.602
 9935SOL    HW230705   3.116   2.127   0.661
 9936SOL     OW30706   5.629   5.768   6.020
 9936SOL    HW130707   5.586   5.800   5.935
 9936SOL    HW230708   5.697   5.698   5.998
 9937SOL     OW30709   0.398   6.957   2.661
 9937SOL    HW130710   0.464   7.022   2.697
 9937SOL    HW230711   0.445   6.873   2.634
 9938SOL     OW30712   6.820   0.853   4.382
 9938SOL    HW130713   6.897   0.789   4.376
 9938SOL    HW230714   6.852   0.939   4.422
 9939SOL     OW30715   2.245   3.908   1.072
 9939SOL    HW130716   2.323   3.946   1.122
 9939SOL    HW230717   2.160   3.931   1.120
 9940SOL     OW30718   0.547   0.120   2.778
 9940SOL    HW130719   0.472   0.185   2.781
 9940SOL    HW230720   0.558   0.076   2.868
 9941SOL     OW30721   4.301   5.043   5.988
 9941SOL    HW130722   4.259   5.033   6.078
 9941SOL    HW230723   4.314   4.952   5.948
 9942SOL     OW30724   4.484   4.746   3.711
 9942SOL    HW130725   4.564   4.717   3.764
 9942SOL    HW230726   4.504   4.832   3.666
 9943SOL     OW30727   2.329   3.802   0.376
 9943SOL    HW130728   2.427   3.791   0.393
 9943SOL    HW230729   2.295   3.882   0.425
 9944SOL     OW30730   1.661   5.033   6.981
 9944SOL    HW130731   1.716   5.116   6.992
 9944SOL    HW230732   1.649   5.013   6.884
 9945SOL     OW30733   5.812   3.630   0.126
 9945SOL    HW130734   5.733   3.664   0.075
 9945SOL    HW230735   5.790   3.629   0.224
 9946SOL     OW30736   5.635   1.204   3.047
 9946SOL    HW130737   5.583   1.230   2.966
 9946SOL    HW230738   5.635   1.279   3.113
 9947SOL     OW30739   1.723   1.440   4.284
 9947SOL    HW130740   1.631   1.412   4.254
 9947SOL    HW230741   1.773   1.359   4.314
 9948SOL     OW30742   6.055   0.175   4.198
 9948SOL    HW130743   6.007   0.251   4.156
 9948SOL    HW230744   6.081   0.199   4.291
 9949SOL     OW30745   6.691   4.058   4.401
 9949SOL    HW130746   6.733   4.085   4.488
 9949SOL    HW230747   6.750   3.991   4.356
 9950SOL     OW30748   6.698   5.117   5.945
 9950SOL    HW130749   6.743   5.204   5.960
 9950SOL    HW230750   6.628   5.103   6.015
 9951SOL     OW30751   0.874   2.540   2.517
 9951SOL    HW130752   0.926   2.582   2.592
 9951SOL    HW230753   0.831   2.612   2.462
 9952SOL     OW30754   0.607   4.308   1.658
 9952SOL    HW130755   0.683   4.329   1.720
 9952SOL    HW230756   0.590   4.209   1.658
 9953SOL     OW30757   6.194   2.414   3.078
 9953SOL    HW130758   6.231   2.321   3.087
 9953SOL    HW230759   6.239   2.475   3.143
 9954SOL     OW30760   2.888   1.770   5.994
 9954SOL    HW130761   2.903   1.678   5.958
 9954SOL    HW230762   2.790   1.784   6.010
 9955SOL     OW30763   5.259   3.236   1.334
 9955SOL    HW130764   5.349   3.230   1.290
 9955SOL    HW230765   5.200   3.163   1.300
 9956SOL     OW30766   1.669   4.462   3.427
 9956SOL    HW130767   1.769   4.469   3.435
 9956SOL    HW230768   1.644   4.461   3.331
 9957SOL     OW30769   5.755   6.802   1.748
 9957SOL    HW130770   5.753   6.746   1.831
 9957SOL    HW230771   5.706   6.755   1.675
 9958SOL     OW30772   3.926   4.889   6.146
 9958SOL    HW130773   3.992   4.960   6.168
 9958SOL    HW230774   3.856   4.884   6.217
 9959SOL     OW30775   4.043   4.195   0.963
 9959SOL    HW130776   4.068   4.199   1.060
 9959SOL    HW230777   4.010   4.285   0.934
 9960SOL     OW30778   6.489   6.957   0.043
 9960SOL    HW130779   6.582   6.928   0.021
 9960SOL    HW230780   6.446   6.890   0.102
 9961SOL     OW30781   2.212   4.686   2.145
 9961SOL    HW130782   2.301   4.731   2.156
 9961SOL    HW230783   2.139   4.754   2.152
 9962SOL     OW30784   3.346   5.312   2.556
 9962SOL    HW130785   3.322   5.371   2.479
 9962SOL    HW230786   3.443   5.289   2.552
 9963SOL     OW30787   1.935   1.457   0.239
 9963SOL    HW130788   1.992   1.538   0.222
 9963SOL    HW230789   1.844   1.486   0.269
 9964SOL     OW30790   4.906   4.620   5.405
 9964SOL    HW130791   4.879   4.706   5.362
 9964SOL    HW230792   4.986   4.582   5.357
 9965SOL     OW30793   2.802   5.769   5.118
 9965SOL    HW130794   2.829   5.803   5.028
 9965SOL    HW230795   2.884   5.754   5.173
 9966SOL     OW30796   3.110   4.863   2.481
 9966SOL    HW130797   3.039   4.833   2.417
 9966SOL    HW230798   3.175   4.921   2.433
 9967SOL     OW30799   6.695   6.974   2.401
 9967SOL    HW130800   6.774   7.005   2.453
 9967SOL    HW230801   6.690   6.874   2.404
 9968SOL     OW30802   3.940   6.224   0.412
 9968SOL    HW130803   3.961   6.146   0.470
 9968SOL    HW230804   4.019   6.245   0.354
 9969SOL     OW30805   1.474   4.920   4.447
 9969SOL    HW130806   1.420   4.843   4.415
 9969SOL    HW230807   1.555   4.930   4.390
 9970SOL     OW30808   6.122   4.891   1.944
 9970SOL    HW130809   6.035   4.863   1.984
 9970SOL    HW230810   6.189   4.906   2.017
 9971SOL     OW30811   1.851   3.186   2.466
 9971SOL    HW130812   1.866   3.239   2.383
 9971SOL    HW230813   1.760   3.207   2.502
 9972SOL     OW30814   3.614   4.148   0.333
 9972SOL    HW130815   3.598   4.049   0.323
 9972SOL    HW230816   3.650   4.184   0.247
 9973SOL     OW30817   3.665   1.802   4.209
 9973SOL    HW130818   3.635   1.893   4.237
 9973SOL    HW230819   3.599   1.734   4.241
 9974SOL     OW30820   0.194   2.078   3.448
 9974SOL    HW130821   0.291   2.077   3.474
 9974SOL    HW230822   0.137   2.076   3.530
 9975SOL     OW30823   1.016   5.354   6.572
 9975SOL    HW130824   0.925   5.312   6.573
 9975SOL    HW230825   1.021   5.421   6.498
 9976SOL     OW30826   2.071   4.547   5.762
 9976SOL    HW130827   2.096   4.480   5.691
 9976SOL    HW230828   2.112   4.636   5.740
 9977SOL     OW30829   5.534   5.421   4.785
 9977SOL    HW130830   5.515   5.424   4.687
 9977SOL    HW230831   5.455   5.455   4.836
 9978SOL     OW30832   0.521   2.156   6.105
 9978SOL    HW130833   0.472   2.234   6.144
 9978SOL    HW230834   0.472   2.072   6.125
 9979SOL     OW30835   5.112   3.435   5.729
 9979SOL    HW130836   5.025   3.481   5.713
 9979SOL    HW230837   5.127   3.365   5.659
 9980SOL     OW30838   1.026   1.086   0.109
 9980SOL    HW130839   1.047   1.089   0.011
 9980SOL    HW230840   1.086   1.150   0.157
 9981SOL     OW30841   0.663   2.327   1.450
 9981SOL    HW130842   0.563   2.332   1.460
 9981SOL    HW230843   0.688   2.349   1.356
 9982SOL     OW30844   2.111   1.617   5.110
 9982SOL    HW130845   2.174   1.660   5.045
 9982SOL    HW230846   2.022   1.663   5.106
 9983SOL     OW30847   6.421   3.238   1.956
 9983SOL    HW130848   6.352   3.189   1.903
 9983SOL    HW230849   6.512   3.212   1.925
 9984SOL     OW30850   0.452   6.078   1.452
 9984SOL    HW130851   0.374   6.038   1.500
 9984SOL    HW230852   0.469   6.170   1.488
 9985SOL     OW30853   3.788   5.470   0.509
 9985SOL    HW130854   3.712   5.419   0.468
 9985SOL    HW230855   3.834   5.413   0.577
 9986SOL     OW30856   4.852   4.621   0.392
 9986SOL    HW130857   4.926   4.578   0.339
 9986SOL    HW230858   4.842   4.716   0.365
 9987SOL     OW30859   5.448   3.085   1.518
 9987SOL    HW130860   5.397   3.148   1.460
 9987SOL    HW230861   5.387   3.010   1.547
 9988SOL     OW30862   5.905   5.890   4.070
 9988SOL    HW130863   5.987   5.899   4.013
 9988SOL    HW230864   5.831   5.850   4.017
 9989SOL     OW30865   6.325   4.162   1.537
 9989SOL    HW130866   6.244   4.220   1.548
 9989SOL    HW230867   6.400   4.217   1.499
 9990SOL     OW30868   0.431   6.693   2.932
 9990SOL    HW130869   0.339   6.655   2.928
 9990SOL    HW230870   0.497   6.618   2.943
 9991SOL     OW30871   1.805   3.986   3.477
 9991SOL    HW130872   1.746   3.985   3.557
 9991SOL    HW230873   1.900   3.996   3.505
 9992SOL     OW30874   3.446   4.308   0.809
 9992SOL    HW130875   3.530   4.294   0.757
 9992SOL    HW230876   3.407   4.398   0.788
 9993SOL     OW30877   3.576   6.386   4.050
 9993SOL    HW130878   3.619   6.346   4.131
 9993SOL    HW230879   3.532   6.313   3.996
 9994SOL     OW30880   0.529   4.044   4.287
 9994SOL    HW130881   0.601   4.021   4.222
 9994SOL    HW230882   0.460   3.971   4.287
 9995SOL     OW30883   2.930   1.052   4.955
 9995SOL    HW130884   2.989   1.103   4.892
 9995SOL    HW230885   2.861   1.003   4.903
 9996SOL     OW30886   2.281   3.987   0.572
 9996SOL    HW130887   2.258   3.986   0.670
 9996SOL    HW230888   2.282   4.081   0.540
 9997SOL     OW30889   5.624   1.668   4.012
 9997SOL    HW130890   5.537   1.711   4.037
 9997SOL    HW230891   5.607   1.581   3.966
 9998SOL     OW30892   4.847   3.869   3.022
 9998SOL    HW130893   4.840   3.826   2.932
 9998SOL    HW230894   4.865   3.798   3.091
 9999SOL     OW30895   0.585   0.091   3.634
 9999SOL    HW130896   0.544   0.038   3.708
 9999SOL    HW230897   0.517   0.154   3.596
10000SOL     OW30898   5.472   1.758   1.430
10000SOL    HW130899   5.379   1.757   1.466
10000SOL    HW230900   5.534   1.721   1.499
10001SOL     OW30901   3.088   6.676   2.775
10001SOL    HW130902   2.996   6.715   2.780
10001SOL    HW230903   3.156   6.748   2.794
10002SOL     OW30904   2.289   1.029   0.686
10002SOL    HW130905   2.285   0.991   0.778
10002SOL    HW230906   2.372   0.997   0.640
10003SOL     OW30907   2.389   1.769   2.527
10003SOL    HW130908   2.434   1.814   2.604
10003SOL    HW230909   2.425   1.804   2.441
10004SOL     OW30910   5.191   4.667   4.914
10004SOL    HW130911   5.226   4.730   4.845
10004SOL    HW230912   5.118   4.611   4.875
10005SOL     OW30913   2.992   5.627   3.763
10005SOL    HW130914   3.015   5.585   3.851
10005SOL    HW230915   2.900   5.600   3.735
10006SOL     OW30916   5.822   6.905   5.589
10006SOL    HW130917   5.869   6.859   5.664
10006SOL    HW230918   5.791   6.995   5.619
10007SOL     OW30919   0.735   4.135   4.585
10007SOL    HW130920   0.831   4.109   4.598
10007SOL    HW230921   0.732   4.225   4.542
10008SOL     OW30922   3.070   1.737   3.850
10008SOL    HW130923   3.160   1.770   3.876
10008SOL    HW230924   3.003   1.764   3.920
10009SOL     OW30925   2.100   3.938   2.045
10009SOL    HW130926   2.152   3.984   2.116
10009SOL    HW230927   2.149   3.856   2.015
10010SOL     OW30928   2.515   4.917   6.463
10010SOL    HW130929   2.573   4.847   6.422
10010SOL    HW230930   2.487   4.887   6.554
10011SOL     OW30931   0.381   4.254   0.826
10011SOL    HW130932   0.431   4.313   0.763
10011SOL    HW230933   0.445   4.215   0.893
10012SOL     OW30934   5.066   0.798   2.312
10012SOL    HW130935   5.158   0.762   2.294
10012SOL    HW230936   5.050   0.800   2.411
10013SOL     OW30937   1.534   4.959   4.977
10013SOL    HW130938   1.605   4.996   5.037
10013SOL    HW230939   1.456   4.931   5.032
10014SOL     OW30940   0.977   6.551   2.099
10014SOL    HW130941   0.929   6.597   2.024
10014SOL    HW230942   0.989   6.615   2.175
10015SOL     OW30943   4.162   5.237   6.750
10015SOL    HW130944   4.109   5.318   6.726
10015SOL    HW230945   4.131   5.202   6.838
10016SOL     OW30946   1.539   1.386   4.556
10016SOL    HW130947   1.445   1.398   4.587
10016SOL    HW230948   1.557   1.448   4.480
10017SOL     OW30949   2.337   2.229   2.921
10017SOL    HW130950   2.369   2.151   2.975
10017SOL    HW230951   2.394   2.239   2.840
10018SOL     OW30952   6.853   4.259   5.356
10018SOL    HW130953   6.935   4.204   5.372
10018SOL    HW230954   6.797   4.260   5.439
10019SOL     OW30955   6.802   1.783   3.217
10019SOL    HW130956   6.751   1.851   3.163
10019SOL    HW230957   6.805   1.696   3.168
10020SOL     OW30958   0.174   0.822   1.418
10020SOL    HW130959   0.118   0.767   1.356
10020SOL    HW230960   0.120   0.900   1.451
10021SOL     OW30961   1.382   2.766   1.666
10021SOL    HW130962   1.339   2.843   1.620
10021SOL    HW230963   1.474   2.791   1.696
10022SOL     OW30964   1.925   6.161   6.860
10022SOL    HW130965   1.968   6.251   6.857
10022SOL    HW230966   1.892   6.136   6.769
10023SOL     OW30967   2.595   6.245   5.767
10023SOL    HW130968   2.520   6.218   5.828
10023SOL    HW230969   2.558   6.266   5.676
10024SOL     OW30970   1.638   4.848   3.110
10024SOL    HW130971   1.547   4.807   3.101
10024SOL    HW230972   1.645   4.928   3.050
10025SOL     OW30973   1.733   3.094   1.905
10025SOL    HW130974   1.749   3.150   1.986
10025SOL    HW230975   1.785   3.131   1.828
10026SOL     OW30976   4.983   1.333   3.036
10026SOL    HW130977   5.063   1.335   2.976
10026SOL    HW230978   4.901   1.312   2.982
10027SOL     OW30979   1.056   2.671   5.288
10027SOL    HW130980   0.973   2.722   5.263
10027SOL    HW230981   1.105   2.719   5.360
10028SOL     OW30982   3.858   0.813   0.970
10028SOL    HW130983   3.844   0.714   0.981
10028SOL    HW230984   3.859   0.857   1.060
10029SOL     OW30985   0.385   2.549   4.582
10029SOL    HW130986   0.386   2.457   4.620
10029SOL    HW230987   0.293   2.586   4.587
10030SOL     OW30988   3.129   0.022   4.912
10030SOL    HW130989   3.164   0.043   4.821
10030SOL    HW230990   3.030   0.036   4.913
10031SOL     OW30991   4.831   5.284   4.728
10031SOL    HW130992   4.888   5.360   4.758
10031SOL    HW230993   4.878   5.198   4.749
10032SOL     OW30994   3.791   0.024   6.141
10032SOL    HW130995   3.771   0.117   6.171
10032SOL    HW230996   3.705   6.996   6.133
10033SOL     OW30997   4.560   1.602   3.905
10033SOL    HW130998   4.610   1.636   3.825
10033SOL    HW230999   4.546   1.678   3.969
10034SOL     OW31000   2.106   0.943   3.650
10034SOL    HW131001   2.123   0.980   3.741
10034SOL    HW231002   2.009   0.955   3.627
10035SOL     OW31003   5.886   3.870   7.002
10035SOL    HW131004   5.898   3.777   0.011
10035SOL    HW231005   5.830   3.869   6.919
10036SOL     OW31006   6.589   0.849   0.116
10036SOL    HW131007   6.614   0.762   0.074
10036SOL    HW231008   6.568   0.916   0.044
10037SOL     OW31009   6.355   6.811   6.115
10037SOL    HW131010   6.312   6.788   6.028
10037SOL    HW231011   6.453   6.825   6.102
10038SOL     OW31012   4.532   6.575   6.165
10038SOL    HW131013   4.586   6.583   6.082
10038SOL    HW231014   4.546   6.656   6.222
10039SOL     OW31015   5.067   6.079   4.876
10039SOL    HW131016   5.028   6.091   4.785
10039SOL    HW231017   4.998   6.104   4.945
10040SOL     OW31018   3.991   6.002   6.993
10040SOL    HW131019   3.978   6.058   0.051
10040SOL    HW231020   3.942   5.915   7.004
10041SOL     OW31021   6.366   5.315   4.943
10041SOL    HW131022   6.406   5.274   5.025
10041SOL    HW231023   6.415   5.399   4.921
10042SOL     OW31024   0.614   0.975   5.259
10042SOL    HW131025   0.652   0.883   5.253
10042SOL    HW231026   0.688   1.042   5.269
10043SOL     OW31027   0.556   0.404   2.938
10043SOL    HW131028   0.503   0.403   2.854
10043SOL    HW231029   0.495   0.420   3.016
10044SOL     OW31030   2.429   1.759   4.252
10044SOL    HW131031   2.359   1.764   4.181
10044SOL    HW231032   2.387   1.729   4.338
10045SOL     OW31033   4.719   0.171   4.089
10045SOL    HW131034   4.624   0.143   4.073
10045SOL    HW231035   4.760   0.200   4.002
10046SOL     OW31036   0.411   1.040   1.742
10046SOL    HW131037   0.486   1.052   1.807
10046SOL    HW231038   0.365   1.127   1.727
10047SOL     OW31039   6.145   3.222   5.100
10047SOL    HW131040   6.158   3.123   5.085
10047SOL    HW231041   6.052   3.247   5.076
10048SOL     OW31042   3.621   1.793   1.960
10048SOL    HW131043   3.589   1.781   2.054
10048SOL    HW231044   3.697   1.858   1.958
10049SOL     OW31045   0.789   1.143   6.458
10049SOL    HW131046   0.780   1.229   6.508
10049SOL    HW231047   0.839   1.077   6.514
10050SOL     OW31048   5.790   2.752   5.127
10050SOL    HW131049   5.769   2.680   5.061
10050SOL    HW231050   5.754   2.727   5.217
10051SOL     OW31051   6.700   2.802   4.748
10051SOL    HW131052   6.677   2.885   4.697
10051SOL    HW231053   6.679   2.721   4.692
10052SOL     OW31054   1.932   2.459   2.020
10052SOL    HW131055   1.966   2.376   2.063
10052SOL    HW231056   1.892   2.519   2.090
10053SOL     OW31057   3.901   5.128   2.205
10053SOL    HW131058   3.834   5.101   2.274
10053SOL    HW231059   3.919   5.052   2.143
10054SOL     OW31060   4.110   6.023   6.203
10054SOL    HW131061   4.100   5.923   6.196
10054SOL    HW231062   4.140   6.060   6.116
10055SOL     OW31063   6.063   2.609   5.137
10055SOL    HW131064   5.993   2.666   5.095
10055SOL    HW231065   6.050   2.514   5.109
10056SOL     OW31066   6.053   5.102   1.105
10056SOL    HW131067   5.979   5.149   1.155
10056SOL    HW231068   6.020   5.013   1.074
10057SOL     OW31069   3.259   1.237   4.314
10057SOL    HW131070   3.242   1.319   4.368
10057SOL    HW231071   3.318   1.175   4.365
10058SOL     OW31072   0.235   3.964   4.706
10058SOL    HW131073   0.258   3.869   4.727
10058SOL    HW231074   0.268   3.986   4.614
10059SOL     OW31075   4.991   6.924   0.862
10059SOL    HW131076   5.007   6.829   0.890
10059SOL    HW231077   4.990   6.983   0.943
10060SOL     OW31078   2.404   1.484   2.470
10060SOL    HW131079   2.397   1.459   2.373
10060SOL    HW231080   2.373   1.579   2.481
10061SOL     OW31081   4.951   1.135   4.095
10061SOL    HW131082   4.953   1.038   4.072
10061SOL    HW231083   5.015   1.154   4.169
10062SOL     OW31084   6.129   0.142   5.010
10062SOL    HW131085   6.213   0.097   4.980
10062SOL    HW231086   6.139   0.241   4.998
10063SOL     OW31087   1.705   1.536   3.334
10063SOL    HW131088   1.698   1.459   3.271
10063SOL    HW231089   1.797   1.575   3.330
10064SOL     OW31090   5.703   5.535   5.859
10064SOL    HW131091   5.728   5.463   5.924
10064SOL    HW231092   5.604   5.531   5.843
10065SOL     OW31093   1.571   0.421   1.896
10065SOL    HW131094   1.508   0.373   1.836
10065SOL    HW231095   1.664   0.416   1.859
10066SOL     OW31096   1.405   1.363   4.212
10066SOL    HW131097   1.422   1.265   4.208
10066SOL    HW231098   1.308   1.380   4.199
10067SOL     OW31099   5.201   4.491   5.644
10067SOL    HW131100   5.216   4.450   5.554
10067SOL    HW231101   5.108   4.528   5.649
10068SOL     OW31102   5.519   2.877   3.844
10068SOL    HW131103   5.603   2.919   3.879
10068SOL    HW231104   5.442   2.899   3.904
10069SOL     OW31105   1.838   6.153   3.813
10069SOL    HW131106   1.806   6.239   3.852
10069SOL    HW231107   1.938   6.157   3.803
10070SOL     OW31108   0.324   0.105   4.744
10070SOL    HW131109   0.317   0.011   4.712
10070SOL    HW231110   0.291   0.167   4.673
10071SOL     OW31111   4.714   5.398   4.179
10071SOL    HW131112   4.756   5.488   4.193
10071SOL    HW231113   4.730   5.341   4.259
10072SOL     OW31114   1.138   6.326   4.559
10072SOL    HW131115   1.059   6.317   4.498
10072SOL    HW231116   1.108   6.360   4.648
10073SOL     OW31117   6.446   3.852   5.014
10073SOL    HW131118   6.474   3.877   4.921
10073SOL    HW231119   6.379   3.919   5.047
10074SOL     OW31120   0.534   0.414   5.667
10074SOL    HW131121   0.625   0.424   5.626
10074SOL    HW231122   0.478   0.356   5.608
10075SOL     OW31123   1.318   2.117   2.801
10075SOL    HW131124   1.334   2.083   2.894
10075SOL    HW231125   1.305   2.216   2.804
10076SOL     OW31126   5.948   0.347   3.564
10076SOL    HW131127   5.982   0.255   3.582
10076SOL    HW231128   5.958   0.403   3.646
10077SOL     OW31129   3.622   2.480   6.931
10077SOL    HW131130   3.592   2.472   6.836
10077SOL    HW231131   3.637   2.577   6.952
10078SOL     OW31132   6.711   6.439   4.176
10078SOL    HW131133   6.736   6.532   4.150
10078SOL    HW231134   6.631   6.410   4.123
10079SOL     OW31135   1.270   2.881   2.039
10079SOL    HW131136   1.339   2.950   2.018
10079SOL    HW231137   1.313   2.802   2.083
10080SOL     OW31138   3.229   2.187   6.391
10080SOL    HW131139   3.240   2.168   6.293
10080SOL    HW231140   3.319   2.192   6.434
10081SOL     OW31141   0.162   6.938   6.483
10081SOL    HW131142   0.140   6.957   6.579
10081SOL    HW231143   0.112   6.857   6.453
10082SOL     OW31144   0.128   3.041   2.634
10082SOL    HW131145   0.100   3.122   2.583
10082SOL    HW231146   0.078   3.036   2.721
10083SOL     OW31147   5.389   1.333   3.408
10083SOL    HW131148   5.365   1.347   3.312
10083SOL    HW231149   5.324   1.382   3.466
10084SOL     OW31150   4.120   0.771   6.542
10084SOL    HW131151   4.077   0.854   6.507
10084SOL    HW231152   4.189   0.739   6.476
10085SOL     OW31153   0.430   5.120   2.561
10085SOL    HW131154   0.469   5.212   2.550
10085SOL    HW231155   0.387   5.092   2.475
10086SOL     OW31156   6.018   5.112   2.314
10086SOL    HW131157   5.969   5.025   2.321
10086SOL    HW231158   6.117   5.094   2.313
10087SOL     OW31159   0.588   0.455   4.158
10087SOL    HW131160   0.607   0.466   4.061
10087SOL    HW231161   0.490   0.435   4.170
10088SOL     OW31162   6.931   6.758   6.356
10088SOL    HW131163   6.900   6.718   6.269
10088SOL    HW231164   6.858   6.813   6.395
10089SOL     OW31165   2.292   2.477   3.065
10089SOL    HW131166   2.330   2.399   3.014
10089SOL    HW231167   2.199   2.455   3.094
10090SOL     OW31168   0.670   4.684   1.049
10090SOL    HW131169   0.704   4.620   0.980
10090SOL    HW231170   0.585   4.648   1.088
10091SOL     OW31171   1.242   3.379   5.324
10091SOL    HW131172   1.186   3.307   5.283
10091SOL    HW231173   1.276   3.349   5.413
10092SOL     OW31174   1.781   3.584   5.127
10092SOL    HW131175   1.842   3.622   5.196
10092SOL    HW231176   1.738   3.500   5.162
10093SOL     OW31177   0.988   4.158   4.412
10093SOL    HW131178   0.914   4.218   4.382
10093SOL    HW231179   1.045   4.207   4.478
10094SOL     OW31180   2.609   6.645   1.959
10094SOL    HW131181   2.622   6.688   2.048
10094SOL    HW231182   2.698   6.620   1.921
10095SOL     OW31183   6.184   1.781   5.314
10095SOL    HW131184   6.154   1.720   5.241
10095SOL    HW231185   6.155   1.745   5.402
10096SOL     OW31186   6.600   5.156   2.695
10096SOL    HW131187   6.574   5.206   2.613
10096SOL    HW231188   6.558   5.199   2.775
10097SOL     OW31189   0.794   1.327   6.672
10097SOL    HW131190   0.876   1.383   6.679
10097SOL    HW231191   0.777   1.282   6.760
10098SOL     OW31192   2.270   6.884   5.790
10098SOL    HW131193   2.262   6.981   5.816
10098SOL    HW231194   2.266   6.827   5.872
10099SOL     OW31195   0.050   5.356   6.483
10099SOL    HW131196   6.984   5.331   6.521
10099SOL    HW231197   0.111   5.385   6.557
10100SOL     OW31198   5.363   6.870   4.526
10100SOL    HW131199   5.371   6.930   4.447
10100SOL    HW231200   5.329   6.922   4.605
10101SOL     OW31201   5.644   4.673   1.801
10101SOL    HW131202   5.625   4.683   1.899
10101SOL    HW231203   5.583   4.605   1.761
10102SOL     OW31204   2.190   0.855   2.889
10102SOL    HW131205   2.238   0.799   2.957
10102SOL    HW231206   2.091   0.840   2.897
10103SOL     OW31207   2.762   1.263   5.047
10103SOL    HW131208   2.807   1.329   4.987
10103SOL    HW231209   2.785   1.170   5.018
10104SOL     OW31210   1.365   3.406   4.802
10104SOL    HW131211   1.429   3.483   4.806
10104SOL    HW231212   1.356   3.365   4.892
10105SOL     OW31213   1.175   1.467   6.932
10105SOL    HW131214   1.097   1.529   6.938
10105SOL    HW231215   1.255   1.516   6.896
10106SOL     OW31216   4.888   4.898   0.557
10106SOL    HW131217   4.877   4.989   0.516
10106SOL    HW231218   4.969   4.897   0.615
10107SOL     OW31219   6.911   2.122   6.805
10107SOL    HW131220   6.947   2.029   6.798
10107SOL    HW231221   6.940   2.162   6.892
10108SOL     OW31222   6.661   6.337   0.141
10108SOL    HW131223   6.673   6.351   0.240
10108SOL    HW231224   6.563   6.336   0.119
10109SOL     OW31225   3.423   6.515   2.668
10109SOL    HW131226   3.488   6.483   2.737
10109SOL    HW231227   3.428   6.614   2.660
10110SOL     OW31228   4.298   6.388   4.919
10110SOL    HW131229   4.396   6.373   4.926
10110SOL    HW231230   4.270   6.385   4.823
10111SOL     OW31231   6.390   2.738   4.486
10111SOL    HW131232   6.363   2.690   4.403
10111SOL    HW231233   6.326   2.717   4.559
10112SOL     OW31234   5.604   4.400   4.875
10112SOL    HW131235   5.604   4.324   4.810
10112SOL    HW231236   5.641   4.370   4.963
10113SOL     OW31237   4.039   1.330   6.454
10113SOL    HW131238   4.087   1.401   6.506
10113SOL    HW231239   3.941   1.338   6.471
10114SOL     OW31240   5.338   0.239   1.025
10114SOL    HW131241   5.437   0.243   1.041
10114SOL    HW231242   5.315   0.153   0.980
10115SOL     OW31243   3.255   2.146   3.541
10115SOL    HW131244   3.166   2.189   3.554
10115SOL    HW231245   3.258   2.099   3.453
10116SOL     OW31246   1.001   6.343   0.111
10116SOL    HW131247   1.090   6.388   0.123
10116SOL    HW231248   0.966   6.362   0.019
10117SOL     OW31249   6.396   0.119   4.313
10117SOL    HW131250   6.343   0.054   4.368
10117SOL    HW231251   6.427   0.074   4.229
10118SOL     OW31252   6.906   5.256   3.199
10118SOL    HW131253   6.944   5.268   3.290
10118SOL    HW231254   6.980   5.251   3.132
10119SOL     OW31255   1.528   6.712   4.707
10119SOL    HW131256   1.538   6.724   4.609
10119SOL    HW231257   1.543   6.616   4.731
10120SOL     OW31258   1.036   3.672   4.220
10120SOL    HW131259   0.976   3.670   4.140
10120SOL    HW231260   1.073   3.765   4.231
10121SOL     OW31261   6.521   5.142   5.707
10121SOL    HW131262   6.463   5.069   5.672
10121SOL    HW231263   6.584   5.105   5.775
10122SOL     OW31264   5.402   2.801   0.528
10122SOL    HW131265   5.369   2.895   0.537
10122SOL    HW231266   5.502   2.801   0.519
10123SOL     OW31267   6.681   6.312   0.420
10123SOL    HW131268   6.672   6.411   0.411
10123SOL    HW231269   6.677   6.287   0.517
10124SOL     OW31270   1.691   3.896   6.371
10124SOL    HW131271   1.778   3.910   6.419
10124SOL    HW231272   1.691   3.948   6.286
10125SOL     OW31273   1.380   0.905   2.798
10125SOL    HW131274   1.376   0.969   2.875
10125SOL    HW231275   1.297   0.913   2.743
10126SOL     OW31276   0.633   6.811   6.433
10126SOL    HW131277   0.617   6.783   6.338
10126SOL    HW231278   0.562   6.876   6.461
10127SOL     OW31279   2.816   4.937   5.675
10127SOL    HW131280   2.791   4.930   5.772
10127SOL    HW231281   2.886   4.869   5.654
10128SOL     OW31282   0.947   1.573   1.175
10128SOL    HW131283   0.900   1.660   1.193
10128SOL    HW231284   0.961   1.563   1.077
10129SOL     OW31285   4.773   2.741   4.138
10129SOL    HW131286   4.850   2.781   4.188
10129SOL    HW231287   4.701   2.715   4.202
10130SOL     OW31288   1.952   4.201   2.289
10130SOL    HW131289   1.957   4.296   2.319
10130SOL    HW231290   2.040   4.156   2.306
10131SOL     OW31291   0.443   1.020   3.220
10131SOL    HW131292   0.523   1.072   3.251
10131SOL    HW231293   0.373   1.022   3.291
10132SOL     OW31294   2.299   6.815   3.804
10132SOL    HW131295   2.353   6.738   3.770
10132SOL    HW231296   2.203   6.803   3.776
10133SOL     OW31297   4.662   6.142   1.888
10133SOL    HW131298   4.677   6.054   1.932
10133SOL    HW231299   4.658   6.214   1.957
10134SOL     OW31300   6.631   6.895   3.584
10134SOL    HW131301   6.569   6.924   3.657
10134SOL    HW231302   6.701   6.965   3.569
10135SOL     OW31303   5.424   3.173   3.342
10135SOL    HW131304   5.471   3.127   3.267
10135SOL    HW231305   5.385   3.104   3.404
10136SOL     OW31306   5.778   0.365   2.722
10136SOL    HW131307   5.858   0.329   2.674
10136SOL    HW231308   5.795   0.460   2.749
10137SOL     OW31309   5.919   4.814   3.785
10137SOL    HW131310   5.899   4.787   3.879
10137SOL    HW231311   5.865   4.759   3.722
10138SOL     OW31312   4.887   2.447   0.886
10138SOL    HW131313   4.898   2.505   0.806
10138SOL    HW231314   4.937   2.486   0.963
10139SOL     OW31315   3.562   3.482   3.074
10139SOL    HW131316   3.533   3.413   3.141
10139SOL    HW231317   3.532   3.454   2.983
10140SOL     OW31318   6.781   6.093   5.349
10140SOL    HW131319   6.815   6.001   5.366
10140SOL    HW231320   6.698   6.109   5.403
10141SOL     OW31321   2.860   1.406   4.115
10141SOL    HW131322   2.764   1.432   4.124
10141SOL    HW231323   2.890   1.418   4.020
10142SOL     OW31324   6.324   6.730   4.624
10142SOL    HW131325   6.255   6.734   4.696
10142SOL    HW231326   6.414   6.712   4.664
10143SOL     OW31327   4.591   0.792   0.654
10143SOL    HW131328   4.527   0.716   0.672
10143SOL    HW231329   4.575   0.827   0.562
10144SOL     OW31330   4.471   6.879   6.294
10144SOL    HW131331   4.427   6.952   6.242
10144SOL    HW231332   4.562   6.909   6.323
10145SOL     OW31333   3.861   5.592   6.076
10145SOL    HW131334   3.810   5.678   6.070
10145SOL    HW231335   3.797   5.517   6.090
10146SOL     OW31336   3.951   5.063   5.074
10146SOL    HW131337   3.902   4.995   5.019
10146SOL    HW231338   4.047   5.066   5.046
10147SOL     OW31339   4.879   4.583   4.991
10147SOL    HW131340   4.817   4.504   4.991
10147SOL    HW231341   4.831   4.662   4.952
10148SOL     OW31342   6.149   5.251   6.693
10148SOL    HW131343   6.154   5.306   6.776
10148SOL    HW231344   6.054   5.230   6.673
10149SOL     OW31345   5.726   1.651   1.215
10149SOL    HW131346   5.630   1.670   1.196
10149SOL    HW231347   5.780   1.734   1.198
10150SOL     OW31348   4.542   3.758   0.727
10150SOL    HW131349   4.613   3.785   0.662
10150SOL    HW231350   4.585   3.732   0.814
10151SOL     OW31351   1.024   6.621   6.967
10151SOL    HW131352   0.955   6.652   0.009
10151SOL    HW231353   0.994   6.536   6.925
10152SOL     OW31354   0.840   6.698   4.869
10152SOL    HW131355   0.752   6.717   4.827
10152SOL    HW231356   0.875   6.780   4.913
10153SOL     OW31357   5.169   5.880   4.051
10153SOL    HW131358   5.233   5.886   4.128
10153SOL    HW231359   5.213   5.834   3.974
10154SOL     OW31360   5.954   6.924   4.866
10154SOL    HW131361   5.999   7.012   4.882
10154SOL    HW231362   5.895   6.931   4.786
10155SOL     OW31363   3.777   1.998   5.600
10155SOL    HW131364   3.683   2.032   5.595
10155SOL    HW231365   3.834   2.063   5.651
10156SOL     OW31366   6.311   0.942   2.301
10156SOL    HW131367   6.278   0.987   2.384
10156SOL    HW231368   6.384   0.996   2.260
10157SOL     OW31369   6.258   3.429   6.031
10157SOL    HW131370   6.287   3.334   6.044
10157SOL    HW231371   6.325   3.491   6.073
10158SOL     OW31372   5.412   3.478   0.426
10158SOL    HW131373   5.400   3.395   0.480
10158SOL    HW231374   5.330   3.495   0.372
10159SOL     OW31375   3.141   3.474   6.105
10159SOL    HW131376   3.188   3.404   6.160
10159SOL    HW231377   3.063   3.433   6.059
10160SOL     OW31378   2.130   3.296   2.323
10160SOL    HW131379   2.125   3.224   2.392
10160SOL    HW231380   2.136   3.385   2.368
10161SOL     OW31381   3.566   3.567   6.618
10161SOL    HW131382   3.505   3.645   6.605
10161SOL    HW231383   3.661   3.599   6.615
10162SOL     OW31384   3.222   5.081   0.513
10162SOL    HW131385   3.174   5.112   0.594
10162SOL    HW231386   3.296   5.019   0.539
10163SOL     OW31387   5.547   5.405   6.419
10163SOL    HW131388   5.486   5.392   6.341
10163SOL    HW231389   5.583   5.498   6.418
10164SOL     OW31390   5.628   3.318   4.744
10164SOL    HW131391   5.533   3.345   4.755
10164SOL    HW231392   5.642   3.227   4.784
10165SOL     OW31393   0.452   1.596   3.487
10165SOL    HW131394   0.367   1.647   3.477
10165SOL    HW231395   0.523   1.656   3.524
10166SOL     OW31396   3.687   1.254   2.008
10166SOL    HW131397   3.680   1.262   1.909
10166SOL    HW231398   3.596   1.258   2.049
10167SOL     OW31399   3.386   2.577   6.388
10167SOL    HW131400   3.374   2.674   6.409
10167SOL    HW231401   3.329   2.552   6.310
10168SOL     OW31402   6.156   4.091   5.548
10168SOL    HW131403   6.094   4.046   5.485
10168SOL    HW231404   6.230   4.029   5.573
10169SOL     OW31405   6.181   4.041   3.266
10169SOL    HW131406   6.157   4.060   3.361
10169SOL    HW231407   6.105   3.995   3.221
10170SOL     OW31408   1.374   4.795   5.700
10170SOL    HW131409   1.293   4.818   5.753
10170SOL    HW231410   1.353   4.723   5.634
10171SOL     OW31411   6.502   3.336   5.601
10171SOL    HW131412   6.567   3.400   5.642
10171SOL    HW231413   6.507   3.248   5.648
10172SOL     OW31414   6.606   6.719   4.748
10172SOL    HW131415   6.689   6.666   4.727
10172SOL    HW231416   6.632   6.812   4.774
10173SOL     OW31417   1.135   2.459   1.090
10173SOL    HW131418   1.078   2.430   1.166
10173SOL    HW231419   1.086   2.526   1.034
10174SOL     OW31420   5.492   5.305   2.166
10174SOL    HW131421   5.407   5.270   2.205
10174SOL    HW231422   5.494   5.285   2.068
10175SOL     OW31423   6.543   2.412   3.654
10175SOL    HW131424   6.626   2.444   3.607
10175SOL    HW231425   6.507   2.486   3.711
10176SOL     OW31426   1.534   3.130   5.705
10176SOL    HW131427   1.598   3.158   5.776
10176SOL    HW231428   1.553   3.035   5.678
10177SOL     OW31429   2.074   0.887   0.296
10177SOL    HW131430   2.129   0.813   0.336
10177SOL    HW231431   1.977   0.862   0.298
10178SOL     OW31432   0.077   1.677   5.153
10178SOL    HW131433   0.077   1.697   5.055
10178SOL    HW231434   0.100   1.581   5.168
10179SOL     OW31435   1.130   2.053   6.150
10179SOL    HW131436   1.096   2.134   6.197
10179SOL    HW231437   1.140   1.978   6.215
10180SOL     OW31438   3.802   0.490   0.037
10180SOL    HW131439   3.872   0.562   0.041
10180SOL    HW231440   3.842   0.403   0.066
10181SOL     OW31441   5.203   2.857   2.298
10181SOL    HW131442   5.288   2.873   2.248
10181SOL    HW231443   5.131   2.914   2.259
10182SOL     OW31444   5.325   1.059   1.895
10182SOL    HW131445   5.365   1.127   1.957
10182SOL    HW231446   5.369   1.065   1.806
10183SOL     OW31447   0.325   2.549   6.446
10183SOL    HW131448   0.300   2.486   6.520
10183SOL    HW231449   0.310   2.643   6.476
10184SOL     OW31450   3.828   1.207   6.982
10184SOL    HW131451   3.906   1.245   6.932
10184SOL    HW231452   3.833   1.107   6.982
10185SOL     OW31453   5.283   5.807   1.710
10185SOL    HW131454   5.291   5.902   1.679
10185SOL    HW231455   5.193   5.772   1.687
10186SOL     OW31456   6.204   3.806   3.465
10186SOL    HW131457   6.279   3.850   3.418
10186SOL    HW231458   6.135   3.874   3.490
10187SOL     OW31459   0.894   3.095   0.899
10187SOL    HW131460   0.888   3.190   0.930
10187SOL    HW231461   0.939   3.040   0.969
10188SOL     OW31462   3.603   5.781   0.620
10188SOL    HW131463   3.628   5.694   0.578
10188SOL    HW231464   3.596   5.852   0.550
10189SOL     OW31465   1.199   0.525   6.267
10189SOL    HW131466   1.107   0.543   6.233
10189SOL    HW231467   1.209   0.563   6.359
10190SOL     OW31468   5.161   3.173   1.621
10190SOL    HW131469   5.122   3.099   1.677
10190SOL    HW231470   5.115   3.174   1.532
10191SOL     OW31471   5.241   5.281   5.635
10191SOL    HW131472   5.199   5.229   5.559
10191SOL    HW231473   5.333   5.246   5.651
10192SOL     OW31474   4.505   2.078   6.226
10192SOL    HW131475   4.432   2.028   6.273
10192SOL    HW231476   4.589   2.024   6.227
10193SOL     OW31477   4.089   3.645   1.965
10193SOL    HW131478   4.038   3.730   1.954
10193SOL    HW231479   4.123   3.638   2.059
10194SOL     OW31480   5.873   4.943   4.613
10194SOL    HW131481   5.903   4.990   4.696
10194SOL    HW231482   5.903   4.848   4.617
10195SOL     OW31483   6.144   5.408   1.274
10195SOL    HW131484   6.063   5.382   1.326
10195SOL    HW231485   6.138   5.371   1.182
10196SOL     OW31486   3.941   1.628   4.100
10196SOL    HW131487   3.870   1.569   4.061
10196SOL    HW231488   3.942   1.716   4.052
10197SOL     OW31489   6.695   2.420   5.101
10197SOL    HW131490   6.709   2.453   5.007
10197SOL    HW231491   6.612   2.364   5.104
10198SOL     OW31492   3.352   0.669   1.584
10198SOL    HW131493   3.426   0.661   1.517
10198SOL    HW231494   3.293   0.588   1.578
10199SOL     OW31495   2.521   2.447   6.266
10199SOL    HW131496   2.601   2.478   6.317
10199SOL    HW231497   2.543   2.363   6.218
10200SOL     OW31498   5.277   1.453   0.499
10200SOL    HW131499   5.263   1.538   0.550
10200SOL    HW231500   5.232   1.378   0.548
10201SOL     OW31501   1.307   4.388   0.732
10201SOL    HW131502   1.358   4.311   0.694
10201SOL    HW231503   1.234   4.355   0.791
10202SOL     OW31504   3.904   2.884   0.249
10202SOL    HW131505   3.884   2.969   0.297
10202SOL    HW231506   3.868   2.889   0.156
10203SOL     OW31507   6.374   2.840   3.886
10203SOL    HW131508   6.294   2.898   3.905
10203SOL    HW231509   6.413   2.866   3.797
10204SOL     OW31510   5.074   6.611   6.846
10204SOL    HW131511   5.100   6.682   6.912
10204SOL    HW231512   4.974   6.608   6.838
10205SOL     OW31513   2.129   0.925   1.422
10205SOL    HW131514   2.225   0.947   1.436
10205SOL    HW231515   2.076   0.956   1.500
10206SOL     OW31516   0.431   0.876   6.888
10206SOL    HW131517   0.462   0.829   6.970
10206SOL    HW231518   0.351   0.829   6.850
10207SOL     OW31519   1.560   1.920   0.105
10207SOL    HW131520   1.654   1.888   0.092
10207SOL    HW231521   1.557   2.019   0.095
10208SOL     OW31522   5.619   4.593   3.827
10208SOL    HW131523   5.698   4.577   3.887
10208SOL    HW231524   5.553   4.652   3.873
10209SOL     OW31525   6.619   6.824   6.085
10209SOL    HW131526   6.635   6.882   6.005
10209SOL    HW231527   6.696   6.761   6.096
10210SOL     OW31528   4.794   6.817   2.197
10210SOL    HW131529   4.779   6.858   2.107
10210SOL    HW231530   4.782   6.718   2.191
10211SOL     OW31531   3.948   6.430   4.179
10211SOL    HW131532   4.024   6.390   4.127
10211SOL    HW231533   3.947   6.529   4.167
10212SOL     OW31534   1.181   0.123   5.619
10212SOL    HW131535   1.233   0.162   5.543
10212SOL    HW231536   1.083   0.129   5.599
10213SOL     OW31537   4.638   2.748   1.378
10213SOL    HW131538   4.594   2.821   1.431
10213SOL    HW231539   4.614   2.659   1.418
10214SOL     OW31540   1.127   1.299   1.895
10214SOL    HW131541   1.154   1.385   1.939
10214SOL    HW231542   1.137   1.224   1.960
10215SOL     OW31543   3.546   2.848   3.367
10215SOL    HW131544   3.455   2.886   3.388
10215SOL    HW231545   3.592   2.822   3.452
10216SOL     OW31546   6.833   0.689   0.830
10216SOL    HW131547   6.898   0.635   0.777
10216SOL    HW231548   6.878   0.772   0.865
10217SOL     OW31549   2.652   1.186   3.170
10217SOL    HW131550   2.664   1.182   3.071
10217SOL    HW231551   2.728   1.237   3.211
10218SOL     OW31552   1.055   1.788   1.921
10218SOL    HW131553   0.970   1.817   1.876
10218SOL    HW231554   1.131   1.842   1.886
10219SOL     OW31555   0.229   2.270   3.060
10219SOL    HW131556   0.264   2.179   3.084
10219SOL    HW231557   0.132   2.262   3.035
10220SOL     OW31558   4.199   2.462   1.410
10220SOL    HW131559   4.196   2.521   1.330
10220SOL    HW231560   4.154   2.507   1.487
10221SOL     OW31561   0.437   5.777   3.037
10221SOL    HW131562   0.521   5.750   3.084
10221SOL    HW231563   0.385   5.839   3.095
10222SOL     OW31564   3.036   3.010   5.488
10222SOL    HW131565   2.949   2.965   5.506
10222SOL    HW231566   3.020   3.092   5.432
10223SOL     OW31567   0.657   4.577   1.338
10223SOL    HW131568   0.754   4.584   1.359
10223SOL    HW231569   0.621   4.668   1.317
10224SOL     OW31570   6.711   2.655   3.964
10224SOL    HW131571   6.622   2.646   3.919
10224SOL    HW231572   6.766   2.723   3.916
10225SOL     OW31573   1.791   4.821   5.871
10225SOL    HW131574   1.746   4.786   5.788
10225SOL    HW231575   1.815   4.917   5.858
10226SOL     OW31576   3.240   1.002   6.914
10226SOL    HW131577   3.182   0.927   6.946
10226SOL    HW231578   3.183   1.071   6.869
10227SOL     OW31579   5.252   4.209   0.120
10227SOL    HW131580   5.165   4.169   0.151
10227SOL    HW231581   5.237   4.261   0.037
10228SOL     OW31582   6.536   7.013   1.184
10228SOL    HW131583   6.454   0.012   1.235
10228SOL    HW231584   6.512   6.959   1.104
10229SOL     OW31585   1.147   2.594   5.053
10229SOL    HW131586   1.110   2.622   5.142
10229SOL    HW231587   1.073   2.557   4.997
10230SOL     OW31588   6.134   5.635   2.865
10230SOL    HW131589   6.142   5.734   2.876
10230SOL    HW231590   6.038   5.608   2.875
10231SOL     OW31591   1.000   5.506   4.832
10231SOL    HW131592   1.097   5.486   4.816
10231SOL    HW231593   0.961   5.435   4.892
10232SOL     OW31594   2.821   1.080   3.604
10232SOL    HW131595   2.792   1.038   3.518
10232SOL    HW231596   2.759   1.052   3.677
10233SOL     OW31597   4.064   3.819   5.038
10233SOL    HW131598   4.091   3.894   5.097
10233SOL    HW231599   4.127   3.815   4.959
10234SOL     OW31600   6.186   0.302   1.157
10234SOL    HW131601   6.088   0.316   1.145
10234SOL    HW231602   6.209   0.208   1.134
10235SOL     OW31603   2.053   2.228   2.084
10235SOL    HW131604   2.138   2.264   2.046
10235SOL    HW231605   2.074   2.161   2.155
10236SOL     OW31606   2.223   6.491   0.708
10236SOL    HW131607   2.161   6.468   0.784
10236SOL    HW231608   2.239   6.590   0.707
10237SOL     OW31609   6.782   3.224   0.564
10237SOL    HW131610   6.803   3.218   0.466
10237SOL    HW231611   6.837   3.297   0.605
10238SOL     OW31612   4.234   4.366   1.510
10238SOL    HW131613   4.208   4.296   1.577
10238SOL    HW231614   4.332   4.360   1.491
10239SOL     OW31615   1.340   3.031   5.255
10239SOL    HW131616   1.370   3.009   5.162
10239SOL    HW231617   1.266   3.098   5.251
10240SOL     OW31618   2.739   6.025   2.666
10240SOL    HW131619   2.647   6.005   2.632
10240SOL    HW231620   2.804   5.960   2.628
10241SOL     OW31621   5.629   1.065   2.437
10241SOL    HW131622   5.600   1.156   2.407
10241SOL    HW231623   5.553   1.001   2.429
10242SOL     OW31624   6.477   1.310   0.674
10242SOL    HW131625   6.528   1.271   0.597
10242SOL    HW231626   6.457   1.239   0.741
10243SOL     OW31627   2.701   4.371   1.400
10243SOL    HW131628   2.730   4.377   1.495
10243SOL    HW231629   2.696   4.463   1.361
10244SOL     OW31630   2.340   4.043   0.849
10244SOL    HW131631   2.345   4.141   0.868
10244SOL    HW231632   2.303   3.996   0.929
10245SOL     OW31633   3.562   4.304   1.116
10245SOL    HW131634   3.633   4.234   1.116
10245SOL    HW231635   3.605   4.394   1.132
10246SOL     OW31636   3.110   4.051   4.554
10246SOL    HW131637   3.175   4.032   4.627
10246SOL    HW231638   3.153   4.109   4.485
10247SOL     OW31639   0.211   3.923   6.257
10247SOL    HW131640   0.307   3.944   6.237
10247SOL    HW231641   0.190   3.831   6.222
10248SOL     OW31642   0.949   0.624   2.966
10248SOL    HW131643   0.979   0.644   3.059
10248SOL    HW231644   1.014   0.664   2.900
10249SOL     OW31645   2.871   5.195   6.623
10249SOL    HW131646   2.922   5.122   6.579
10249SOL    HW231647   2.922   5.228   6.702
10250SOL     OW31648   6.805   3.778   0.879
10250SOL    HW131649   6.849   3.867   0.872
10250SOL    HW231650   6.808   3.732   0.790
10251SOL     OW31651   1.926   1.393   4.039
10251SOL    HW131652   1.890   1.456   3.970
10251SOL    HW231653   1.855   1.326   4.062
10252SOL     OW31654   4.432   3.589   6.017
10252SOL    HW131655   4.450   3.491   6.030
10252SOL    HW231656   4.519   3.639   6.021
10253SOL     OW31657   3.079   6.237   0.828
10253SOL    HW131658   2.999   6.199   0.875
10253SOL    HW231659   3.051   6.274   0.740
10254SOL     OW31660   4.465   1.839   5.507
10254SOL    HW131661   4.388   1.811   5.449
10254SOL    HW231662   4.478   1.938   5.500
10255SOL     OW31663   2.141   6.829   0.938
10255SOL    HW131664   2.127   6.903   1.004
10255SOL    HW231665   2.215   6.770   0.970
10256SOL     OW31666   4.479   0.775   2.312
10256SOL    HW131667   4.453   0.771   2.215
10256SOL    HW231668   4.539   0.697   2.333
10257SOL     OW31669   1.567   5.547   4.150
10257SOL    HW131670   1.602   5.628   4.104
10257SOL    HW231671   1.516   5.491   4.084
10258SOL     OW31672   3.760   1.931   3.731
10258SOL    HW131673   3.721   1.885   3.811
10258SOL    HW231674   3.704   2.010   3.707
10259SOL     OW31675   0.882   4.394   3.310
10259SOL    HW131676   0.975   4.358   3.309
10259SOL    HW231677   0.853   4.409   3.404
10260SOL     OW31678   0.524   1.298   3.813
10260SOL    HW131679   0.506   1.395   3.797
10260SOL    HW231680   0.581   1.261   3.739
10261SOL     OW31681   6.552   4.824   0.540
10261SOL    HW131682   6.455   4.799   0.547
10261SOL    HW231683   6.609   4.743   0.551
10262SOL     OW31684   3.117   6.880   6.501
10262SOL    HW131685   3.187   6.877   6.573
10262SOL    HW231686   3.115   6.793   6.453
10263SOL     OW31687   5.978   0.290   0.325
10263SOL    HW131688   6.070   0.320   0.350
10263SOL    HW231689   5.927   0.367   0.287
10264SOL     OW31690   6.564   5.139   6.727
10264SOL    HW131691   6.611   5.122   6.813
10264SOL    HW231692   6.508   5.060   6.703
10265SOL     OW31693   3.675   2.730   0.013
10265SOL    HW131694   3.721   2.815   7.011
10265SOL    HW231695   3.658   2.729   0.111
10266SOL     OW31696   3.774   2.885   2.786
10266SOL    HW131697   3.808   2.863   2.694
10266SOL    HW231698   3.674   2.875   2.788
10267SOL     OW31699   5.412   1.015   0.780
10267SOL    HW131700   5.431   0.971   0.868
10267SOL    HW231701   5.481   1.086   0.763
10268SOL     OW31702   5.558   6.391   2.333
10268SOL    HW131703   5.573   6.441   2.248
10268SOL    HW231704   5.613   6.433   2.406
10269SOL     OW31705   1.512   2.262   6.279
10269SOL    HW131706   1.586   2.328   6.268
10269SOL    HW231707   1.547   2.170   6.260
10270SOL     OW31708   3.046   5.614   3.214
10270SOL    HW131709   3.037   5.571   3.125
10270SOL    HW231710   3.139   5.600   3.248
10271SOL     OW31711   2.892   3.032   0.050
10271SOL    HW131712   2.857   3.089   0.124
10271SOL    HW231713   2.819   2.972   0.017
10272SOL     OW31714   1.364   0.471   4.051
10272SOL    HW131715   1.281   0.523   4.030
10272SOL    HW231716   1.418   0.522   4.119
10273SOL     OW31717   3.079   5.237   4.289
10273SOL    HW131718   3.088   5.199   4.381
10273SOL    HW231719   3.160   5.292   4.268
10274SOL     OW31720   1.443   4.489   5.891
10274SOL    HW131721   1.443   4.399   5.934
10274SOL    HW231722   1.497   4.487   5.807
10275SOL     OW31723   0.185   0.585   2.007
10275SOL    HW131724   0.223   0.494   2.025
10275SOL    HW231725   0.259   0.649   1.987
10276SOL     OW31726   4.521   5.961   5.935
10276SOL    HW131727   4.490   5.881   5.985
10276SOL    HW231728   4.585   5.934   5.863
10277SOL     OW31729   1.246   6.793   4.650
10277SOL    HW131730   1.228   6.839   4.737
10277SOL    HW231731   1.344   6.777   4.640
10278SOL     OW31732   0.935   0.897   3.933
10278SOL    HW131733   0.888   0.980   3.902
10278SOL    HW231734   0.960   0.906   4.029
10279SOL     OW31735   2.104   5.335   4.122
10279SOL    HW131736   2.126   5.368   4.031
10279SOL    HW231737   2.117   5.236   4.126
10280SOL     OW31738   5.847   2.913   6.949
10280SOL    HW131739   5.774   2.980   6.932
10280SOL    HW231740   5.936   2.959   6.947
10281SOL     OW31741   6.678   1.950   3.633
10281SOL    HW131742   6.744   1.940   3.707
10281SOL    HW231743   6.697   2.034   3.582
10282SOL     OW31744   5.219   3.129   3.692
10282SOL    HW131745   5.205   3.222   3.658
10282SOL    HW231746   5.235   3.132   3.790
10283SOL     OW31747   1.268   3.028   0.960
10283SOL    HW131748   1.313   3.039   0.871
10283SOL    HW231749   1.280   2.933   0.992
10284SOL     OW31750   6.210   1.908   5.010
10284SOL    HW131751   6.255   1.823   4.983
10284SOL    HW231752   6.265   1.986   4.980
10285SOL     OW31753   4.334   6.528   3.256
10285SOL    HW131754   4.355   6.611   3.205
10285SOL    HW231755   4.414   6.501   3.310
10286SOL     OW31756   3.236   0.553   4.036
10286SOL    HW131757   3.194   0.643   4.044
10286SOL    HW231758   3.328   0.562   4.000
10287SOL     OW31759   2.251   5.355   2.116
10287SOL    HW131760   2.249   5.445   2.160
10287SOL    HW231761   2.336   5.345   2.065
10288SOL     OW31762   4.069   0.120   3.993
10288SOL    HW131763   4.094   0.043   3.934
10288SOL    HW231764   4.006   0.088   4.064
10289SOL     OW31765   2.864   6.423   0.355
10289SOL    HW131766   2.776   6.417   0.401
10289SOL    HW231767   2.883   6.338   0.306
10290SOL     OW31768   3.135   3.090   2.536
10290SOL    HW131769   3.067   3.158   2.564
10290SOL    HW231770   3.156   3.103   2.439
10291SOL     OW31771   3.710   1.796   3.169
10291SOL    HW131772   3.638   1.861   3.194
10291SOL    HW231773   3.771   1.837   3.102
10292SOL     OW31774   1.079   1.650   5.842
10292SOL    HW131775   1.130   1.733   5.865
10292SOL    HW231776   1.030   1.665   5.756
10293SOL     OW31777   0.904   3.322   3.746
10293SOL    HW131778   0.869   3.374   3.667
10293SOL    HW231779   0.864   3.230   3.745
10294SOL     OW31780   4.270   1.446   2.956
10294SOL    HW131781   4.242   1.350   2.946
10294SOL    HW231782   4.214   1.504   2.896
10295SOL     OW31783   1.205   2.889   5.443
10295SOL    HW131784   1.259   2.948   5.383
10295SOL    HW231785   1.183   2.939   5.527
10296SOL     OW31786   5.814   1.972   5.823
10296SOL    HW131787   5.854   1.963   5.732
10296SOL    HW231788   5.759   2.055   5.828
10297SOL     OW31789   2.606   1.449   6.517
10297SOL    HW131790   2.536   1.378   6.504
10297SOL    HW231791   2.619   1.498   6.431
10298SOL     OW31792   1.684   4.492   1.141
10298SOL    HW131793   1.697   4.398   1.112
10298SOL    HW231794   1.606   4.497   1.204
10299SOL     OW31795   3.680   5.431   2.896
10299SOL    HW131796   3.591   5.448   2.854
10299SOL    HW231797   3.691   5.333   2.912
10300SOL     OW31798   1.523   4.401   1.860
10300SOL    HW131799   1.517   4.303   1.839
10300SOL    HW231800   1.532   4.413   1.959
10301SOL     OW31801   4.287   2.000   5.203
10301SOL    HW131802   4.216   2.030   5.140
10301SOL    HW231803   4.244   1.957   5.283
10302SOL     OW31804   2.090   5.872   5.170
10302SOL    HW131805   2.007   5.832   5.131
10302SOL    HW231806   2.153   5.898   5.097
10303SOL     OW31807   0.862   5.612   3.610
10303SOL    HW131808   0.777   5.567   3.582
10303SOL    HW231809   0.930   5.603   3.538
10304SOL     OW31810   5.600   0.277   1.100
10304SOL    HW131811   5.632   0.214   1.170
10304SOL    HW231812   5.572   0.363   1.142
10305SOL     OW31813   1.940   4.327   5.542
10305SOL    HW131814   2.026   4.278   5.531
10305SOL    HW231815   1.864   4.266   5.517
10306SOL     OW31816   5.524   5.951   0.336
10306SOL    HW131817   5.534   5.915   0.243
10306SOL    HW231818   5.612   5.984   0.369
10307SOL     OW31819   2.969   1.634   5.038
10307SOL    HW131820   2.974   1.707   5.105
10307SOL    HW231821   3.042   1.646   4.970
10308SOL     OW31822   1.920   4.042   1.886
10308SOL    HW131823   1.833   3.997   1.904
10308SOL    HW231824   1.992   3.999   1.939
10309SOL     OW31825   6.851   1.597   6.914
10309SOL    HW131826   6.751   1.598   6.908
10309SOL    HW231827   6.880   1.609   7.009
10310SOL     OW31828   2.687   3.936   0.475
10310SOL    HW131829   2.653   3.885   0.555
10310SOL    HW231830   2.709   4.029   0.503
10311SOL     OW31831   6.486   5.764   0.090
10311SOL    HW131832   6.504   5.856   0.055
10311SOL    HW231833   6.388   5.747   0.089
10312SOL     OW31834   4.785   6.548   2.358
10312SOL    HW131835   4.804   6.616   2.428
10312SOL    HW231836   4.692   6.513   2.369
10313SOL     OW31837   3.484   5.710   2.105
10313SOL    HW131838   3.466   5.774   2.180
10313SOL    HW231839   3.405   5.650   2.093
10314SOL     OW31840   6.788   0.065   0.159
10314SOL    HW131841   6.697   0.052   0.196
10314SOL    HW231842   6.848   0.102   0.230
10315SOL     OW31843   5.917   6.127   4.561
10315SOL    HW131844   5.944   6.069   4.484
10315SOL    HW231845   5.949   6.220   4.546
10316SOL     OW31846   6.938   2.811   5.975
10316SOL    HW131847   6.899   2.752   6.045
10316SOL    HW231848   6.914   2.906   5.994
10317SOL     OW31849   3.923   6.443   6.410
10317SOL    HW131850   3.967   6.426   6.321
10317SOL    HW231851   3.917   6.357   6.461
10318SOL     OW31852   5.073   1.031   6.160
10318SOL    HW131853   5.077   1.037   6.260
10318SOL    HW231854   5.035   1.116   6.123
10319SOL     OW31855   0.786   3.667   5.666
10319SOL    HW131856   0.884   3.662   5.645
10319SOL    HW231857   0.758   3.585   5.716
10320SOL     OW31858   0.512   6.464   2.553
10320SOL    HW131859   0.606   6.441   2.578
10320SOL    HW231860   0.498   6.446   2.456
10321SOL     OW31861   5.945   1.750   1.726
10321SOL    HW131862   5.918   1.654   1.738
10321SOL    HW231863   5.953   1.770   1.629
10322SOL     OW31864   4.548   4.884   4.513
10322SOL    HW131865   4.561   4.950   4.439
10322SOL    HW231866   4.564   4.928   4.601
10323SOL     OW31867   5.826   4.814   5.261
10323SOL    HW131868   5.809   4.748   5.335
10323SOL    HW231869   5.905   4.870   5.283
10324SOL     OW31870   3.850   3.009   1.959
10324SOL    HW131871   3.861   2.929   1.900
10324SOL    HW231872   3.923   3.074   1.940
10325SOL     OW31873   6.517   4.339   2.235
10325SOL    HW131874   6.459   4.362   2.313
10325SOL    HW231875   6.490   4.249   2.199
10326SOL     OW31876   5.313   4.523   6.441
10326SOL    HW131877   5.258   4.582   6.383
10326SOL    HW231878   5.405   4.515   6.404
10327SOL     OW31879   2.339   2.760   1.444
10327SOL    HW131880   2.351   2.684   1.380
10327SOL    HW231881   2.421   2.817   1.444
10328SOL     OW31882   6.290   2.953   0.300
10328SOL    HW131883   6.340   3.010   0.235
10328SOL    HW231884   6.202   2.927   0.261
10329SOL     OW31885   2.621   0.774   3.675
10329SOL    HW131886   2.588   0.779   3.581
10329SOL    HW231887   2.602   0.683   3.712
10330SOL     OW31888   4.244   1.045   2.126
10330SOL    HW131889   4.153   1.015   2.155
10330SOL    HW231890   4.307   0.967   2.130
10331SOL     OW31891   6.650   6.135   5.968
10331SOL    HW131892   6.569   6.102   5.919
10331SOL    HW231893   6.732   6.090   5.932
10332SOL     OW31894   0.125   0.166   0.078
10332SOL    HW131895   0.212   0.133   0.041
10332SOL    HW231896   0.126   0.157   0.178
10333SOL     OW31897   1.089   4.823   4.928
10333SOL    HW131898   1.109   4.921   4.933
10333SOL    HW231899   1.169   4.774   4.894
10334SOL     OW31900   3.740   0.866   4.785
10334SOL    HW131901   3.759   0.769   4.773
10334SOL    HW231902   3.703   0.882   4.876
10335SOL     OW31903   2.088   4.039   0.256
10335SOL    HW131904   2.032   4.097   0.315
10335SOL    HW231905   2.077   4.067   0.161
10336SOL     OW31906   5.764   0.058   1.668
10336SOL    HW131907   5.786   6.993   1.707
10336SOL    HW231908   5.802   0.065   1.576
10337SOL     OW31909   0.742   6.264   6.595
10337SOL    HW131910   0.740   6.202   6.517
10337SOL    HW231911   0.717   6.356   6.564
10338SOL     OW31912   1.763   6.430   2.560
10338SOL    HW131913   1.712   6.444   2.645
10338SOL    HW231914   1.701   6.444   2.482
10339SOL     OW31915   5.462   3.413   5.972
10339SOL    HW131916   5.400   3.480   5.931
10339SOL    HW231917   5.425   3.382   6.060
10340SOL     OW31918   1.544   3.640   0.195
10340SOL    HW131919   1.550   3.545   0.162
10340SOL    HW231920   1.617   3.658   0.260
10341SOL     OW31921   2.126   3.575   2.294
10341SOL    HW131922   2.163   3.522   2.218
10341SOL    HW231923   2.195   3.639   2.328
10342SOL     OW31924   2.235   0.153   4.342
10342SOL    HW131925   2.266   0.169   4.435
10342SOL    HW231926   2.308   0.110   4.289
10343SOL     OW31927   3.141   4.904   6.889
10343SOL    HW131928   3.225   4.957   6.879
10343SOL    HW231929   3.161   4.807   6.873
10344SOL     OW31930   4.332   3.137   0.508
10344SOL    HW131931   4.278   3.163   0.428
10344SOL    HW231932   4.377   3.218   0.546
10345SOL     OW31933   1.765   1.910   6.808
10345SOL    HW131934   1.729   1.841   6.745
10345SOL    HW231935   1.779   1.868   6.898
10346SOL     OW31936   0.336   5.349   1.461
10346SOL    HW131937   0.324   5.370   1.364
10346SOL    HW231938   0.247   5.350   1.507
10347SOL     OW31939   3.721   1.142   3.142
10347SOL    HW131940   3.809   1.114   3.105
10347SOL    HW231941   3.648   1.086   3.102
10348SOL     OW31942   6.572   2.792   0.276
10348SOL    HW131943   6.524   2.835   0.353
10348SOL    HW231944   6.595   2.698   0.300
10349SOL     OW31945   1.544   0.874   0.248
10349SOL    HW131946   1.498   0.798   0.203
10349SOL    HW231947   1.506   0.886   0.340
10350SOL     OW31948   2.657   5.160   5.292
10350SOL    HW131949   2.636   5.196   5.383
10350SOL    HW231950   2.592   5.197   5.226
10351SOL     OW31951   4.669   4.973   6.946
10351SOL    HW131952   4.638   5.032   6.871
10351SOL    HW231953   4.591   4.925   6.985
10352SOL     OW31954   3.698   1.117   6.396
10352SOL    HW131955   3.732   1.023   6.389
10352SOL    HW231956   3.632   1.134   6.323
10353SOL     OW31957   6.649   3.430   4.898
10353SOL    HW131958   6.626   3.497   4.968
10353SOL    HW231959   6.609   3.342   4.920
10354SOL     OW31960   5.813   2.049   2.203
10354SOL    HW131961   5.739   1.990   2.174
10354SOL    HW231962   5.900   2.013   2.169
10355SOL     OW31963   2.442   6.855   1.701
10355SOL    HW131964   2.487   6.855   1.791
10355SOL    HW231965   2.372   6.784   1.699
10356SOL     OW31966   0.314   5.081   5.272
10356SOL    HW131967   0.288   5.086   5.176
10356SOL    HW231968   0.365   4.996   5.288
10357SOL     OW31969   2.122   2.736   6.288
10357SOL    HW131970   2.209   2.708   6.328
10357SOL    HW231971   2.116   2.836   6.286
10358SOL     OW31972   0.206   2.640   3.838
10358SOL    HW131973   0.297   2.675   3.814
10358SOL    HW231974   0.178   2.678   3.926
10359SOL     OW31975   0.679   2.048   1.020
10359SOL    HW131976   0.589   2.070   1.057
10359SOL    HW231977   0.735   2.131   1.016
10360SOL     OW31978   4.903   4.703   3.144
10360SOL    HW131979   4.808   4.729   3.160
10360SOL    HW231980   4.933   4.638   3.214
10361SOL     OW31981   2.461   6.489   2.704
10361SOL    HW131982   2.480   6.447   2.615
10361SOL    HW231983   2.547   6.504   2.752
10362SOL     OW31984   1.834   4.995   4.991
10362SOL    HW131985   1.913   4.948   5.029
10362SOL    HW231986   1.784   4.934   4.930
10363SOL     OW31987   4.910   0.633   2.676
10363SOL    HW131988   4.873   0.725   2.664
10363SOL    HW231989   4.994   0.638   2.729
10364SOL     OW31990   3.147   3.377   1.680
10364SOL    HW131991   3.228   3.325   1.653
10364SOL    HW231992   3.079   3.314   1.718
10365SOL     OW31993   3.864   5.058   6.864
10365SOL    HW131994   3.943   5.024   6.813
10365SOL    HW231995   3.892   5.080   6.958
10366SOL     OW31996   2.598   0.446   4.226
10366SOL    HW131997   2.550   0.367   4.265
10366SOL    HW231998   2.686   0.417   4.190
10367SOL     OW31999   5.723   2.697   2.344
10367SOL    HW132000   5.675   2.672   2.429
10367SOL    HW232001   5.666   2.671   2.266
10368SOL     OW32002   2.180   1.591   1.201
10368SOL    HW132003   2.163   1.666   1.137
10368SOL    HW232004   2.190   1.506   1.150
10369SOL     OW32005   3.993   1.582   6.702
10369SOL    HW132006   3.970   1.616   6.611
10369SOL    HW232007   3.919   1.604   6.765
10370SOL     OW32008   4.879   1.685   5.008
10370SOL    HW132009   4.850   1.597   4.970
10370SOL    HW232010   4.799   1.743   5.023
10371SOL     OW32011   3.674   5.688   5.372
10371SOL    HW132012   3.756   5.656   5.419
10371SOL    HW232013   3.694   5.774   5.325
10372SOL     OW32014   1.747   1.336   5.526
10372SOL    HW132015   1.818   1.286   5.575
10372SOL    HW232016   1.779   1.360   5.435
10373SOL     OW32017   2.032   6.402   4.832
10373SOL    HW132018   1.970   6.367   4.902
10373SOL    HW232019   2.127   6.387   4.862
10374SOL     OW32020   3.199   1.495   2.843
10374SOL    HW132021   3.149   1.409   2.857
10374SOL    HW232022   3.137   1.572   2.857
10375SOL     OW32023   4.426   1.903   0.011
10375SOL    HW132024   4.372   1.951   0.080
10375SOL    HW232025   4.445   1.810   0.042
10376SOL     OW32026   1.127   6.588   3.727
10376SOL    HW132027   1.072   6.650   3.671
10376SOL    HW232028   1.195   6.543   3.669
10377SOL     OW32029   6.099   0.781   3.845
10377SOL    HW132030   6.116   0.691   3.884
10377SOL    HW232031   6.176   0.807   3.786
10378SOL     OW32032   6.747   0.913   5.696
10378SOL    HW132033   6.815   0.977   5.731
10378SOL    HW232034   6.788   0.822   5.687
10379SOL     OW32035   4.436   0.482   4.912
10379SOL    HW132036   4.476   0.447   4.827
10379SOL    HW232037   4.338   0.462   4.912
10380SOL     OW32038   5.730   0.654   3.114
10380SOL    HW132039   5.819   0.608   3.120
10380SOL    HW232040   5.744   0.753   3.106
10381SOL     OW32041   4.873   5.756   5.986
10381SOL    HW132042   4.910   5.665   5.967
10381SOL    HW232043   4.898   5.818   5.912
10382SOL     OW32044   2.515   4.758   6.194
10382SOL    HW132045   2.494   4.852   6.217
10382SOL    HW232046   2.438   4.699   6.218
10383SOL     OW32047   0.592   3.237   0.749
10383SOL    HW132048   0.504   3.271   0.717
10383SOL    HW232049   0.645   3.203   0.671
10384SOL     OW32050   0.573   0.281   0.516
10384SOL    HW132051   0.561   0.200   0.458
10384SOL    HW232052   0.484   0.314   0.547
10385SOL     OW32053   5.148   6.878   6.019
10385SOL    HW132054   5.191   6.818   5.952
10385SOL    HW232055   5.093   6.947   5.972
10386SOL     OW32056   6.943   3.784   5.283
10386SOL    HW132057   6.910   3.878   5.275
10386SOL    HW232058   6.867   3.721   5.272
10387SOL     OW32059   2.768   1.856   2.652
10387SOL    HW132060   2.689   1.910   2.623
10387SOL    HW232061   2.851   1.891   2.607
10388SOL     OW32062   1.129   5.568   3.992
10388SOL    HW132063   1.132   5.508   3.911
10388SOL    HW232064   1.091   5.656   3.966
10389SOL     OW32065   0.632   5.312   2.541
10389SOL    HW132066   0.656   5.404   2.573
10389SOL    HW232067   0.629   5.312   2.441
10390SOL     OW32068   1.463   3.940   2.534
10390SOL    HW132069   1.549   3.901   2.565
10390SOL    HW232070   1.401   3.866   2.506
10391SOL     OW32071   1.098   6.014   6.774
10391SOL    HW132072   1.192   6.026   6.806
10391SOL    HW232073   1.060   6.102   6.747
10392SOL     OW32074   6.649   3.917   0.539
10392SOL    HW132075   6.638   3.837   0.480
10392SOL    HW232076   6.739   3.914   0.583
10393SOL     OW32077   0.485   1.574   3.786
10393SOL    HW132078   0.557   1.642   3.802
10393SOL    HW232079   0.460   1.574   3.689
10394SOL     OW32080   2.211   7.006   6.578
10394SOL    HW132081   2.292   6.963   6.616
10394SOL    HW232082   2.129   6.960   6.612
10395SOL     OW32083   6.614   0.912   4.203
10395SOL    HW132084   6.572   0.831   4.162
10395SOL    HW232085   6.683   0.884   4.270
10396SOL     OW32086   1.158   0.591   3.654
10396SOL    HW132087   1.073   0.634   3.686
10396SOL    HW232088   1.137   0.501   3.617
10397SOL     OW32089   3.814   0.815   3.415
10397SOL    HW132090   3.778   0.908   3.419
10397SOL    HW232091   3.746   0.751   3.450
10398SOL     OW32092   6.375   2.598   0.739
10398SOL    HW132093   6.362   2.628   0.645
10398SOL    HW232094   6.433   2.517   0.741
10399SOL     OW32095   4.473   2.100   5.627
10399SOL    HW132096   4.379   2.125   5.650
10399SOL    HW232097   4.506   2.031   5.692
10400SOL     OW32098   2.799   5.925   2.900
10400SOL    HW132099   2.751   5.951   2.816
10400SOL    HW232100   2.851   5.841   2.884
10401SOL     OW32101   6.435   5.817   2.067
10401SOL    HW132102   6.366   5.745   2.072
10401SOL    HW232103   6.447   5.845   1.972
10402SOL     OW32104   0.059   2.776   5.274
10402SOL    HW132105   6.991   2.741   5.257
10402SOL    HW232106   0.093   2.740   5.361
10403SOL     OW32107   5.156   1.542   2.545
10403SOL    HW132108   5.194   1.573   2.631
10403SOL    HW232109   5.152   1.442   2.543
10404SOL     OW32110   1.025   6.803   4.239
10404SOL    HW132111   1.022   6.809   4.339
10404SOL    HW232112   1.092   6.734   4.212
10405SOL     OW32113   1.274   5.590   5.279
10405SOL    HW132114   1.316   5.640   5.203
10405SOL    HW232115   1.300   5.493   5.273
10406SOL     OW32116   1.885   4.580   5.483
10406SOL    HW132117   1.824   4.632   5.543
10406SOL    HW232118   1.881   4.483   5.509
10407SOL     OW32119   1.409   1.108   6.045
10407SOL    HW132120   1.359   1.168   6.107
10407SOL    HW232121   1.362   1.019   6.040
10408SOL     OW32122   4.649   4.907   3.174
10408SOL    HW132123   4.670   4.969   3.250
10408SOL    HW232124   4.591   4.955   3.108
10409SOL     OW32125   0.172   3.933   1.745
10409SOL    HW132126   0.247   3.963   1.804
10409SOL    HW232127   0.188   3.839   1.716
10410SOL     OW32128   5.122   0.982   1.287
10410SOL    HW132129   5.041   1.016   1.333
10410SOL    HW232130   5.118   1.005   1.190
10411SOL     OW32131   1.985   4.870   3.364
10411SOL    HW132132   1.972   4.838   3.270
10411SOL    HW232133   1.904   4.921   3.394
10412SOL     OW32134   0.806   2.338   6.604
10412SOL    HW132135   0.719   2.329   6.555
10412SOL    HW232136   0.811   2.268   6.676
10413SOL     OW32137   0.607   1.747   0.190
10413SOL    HW132138   0.630   1.695   0.272
10413SOL    HW232139   0.551   1.826   0.214
10414SOL     OW32140   5.117   6.444   6.489
10414SOL    HW132141   5.021   6.425   6.506
10414SOL    HW232142   5.130   6.543   6.479
10415SOL     OW32143   0.717   5.442   3.260
10415SOL    HW132144   0.683   5.530   3.227
10415SOL    HW232145   0.790   5.410   3.199
10416SOL     OW32146   6.497   2.464   5.437
10416SOL    HW132147   6.439   2.520   5.378
10416SOL    HW232148   6.591   2.498   5.432
10417SOL     OW32149   3.930   5.307   2.769
10417SOL    HW132150   4.020   5.340   2.797
10417SOL    HW232151   3.869   5.384   2.756
10418SOL     OW32152   6.847   3.940   5.531
10418SOL    HW132153   6.917   3.971   5.465
10418SOL    HW232154   6.866   3.981   5.620
10419SOL     OW32155   3.418   0.712   5.384
10419SOL    HW132156   3.421   0.784   5.314
10419SOL    HW232157   3.425   0.622   5.340
10420SOL     OW32158   6.330   3.196   3.069
10420SOL    HW132159   6.394   3.201   2.993
10420SOL    HW232160   6.332   3.103   3.108
10421SOL     OW32161   0.936   4.897   3.376
10421SOL    HW132162   0.956   4.806   3.339
10421SOL    HW232163   0.845   4.897   3.418
10422SOL     OW32164   6.875   3.746   4.876
10422SOL    HW132165   6.887   3.712   4.970
10422SOL    HW232166   6.914   3.838   4.869
10423SOL     OW32167   3.512   5.240   4.308
10423SOL    HW132168   3.571   5.293   4.248
10423SOL    HW232169   3.515   5.143   4.281
10424SOL     OW32170   4.025   1.344   6.867
10424SOL    HW132171   3.991   1.435   6.840
10424SOL    HW232172   4.122   1.336   6.844
10425SOL     OW32173   1.981   0.426   1.239
10425SOL    HW132174   1.938   0.379   1.161
10425SOL    HW232175   1.991   0.523   1.218
10426SOL     OW32176   4.987   2.992   5.484
10426SOL    HW132177   4.957   2.900   5.460
10426SOL    HW232178   5.068   3.016   5.431
10427SOL     OW32179   4.957   6.224   5.110
10427SOL    HW132180   5.005   6.308   5.085
10427SOL    HW232181   4.859   6.243   5.118
10428SOL     OW32182   1.502   1.696   3.341
10428SOL    HW132183   1.583   1.640   3.357
10428SOL    HW232184   1.461   1.722   3.429
10429SOL     OW32185   1.018   3.422   2.596
10429SOL    HW132186   1.038   3.514   2.563
10429SOL    HW232187   1.066   3.407   2.682
10430SOL     OW32188   3.783   6.759   3.835
10430SOL    HW132189   3.828   6.842   3.803
10430SOL    HW232190   3.770   6.696   3.759
10431SOL     OW32191   2.833   2.053   3.901
10431SOL    HW132192   2.851   1.969   3.952
10431SOL    HW232193   2.845   2.036   3.803
10432SOL     OW32194   6.738   6.931   5.875
10432SOL    HW132195   6.741   7.021   5.832
10432SOL    HW232196   6.813   6.922   5.940
10433SOL     OW32197   2.143   6.768   1.746
10433SOL    HW132198   2.108   6.702   1.812
10433SOL    HW232199   2.210   6.827   1.792
10434SOL     OW32200   4.910   0.438   6.071
10434SOL    HW132201   4.972   0.514   6.052
10434SOL    HW232202   4.894   0.386   5.987
10435SOL     OW32203   0.961   2.147   6.390
10435SOL    HW132204   1.043   2.095   6.417
10435SOL    HW232205   0.933   2.207   6.464
10436SOL     OW32206   0.662   4.407   4.826
10436SOL    HW132207   0.621   4.317   4.834
10436SOL    HW232208   0.760   4.398   4.810
10437SOL     OW32209   5.249   4.987   5.174
10437SOL    HW132210   5.283   5.006   5.266
10437SOL    HW232211   5.310   4.922   5.129
10438SOL     OW32212   6.783   6.227   6.314
10438SOL    HW132213   6.699   6.190   6.276
10438SOL    HW232214   6.761   6.300   6.379
10439SOL     OW32215   0.321   0.081   4.343
10439SOL    HW132216   0.412   0.122   4.339
10439SOL    HW232217   0.252   0.153   4.331
10440SOL     OW32218   0.246   1.891   6.749
10440SOL    HW132219   0.152   1.857   6.740
10440SOL    HW232220   0.308   1.813   6.758
10441SOL     OW32221   3.406   1.778   0.917
10441SOL    HW132222   3.449   1.850   0.863
10441SOL    HW232223   3.445   1.689   0.891
10442SOL     OW32224   2.849   1.266   5.582
10442SOL    HW132225   2.912   1.195   5.551
10442SOL    HW232226   2.879   1.300   5.672
10443SOL     OW32227   0.023   1.130   3.357
10443SOL    HW132228   0.062   1.214   3.319
10443SOL    HW232229   6.948   1.144   3.371
10444SOL     OW32230   3.706   5.894   3.598
10444SOL    HW132231   3.683   5.806   3.557
10444SOL    HW232232   3.783   5.883   3.660
10445SOL     OW32233   1.407   4.182   2.632
10445SOL    HW132234   1.479   4.241   2.596
10445SOL    HW232235   1.421   4.088   2.600
10446SOL     OW32236   1.733   4.274   5.169
10446SOL    HW132237   1.780   4.289   5.083
10446SOL    HW232238   1.636   4.254   5.151
10447SOL     OW32239   6.862   2.166   2.656
10447SOL    HW132240   6.908   2.241   2.610
10447SOL    HW232241   6.764   2.170   2.638
10448SOL     OW32242   2.231   6.943   3.192
10448SOL    HW132243   2.307   6.975   3.247
10448SOL    HW232244   2.152   6.926   3.251
10449SOL     OW32245   3.249   5.907   6.475
10449SOL    HW132246   3.330   5.884   6.421
10449SOL    HW232247   3.169   5.913   6.415
10450SOL     OW32248   6.206   0.409   5.718
10450SOL    HW132249   6.236   0.457   5.635
10450SOL    HW232250   6.163   0.475   5.780
10451SOL     OW32251   1.845   0.466   4.457
10451SOL    HW132252   1.879   0.548   4.411
10451SOL    HW232253   1.886   0.385   4.414
10452SOL     OW32254   0.102   3.811   3.817
10452SOL    HW132255   0.175   3.743   3.815
10452SOL    HW232256   0.108   3.868   3.735
10453SOL     OW32257   4.456   5.837   3.429
10453SOL    HW132258   4.510   5.920   3.413
10453SOL    HW232259   4.384   5.829   3.360
10454SOL     OW32260   6.247   1.681   6.413
10454SOL    HW132261   6.212   1.751   6.351
10454SOL    HW232262   6.248   1.717   6.506
10455SOL     OW32263   6.434   6.347   4.504
10455SOL    HW132264   6.343   6.306   4.492
10455SOL    HW232265   6.442   6.428   4.447
10456SOL     OW32266   0.042   5.361   6.952
10456SOL    HW132267   0.116   5.369   6.886
10456SOL    HW232268   6.988   5.417   6.924
10457SOL     OW32269   3.960   2.622   0.329
10457SOL    HW132270   4.060   2.633   0.336
10457SOL    HW232271   3.920   2.706   0.293
10458SOL     OW32272   6.829   6.634   6.135
10458SOL    HW132273   6.921   6.626   6.098
10458SOL    HW232274   6.774   6.556   6.106
10459SOL     OW32275   0.109   5.331   0.370
10459SOL    HW132276   0.146   5.297   0.284
10459SOL    HW232277   0.038   5.269   0.402
10460SOL     OW32278   6.996   4.027   1.043
10460SOL    HW132279   0.053   4.002   1.097
10460SOL    HW232280   7.023   4.046   0.949
10461SOL     OW32281   6.976   4.737   5.296
10461SOL    HW132282   6.973   4.803   5.372
10461SOL    HW232283   6.884   4.705   5.275
10462SOL     OW32284   4.995   1.585   1.318
10462SOL    HW132285   4.965   1.602   1.224
10462SOL    HW232286   4.915   1.574   1.377
10463SOL     OW32287   4.652   2.755   6.375
10463SOL    HW132288   4.732   2.708   6.413
10463SOL    HW232289   4.681   2.841   6.333
10464SOL     OW32290   5.346   5.299   2.931
10464SOL    HW132291   5.257   5.330   2.899
10464SOL    HW232292   5.418   5.354   2.887
10465SOL     OW32293   5.538   3.345   2.453
10465SOL    HW132294   5.454   3.324   2.402
10465SOL    HW232295   5.603   3.390   2.392
10466SOL     OW32296   5.568   4.959   6.220
10466SOL    HW132297   5.668   4.966   6.226
10466SOL    HW232298   5.528   4.979   6.309
10467SOL     OW32299   1.918   3.035   6.679
10467SOL    HW132300   1.911   3.116   6.621
10467SOL    HW232301   2.013   3.002   6.679
10468SOL     OW32302   2.464   5.000   3.780
10468SOL    HW132303   2.445   5.069   3.850
10468SOL    HW232304   2.546   4.949   3.805
10469SOL     OW32305   5.824   2.393   5.537
10469SOL    HW132306   5.876   2.320   5.492
10469SOL    HW232307   5.862   2.482   5.511
10470SOL     OW32308   2.449   2.375   4.122
10470SOL    HW132309   2.417   2.401   4.031
10470SOL    HW232310   2.535   2.325   4.115
10471SOL     OW32311   2.695   0.874   0.126
10471SOL    HW132312   2.629   0.874   0.201
10471SOL    HW232313   2.683   0.791   0.071
10472SOL     OW32314   3.732   4.865   0.398
10472SOL    HW132315   3.730   4.778   0.347
10472SOL    HW232316   3.769   4.849   0.489
10473SOL     OW32317   5.610   5.680   6.356
10473SOL    HW132318   5.605   5.773   6.392
10473SOL    HW232319   5.547   5.671   6.279
10474SOL     OW32320   5.247   1.061   3.845
10474SOL    HW132321   5.214   0.970   3.821
10474SOL    HW232322   5.345   1.056   3.867
10475SOL     OW32323   2.155   6.094   2.002
10475SOL    HW132324   2.155   6.192   2.021
10475SOL    HW232325   2.242   6.054   2.031
10476SOL     OW32326   3.779   6.261   0.181
10476SOL    HW132327   3.842   6.234   0.254
10476SOL    HW232328   3.703   6.195   0.176
10477SOL     OW32329   6.928   6.272   4.159
10477SOL    HW132330   6.907   6.178   4.185
10477SOL    HW232331   6.844   6.327   4.164
10478SOL     OW32332   5.980   6.774   0.271
10478SOL    HW132333   6.011   6.869   0.274
10478SOL    HW232334   5.896   6.766   0.325
10479SOL     OW32335   6.950   2.456   2.891
10479SOL    HW132336   6.939   2.385   2.961
10479SOL    HW232337   6.862   2.474   2.847
10480SOL     OW32338   1.625   6.942   2.349
10480SOL    HW132339   1.626   0.009   2.305
10480SOL    HW232340   1.569   6.880   2.294
10481SOL     OW32341   0.741   6.902   3.037
10481SOL    HW132342   0.818   6.964   3.023
10481SOL    HW232343   0.727   6.848   2.954
10482SOL     OW32344   5.870   4.199   4.078
10482SOL    HW132345   5.807   4.223   4.004
10482SOL    HW232346   5.875   4.099   4.086
10483SOL     OW32347   5.699   5.663   6.999
10483SOL    HW132348   5.738   5.650   6.908
10483SOL    HW232349   5.661   5.577   0.009
10484SOL     OW32350   5.889   1.197   0.773
10484SOL    HW132351   5.925   1.267   0.835
10484SOL    HW232352   5.950   1.189   0.694
10485SOL     OW32353   4.212   4.314   6.173
10485SOL    HW132354   4.204   4.281   6.267
10485SOL    HW232355   4.210   4.236   6.110
10486SOL     OW32356   6.493   2.887   0.555
10486SOL    HW132357   6.473   2.875   0.652
10486SOL    HW232358   6.504   2.985   0.536
10487SOL     OW32359   5.934   6.517   1.413
10487SOL    HW132360   5.837   6.525   1.390
10487SOL    HW232361   5.973   6.437   1.367
10488SOL     OW32362   2.928   3.272   6.248
10488SOL    HW132363   2.925   3.296   6.151
10488SOL    HW232364   3.015   3.225   6.267
10489SOL     OW32365   0.607   6.382   5.910
10489SOL    HW132366   0.656   6.456   5.957
10489SOL    HW232367   0.667   6.341   5.842
10490SOL     OW32368   6.045   1.210   3.178
10490SOL    HW132369   6.018   1.180   3.269
10490SOL    HW232370   5.964   1.238   3.127
10491SOL     OW32371   1.621   3.994   6.056
10491SOL    HW132372   1.612   3.910   6.003
10491SOL    HW232373   1.717   4.021   6.059
10492SOL     OW32374   4.973   3.719   5.170
10492SOL    HW132375   4.923   3.644   5.126
10492SOL    HW232376   5.043   3.754   5.107
10493SOL     OW32377   3.379   0.810   1.237
10493SOL    HW132378   3.302   0.783   1.296
10493SOL    HW232379   3.432   0.729   1.213
10494SOL     OW32380   5.622   2.398   4.476
10494SOL    HW132381   5.538   2.430   4.520
10494SOL    HW232382   5.673   2.476   4.439
10495SOL     OW32383   1.768   6.658   0.814
10495SOL    HW132384   1.694   6.723   0.829
10495SOL    HW232385   1.788   6.610   0.899
10496SOL     OW32386   0.389   6.841   0.422
10496SOL    HW132387   0.370   6.747   0.395
10496SOL    HW232388   0.322   6.871   0.490
10497SOL     OW32389   1.632   0.303   1.003
10497SOL    HW132390   1.537   0.331   0.988
10497SOL    HW232391   1.676   0.367   1.066
10498SOL     OW32392   2.703   6.949   0.194
10498SOL    HW132393   2.798   6.926   0.217
10498SOL    HW232394   2.655   6.982   0.275
10499SOL     OW32395   2.726   6.458   3.043
10499SOL    HW132396   2.794   6.395   3.006
10499SOL    HW232397   2.703   6.527   2.975
10500SOL     OW32398   0.089   1.637   5.786
10500SOL    HW132399   0.031   1.571   5.832
10500SOL    HW232400   0.184   1.625   5.816
10501SOL     OW32401   2.161   5.055   2.779
10501SOL    HW132402   2.105   5.056   2.862
10501SOL    HW232403   2.236   4.990   2.790
10502SOL     OW32404   3.080   6.798   1.115
10502SOL    HW132405   3.135   6.716   1.130
10502SOL    HW232406   3.120   6.851   1.041
10503SOL     OW32407   4.152   2.886   0.502
10503SOL    HW132408   4.226   2.819   0.498
10503SOL    HW232409   4.190   2.977   0.519
10504SOL     OW32410   1.698   2.824   0.268
10504SOL    HW132411   1.702   2.915   0.311
10504SOL    HW232412   1.733   2.830   0.175
10505SOL     OW32413   5.760   5.962   0.898
10505SOL    HW132414   5.791   5.910   0.818
10505SOL    HW232415   5.826   5.952   0.972
10506SOL     OW32416   0.365   4.576   6.367
10506SOL    HW132417   0.304   4.632   6.424
10506SOL    HW232418   0.337   4.481   6.370
10507SOL     OW32419   2.167   0.009   0.297
10507SOL    HW132420   2.243   7.004   0.239
10507SOL    HW232421   2.152   6.965   0.369
10508SOL     OW32422   5.389   5.393   3.370
10508SOL    HW132423   5.392   5.300   3.406
10508SOL    HW232424   5.482   5.423   3.349
10509SOL     OW32425   0.982   6.559   6.526
10509SOL    HW132426   0.930   6.638   6.558
10509SOL    HW232427   1.030   6.518   6.603
10510SOL     OW32428   6.128   4.850   6.194
10510SOL    HW132429   6.045   4.818   6.146
10510SOL    HW232430   6.109   4.857   6.292
10511SOL     OW32431   4.577   3.138   0.767
10511SOL    HW132432   4.508   3.117   0.836
10511SOL    HW232433   4.609   3.052   0.726
10512SOL     OW32434   4.237   1.116   6.477
10512SOL    HW132435   4.162   1.051   6.468
10512SOL    HW232436   4.206   1.207   6.450
10513SOL     OW32437   6.840   2.391   6.157
10513SOL    HW132438   6.939   2.386   6.145
10513SOL    HW232439   6.810   2.318   6.218
10514SOL     OW32440   6.311   4.223   0.481
10514SOL    HW132441   6.369   4.159   0.430
10514SOL    HW232442   6.306   4.194   0.576
10515SOL     OW32443   6.387   2.203   3.125
10515SOL    HW132444   6.410   2.190   3.029
10515SOL    HW232445   6.467   2.183   3.182
10516SOL     OW32446   4.913   0.718   6.370
10516SOL    HW132447   4.852   0.663   6.426
10516SOL    HW232448   4.962   0.784   6.427
10517SOL     OW32449   0.331   2.194   2.112
10517SOL    HW132450   0.303   2.242   2.195
10517SOL    HW232451   0.428   2.211   2.094
10518SOL     OW32452   1.125   5.065   0.166
10518SOL    HW132453   1.087   5.146   0.211
10518SOL    HW232454   1.075   4.984   0.195
10519SOL     OW32455   3.263   3.007   5.634
10519SOL    HW132456   3.291   2.925   5.684
10519SOL    HW232457   3.194   2.983   5.565
10520SOL     OW32458   2.839   2.905   6.691
10520SOL    HW132459   2.854   3.004   6.687
10520SOL    HW232460   2.924   2.858   6.670
10521SOL     OW32461   6.430   6.382   1.156
10521SOL    HW132462   6.429   6.363   1.254
10521SOL    HW232463   6.509   6.339   1.113
10522SOL     OW32464   6.623   0.613   0.293
10522SOL    HW132465   6.561   0.689   0.276
10522SOL    HW232466   6.671   0.628   0.380
10523SOL     OW32467   0.484   6.169   4.441
10523SOL    HW132468   0.475   6.074   4.413
10523SOL    HW232469   0.494   6.173   4.541
10524SOL     OW32470   1.795   0.452   5.023
10524SOL    HW132471   1.776   0.399   4.941
10524SOL    HW232472   1.792   0.549   5.001
10525SOL     OW32473   3.170   6.234   5.515
10525SOL    HW132474   3.084   6.277   5.542
10525SOL    HW232475   3.247   6.294   5.539
10526SOL     OW32476   0.381   0.393   2.733
10526SOL    HW132477   0.282   0.379   2.732
10526SOL    HW232478   0.406   0.460   2.663
10527SOL     OW32479   1.232   2.928   4.332
10527SOL    HW132480   1.318   2.975   4.351
10527SOL    HW232481   1.244   2.866   4.255
10528SOL     OW32482   1.469   4.259   5.073
10528SOL    HW132483   1.436   4.200   5.147
10528SOL    HW232484   1.485   4.204   4.992
10529SOL     OW32485   1.032   5.684   2.442
10529SOL    HW132486   0.970   5.736   2.501
10529SOL    HW232487   1.053   5.738   2.360
10530SOL     OW32488   2.140   1.605   6.396
10530SOL    HW132489   2.075   1.628   6.324
10530SOL    HW232490   2.167   1.689   6.444
10531SOL     OW32491   2.060   3.702   4.455
10531SOL    HW132492   2.125   3.665   4.389
10531SOL    HW232493   1.969   3.664   4.437
10532SOL     OW32494   2.163   3.043   0.411
10532SOL    HW132495   2.089   2.997   0.460
10532SOL    HW232496   2.237   2.978   0.396
10533SOL     OW32497   2.565   1.488   4.247
10533SOL    HW132498   2.547   1.552   4.172
10533SOL    HW232499   2.485   1.483   4.307
10534SOL     OW32500   0.042   5.761   0.901
10534SOL    HW132501   0.085   5.850   0.918
10534SOL    HW232502   0.032   5.748   0.802
10535SOL     OW32503   0.003   1.660   2.502
10535SOL    HW132504   7.005   1.736   2.564
10535SOL    HW232505   0.057   1.694   2.425
10536SOL     OW32506   3.866   0.351   2.566
10536SOL    HW132507   3.788   0.301   2.528
10536SOL    HW232508   3.834   0.436   2.608
10537SOL     OW32509   3.353   5.612   3.361
10537SOL    HW132510   3.408   5.529   3.363
10537SOL    HW232511   3.281   5.606   3.431
10538SOL     OW32512   4.376   3.159   6.717
10538SOL    HW132513   4.467   3.120   6.705
10538SOL    HW232514   4.335   3.175   6.627
10539SOL     OW32515   0.543   3.919   6.509
10539SOL    HW132516   0.581   3.838   6.553
10539SOL    HW232517   0.556   3.998   6.568
10540SOL     OW32518   1.356   0.667   5.856
10540SOL    HW132519   1.391   0.576   5.834
10540SOL    HW232520   1.431   0.733   5.851
10541SOL     OW32521   3.387   3.831   1.547
10541SOL    HW132522   3.361   3.925   1.522
10541SOL    HW232523   3.466   3.834   1.608
10542SOL     OW32524   6.977   1.608   0.698
10542SOL    HW132525   6.880   1.618   0.677
10542SOL    HW232526   0.001   1.568   0.620
10543SOL     OW32527   6.849   1.605   5.393
10543SOL    HW132528   6.887   1.675   5.452
10543SOL    HW232529   6.885   1.616   5.300
10544SOL     OW32530   2.338   1.506   2.738
10544SOL    HW132531   2.361   1.479   2.645
10544SOL    HW232532   2.409   1.474   2.801
10545SOL     OW32533   6.919   6.700   2.301
10545SOL    HW132534   6.920   6.600   2.296
10545SOL    HW232535   6.915   6.738   2.209
10546SOL     OW32536   1.343   0.310   5.191
10546SOL    HW132537   1.401   0.384   5.225
10546SOL    HW232538   1.380   0.274   5.105
10547SOL     OW32539   4.959   1.367   2.709
10547SOL    HW132540   4.912   1.455   2.716
10547SOL    HW232541   4.945   1.329   2.618
10548SOL     OW32542   5.354   3.841   4.642
10548SOL    HW132543   5.421   3.897   4.594
10548SOL    HW232544   5.262   3.870   4.616
10549SOL     OW32545   6.766   0.322   2.537
10549SOL    HW132546   6.810   0.386   2.474
10549SOL    HW232547   6.676   0.296   2.501
10550SOL     OW32548   4.486   6.582   4.475
10550SOL    HW132549   4.497   6.668   4.524
10550SOL    HW232550   4.409   6.589   4.411
10551SOL     OW32551   1.691   2.566   4.976
10551SOL    HW132552   1.633   2.636   5.016
10551SOL    HW232553   1.762   2.540   5.041
10552SOL     OW32554   3.844   1.625   4.983
10552SOL    HW132555   3.782   1.702   4.967
10552SOL    HW232556   3.804   1.565   5.052
10553SOL     OW32557   1.111   4.854   1.228
10553SOL    HW132558   1.012   4.844   1.228
10553SOL    HW232559   1.145   4.847   1.134
10554SOL     OW32560   5.988   4.493   6.705
10554SOL    HW132561   5.951   4.428   6.772
10554SOL    HW232562   6.008   4.580   6.751
10555SOL     OW32563   2.987   2.066   1.653
10555SOL    HW132564   2.956   2.136   1.589
10555SOL    HW232565   2.911   2.003   1.673
10556SOL     OW32566   2.135   3.150   4.840
10556SOL    HW132567   2.177   3.061   4.825
10556SOL    HW232568   2.173   3.216   4.775
10557SOL     OW32569   0.871   2.404   3.530
10557SOL    HW132570   0.901   2.317   3.491
10557SOL    HW232571   0.828   2.387   3.619
10558SOL     OW32572   4.171   0.422   4.915
10558SOL    HW132573   4.154   0.334   4.871
10558SOL    HW232574   4.148   0.417   5.012
10559SOL     OW32575   4.172   1.506   1.327
10559SOL    HW132576   4.133   1.427   1.375
10559SOL    HW232577   4.177   1.485   1.229
10560SOL     OW32578   1.793   5.528   5.128
10560SOL    HW132579   1.739   5.544   5.045
10560SOL    HW232580   1.771   5.598   5.196
10561SOL     OW32581   2.163   4.959   0.442
10561SOL    HW132582   2.132   5.051   0.468
10561SOL    HW232583   2.185   4.958   0.344
10562SOL     OW32584   5.168   0.245   0.784
10562SOL    HW132585   5.254   0.194   0.773
10562SOL    HW232586   5.188   0.336   0.819
10563SOL     OW32587   1.797   1.041   4.579
10563SOL    HW132588   1.866   0.991   4.632
10563SOL    HW232589   1.709   0.994   4.586
10564SOL     OW32590   5.588   6.697   1.533
10564SOL    HW132591   5.511   6.751   1.501
10564SOL    HW232592   5.627   6.645   1.457
10565SOL     OW32593   0.522   0.909   5.591
10565SOL    HW132594   0.477   0.861   5.666
10565SOL    HW232595   0.614   0.871   5.579
10566SOL     OW32596   3.954   3.787   6.653
10566SOL    HW132597   3.968   3.735   6.738
10566SOL    HW232598   3.915   3.727   6.583
10567SOL     OW32599   2.140   3.572   4.182
10567SOL    HW132600   2.173   3.545   4.091
10567SOL    HW232601   2.086   3.656   4.174
10568SOL     OW32602   5.771   1.403   2.611
10568SOL    HW132603   5.696   1.462   2.640
10568SOL    HW232604   5.853   1.458   2.593
10569SOL     OW32605   6.668   3.348   2.400
10569SOL    HW132606   6.669   3.376   2.304
10569SOL    HW232607   6.751   3.296   2.420
10570SOL     OW32608   1.198   4.481   2.653
10570SOL    HW132609   1.140   4.417   2.703
10570SOL    HW232610   1.257   4.531   2.717
10571SOL     OW32611   6.630   5.451   3.514
10571SOL    HW132612   6.556   5.431   3.450
10571SOL    HW232613   6.607   5.413   3.604
10572SOL     OW32614   6.013   4.023   2.984
10572SOL    HW132615   6.087   4.090   2.984
10572SOL    HW232616   5.947   4.045   2.913
10573SOL     OW32617   5.841   6.568   2.825
10573SOL    HW132618   5.924   6.512   2.824
10573SOL    HW232619   5.867   6.664   2.838
10574SOL     OW32620   1.612   1.942   3.642
10574SOL    HW132621   1.629   1.849   3.611
10574SOL    HW232622   1.699   1.989   3.657
10575SOL     OW32623   0.345   0.434   3.795
10575SOL    HW132624   0.286   0.491   3.851
10575SOL    HW232625   0.439   0.439   3.828
10576SOL     OW32626   0.668   6.970   4.785
10576SOL    HW132627   0.622   7.019   4.712
10576SOL    HW232628   0.767   6.971   4.769
10577SOL     OW32629   1.269   3.194   6.536
10577SOL    HW132630   1.207   3.148   6.599
10577SOL    HW232631   1.216   3.244   6.468
10578SOL     OW32632   6.297   1.173   4.813
10578SOL    HW132633   6.238   1.133   4.743
10578SOL    HW232634   6.357   1.102   4.850
10579SOL     OW32635   4.342   1.215   1.076
10579SOL    HW132636   4.420   1.185   1.129
10579SOL    HW232637   4.319   1.146   1.007
10580SOL     OW32638   6.904   6.771   6.711
10580SOL    HW132639   6.897   6.858   6.663
10580SOL    HW232640   6.913   6.697   6.644
10581SOL     OW32641   6.123   0.054   2.694
10581SOL    HW132642   6.119   7.004   2.626
10581SOL    HW232643   6.183   0.027   2.770
10582SOL     OW32644   4.016   4.910   6.705
10582SOL    HW132645   4.008   4.873   6.613
10582SOL    HW232646   3.968   4.851   6.770
10583SOL     OW32647   4.181   1.037   6.870
10583SOL    HW132648   4.250   1.039   6.942
10583SOL    HW232649   4.149   0.944   6.857
10584SOL     OW32650   5.133   6.442   1.105
10584SOL    HW132651   5.187   6.488   1.176
10584SOL    HW232652   5.126   6.345   1.126
10585SOL     OW32653   1.885   2.914   5.711
10585SOL    HW132654   1.919   3.005   5.687
10585SOL    HW232655   1.916   2.848   5.643
10586SOL     OW32656   2.083   5.938   6.020
10586SOL    HW132657   2.079   5.877   5.942
10586SOL    HW232658   2.036   6.024   5.998
10587SOL     OW32659   5.700   3.011   0.447
10587SOL    HW132660   5.709   3.106   0.416
10587SOL    HW232661   5.725   2.949   0.372
10588SOL     OW32662   1.173   4.073   1.884
10588SOL    HW132663   1.097   4.068   1.819
10588SOL    HW232664   1.139   4.094   1.975
10589SOL     OW32665   5.804   1.666   4.229
10589SOL    HW132666   5.752   1.664   4.143
10589SOL    HW232667   5.778   1.747   4.281
10590SOL     OW32668   1.482   6.771   2.162
10590SOL    HW132669   1.511   6.680   2.134
10590SOL    HW232670   1.457   6.825   2.081
10591SOL     OW32671   1.566   1.740   6.116
10591SOL    HW132672   1.636   1.683   6.073
10591SOL    HW232673   1.545   1.704   6.207
10592SOL     OW32674   5.353   2.024   0.055
10592SOL    HW132675   5.254   2.016   0.070
10592SOL    HW232676   5.390   2.096   0.113
10593SOL     OW32677   2.798   6.143   0.874
10593SOL    HW132678   2.782   6.045   0.885
10593SOL    HW232679   2.737   6.180   0.805
10594SOL     OW32680   6.179   1.783   3.720
10594SOL    HW132681   6.178   1.798   3.819
10594SOL    HW232682   6.274   1.781   3.688
10595SOL     OW32683   3.499   7.021   6.008
10595SOL    HW132684   3.403   0.024   6.011
10595SOL    HW232685   3.511   6.933   6.054
10596SOL     OW32686   3.790   6.950   1.542
10596SOL    HW132687   3.776   6.922   1.637
10596SOL    HW232688   3.759   6.878   1.481
10597SOL     OW32689   2.782   1.211   4.624
10597SOL    HW132690   2.754   1.277   4.693
10597SOL    HW232691   2.753   1.242   4.533
10598SOL     OW32692   2.560   2.614   6.613
10598SOL    HW132693   2.570   2.689   6.678
10598SOL    HW232694   2.480   2.629   6.556
10599SOL     OW32695   5.537   1.268   0.062
10599SOL    HW132696   5.561   1.317   7.002
10599SOL    HW232697   5.473   1.323   0.115
10600SOL     OW32698   1.979   3.385   6.662
10600SOL    HW132699   2.054   3.336   6.707
10600SOL    HW232700   1.933   3.324   6.598
10601SOL     OW32701   2.890   5.200   5.861
10601SOL    HW132702   2.808   5.147   5.883
10601SOL    HW232703   2.901   5.273   5.929
10602SOL     OW32704   5.148   1.403   2.039
10602SOL    HW132705   5.148   1.457   2.123
10602SOL    HW232706   5.153   1.464   1.960
10603SOL     OW32707   1.305   6.467   3.575
10603SOL    HW132708   1.289   6.397   3.505
10603SOL    HW232709   1.339   6.425   3.658
10604SOL     OW32710   5.832   4.278   4.632
10604SOL    HW132711   5.855   4.374   4.650
10604SOL    HW232712   5.905   4.219   4.665
10605SOL     OW32713   0.689   4.997   0.263
10605SOL    HW132714   0.647   5.067   0.320
10605SOL    HW232715   0.633   4.914   0.266
10606SOL     OW32716   6.650   0.657   1.537
10606SOL    HW132717   6.609   0.587   1.478
10606SOL    HW232718   6.736   0.622   1.575
10607SOL     OW32719   3.689   4.532   6.002
10607SOL    HW132720   3.651   4.585   6.078
10607SOL    HW232721   3.787   4.519   6.017
10608SOL     OW32722   6.025   1.993   4.786
10608SOL    HW132723   6.097   1.943   4.833
10608SOL    HW232724   6.065   2.050   4.714
10609SOL     OW32725   3.441   6.013   1.326
10609SOL    HW132726   3.509   5.965   1.380
10609SOL    HW232727   3.456   5.995   1.229
10610SOL     OW32728   0.867   3.977   6.715
10610SOL    HW132729   0.917   3.902   6.672
10610SOL    HW232730   0.928   4.026   6.778
10611SOL     OW32731   5.682   3.136   6.874
10611SOL    HW132732   5.683   3.227   6.914
10611SOL    HW232733   5.722   3.139   6.782
10612SOL     OW32734   2.356   0.120   6.355
10612SOL    HW132735   2.442   0.168   6.374
10612SOL    HW232736   2.334   0.061   6.432
10613SOL     OW32737   6.550   0.213   5.970
10613SOL    HW132738   6.630   0.202   5.911
10613SOL    HW232739   6.570   0.176   6.060
10614SOL     OW32740   6.547   0.397   3.836
10614SOL    HW132741   6.566   0.490   3.867
10614SOL    HW232742   6.493   0.400   3.751
10615SOL     OW32743   4.223   5.618   5.495
10615SOL    HW132744   4.146   5.573   5.538
10615SOL    HW232745   4.249   5.570   5.411
10616SOL     OW32746   2.993   6.624   0.200
10616SOL    HW132747   2.962   6.543   0.251
10616SOL    HW232748   3.075   6.601   0.147
10617SOL     OW32749   1.989   2.326   0.624
10617SOL    HW132750   2.063   2.285   0.571
10617SOL    HW232751   1.973   2.273   0.707
10618SOL     OW32752   6.278   2.692   0.497
10618SOL    HW132753   6.330   2.776   0.514
10618SOL    HW232754   6.180   2.713   0.492
10619SOL     OW32755   0.995   3.921   3.148
10619SOL    HW132756   1.086   3.921   3.105
10619SOL    HW232757   1.005   3.939   3.246
10620SOL     OW32758   1.165   5.840   5.563
10620SOL    HW132759   1.103   5.802   5.494
10620SOL    HW232760   1.252   5.789   5.561
10621SOL     OW32761   1.783   5.641   0.271
10621SOL    HW132762   1.735   5.729   0.274
10621SOL    HW232763   1.880   5.655   0.285
10622SOL     OW32764   4.695   0.858   2.074
10622SOL    HW132765   4.751   0.934   2.108
10622SOL    HW232766   4.753   0.795   2.022
10623SOL     OW32767   5.763   2.601   3.607
10623SOL    HW132768   5.728   2.531   3.544
10623SOL    HW232769   5.706   2.603   3.689
10624SOL     OW32770   1.076   1.326   5.320
10624SOL    HW132771   1.029   1.365   5.241
10624SOL    HW232772   1.027   1.350   5.404
10625SOL     OW32773   0.525   4.471   6.888
10625SOL    HW132774   0.591   4.456   6.814
10625SOL    HW232775   0.553   4.422   6.970
10626SOL     OW32776   1.747   2.298   1.686
10626SOL    HW132777   1.650   2.298   1.713
10626SOL    HW232778   1.790   2.383   1.715
10627SOL     OW32779   6.699   6.109   2.449
10627SOL    HW132780   6.666   6.019   2.477
10627SOL    HW232781   6.723   6.162   2.531
10628SOL     OW32782   6.108   5.294   5.213
10628SOL    HW132783   6.032   5.318   5.152
10628SOL    HW232784   6.075   5.297   5.308
10629SOL     OW32785   2.317   4.508   6.156
10629SOL    HW132786   2.260   4.440   6.110
10629SOL    HW232787   2.350   4.472   6.243
10630SOL     OW32788   6.262   0.218   3.750
10630SOL    HW132789   6.220   0.154   3.686
10630SOL    HW232790   6.267   0.176   3.841
10631SOL     OW32791   1.389   6.878   4.216
10631SOL    HW132792   1.407   6.916   4.126
10631SOL    HW232793   1.339   6.792   4.207
10632SOL     OW32794   6.170   2.128   4.591
10632SOL    HW132795   6.197   2.032   4.600
10632SOL    HW232796   6.217   2.169   4.512
10633SOL     OW32797   2.610   4.618   1.044
10633SOL    HW132798   2.518   4.598   1.009
10633SOL    HW232799   2.652   4.689   0.987
10634SOL     OW32800   2.886   5.879   0.263
10634SOL    HW132801   2.853   5.943   0.194
10634SOL    HW232802   2.932   5.928   0.336
10635SOL     OW32803   3.519   1.088   0.916
10635SOL    HW132804   3.579   1.119   0.989
10635SOL    HW232805   3.434   1.141   0.917
10636SOL     OW32806   0.385   1.728   1.322
10636SOL    HW132807   0.344   1.643   1.289
10636SOL    HW232808   0.357   1.803   1.263
10637SOL     OW32809   3.043   3.988   5.444
10637SOL    HW132810   3.072   3.910   5.388
10637SOL    HW232811   3.025   4.066   5.384
10638SOL     OW32812   0.506   6.498   3.878
10638SOL    HW132813   0.551   6.577   3.838
10638SOL    HW232814   0.573   6.425   3.894
10639SOL     OW32815   0.627   1.390   4.244
10639SOL    HW132816   0.594   1.482   4.265
10639SOL    HW232817   0.670   1.351   4.325
10640SOL     OW32818   4.422   0.156   6.908
10640SOL    HW132819   4.377   0.093   6.972
10640SOL    HW232820   4.406   0.125   6.814
10641SOL     OW32821   5.102   1.912   0.074
10641SOL    HW132822   5.141   1.915   0.166
10641SOL    HW232823   5.058   1.824   0.059
10642SOL     OW32824   0.309   2.149   1.336
10642SOL    HW132825   0.215   2.156   1.301
10642SOL    HW232826   0.341   2.239   1.364
10643SOL     OW32827   2.229   3.732   5.582
10643SOL    HW132828   2.226   3.784   5.667
10643SOL    HW232829   2.245   3.794   5.506
10644SOL     OW32830   4.539   1.851   4.038
10644SOL    HW132831   4.506   1.868   4.131
10644SOL    HW232832   4.628   1.894   4.026
10645SOL     OW32833   0.898   0.970   4.891
10645SOL    HW132834   0.804   0.937   4.897
10645SOL    HW232835   0.946   0.952   4.977
10646SOL     OW32836   0.462   2.703   5.961
10646SOL    HW132837   0.376   2.754   5.964
10646SOL    HW232838   0.514   2.720   6.045
10647SOL     OW32839   6.198   5.206   0.037
10647SOL    HW132840   6.118   5.264   0.025
10647SOL    HW232841   6.264   5.251   0.097
10648SOL     OW32842   5.084   3.516   6.779
10648SOL    HW132843   5.174   3.490   6.745
10648SOL    HW232844   5.057   3.604   6.739
10649SOL     OW32845   0.038   4.913   4.415
10649SOL    HW132846   6.966   4.934   4.437
10649SOL    HW232847   0.098   4.960   4.480
10650SOL     OW32848   1.987   6.395   3.992
10650SOL    HW132849   2.060   6.336   3.956
10650SOL    HW232850   2.027   6.481   4.023
10651SOL     OW32851   4.555   0.045   5.625
10651SOL    HW132852   4.616   0.034   5.546
10651SOL    HW232853   4.497   6.988   5.634
10652SOL     OW32854   3.245   0.117   6.012
10652SOL    HW132855   3.239   0.206   5.967
10652SOL    HW232856   3.170   0.107   6.076
10653SOL     OW32857   5.042   4.424   4.757
10653SOL    HW132858   5.064   4.348   4.696
10653SOL    HW232859   5.075   4.404   4.849
10654SOL     OW32860   2.965   0.312   1.550
10654SOL    HW132861   2.901   0.252   1.598
10654SOL    HW232862   3.048   0.260   1.525
10655SOL     OW32863   3.023   5.460   2.209
10655SOL    HW132864   2.972   5.396   2.266
10655SOL    HW232865   3.012   5.436   2.113
10656SOL     OW32866   6.145   2.231   6.839
10656SOL    HW132867   6.116   2.291   6.764
10656SOL    HW232868   6.243   2.217   6.833
10657SOL     OW32869   5.895   6.829   1.167
10657SOL    HW132870   5.803   6.799   1.191
10657SOL    HW232871   5.893   6.925   1.138
10658SOL     OW32872   1.335   4.717   4.848
10658SOL    HW132873   1.370   4.660   4.923
10658SOL    HW232874   1.399   4.791   4.830
10659SOL     OW32875   5.895   6.822   0.783
10659SOL    HW132876   5.817   6.882   0.803
10659SOL    HW232877   5.875   6.730   0.816
10660SOL     OW32878   4.888   3.694   5.826
10660SOL    HW132879   4.885   3.790   5.856
10660SOL    HW232880   4.802   3.670   5.782
10661SOL     OW32881   0.158   6.634   1.916
10661SOL    HW132882   0.142   6.594   2.006
10661SOL    HW232883   0.160   6.562   1.847
10662SOL     OW32884   6.793   0.997   0.521
10662SOL    HW132885   6.715   0.962   0.574
10662SOL    HW232886   6.873   0.940   0.539
10663SOL     OW32887   0.413   0.129   1.681
10663SOL    HW132888   0.329   0.175   1.709
10663SOL    HW232889   0.469   0.191   1.626
10664SOL     OW32890   2.325   3.965   0.111
10664SOL    HW132891   2.242   3.963   0.167
10664SOL    HW232892   2.405   3.952   0.170
10665SOL     OW32893   0.383   1.900   0.254
10665SOL    HW132894   0.314   1.896   0.326
10665SOL    HW232895   0.339   1.899   0.164
10666SOL     OW32896   3.545   5.388   6.928
10666SOL    HW132897   3.592   5.387   6.839
10666SOL    HW232898   3.447   5.402   6.914
10667SOL     OW32899   3.788   1.961   5.319
10667SOL    HW132900   3.768   1.979   5.415
10667SOL    HW232901   3.704   1.931   5.273
10668SOL     OW32902   1.574   1.834   6.464
10668SOL    HW132903   1.540   1.744   6.437
10668SOL    HW232904   1.505   1.879   6.523
10669SOL     OW32905   0.986   0.144   0.676
10669SOL    HW132906   1.045   0.145   0.757
10669SOL    HW232907   1.040   0.168   0.595
10670SOL     OW32908   5.655   4.678   5.854
10670SOL    HW132909   5.701   4.749   5.800
10670SOL    HW232910   5.563   4.663   5.817
10671SOL     OW32911   2.447   2.643   2.946
10671SOL    HW132912   2.417   2.726   2.898
10671SOL    HW232913   2.368   2.593   2.980
10672SOL     OW32914   0.386   2.295   0.270
10672SOL    HW132915   0.400   2.236   0.191
10672SOL    HW232916   0.473   2.338   0.296
10673SOL     OW32917   2.817   2.859   5.551
10673SOL    HW132918   2.786   2.774   5.592
10673SOL    HW232919   2.759   2.883   5.473
10674SOL     OW32920   4.039   3.888   0.774
10674SOL    HW132921   4.111   3.901   0.843
10674SOL    HW232922   4.016   3.977   0.734
10675SOL     OW32923   0.129   0.573   5.896
10675SOL    HW132924   0.204   0.604   5.838
10675SOL    HW232925   0.159   0.573   5.991
10676SOL     OW32926   6.144   0.438   6.271
10676SOL    HW132927   6.193   0.504   6.214
10676SOL    HW232928   6.120   0.357   6.217
10677SOL     OW32929   0.283   0.710   2.427
10677SOL    HW132930   0.308   0.798   2.385
10677SOL    HW232931   0.358   0.678   2.484
10678SOL     OW32932   2.896   5.468   2.624
10678SOL    HW132933   2.986   5.426   2.638
10678SOL    HW232934   2.834   5.437   2.697
10679SOL     OW32935   6.120   5.480   4.237
10679SOL    HW132936   6.022   5.485   4.251
10679SOL    HW232937   6.167   5.525   4.314
10680SOL     OW32938   1.373   3.094   2.532
10680SOL    HW132939   1.421   3.076   2.446
10680SOL    HW232940   1.275   3.077   2.519
10681SOL     OW32941   6.129   3.925   6.176
10681SOL    HW132942   6.070   3.958   6.249
10681SOL    HW232943   6.176   3.842   6.206
10682SOL     OW32944   0.901   1.535   2.630
10682SOL    HW132945   0.952   1.619   2.610
10682SOL    HW232946   0.831   1.521   2.560
10683SOL     OW32947   1.542   2.279   4.553
10683SOL    HW132948   1.578   2.186   4.558
10683SOL    HW232949   1.615   2.341   4.526
10684SOL     OW32950   5.986   3.938   0.435
10684SOL    HW132951   5.983   3.871   0.509
10684SOL    HW232952   5.937   4.021   0.462
10685SOL     OW32953   0.711   3.922   3.387
10685SOL    HW132954   0.686   3.910   3.291
10685SOL    HW232955   0.806   3.892   3.401
10686SOL     OW32956   3.425   6.244   6.966
10686SOL    HW132957   3.335   6.199   6.971
10686SOL    HW232958   3.419   6.336   7.005
10687SOL     OW32959   6.976   4.938   2.723
10687SOL    HW132960   6.878   4.927   2.706
10687SOL    HW232961   7.020   4.975   2.641
10688SOL     OW32962   6.991   4.294   2.369
10688SOL    HW132963   6.991   4.249   2.458
10688SOL    HW232964   6.902   4.280   2.325
10689SOL     OW32965   6.941   0.616   2.724
10689SOL    HW132966   6.845   0.635   2.743
10689SOL    HW232967   6.959   0.519   2.740
10690SOL     OW32968   4.252   5.719   2.351
10690SOL    HW132969   4.219   5.653   2.419
10690SOL    HW232970   4.320   5.675   2.293
10691SOL     OW32971   0.028   1.051   1.507
10691SOL    HW132972   0.061   1.081   1.597
10691SOL    HW232973   0.059   1.115   1.437
10692SOL     OW32974   3.574   6.258   3.671
10692SOL    HW132975   3.646   6.255   3.741
10692SOL    HW232976   3.596   6.194   3.598
10693SOL     OW32977   0.124   1.635   1.500
10693SOL    HW132978   0.211   1.685   1.496
10693SOL    HW232979   0.115   1.592   1.589
10694SOL     OW32980   3.672   5.889   1.410
10694SOL    HW132981   3.695   5.864   1.316
10694SOL    HW232982   3.688   5.987   1.423
10695SOL     OW32983   0.619   2.503   4.453
10695SOL    HW132984   0.616   2.573   4.381
10695SOL    HW232985   0.546   2.519   4.519
10696SOL     OW32986   0.262   6.016   1.241
10696SOL    HW132987   0.310   6.043   1.324
10696SOL    HW232988   0.305   6.058   1.161
10697SOL     OW32989   0.708   6.281   3.923
10697SOL    HW132990   0.767   6.313   3.848
10697SOL    HW232991   0.731   6.187   3.946
10698SOL     OW32992   2.869   0.067   3.265
10698SOL    HW132993   2.916   0.154   3.251
10698SOL    HW232994   2.797   0.079   3.333
10699SOL     OW32995   3.996   1.696   2.786
10699SOL    HW132996   3.936   1.720   2.710
10699SOL    HW232997   4.066   1.632   2.755
10700SOL     OW32998   6.917   6.405   1.129
10700SOL    HW132999   6.852   6.478   1.148
10700SOL    HW233000   7.002   6.444   1.092
10701SOL     OW33001   3.596   6.097   0.142
10701SOL    HW133002   3.537   6.027   0.182
10701SOL    HW233003   3.544   6.152   0.077
10702SOL     OW33004   6.184   2.465   7.012
10702SOL    HW133005   6.143   2.402   6.946
10702SOL    HW233006   6.159   2.435   0.081
10703SOL     OW33007   4.006   3.878   3.365
10703SOL    HW133008   3.969   3.803   3.311
10703SOL    HW233009   4.036   3.844   3.455
10704SOL     OW33010   5.106   0.478   2.316
10704SOL    HW133011   5.026   0.509   2.265
10704SOL    HW233012   5.186   0.531   2.286
10705SOL     OW33013   1.122   3.336   6.345
10705SOL    HW133014   1.049   3.298   6.288
10705SOL    HW233015   1.167   3.411   6.297
10706SOL     OW33016   4.064   0.566   1.658
10706SOL    HW133017   3.968   0.570   1.633
10706SOL    HW233018   4.083   0.634   1.729
10707SOL     OW33019   6.225   6.997   5.774
10707SOL    HW133020   6.264   6.904   5.778
10707SOL    HW233021   6.288   0.037   5.820
10708SOL     OW33022   5.111   0.941   0.784
10708SOL    HW133023   5.022   0.934   0.739
10708SOL    HW233024   5.173   0.994   0.726
10709SOL     OW33025   6.063   6.983   5.280
10709SOL    HW133026   6.011   0.007   5.351
10709SOL    HW233027   6.051   6.884   5.290
10710SOL     OW33028   5.998   5.895   3.719
10710SOL    HW133029   6.034   5.916   3.628
10710SOL    HW233030   5.957   5.977   3.758
10711SOL     OW33031   1.753   0.058   4.413
10711SOL    HW133032   1.734   6.983   4.411
10711SOL    HW233033   1.730   0.094   4.503
10712SOL     OW33034   3.878   1.116   4.828
10712SOL    HW133035   3.831   1.034   4.795
10712SOL    HW233036   3.947   1.090   4.895
10713SOL     OW33037   2.171   6.030   1.644
10713SOL    HW133038   2.232   6.108   1.653
10713SOL    HW233039   2.207   5.953   1.697
10714SOL     OW33040   0.509   5.175   4.872
10714SOL    HW133041   0.502   5.251   4.936
10714SOL    HW233042   0.573   5.107   4.906
10715SOL     OW33043   4.823   1.895   4.023
10715SOL    HW133044   4.895   1.962   4.042
10715SOL    HW233045   4.843   1.850   3.936
10716SOL     OW33046   6.153   0.836   4.153
10716SOL    HW133047   6.093   0.854   4.076
10716SOL    HW233048   6.215   0.761   4.130
10717SOL     OW33049   6.883   0.570   1.670
10717SOL    HW133050   6.942   0.632   1.721
10717SOL    HW233051   6.932   0.484   1.653
10718SOL     OW33052   6.521   5.197   6.413
10718SOL    HW133053   6.555   5.287   6.387
10718SOL    HW233054   6.594   5.146   6.459
10719SOL     OW33055   5.694   1.013   1.855
10719SOL    HW133056   5.608   1.057   1.828
10719SOL    HW233057   5.757   1.083   1.889
10720SOL     OW33058   0.307   3.591   6.627
10720SOL    HW133059   0.317   3.685   6.593
10720SOL    HW233060   0.336   3.527   6.557
10721SOL     OW33061   6.069   2.218   4.255
10721SOL    HW133062   5.972   2.201   4.272
10721SOL    HW233063   6.115   2.132   4.233
10722SOL     OW33064   6.698   3.703   0.369
10722SOL    HW133065   6.604   3.670   0.363
10722SOL    HW233066   6.732   3.725   0.277
10723SOL     OW33067   5.389   4.082   6.796
10723SOL    HW133068   5.397   4.115   6.702
10723SOL    HW233069   5.474   4.099   6.845
10724SOL     OW33070   4.017   6.434   6.132
10724SOL    HW133071   3.996   6.531   6.119
10724SOL    HW233072   4.114   6.418   6.117
10725SOL     OW33073   0.444   6.153   3.980
10725SOL    HW133074   0.525   6.122   4.029
10725SOL    HW233075   0.438   6.252   3.985
10726SOL     OW33076   5.787   0.039   4.429
10726SOL    HW133077   5.839   6.993   4.478
10726SOL    HW233078   5.806   0.033   4.332
10727SOL     OW33079   2.162   5.711   5.821
10727SOL    HW133080   2.091   5.651   5.859
10727SOL    HW233081   2.251   5.668   5.833
10728SOL     OW33082   4.677   6.623   2.970
10728SOL    HW133083   4.718   6.533   2.984
10728SOL    HW233084   4.717   6.665   2.889
10729SOL     OW33085   6.160   2.612   2.888
10729SOL    HW133086   6.144   2.705   2.920
10729SOL    HW233087   6.173   2.551   2.966
10730SOL     OW33088   1.640   6.854   2.610
10730SOL    HW133089   1.620   6.888   2.518
10730SOL    HW233090   1.554   6.835   2.658
10731SOL     OW33091   3.382   6.518   0.244
10731SOL    HW133092   3.313   6.533   0.173
10731SOL    HW233093   3.338   6.487   0.328
10732SOL     OW33094   5.804   5.772   2.752
10732SOL    HW133095   5.822   5.679   2.784
10732SOL    HW233096   5.827   5.837   2.825
10733SOL     OW33097   6.372   1.282   5.959
10733SOL    HW133098   6.400   1.197   5.915
10733SOL    HW233099   6.436   1.354   5.936
10734SOL     OW33100   1.619   1.087   6.262
10734SOL    HW133101   1.569   1.085   6.176
10734SOL    HW233102   1.636   0.993   6.293
10735SOL     OW33103   1.476   4.888   1.850
10735SOL    HW133104   1.516   4.975   1.820
10735SOL    HW233105   1.459   4.830   1.771
10736SOL     OW33106   6.807   0.044   3.472
10736SOL    HW133107   6.812   0.137   3.509
10736SOL    HW233108   6.900   0.007   3.466
10737SOL     OW33109   0.012   1.265   1.348
10737SOL    HW133110   7.021   1.298   1.254
10737SOL    HW233111   0.096   1.305   1.384
10738SOL     OW33112   2.565   0.716   2.998
10738SOL    HW133113   2.570   0.742   2.901
10738SOL    HW233114   2.533   0.794   3.052
10739SOL     OW33115   5.883   1.716   2.458
10739SOL    HW133116   5.898   1.652   2.382
10739SOL    HW233117   5.786   1.717   2.481
10740SOL     OW33118   1.580   6.604   5.788
10740SOL    HW133119   1.666   6.645   5.815
10740SOL    HW233120   1.571   6.608   5.688
10741SOL     OW33121   1.763   2.667   3.388
10741SOL    HW133122   1.775   2.756   3.432
10741SOL    HW233123   1.669   2.658   3.355
10742SOL     OW33124   6.290   5.449   2.515
10742SOL    HW133125   6.320   5.469   2.422
10742SOL    HW233126   6.206   5.499   2.534
10743SOL     OW33127   3.509   1.165   5.316
10743SOL    HW133128   3.601   1.170   5.356
10743SOL    HW233129   3.494   1.243   5.255
10744SOL     OW33130   2.799   0.376   0.812
10744SOL    HW133131   2.881   0.334   0.851
10744SOL    HW233132   2.744   0.306   0.766
10745SOL     OW33133   2.245   4.488   1.102
10745SOL    HW133134   2.304   4.506   1.024
10745SOL    HW233135   2.221   4.391   1.105
10746SOL     OW33136   2.039   6.524   6.993
10746SOL    HW133137   1.944   6.498   6.972
10746SOL    HW233138   2.101   6.460   6.949
10747SOL     OW33139   6.671   1.999   4.146
10747SOL    HW133140   6.732   1.968   4.218
10747SOL    HW233141   6.700   2.090   4.114
10748SOL     OW33142   4.087   5.242   1.219
10748SOL    HW133143   4.097   5.143   1.207
10748SOL    HW233144   4.149   5.273   1.292
10749SOL     OW33145   6.399   5.198   3.156
10749SOL    HW133146   6.315   5.145   3.147
10749SOL    HW233147   6.448   5.198   3.069
10750SOL     OW33148   4.776   2.731   3.859
10750SOL    HW133149   4.726   2.657   3.813
10750SOL    HW233150   4.744   2.738   3.954
10751SOL     OW33151   1.047   3.830   5.048
10751SOL    HW133152   1.085   3.747   5.008
10751SOL    HW233153   1.089   3.846   5.137
10752SOL     OW33154   5.763   6.207   0.549
10752SOL    HW133155   5.786   6.110   0.542
10752SOL    HW233156   5.693   6.230   0.481
10753SOL     OW33157   5.128   6.196   3.871
10753SOL    HW133158   5.215   6.234   3.841
10753SOL    HW233159   5.100   6.241   3.956
10754SOL     OW33160   1.491   3.049   2.014
10754SOL    HW133161   1.504   3.139   2.055
10754SOL    HW233162   1.555   3.037   1.938
10755SOL     OW33163   6.426   2.870   0.821
10755SOL    HW133164   6.394   2.778   0.844
10755SOL    HW233165   6.353   2.935   0.837
10756SOL     OW33166   0.094   2.718   0.611
10756SOL    HW133167   0.010   2.713   0.557
10756SOL    HW233168   0.072   2.715   0.708
10757SOL     OW33169   6.332   4.228   0.979
10757SOL    HW133170   6.261   4.220   0.910
10757SOL    HW233171   6.399   4.155   0.967
10758SOL     OW33172   0.658   6.605   6.781
10758SOL    HW133173   0.681   6.695   6.817
10758SOL    HW233174   0.682   6.600   6.684
10759SOL     OW33175   2.028   1.890   6.709
10759SOL    HW133176   1.952   1.927   6.761
10759SOL    HW233177   2.061   1.806   6.754
10760SOL     OW33178   0.288   5.665   0.041
10760SOL    HW133179   0.365   5.709   7.020
10760SOL    HW233180   0.215   5.732   0.056
10761SOL     OW33181   0.708   1.775   6.205
10761SOL    HW133182   0.616   1.764   6.243
10761SOL    HW233183   0.776   1.741   6.271
10762SOL     OW33184   4.073   0.330   5.665
10762SOL    HW133185   4.011   0.293   5.597
10762SOL    HW233186   4.035   0.316   5.757
10763SOL     OW33187   5.545   0.216   3.262
10763SOL    HW133188   5.498   0.223   3.350
10763SOL    HW233189   5.634   0.174   3.276
10764SOL     OW33190   4.440   1.218   4.947
10764SOL    HW133191   4.533   1.206   4.913
10764SOL    HW233192   4.430   1.310   4.986
10765SOL     OW33193   6.454   2.273   2.589
10765SOL    HW133194   6.394   2.338   2.635
10765SOL    HW233195   6.474   2.305   2.496
10766SOL     OW33196   1.197   4.741   6.833
10766SOL    HW133197   1.203   4.684   6.750
10766SOL    HW233198   1.101   4.751   6.858
10767SOL     OW33199   1.647   5.976   0.856
10767SOL    HW133200   1.555   5.937   0.859
10767SOL    HW233201   1.700   5.931   0.784
10768SOL     OW33202   5.924   6.044   0.154
10768SOL    HW133203   5.837   6.013   0.116
10768SOL    HW233204   5.944   5.993   0.237
10769SOL     OW33205   2.895   3.633   5.097
10769SOL    HW133206   2.871   3.649   5.002
10769SOL    HW233207   2.980   3.680   5.119
10770SOL     OW33208   5.559   6.733   4.399
10770SOL    HW133209   5.630   6.697   4.460
10770SOL    HW233210   5.479   6.759   4.454
10771SOL     OW33211   5.516   6.252   5.725
10771SOL    HW133212   5.471   6.163   5.724
10771SOL    HW233213   5.485   6.306   5.647
10772SOL     OW33214   5.662   5.428   3.324
10772SOL    HW133215   5.656   5.346   3.267
10772SOL    HW233216   5.750   5.473   3.308
10773SOL     OW33217   6.791   4.616   1.111
10773SOL    HW133218   6.752   4.606   1.019
10773SOL    HW233219   6.835   4.530   1.137
10774SOL     OW33220   1.177   2.181   1.011
10774SOL    HW133221   1.187   2.279   1.029
10774SOL    HW233222   1.127   2.168   0.926
10775SOL     OW33223   1.582   4.431   0.856
10775SOL    HW133224   1.644   4.503   0.826
10775SOL    HW233225   1.488   4.463   0.851
10776SOL     OW33226   0.016   0.965   3.136
10776SOL    HW133227   0.101   0.990   3.089
10776SOL    HW233228   0.012   1.011   3.225
10777SOL     OW33229   2.832   0.927   3.118
10777SOL    HW133230   2.878   0.844   3.087
10777SOL    HW233231   2.795   0.976   3.039
10778SOL     OW33232   6.273   6.390   4.022
10778SOL    HW133233   6.217   6.428   4.096
10778SOL    HW233234   6.220   6.388   3.937
10779SOL     OW33235   5.987   3.927   4.223
10779SOL    HW133236   5.916   3.974   4.276
10779SOL    HW233237   6.050   3.880   4.285
10780SOL     OW33238   0.779   5.907   4.617
10780SOL    HW133239   0.865   5.880   4.574
10780SOL    HW233240   0.754   5.841   4.688
10781SOL     OW33241   5.771   2.646   4.833
10781SOL    HW133242   5.751   2.554   4.869
10781SOL    HW233243   5.866   2.669   4.854
10782SOL     OW33244   0.838   3.177   5.328
10782SOL    HW133245   0.793   3.098   5.285
10782SOL    HW233246   0.798   3.192   5.419
10783SOL     OW33247   0.890   2.274   2.611
10783SOL    HW133248   0.891   2.369   2.581
10783SOL    HW233249   0.846   2.217   2.543
10784SOL     OW33250   3.243   6.111   2.286
10784SOL    HW133251   3.247   6.028   2.342
10784SOL    HW233252   3.335   6.148   2.275
10785SOL     OW33253   1.812   5.562   2.288
10785SOL    HW133254   1.820   5.654   2.326
10785SOL    HW233255   1.745   5.561   2.214
10786SOL     OW33256   4.898   1.622   2.432
10786SOL    HW133257   4.980   1.565   2.442
10786SOL    HW233258   4.836   1.579   2.367
10787SOL     OW33259   3.337   0.941   3.678
10787SOL    HW133260   3.359   0.942   3.581
10787SOL    HW233261   3.258   1.000   3.695
10788SOL     OW33262   0.595   4.322   0.107
10788SOL    HW133263   0.557   4.393   0.167
10788SOL    HW233264   0.594   4.234   0.155
10789SOL     OW33265   5.992   1.278   0.190
10789SOL    HW133266   6.053   1.200   0.205
10789SOL    HW233267   5.964   1.281   0.095
10790SOL     OW33268   0.349   2.310   4.759
10790SOL    HW133269   0.362   2.215   4.789
10790SOL    HW233270   0.401   2.371   4.819
10791SOL     OW33271   1.842   1.608   2.835
10791SOL    HW133272   1.927   1.565   2.868
10791SOL    HW233273   1.769   1.591   2.901
10792SOL     OW33274   3.816   2.411   1.324
10792SOL    HW133275   3.854   2.483   1.382
10792SOL    HW233276   3.746   2.361   1.374
10793SOL     OW33277   4.667   1.831   4.978
10793SOL    HW133278   4.718   1.892   5.039
10793SOL    HW233279   4.571   1.829   5.006
10794SOL     OW33280   4.461   3.117   1.715
10794SOL    HW133281   4.531   3.088   1.781
10794SOL    HW233282   4.448   3.216   1.722
10795SOL     OW33283   0.036   3.543   3.164
10795SOL    HW133284   6.962   3.560   3.158
10795SOL    HW233285   0.073   3.527   3.073
10796SOL     OW33286   6.700   6.444   6.479
10796SOL    HW133287   6.777   6.507   6.488
10796SOL    HW233288   6.637   6.457   6.556
10797SOL     OW33289   4.069   3.455   0.826
10797SOL    HW133290   3.982   3.406   0.839
10797SOL    HW233291   4.091   3.507   0.909
10798SOL     OW33292   2.897   6.975   6.370
10798SOL    HW133293   2.833   0.001   6.429
10798SOL    HW233294   2.966   6.930   6.426
10799SOL     OW33295   3.020   1.287   2.890
10799SOL    HW133296   3.082   1.249   2.959
10799SOL    HW233297   3.004   1.219   2.819
10800SOL     OW33298   1.380   0.404   6.126
10800SOL    HW133299   1.466   0.387   6.175
10800SOL    HW233300   1.310   0.435   6.190
10801SOL     OW33301   2.279   5.757   6.385
10801SOL    HW133302   2.244   5.851   6.382
10801SOL    HW233303   2.253   5.709   6.302
10802SOL     OW33304   0.898   3.559   4.403
10802SOL    HW133305   0.895   3.606   4.491
10802SOL    HW233306   0.964   3.605   4.343
10803SOL     OW33307   6.309   4.734   5.436
10803SOL    HW133308   6.302   4.654   5.495
10803SOL    HW233309   6.374   4.716   5.363
10804SOL     OW33310   5.648   4.724   2.078
10804SOL    HW133311   5.589   4.792   2.120
10804SOL    HW233312   5.627   4.633   2.116
10805SOL     OW33313   4.486   6.874   0.603
10805SOL    HW133314   4.422   6.796   0.604
10805SOL    HW233315   4.437   6.957   0.629
10806SOL     OW33316   5.414   3.742   0.264
10806SOL    HW133317   5.377   3.834   0.278
10806SOL    HW233318   5.460   3.711   0.347
10807SOL     OW33319   3.920   6.232   3.052
10807SOL    HW133320   3.967   6.150   3.084
10807SOL    HW233321   3.850   6.259   3.118
10808SOL     OW33322   0.228   3.109   5.772
10808SOL    HW133323   0.241   3.186   5.710
10808SOL    HW233324   0.314   3.091   5.822
10809SOL     OW33325   2.488   0.346   3.494
10809SOL    HW133326   2.476   0.331   3.592
10809SOL    HW233327   2.461   0.440   3.472
10810SOL     OW33328   0.148   1.419   5.245
10810SOL    HW133329   0.228   1.373   5.284
10810SOL    HW233330   0.066   1.389   5.293
10811SOL     OW33331   4.617   4.861   5.065
10811SOL    HW133332   4.632   4.825   4.973
10811SOL    HW233333   4.550   4.804   5.113
10812SOL     OW33334   6.235   2.457   2.699
10812SOL    HW133335   6.196   2.516   2.770
10812SOL    HW233336   6.162   2.420   2.642
10813SOL     OW33337   2.577   6.068   1.897
10813SOL    HW133338   2.518   6.148   1.892
10813SOL    HW233339   2.662   6.086   1.848
10814SOL     OW33340   2.064   0.513   5.170
10814SOL    HW133341   2.069   0.612   5.154
10814SOL    HW233342   1.983   0.476   5.124
10815SOL     OW33343   5.030   4.088   2.942
10815SOL    HW133344   4.987   4.003   2.974
10815SOL    HW233345   5.004   4.104   2.847
10816SOL     OW33346   1.657   0.737   2.139
10816SOL    HW133347   1.593   0.708   2.068
10816SOL    HW233348   1.750   0.739   2.102
10817SOL     OW33349   4.819   0.139   2.565
10817SOL    HW133350   4.869   0.072   2.621
10817SOL    HW233351   4.729   0.102   2.542
10818SOL     OW33352   4.867   2.851   6.913
10818SOL    HW133353   4.879   2.836   6.815
10818SOL    HW233354   4.813   2.934   6.928
10819SOL     OW33355   6.984   4.553   6.692
10819SOL    HW133356   7.008   4.639   6.737
10819SOL    HW233357   7.009   4.558   6.596
10820SOL     OW33358   0.235   6.471   3.936
10820SOL    HW133359   0.335   6.472   3.928
10820SOL    HW233360   0.210   6.457   4.032
10821SOL     OW33361   6.753   0.274   1.164
10821SOL    HW133362   6.718   0.355   1.119
10821SOL    HW233363   6.681   0.205   1.170
10822SOL     OW33364   0.753   4.085   2.302
10822SOL    HW133365   0.699   4.166   2.278
10822SOL    HW233366   0.691   4.008   2.320
10823SOL     OW33367   2.181   6.166   1.338
10823SOL    HW133368   2.224   6.076   1.329
10823SOL    HW233369   2.184   6.195   1.434
10824SOL     OW33370   5.383   0.590   2.720
10824SOL    HW133371   5.452   0.633   2.661
10824SOL    HW233372   5.410   0.495   2.738
10825SOL     OW33373   3.654   0.893   0.768
10825SOL    HW133374   3.738   0.867   0.816
10825SOL    HW233375   3.594   0.942   0.832
10826SOL     OW33376   0.319   3.471   2.625
10826SOL    HW133377   0.359   3.385   2.657
10826SOL    HW233378   0.228   3.453   2.587
10827SOL     OW33379   0.020   3.044   4.263
10827SOL    HW133380   6.982   3.002   4.196
10827SOL    HW233381   6.989   3.094   4.331
10828SOL     OW33382   1.499   5.374   0.574
10828SOL    HW133383   1.591   5.388   0.537
10828SOL    HW233384   1.504   5.316   0.656
10829SOL     OW33385   3.311   3.932   2.150
10829SOL    HW133386   3.211   3.933   2.153
10829SOL    HW233387   3.346   4.008   2.205
10830SOL     OW33388   5.221   2.941   4.591
10830SOL    HW133389   5.304   2.963   4.539
10830SOL    HW233390   5.155   2.896   4.531
10831SOL     OW33391   5.347   1.242   3.134
10831SOL    HW133392   5.436   1.199   3.144
10831SOL    HW233393   5.357   1.333   3.094
10832SOL     OW33394   0.756   2.143   0.628
10832SOL    HW133395   0.789   2.225   0.675
10832SOL    HW233396   0.766   2.154   0.530
10833SOL     OW33397   2.520   0.741   4.476
10833SOL    HW133398   2.597   0.683   4.504
10833SOL    HW233399   2.549   0.837   4.475
10834SOL     OW33400   0.932   1.711   5.629
10834SOL    HW133401   0.944   1.809   5.647
10834SOL    HW233402   0.915   1.697   5.532
10835SOL     OW33403   5.563   1.543   2.294
10835SOL    HW133404   5.513   1.612   2.242
10835SOL    HW233405   5.635   1.504   2.237
10836SOL     OW33406   1.744   1.669   6.624
10836SOL    HW133407   1.728   1.744   6.560
10836SOL    HW233408   1.752   1.583   6.573
10837SOL     OW33409   6.566   4.669   0.784
10837SOL    HW133410   6.483   4.656   0.837
10837SOL    HW233411   6.566   4.605   0.706
10838SOL     OW33412   5.979   6.647   6.355
10838SOL    HW133413   6.029   6.560   6.355
10838SOL    HW233414   5.916   6.649   6.278
10839SOL     OW33415   1.594   2.331   0.421
10839SOL    HW133416   1.668   2.322   0.488
10839SOL    HW233417   1.522   2.389   0.458
10840SOL     OW33418   3.664   5.202   1.911
10840SOL    HW133419   3.585   5.239   1.862
10840SOL    HW233420   3.678   5.107   1.886
10841SOL     OW33421   3.942   5.442   5.674
10841SOL    HW133422   3.994   5.431   5.759
10841SOL    HW233423   3.963   5.366   5.612
10842SOL     OW33424   6.074   3.545   1.181
10842SOL    HW133425   5.989   3.555   1.234
10842SOL    HW233426   6.147   3.597   1.225
10843SOL     OW33427   0.478   1.621   2.273
10843SOL    HW133428   0.533   1.684   2.329
10843SOL    HW233429   0.535   1.543   2.246
10844SOL     OW33430   4.998   0.533   3.332
10844SOL    HW133431   4.963   0.578   3.250
10844SOL    HW233432   5.082   0.483   3.310
10845SOL     OW33433   1.092   1.191   1.451
10845SOL    HW133434   1.077   1.182   1.550
10845SOL    HW233435   1.057   1.279   1.420
10846SOL     OW33436   4.142   1.848   1.027
10846SOL    HW133437   4.150   1.767   1.086
10846SOL    HW233438   4.217   1.911   1.045
10847SOL     OW33439   3.863   2.653   6.128
10847SOL    HW133440   3.881   2.671   6.031
10847SOL    HW233441   3.769   2.680   6.150
10848SOL     OW33442   0.726   1.088   0.239
10848SOL    HW133443   0.809   1.095   0.295
10848SOL    HW233444   0.704   1.177   0.200
10849SOL     OW33445   3.160   5.435   4.787
10849SOL    HW133446   3.146   5.336   4.779
10849SOL    HW233447   3.246   5.452   4.835
10850SOL     OW33448   5.155   6.604   0.356
10850SOL    HW133449   5.199   6.662   0.288
10850SOL    HW233450   5.171   6.641   0.447
10851SOL     OW33451   3.257   2.227   6.784
10851SOL    HW133452   3.262   2.313   6.835
10851SOL    HW233453   3.169   2.221   6.737
10852SOL     OW33454   0.327   0.757   6.419
10852SOL    HW133455   0.233   0.738   6.449
10852SOL    HW233456   0.384   0.677   6.435
10853SOL     OW33457   2.634   1.488   4.708
10853SOL    HW133458   2.703   1.480   4.780
10853SOL    HW233459   2.678   1.517   4.623
10854SOL     OW33460   6.664   6.684   6.784
10854SOL    HW133461   6.624   6.692   6.692
10854SOL    HW233462   6.756   6.722   6.783
10855SOL     OW33463   1.538   6.287   1.620
10855SOL    HW133464   1.502   6.210   1.566
10855SOL    HW233465   1.631   6.309   1.588
10856SOL     OW33466   6.148   6.976   6.789
10856SOL    HW133467   6.052   6.986   6.763
10856SOL    HW233468   6.203   6.959   6.707
10857SOL     OW33469   5.952   1.284   3.835
10857SOL    HW133470   5.949   1.384   3.834
10857SOL    HW233471   5.896   1.249   3.760
10858SOL     OW33472   1.565   3.371   0.142
10858SOL    HW133473   1.656   3.330   0.147
10858SOL    HW233474   1.525   3.353   0.052
10859SOL     OW33475   1.069   4.356   2.923
10859SOL    HW133476   1.038   4.447   2.897
10859SOL    HW233477   1.002   4.313   2.982
10860SOL     OW33478   6.261   1.550   0.026
10860SOL    HW133479   6.259   1.539   0.125
10860SOL    HW233480   6.183   1.605   7.020
10861SOL     OW33481   3.137   2.731   1.619
10861SOL    HW133482   3.194   2.758   1.697
10861SOL    HW233483   3.084   2.810   1.587
10862SOL     OW33484   3.508   2.820   5.569
10862SOL    HW133485   3.586   2.769   5.531
10862SOL    HW233486   3.497   2.795   5.666
10863SOL     OW33487   2.496   1.434   2.943
10863SOL    HW133488   2.459   1.462   3.032
10863SOL    HW233489   2.596   1.430   2.948
10864SOL     OW33490   2.600   4.602   2.144
10864SOL    HW133491   2.684   4.641   2.106
10864SOL    HW233492   2.555   4.544   2.076
10865SOL     OW33493   4.223   1.982   3.149
10865SOL    HW133494   4.193   2.066   3.194
10865SOL    HW233495   4.203   1.904   3.207
10866SOL     OW33496   0.250   4.018   2.974
10866SOL    HW133497   0.337   3.972   2.956
10866SOL    HW233498   0.252   4.109   2.934
10867SOL     OW33499   3.481   3.149   0.587
10867SOL    HW133500   3.517   3.216   0.652
10867SOL    HW233501   3.381   3.152   0.587
10868SOL     OW33502   1.353   1.890   3.924
10868SOL    HW133503   1.296   1.808   3.930
10868SOL    HW233504   1.376   1.907   3.828
10869NA      NA33505   0.176   2.193   5.825
10870NA      NA33506   4.304   4.664   5.291
10871NA      NA33507   1.177   5.323   2.445
10872NA      NA33508   5.297   4.036   3.711
10873NA      NA33509   4.322   2.424   5.261
10874NA      NA33510   2.432   5.354   0.883
10875NA      NA33511   1.117   5.350   6.821
10876NA      NA33512   3.343   4.332   1.044
10877NA      NA33513   4.528   5.123   0.939
10878NA      NA33514   3.614   1.305   6.536
10879NA      NA33515   5.367   5.876   1.928
10880NA      NA33516   1.735   6.777   5.347
10881NA      NA33517   4.220   5.170   1.592
10882NA      NA33518   3.291   3.187   6.734
   7.02360   7.02360   7.02360
