Generated by trjconv : CNT in water t= 343.00000
33518
    1C        C    1   2.844   2.771   4.744
    1C        C    2   2.900   2.723   4.865
    1C        C    3   2.839   2.769   4.982
    1C        C    4   2.846   2.775   4.259
    1C        C    5   2.899   2.728   4.381
    1C        C    6   2.840   2.772   4.502
    1C        C    7   3.008   2.637   4.622
    1C        C    8   2.894   2.720   4.622
    1C        C    9   3.072   2.599   4.742
    1C        C   10   3.010   2.634   4.864
    1C        C   11   3.181   2.497   4.971
    1C        C   12   3.060   2.569   4.977
    1C        C   13   2.844   2.768   3.772
    1C        C   14   2.901   2.726   3.895
    1C        C   15   2.848   2.774   4.017
    1C        C   16   3.018   2.646   4.137
    1C        C   17   2.900   2.724   4.138
    1C        C   18   3.080   2.615   4.260
    1C        C   19   3.014   2.647   4.381
    1C        C   20   3.207   2.554   4.505
    1C        C   21   3.075   2.605   4.502
    1C        C   22   3.277   2.532   4.625
    1C        C   23   3.203   2.545   4.745
    1C        C   24   3.415   2.492   4.863
    1C        C   25   3.273   2.506   4.862
    1C        C   26   3.488   2.483   4.983
    1C        C   27   2.850   2.771   3.281
    1C        C   28   2.902   2.726   3.404
    1C        C   29   2.854   2.776   3.528
    1C        C   30   3.017   2.644   3.650
    1C        C   31   2.900   2.723   3.650
    1C        C   32   3.078   2.609   3.772
    1C        C   33   3.015   2.643   3.894
    1C        C   34   3.206   2.550   4.016
    1C        C   35   3.075   2.603   4.016
    1C        C   36   3.277   2.535   4.138
    1C        C   37   3.212   2.564   4.260
    1C        C   38   3.417   2.525   4.381
    1C        C   39   3.277   2.540   4.383
    1C        C   40   3.490   2.511   4.501
    1C        C   41   3.416   2.507   4.622
    1C        C   42   3.631   2.494   4.748
    1C        C   43   3.489   2.488   4.742
    1C        C   44   3.703   2.499   4.870
    1C        C   45   3.627   2.484   4.987
    1C        C   46   2.835   2.750   2.793
    1C        C   47   2.897   2.713   2.915
    1C        C   48   2.850   2.766   3.037
    1C        C   49   3.016   2.635   3.162
    1C        C   50   2.905   2.723   3.160
    1C        C   51   3.079   2.607   3.285
    1C        C   52   3.016   2.642   3.407
    1C        C   53   3.208   2.550   3.529
    1C        C   54   3.078   2.606   3.528
    1C        C   55   3.277   2.533   3.651
    1C        C   56   3.209   2.554   3.773
    1C        C   57   3.415   2.506   3.894
    1C        C   58   3.276   2.531   3.895
    1C        C   59   3.486   2.500   4.016
    1C        C   60   3.416   2.513   4.138
    1C        C   61   3.630   2.509   4.258
    1C        C   62   3.489   2.514   4.259
    1C        C   63   3.700   2.512   4.380
    1C        C   64   3.631   2.507   4.503
    1C        C   65   3.837   2.542   4.623
    1C        C   66   3.701   2.505   4.626
    1C        C   67   3.905   2.565   4.744
    1C        C   68   3.838   2.537   4.866
    1C        C   69   4.055   2.582   4.976
    1C        C   70   3.922   2.537   4.978
    1C        C   71   2.824   2.736   2.304
    1C        C   72   2.887   2.698   2.425
    1C        C   73   2.834   2.747   2.547
    1C        C   74   3.006   2.627   2.671
    1C        C   75   2.891   2.708   2.670
    1C        C   76   3.071   2.595   2.793
    1C        C   77   3.010   2.628   2.916
    1C        C   78   3.203   2.545   3.038
    1C        C   79   3.071   2.595   3.039
    1C        C   80   3.274   2.529   3.160
    1C        C   81   3.211   2.555   3.283
    1C        C   82   3.414   2.505   3.403
    1C        C   83   3.275   2.529   3.406
    1C        C   84   3.484   2.501   3.525
    1C        C   85   3.416   2.506   3.649
    1C        C   86   3.627   2.501   3.771
    1C        C   87   3.486   2.499   3.771
    1C        C   88   3.700   2.505   3.892
    1C        C   89   3.627   2.500   4.013
    1C        C   90   3.835   2.551   4.140
    1C        C   91   3.699   2.512   4.135
    1C        C   92   3.903   2.577   4.261
    1C        C   93   3.837   2.548   4.382
    1C        C   94   4.031   2.639   4.500
    1C        C   95   3.904   2.576   4.503
    1C        C   96   4.093   2.673   4.622
    1C        C   97   4.030   2.633   4.742
    1C        C   98   4.190   2.770   4.863
    1C        C   99   4.097   2.660   4.864
    1C        C  100   4.221   2.841   4.979
    1C        C  101   2.823   2.732   2.065
    1C        C  102   2.989   2.592   2.191
    1C        C  103   2.879   2.683   2.184
    1C        C  104   3.062   2.568   2.311
    1C        C  105   3.000   2.614   2.429
    1C        C  106   3.201   2.538   2.550
    1C        C  107   3.069   2.588   2.550
    1C        C  108   3.270   2.520   2.671
    1C        C  109   3.203   2.545   2.793
    1C        C  110   3.410   2.499   2.915
    1C        C  111   3.271   2.525   2.916
    1C        C  112   3.483   2.500   3.036
    1C        C  113   3.414   2.509   3.159
    1C        C  114   3.626   2.498   3.282
    1C        C  115   3.485   2.500   3.281
    1C        C  116   3.698   2.504   3.404
    1C        C  117   3.626   2.503   3.525
    1C        C  118   3.832   2.546   3.648
    1C        C  119   3.695   2.513   3.648
    1C        C  120   3.898   2.569   3.771
    1C        C  121   3.836   2.545   3.895
    1C        C  122   4.029   2.634   4.014
    1C        C  123   3.902   2.573   4.017
    1C        C  124   4.092   2.669   4.135
    1C        C  125   4.029   2.641   4.258
    1C        C  126   4.200   2.768   4.379
    1C        C  127   4.092   2.677   4.379
    1C        C  128   4.247   2.822   4.501
    1C        C  129   4.197   2.769   4.622
    1C        C  130   4.335   2.933   4.738
    1C        C  131   4.246   2.822   4.743
    1C        C  132   4.362   3.004   4.858
    1C        C  133   4.294   2.959   4.972
    1C        C  134   3.172   2.476   2.081
    1C        C  135   3.037   2.513   2.081
    1C        C  136   3.261   2.484   2.189
    1C        C  137   3.196   2.523   2.309
    1C        C  138   3.408   2.486   2.430
    1C        C  139   3.269   2.509   2.429
    1C        C  140   3.484   2.484   2.549
    1C        C  141   3.410   2.496   2.669
    1C        C  142   3.619   2.499   2.791
    1C        C  143   3.478   2.487   2.792
    1C        C  144   3.689   2.515   2.912
    1C        C  145   3.624   2.501   3.037
    1C        C  146   3.834   2.537   3.156
    1C        C  147   3.696   2.506   3.159
    1C        C  148   3.901   2.559   3.278
    1C        C  149   3.834   2.541   3.401
    1C        C  150   4.026   2.628   3.525
    1C        C  151   3.899   2.566   3.525
    1C        C  152   4.088   2.664   3.647
    1C        C  153   4.025   2.631   3.769
    1C        C  154   4.194   2.764   3.890
    1C        C  155   4.084   2.675   3.890
    1C        C  156   4.248   2.811   4.012
    1C        C  157   4.200   2.761   4.135
    1C        C  158   4.345   2.919   4.252
    1C        C  159   4.251   2.813   4.256
    1C        C  160   4.384   2.978   4.374
    1C        C  161   4.335   2.933   4.499
    1C        C  162   4.445   3.119   4.614
    1C        C  163   4.373   2.997   4.619
    1C        C  164   4.471   3.184   4.737
    1C        C  165   4.437   3.123   4.859
    1C        C  166   4.518   3.319   4.973
    1C        C  167   4.494   3.182   4.973
    1C        C  168   3.478   2.438   2.072
    1C        C  169   3.401   2.463   2.187
    1C        C  170   3.617   2.469   2.307
    1C        C  171   3.475   2.467   2.307
    1C        C  172   3.694   2.488   2.425
    1C        C  173   3.625   2.485   2.548
    1C        C  174   3.829   2.541   2.668
    1C        C  175   3.693   2.504   2.670
    1C        C  176   3.896   2.563   2.790
    1C        C  177   3.827   2.546   2.912
    1C        C  178   4.025   2.625   3.034
    1C        C  179   3.898   2.563   3.033
    1C        C  180   4.086   2.662   3.156
    1C        C  181   4.026   2.624   3.278
    1C        C  182   4.194   2.752   3.400
    1C        C  183   4.082   2.666   3.401
    1C        C  184   4.246   2.804   3.521
    1C        C  185   4.195   2.755   3.643
    1C        C  186   4.335   2.916   3.765
    1C        C  187   4.244   2.807   3.765
    1C        C  188   4.375   2.978   3.885
    1C        C  189   4.337   2.921   4.009
    1C        C  190   4.446   3.105   4.128
    1C        C  191   4.379   2.980   4.130
    1C        C  192   4.467   3.173   4.249
    1C        C  193   4.448   3.104   4.371
    1C        C  194   4.504   3.316   4.492
    1C        C  195   4.476   3.177   4.489
    1C        C  196   4.518   3.390   4.612
    1C        C  197   4.510   3.321   4.735
    1C        C  198   4.554   3.535   4.852
    1C        C  199   4.530   3.394   4.855
    1C        C  200   4.585   3.619   4.964
    1C        C  201   3.617   2.423   2.073
    1C        C  202   3.829   2.506   2.183
    1C        C  203   3.695   2.457   2.189
    1C        C  204   3.902   2.532   2.302
    1C        C  205   3.832   2.517   2.424
    1C        C  206   4.024   2.614   2.542
    1C        C  207   3.897   2.552   2.544
    1C        C  208   4.082   2.655   2.664
    1C        C  209   4.025   2.621   2.789
    1C        C  210   4.196   2.746   2.908
    1C        C  211   4.086   2.658   2.911
    1C        C  212   4.249   2.792   3.031
    1C        C  213   4.197   2.750   3.155
    1C        C  214   4.329   2.915   3.274
    1C        C  215   4.245   2.801   3.278
    1C        C  216   4.366   2.977   3.396
    1C        C  217   4.330   2.918   3.519
    1C        C  218   4.438   3.099   3.640
    1C        C  219   4.374   2.973   3.642
    1C        C  220   4.462   3.170   3.760
    1C        C  221   4.438   3.104   3.883
    1C        C  222   4.502   3.307   4.002
    1C        C  223   4.469   3.169   4.004
    1C        C  224   4.508   3.377   4.125
    1C        C  225   4.498   3.311   4.250
    1C        C  226   4.521   3.525   4.366
    1C        C  227   4.516   3.384   4.369
    1C        C  228   4.525   3.600   4.486
    1C        C  229   4.533   3.530   4.609
    1C        C  230   4.503   3.742   4.726
    1C        C  231   4.536   3.604   4.729
    1C        C  232   4.496   3.819   4.845
    1C        C  233   4.548   3.753   4.958
    1C        C  234   4.016   2.611   2.064
    1C        C  235   3.898   2.538   2.065
    1C        C  236   4.084   2.648   2.181
    1C        C  237   4.023   2.606   2.301
    1C        C  238   4.199   2.735   2.421
    1C        C  239   4.087   2.647   2.420
    1C        C  240   4.250   2.787   2.542
    1C        C  241   4.193   2.743   2.664
    1C        C  242   4.331   2.907   2.786
    1C        C  243   4.243   2.796   2.784
    1C        C  244   4.377   2.961   2.908
    1C        C  245   4.336   2.904   3.031
    1C        C  246   4.433   3.097   3.149
    1C        C  247   4.369   2.970   3.151
    1C        C  248   4.454   3.166   3.270
    1C        C  249   4.425   3.105   3.394
    1C        C  250   4.492   3.304   3.516
    1C        C  251   4.453   3.168   3.517
    1C        C  252   4.508   3.376   3.637
    1C        C  253   4.499   3.306   3.760
    1C        C  254   4.526   3.518   3.878
    1C        C  255   4.515   3.378   3.881
    1C        C  256   4.516   3.589   4.000
    1C        C  257   4.518   3.518   4.122
    1C        C  258   4.490   3.732   4.239
    1C        C  259   4.512   3.592   4.242
    1C        C  260   4.476   3.803   4.360
    1C        C  261   4.497   3.738   4.484
    1C        C  262   4.427   3.942   4.603
    1C        C  263   4.475   3.809   4.605
    1C        C  264   4.400   4.011   4.723
    1C        C  265   4.437   3.947   4.844
    1C        C  266   4.317   4.129   4.957
    1C        C  267   4.383   4.007   4.958
    1C        C  268   4.264   2.775   2.065
    1C        C  269   4.200   2.729   2.181
    1C        C  270   4.349   2.888   2.298
    1C        C  271   4.254   2.782   2.300
    1C        C  272   4.381   2.950   2.421
    1C        C  273   4.340   2.896   2.544
    1C        C  274   4.445   3.085   2.661
    1C        C  275   4.375   2.962   2.664
    1C        C  276   4.472   3.151   2.783
    1C        C  277   4.445   3.085   2.905
    1C        C  278   4.496   3.294   3.025
    1C        C  279   4.468   3.155   3.026
    1C        C  280   4.505   3.367   3.145
    1C        C  281   4.490   3.303   3.270
    1C        C  282   4.514   3.512   3.389
    1C        C  283   4.508   3.371   3.393
    1C        C  284   4.513   3.583   3.511
    1C        C  285   4.510   3.517   3.636
    1C        C  286   4.493   3.729   3.753
    1C        C  287   4.522   3.590   3.756
    1C        C  288   4.472   3.796   3.876
    1C        C  289   4.488   3.728   3.998
    1C        C  290   4.426   3.935   4.115
    1C        C  291   4.471   3.801   4.118
    1C        C  292   4.397   3.999   4.238
    1C        C  293   4.427   3.936   4.360
    1C        C  294   4.325   4.125   4.479
    1C        C  295   4.400   4.005   4.480
    1C        C  296   4.282   4.187   4.598
    1C        C  297   4.330   4.135   4.720
    1C        C  298   4.201   4.314   4.836
    1C        C  299   4.286   4.199   4.839
    1C        C  300   4.173   4.403   4.945
    1C        C  301   4.349   2.885   2.063
    1C        C  302   4.473   3.069   2.180
    1C        C  303   4.399   2.947   2.178
    1C        C  304   4.477   3.144   2.301
    1C        C  305   4.450   3.074   2.420
    1C        C  306   4.506   3.285   2.538
    1C        C  307   4.474   3.147   2.538
    1C        C  308   4.519   3.357   2.659
    1C        C  309   4.507   3.288   2.782
    1C        C  310   4.522   3.502   2.899
    1C        C  311   4.519   3.361   2.902
    1C        C  312   4.514   3.576   3.019
    1C        C  313   4.516   3.508   3.143
    1C        C  314   4.494   3.720   3.264
    1C        C  315   4.512   3.580   3.265
    1C        C  316   4.472   3.790   3.384
    1C        C  317   4.488   3.722   3.507
    1C        C  318   4.430   3.927   3.630
    1C        C  319   4.474   3.793   3.629
    1C        C  320   4.399   3.994   3.750
    1C        C  321   4.425   3.929   3.873
    1C        C  322   4.323   4.119   3.993
    1C        C  323   4.396   3.999   3.993
    1C        C  324   4.282   4.177   4.116
    1C        C  325   4.331   4.124   4.237
    1C        C  326   4.187   4.285   4.356
    1C        C  327   4.287   4.185   4.356
    1C        C  328   4.135   4.342   4.474
    1C        C  329   4.190   4.294   4.595
    1C        C  330   4.024   4.435   4.716
    1C        C  331   4.139   4.352   4.714
    1C        C  332   3.968   4.487   4.835
    1C        C  333   4.054   4.476   4.945
    1C        C  334   4.555   3.265   2.061
    1C        C  335   4.540   3.126   2.067
    1C        C  336   4.533   3.350   2.171
    1C        C  337   4.511   3.282   2.293
    1C        C  338   4.524   3.494   2.413
    1C        C  339   4.522   3.353   2.415
    1C        C  340   4.517   3.568   2.533
    1C        C  341   4.520   3.498   2.656
    1C        C  342   4.494   3.711   2.777
    1C        C  343   4.519   3.572   2.776
    1C        C  344   4.479   3.785   2.896
    1C        C  345   4.489   3.715   3.019
    1C        C  346   4.423   3.917   3.137
    1C        C  347   4.474   3.785   3.140
    1C        C  348   4.397   3.983   3.259
    1C        C  349   4.426   3.924   3.383
    1C        C  350   4.325   4.108   3.503
    1C        C  351   4.402   3.990   3.506
    1C        C  352   4.279   4.167   3.623
    1C        C  353   4.323   4.113   3.746
    1C        C  354   4.185   4.273   3.867
    1C        C  355   4.285   4.173   3.868
    1C        C  356   4.127   4.320   3.987
    1C        C  357   4.180   4.275   4.110
    1C        C  358   4.014   4.405   4.228
    1C        C  359   4.131   4.326   4.233
    1C        C  360   3.955   4.448   4.350
    1C        C  361   4.020   4.423   4.473
    1C        C  362   3.830   4.519   4.594
    1C        C  363   3.962   4.468   4.594
    1C        C  364   3.764   4.553   4.714
    1C        C  365   3.839   4.544   4.833
    1C        C  366   3.628   4.597   4.949
    1C        C  367   3.766   4.576   4.948
    1C        C  368   4.509   3.563   2.056
    1C        C  369   4.526   3.491   2.174
    1C        C  370   4.498   3.707   2.291
    1C        C  371   4.520   3.568   2.293
    1C        C  372   4.490   3.780   2.412
    1C        C  373   4.508   3.709   2.533
    1C        C  374   4.420   3.907   2.647
    1C        C  375   4.476   3.777   2.653
    1C        C  376   4.392   3.974   2.768
    1C        C  377   4.432   3.918   2.892
    1C        C  378   4.324   4.102   3.012
    1C        C  379   4.395   3.980   3.013
    1C        C  380   4.276   4.154   3.135
    1C        C  381   4.318   4.101   3.258
    1C        C  382   4.181   4.262   3.376
    1C        C  383   4.281   4.162   3.380
    1C        C  384   4.123   4.305   3.497
    1C        C  385   4.181   4.269   3.621
    1C        C  386   4.010   4.389   3.744
    1C        C  387   4.131   4.315   3.744
    1C        C  388   3.946   4.431   3.863
    1C        C  389   4.010   4.399   3.985
    1C        C  390   3.817   4.487   4.108
    1C        C  391   3.948   4.434   4.107
    1C        C  392   3.751   4.511   4.231
    1C        C  393   3.824   4.501   4.351
    1C        C  394   3.620   4.559   4.474
    1C        C  395   3.759   4.533   4.472
    1C        C  396   3.547   4.572   4.595
    1C        C  397   3.623   4.567   4.714
    1C        C  398   3.411   4.551   4.840
    1C        C  399   3.550   4.576   4.834
    1C        C  400   3.342   4.523   4.958
    1C        C  401   4.508   3.702   2.052
    1C        C  402   4.448   3.913   2.166
    1C        C  403   4.488   3.777   2.169
    1C        C  404   4.410   3.978   2.286
    1C        C  405   4.438   3.911   2.407
    1C        C  406   4.326   4.097   2.525
    1C        C  407   4.399   3.976   2.526
    1C        C  408   4.276   4.150   2.647
    1C        C  409   4.316   4.093   2.770
    1C        C  410   4.179   4.257   2.886
    1C        C  411   4.279   4.157   2.890
    1C        C  412   4.127   4.301   3.010
    1C        C  413   4.179   4.257   3.133
    1C        C  414   4.009   4.386   3.256
    1C        C  415   4.129   4.311   3.254
    1C        C  416   3.947   4.419   3.379
    1C        C  417   4.007   4.385   3.502
    1C        C  418   3.815   4.479   3.618
    1C        C  419   3.945   4.423   3.623
    1C        C  420   3.750   4.504   3.741
    1C        C  421   3.817   4.488   3.864
    1C        C  422   3.612   4.541   3.986
    1C        C  423   3.750   4.511   3.986
    1C        C  424   3.542   4.542   4.109
    1C        C  425   3.612   4.536   4.232
    1C        C  426   3.404   4.548   4.353
    1C        C  427   3.545   4.554   4.355
    1C        C  428   3.337   4.543   4.477
    1C        C  429   3.407   4.559   4.599
    1C        C  430   3.196   4.518   4.724
    1C        C  431   3.336   4.543   4.720
    1C        C  432   3.127   4.498   4.846
    1C        C  433   3.205   4.501   4.963
    1C        C  434   4.379   4.118   2.048
    1C        C  435   4.447   3.996   2.053
    1C        C  436   4.302   4.161   2.161
    1C        C  437   4.336   4.099   2.284
    1C        C  438   4.180   4.250   2.401
    1C        C  439   4.285   4.156   2.403
    1C        C  440   4.124   4.294   2.523
    1C        C  441   4.180   4.253   2.645
    1C        C  442   4.005   4.377   2.764
    1C        C  443   4.128   4.308   2.765
    1C        C  444   3.945   4.409   2.888
    1C        C  445   4.006   4.375   3.010
    1C        C  446   3.815   4.466   3.130
    1C        C  447   3.947   4.415   3.132
    1C        C  448   3.749   4.493   3.252
    1C        C  449   3.815   4.467   3.374
    1C        C  450   3.611   4.532   3.497
    1C        C  451   3.749   4.500   3.495
    1C        C  452   3.542   4.545   3.619
    1C        C  453   3.613   4.538   3.741
    1C        C  454   3.402   4.544   3.864
    1C        C  455   3.543   4.550   3.863
    1C        C  456   3.332   4.531   3.986
    1C        C  457   3.401   4.534   4.109
    1C        C  458   3.193   4.507   4.235
    1C        C  459   3.332   4.533   4.233
    1C        C  460   3.130   4.486   4.359
    1C        C  461   3.198   4.514   4.480
    1C        C  462   3.005   4.428   4.605
    1C        C  463   3.131   4.492   4.602
    1C        C  464   2.933   4.400   4.723
    1C        C  465   2.994   4.446   4.843
    1C        C  466   2.804   4.335   4.960
    1C        C  467   2.911   4.426   4.959
    1C        C  468   4.122   4.279   2.039
    1C        C  469   4.191   4.251   2.158
    1C        C  470   4.008   4.372   2.280
    1C        C  471   4.127   4.295   2.277
    1C        C  472   3.942   4.406   2.400
    1C        C  473   4.007   4.374   2.521
    1C        C  474   3.813   4.464   2.640
    1C        C  475   3.944   4.411   2.641
    1C        C  476   3.748   4.486   2.764
    1C        C  477   3.816   4.468   2.887
    1C        C  478   3.608   4.514   3.009
    1C        C  479   3.746   4.484   3.008
    1C        C  480   3.538   4.526   3.131
    1C        C  481   3.610   4.517   3.253
    1C        C  482   3.399   4.527   3.379
    1C        C  483   3.540   4.529   3.375
    1C        C  484   3.331   4.523   3.503
    1C        C  485   3.401   4.539   3.625
    1C        C  486   3.190   4.498   3.745
    1C        C  487   3.327   4.533   3.745
    1C        C  488   3.124   4.475   3.868
    1C        C  489   3.194   4.503   3.988
    1C        C  490   3.001   4.421   4.117
    1C        C  491   3.127   4.485   4.112
    1C        C  492   2.943   4.383   4.240
    1C        C  493   3.004   4.422   4.361
    1C        C  494   2.834   4.299   4.484
    1C        C  495   2.943   4.388   4.484
    1C        C  496   2.778   4.251   4.605
    1C        C  497   2.823   4.310   4.726
    1C        C  498   2.665   4.164   4.842
    1C        C  499   2.756   4.272   4.845
    1C        C  500   2.596   4.120   4.956
    1C        C  501   4.001   4.347   2.040
    1C        C  502   3.817   4.460   2.155
    1C        C  503   3.944   4.399   2.157
    1C        C  504   3.743   4.479   2.274
    1C        C  505   3.810   4.457   2.396
    1C        C  506   3.606   4.514   2.520
    1C        C  507   3.743   4.481   2.519
    1C        C  508   3.537   4.518   2.643
    1C        C  509   3.609   4.506   2.765
    1C        C  510   3.397   4.525   2.886
    1C        C  511   3.538   4.520   2.886
    1C        C  512   3.328   4.518   3.009
    1C        C  513   3.397   4.526   3.132
    1C        C  514   3.192   4.488   3.257
    1C        C  515   3.330   4.515   3.256
    1C        C  516   3.125   4.470   3.381
    1C        C  517   3.191   4.499   3.502
    1C        C  518   2.999   4.409   3.625
    1C        C  519   3.122   4.477   3.623
    1C        C  520   2.939   4.371   3.748
    1C        C  521   2.999   4.409   3.870
    1C        C  522   2.835   4.285   3.997
    1C        C  523   2.944   4.375   3.996
    1C        C  524   2.790   4.233   4.120
    1C        C  525   2.839   4.288   4.241
    1C        C  526   2.705   4.127   4.364
    1C        C  527   2.787   4.242   4.364
    1C        C  528   2.659   4.071   4.486
    1C        C  529   2.693   4.139   4.605
    1C        C  530   2.589   3.956   4.732
    1C        C  531   2.642   4.087   4.726
    1C        C  532   2.540   3.900   4.853
    1C        C  533   2.534   3.995   4.960
    1C        C  534   3.617   4.553   2.038
    1C        C  535   3.749   4.506   2.041
    1C        C  536   3.535   4.533   2.154
    1C        C  537   3.605   4.510   2.276
    1C        C  538   3.394   4.518   2.401
    1C        C  539   3.535   4.524   2.398
    1C        C  540   3.322   4.515   2.522
    1C        C  541   3.396   4.515   2.642
    1C        C  542   3.187   4.483   2.766
    1C        C  543   3.325   4.515   2.765
    1C        C  544   3.121   4.465   2.889
    1C        C  545   3.191   4.484   3.011
    1C        C  546   2.999   4.402   3.137
    1C        C  547   3.125   4.465   3.135
    1C        C  548   2.940   4.364   3.259
    1C        C  549   3.001   4.403   3.381
    1C        C  550   2.831   4.277   3.505
    1C        C  551   2.941   4.365   3.504
    1C        C  552   2.780   4.231   3.628
    1C        C  553   2.830   4.281   3.751
    1C        C  554   2.700   4.120   3.876
    1C        C  555   2.787   4.231   3.876
    1C        C  556   2.662   4.061   3.999
    1C        C  557   2.704   4.122   4.120
    1C        C  558   2.601   3.939   4.247
    1C        C  559   2.668   4.064   4.243
    1C        C  560   2.569   3.877   4.369
    1C        C  561   2.596   3.945   4.490
    1C        C  562   2.529   3.746   4.616
    1C        C  563   2.566   3.883   4.613
    1C        C  564   2.516   3.679   4.739
    1C        C  565   2.520   3.758   4.857
    1C        C  566   2.526   3.543   4.980
    1C        C  567   2.522   3.682   4.975
    1C        C  568   3.329   4.481   2.042
    1C        C  569   3.394   4.520   2.160
    1C        C  570   3.181   4.482   2.282
    1C        C  571   3.319   4.516   2.281
    1C        C  572   3.114   4.462   2.405
    1C        C  573   3.183   4.486   2.525
    1C        C  574   2.985   4.407   2.651
    1C        C  575   3.113   4.466   2.646
    1C        C  576   2.929   4.366   2.774
    1C        C  577   2.996   4.400   2.893
    1C        C  578   2.826   4.275   3.015
    1C        C  579   2.940   4.358   3.016
    1C        C  580   2.777   4.226   3.138
    1C        C  581   2.827   4.279   3.259
    1C        C  582   2.698   4.113   3.384
    1C        C  583   2.780   4.228   3.382
    1C        C  584   2.662   4.057   3.509
    1C        C  585   2.696   4.118   3.632
    1C        C  586   2.596   3.933   3.757
    1C        C  587   2.660   4.059   3.755
    1C        C  588   2.577   3.866   3.880
    1C        C  589   2.601   3.934   4.002
    1C        C  590   2.535   3.735   4.126
    1C        C  591   2.574   3.871   4.126
    1C        C  592   2.524   3.669   4.250
    1C        C  593   2.530   3.741   4.371
    1C        C  594   2.505   3.533   4.497
    1C        C  595   2.515   3.674   4.495
    1C        C  596   2.516   3.464   4.620
    1C        C  597   2.516   3.537   4.741
    1C        C  598   2.531   3.325   4.865
    1C        C  599   2.523   3.466   4.863
    1C        C  600   2.535   3.247   4.981
    1C        C  601   3.198   4.438   2.044
    1C        C  602   2.986   4.395   2.163
    1C        C  603   3.120   4.444   2.160
    1C        C  604   2.923   4.366   2.287
    1C        C  605   2.985   4.404   2.408
    1C        C  606   2.821   4.270   2.531
    1C        C  607   2.924   4.367   2.530
    1C        C  608   2.770   4.219   2.653
    1C        C  609   2.819   4.277   2.772
    1C        C  610   2.688   4.113   2.897
    1C        C  611   2.768   4.230   2.895
    1C        C  612   2.656   4.051   3.020
    1C        C  613   2.691   4.114   3.142
    1C        C  614   2.591   3.927   3.271
    1C        C  615   2.655   4.053   3.264
    1C        C  616   2.571   3.861   3.394
    1C        C  617   2.604   3.928   3.514
    1C        C  618   2.539   3.727   3.638
    1C        C  619   2.569   3.865   3.636
    1C        C  620   2.516   3.661   3.760
    1C        C  621   2.530   3.733   3.881
    1C        C  622   2.506   3.524   4.009
    1C        C  623   2.521   3.664   4.004
    1C        C  624   2.512   3.455   4.132
    1C        C  625   2.512   3.528   4.253
    1C        C  626   2.533   3.320   4.377
    1C        C  627   2.511   3.460   4.377
    1C        C  628   2.552   3.253   4.500
    1C        C  629   2.530   3.323   4.621
    1C        C  630   2.599   3.123   4.744
    1C        C  631   2.546   3.254   4.743
    1C        C  632   2.627   3.055   4.866
    1C        C  633   2.562   3.110   4.981
    1C        C  634   2.791   4.301   2.059
    1C        C  635   2.893   4.397   2.054
    1C        C  636   2.756   4.224   2.170
    1C        C  637   2.814   4.274   2.289
    1C        C  638   2.682   4.108   2.413
    1C        C  639   2.771   4.217   2.410
    1C        C  640   2.643   4.047   2.534
    1C        C  641   2.684   4.106   2.655
    1C        C  642   2.582   3.923   2.779
    1C        C  643   2.645   4.050   2.778
    1C        C  644   2.562   3.858   2.902
    1C        C  645   2.592   3.925   3.023
    1C        C  646   2.537   3.724   3.149
    1C        C  647   2.569   3.862   3.147
    1C        C  648   2.523   3.654   3.271
    1C        C  649   2.535   3.725   3.393
    1C        C  650   2.510   3.516   3.517
    1C        C  651   2.524   3.657   3.516
    1C        C  652   2.509   3.450   3.642
    1C        C  653   2.501   3.520   3.764
    1C        C  654   2.525   3.311   3.889
    1C        C  655   2.505   3.451   3.887
    1C        C  656   2.537   3.242   4.012
    1C        C  657   2.528   3.314   4.132
    1C        C  658   2.586   3.113   4.258
    1C        C  659   2.544   3.248   4.256
    1C        C  660   2.631   3.054   4.378
    1C        C  661   2.608   3.124   4.499
    1C        C  662   2.702   2.937   4.624
    1C        C  663   2.630   3.058   4.622
    1C        C  664   2.749   2.877   4.742
    1C        C  665   2.707   2.936   4.864
    1C        C  666   2.746   2.872   4.982
    1C        C  667   2.691   4.018   2.055
    1C        C  668   2.689   4.100   2.168
    1C        C  669   2.596   3.910   2.291
    1C        C  670   2.652   4.041   2.292
    1C        C  671   2.568   3.846   2.414
    1C        C  672   2.585   3.918   2.535
    1C        C  673   2.523   3.717   2.661
    1C        C  674   2.558   3.854   2.658
    1C        C  675   2.512   3.649   2.784
    1C        C  676   2.527   3.721   2.904
    1C        C  677   2.509   3.512   3.031
    1C        C  678   2.524   3.652   3.027
    1C        C  679   2.508   3.441   3.153
    1C        C  680   2.508   3.514   3.274
    1C        C  681   2.534   3.303   3.398
    1C        C  682   2.508   3.442   3.396
    1C        C  683   2.556   3.240   3.523
    1C        C  684   2.536   3.311   3.643
    1C        C  685   2.598   3.112   3.768
    1C        C  686   2.549   3.244   3.767
    1C        C  687   2.635   3.054   3.892
    1C        C  688   2.596   3.113   4.014
    1C        C  689   2.706   2.935   4.137
    1C        C  690   2.619   3.047   4.137
    1C        C  691   2.753   2.881   4.259
    1C        C  692   2.705   2.934   4.381
    1C        C  693   2.745   2.876   4.503
    1C        C  694   2.631   3.892   2.057
    1C        C  695   2.527   3.703   2.177
    1C        C  696   2.578   3.834   2.174
    1C        C  697   2.516   3.632   2.299
    1C        C  698   2.527   3.711   2.416
    1C        C  699   2.494   3.506   2.542
    1C        C  700   2.503   3.647   2.539
    1C        C  701   2.509   3.436   2.663
    1C        C  702   2.508   3.507   2.786
    1C        C  703   2.529   3.300   2.909
    1C        C  704   2.506   3.439   2.909
    1C        C  705   2.544   3.230   3.031
    1C        C  706   2.529   3.302   3.152
    1C        C  707   2.594   3.102   3.276
    1C        C  708   2.544   3.234   3.275
    1C        C  709   2.626   3.043   3.401
    1C        C  710   2.601   3.106   3.525
    1C        C  711   2.706   2.924   3.649
    1C        C  712   2.632   3.045   3.648
    1C        C  713   2.753   2.876   3.774
    1C        C  714   2.713   2.937   3.895
    1C        C  715   2.751   2.877   4.017
    1C        C  716   2.441   3.499   2.065
    1C        C  717   2.491   3.630   2.064
    1C        C  718   2.459   3.418   2.182
    1C        C  719   2.487   3.493   2.300
    1C        C  720   2.512   3.288   2.426
    1C        C  721   2.489   3.427   2.425
    1C        C  722   2.534   3.220   2.548
    1C        C  723   2.524   3.296   2.667
    1C        C  724   2.592   3.094   2.789
    1C        C  725   2.549   3.229   2.789
    1C        C  726   2.621   3.030   2.912
    1C        C  727   2.596   3.099   3.032
    1C        C  728   2.705   2.919   3.157
    1C        C  729   2.623   3.035   3.155
    1C        C  730   2.752   2.873   3.281
    1C        C  731   2.705   2.926   3.403
    1C        C  732   2.750   2.872   3.526
    1C        C  733   2.488   3.195   2.071
    1C        C  734   2.479   3.276   2.185
    1C        C  735   2.580   3.085   2.303
    1C        C  736   2.519   3.214   2.306
    1C        C  737   2.610   3.019   2.424
    1C        C  738   2.591   3.091   2.545
    1C        C  739   2.698   2.910   2.667
    1C        C  740   2.619   3.028   2.668
    1C        C  741   2.738   2.852   2.789
    1C        C  742   2.698   2.911   2.911
    1C        C  743   2.745   2.861   3.034
    1C        C  744   2.541   3.066   2.071
    1C        C  745   2.691   2.901   2.182
    1C        C  746   2.605   3.013   2.184
    1C        C  747   2.734   2.846   2.304
    1C        C  748   2.684   2.899   2.425
    1C        C  749   2.732   2.845   2.547
    1C        C  750   2.732   2.837   2.064
    1C        C  751   3.667   2.316   1.983
    1C        O  752   3.647   2.193   2.003
    1C        O  753   3.680   2.340   1.846
    1C        C  754   4.642   3.057   1.986
    1C        O  755   4.620   3.023   1.867
    1C        O  756   4.782   3.059   2.002
    1C        C  757   4.447   4.214   1.958
    1C        O  758   4.559   4.268   1.978
    1C        O  759   4.428   4.183   1.823
    1C        C  760   3.597   4.670   1.948
    1C        O  761   3.633   4.786   1.981
    1C        O  762   3.585   4.653   1.810
    1C        C  763   2.903   4.491   1.940
    1C        O  764   2.937   4.436   1.832
    1C        O  765   2.807   4.593   1.934
    1C        C  766   2.335   3.485   1.963
    1C        O  767   2.358   3.428   1.853
    1C        O  768   2.202   3.462   2.001
    1C        C  769   4.664   3.570   5.080
    1C        O  770   4.596   3.555   5.185
    1C        O  771   4.794   3.617   5.099
    1C        C  772   4.281   4.470   5.021
    1C        O  773   4.266   4.481   5.146
    1C        O  774   4.331   4.592   4.977
    1C        C  775   4.146   2.501   5.059
    1C        O  776   4.235   2.448   4.987
    1C        O  777   4.194   2.546   5.183
    1C        C  778   2.875   4.537   5.050
    1C        O  779   2.791   4.626   5.023
    1C        O  780   2.896   4.545   5.188
    1C        C  781   2.487   3.023   5.074
    1C        O  782   2.366   2.998   5.050
    1C        O  783   2.496   3.019   5.213
    1C        C  784   2.409   4.009   5.039
    1C        O  785   2.293   4.047   5.010
    1C        O  786   2.417   3.975   5.174
    1C        C  787   2.945   2.437   1.994
    1C        O  788   2.943   2.458   1.870
    1C        O  789   2.840   2.356   2.034
    1C        C  790   3.190   2.388   5.071
    1C        O  791   3.185   2.264   5.046
    1C        O  792   3.179   2.417   5.207
    1C        H  793   4.321   3.008   5.063
    1C        H  794   4.202   2.792   5.073
    1C        H  795   4.467   3.142   5.068
    1C        H  796   4.536   3.369   5.066
    1C        H  797   4.560   3.808   5.049
    1C        H  798   4.381   3.957   5.053
    1C        H  799   4.259   4.151   5.045
    1C        H  800   4.030   4.525   5.037
    1C        H  801   3.817   4.573   5.042
    1C        H  802   3.581   4.633   5.037
    1C        H  803   3.396   4.527   5.050
    1C        H  804   3.156   4.545   5.048
    1C        H  805   3.907   2.452   5.041
    1C        H  806   3.676   2.506   5.079
    1C        H  807   3.041   2.604   5.076
    1C        H  808   3.432   2.489   5.074
    1C        H  809   2.901   2.762   5.069
    1C        H  810   2.676   2.865   5.063
    1C        H  811   2.604   3.293   5.048
    1C        H  812   2.587   3.506   5.060
    1C        H  813   2.535   3.732   5.069
    1C        H  814   2.584   4.186   5.040
    1C        H  815   2.780   4.294   5.056
    1C        H  816   2.678   2.842   1.972
    1C        H  817   2.840   2.683   1.972
    1C        H  818   3.201   2.408   2.004
    1C        H  819   3.430   2.386   1.992
    1C        H  820   3.904   2.457   1.995
    1C        H  821   4.061   2.634   1.969
    1C        H  822   4.294   2.702   1.993
    1C        H  823   4.344   2.946   1.975
    1C        H  824   4.581   3.308   1.966
    1C        H  825   4.486   3.513   1.964
    1C        H  826   4.469   3.737   1.959
    1C        H  827   3.800   4.504   1.947
    1C        H  828   3.986   4.395   1.945
    1C        H  829   4.179   4.264   1.949
    1C        H  830   4.516   3.978   1.973
    1C        H  831   2.655   3.824   1.978
    1C        H  832   2.743   4.046   1.965
    1C        H  833   2.733   4.288   1.970
    1C        H  834   3.350   4.530   1.949
    1C        H  835   3.154   4.410   1.950
    1C        H  836   2.527   3.005   1.984
    1C        H  837   2.459   3.228   1.974
    1C        H  838   2.514   3.670   1.967
    2V3OU   H29  839   2.805   3.553   3.704
    2V3OU   C27  840   2.790   3.507   3.805
    2V3OU   H27  841   2.730   3.572   3.874
    2V3OU   H28  842   2.737   3.409   3.789
    2V3OU   O11  843   2.919   3.479   3.860
    2V3OU   C15  844   2.930   3.398   3.971
    2V3OU   C13  845   3.059   3.371   4.020
    2V3OU   C14  846   3.083   3.272   4.117
    2V3OU   C16  847   2.982   3.191   4.169
    2V3OU    H6  848   2.997   3.099   4.226
    2V3OU   C12  849   3.217   3.229   4.161
    2V3OU    O2  850   3.237   3.121   4.219
    2V3OU   C10  851   3.330   3.307   4.109
    2V3OU    C8  852   3.462   3.268   4.127
    2V3OU   O10  853   3.493   3.152   4.191
    2V3OU   H26  854   3.408   3.113   4.220
    2V3OU    C6  855   3.566   3.351   4.075
    2V3OU    C5  856   3.539   3.470   4.008
    2V3OU    C4  857   3.705   3.300   4.083
    2V3OU    H4  858   3.724   3.231   4.171
    2V3OU    H5  859   3.711   3.224   4.000
    2V3OU    C2  860   3.819   3.402   4.074
    2V3OU    O6  861   3.810   3.480   4.193
    2V3OU   H21  862   3.756   3.560   4.179
    2V3OU    C3  863   3.784   3.500   3.962
    2V3OU    H2  864   3.864   3.577   3.947
    2V3OU    H3  865   3.783   3.439   3.868
    2V3OU   C25  866   3.954   3.330   4.058
    2V3OU    O7  867   4.001   3.295   3.950
    2V3OU   C26  868   4.029   3.289   4.183
    2V3OU   H22  869   4.060   3.380   4.241
    2V3OU   H23  870   4.121   3.231   4.155
    2V3OU    O8  871   3.959   3.206   4.272
    2V3OU   H24  872   3.928   3.262   4.345
    2V3OU    C1  873   3.649   3.567   3.979
    2V3OU    H1  874   3.628   3.624   3.883
    2V3OU    O3  875   3.665   3.659   4.088
    2V3OU   C19  876   3.622   3.795   4.081
    2V3OU    H9  877   3.526   3.803   4.022
    2V3OU    O4  878   3.713   3.853   3.991
    2V3OU   C20  879   3.845   3.882   4.036
    2V3OU   H10  880   3.883   3.776   4.051
    2V3OU   C24  881   3.616   3.856   4.221
    2V3OU   H16  882   3.552   3.793   4.288
    2V3OU   H17  883   3.565   3.955   4.204
    2V3OU   C23  884   3.758   3.873   4.275
    2V3OU   H15  885   3.797   3.768   4.293
    2V3OU    N1  886   3.742   3.952   4.396
    2V3OU   H19  887   3.815   3.926   4.459
    2V3OU   H20  888   3.652   3.934   4.437
    2V3OU   C21  889   3.849   3.949   4.174
    2V3OU   H11  890   3.956   3.922   4.202
    2V3OU    O5  891   3.830   4.089   4.174
    2V3OU   H18  892   3.775   4.103   4.253
    2V3OU   C22  893   3.914   3.948   3.918
    2V3OU   H12  894   3.862   4.045   3.895
    2V3OU   H13  895   3.901   3.889   3.824
    2V3OU   H14  896   4.024   3.958   3.939
    2V3OU   C11  897   3.163   3.475   4.014
    2V3OU    O1  898   3.138   3.595   3.993
    2V3OU    C9  899   3.301   3.426   4.037
    2V3OU    C7  900   3.402   3.509   3.990
    2V3OU    O9  901   3.384   3.616   3.905
    2V3OU   H25  902   3.289   3.635   3.904
    2V3OU   C17  903   2.830   3.319   4.032
    2V3OU    H7  904   2.732   3.356   4.002
    2V3OU   C18  905   2.853   3.221   4.128
    2V3OU    H8  906   2.785   3.180   4.205
    3SOL     OW  907   2.831   4.247   5.586
    3SOL    HW1  908   2.794   4.285   5.502
    3SOL    HW2  909   2.921   4.289   5.604
    4SOL     OW  910   6.558   6.914   6.839
    4SOL    HW1  911   6.641   6.874   6.879
    4SOL    HW2  912   6.550   6.886   6.744
    5SOL     OW  913   4.750   1.538   2.716
    5SOL    HW1  914   4.785   1.452   2.679
    5SOL    HW2  915   4.650   1.536   2.716
    6SOL     OW  916   4.934   2.330   3.072
    6SOL    HW1  917   4.894   2.241   3.049
    6SOL    HW2  918   4.974   2.370   2.989
    7SOL     OW  919   1.010   4.171   4.148
    7SOL    HW1  920   0.983   4.090   4.201
    7SOL    HW2  921   0.935   4.198   4.088
    8SOL     OW  922   2.846   2.157   5.588
    8SOL    HW1  923   2.896   2.194   5.511
    8SOL    HW2  924   2.824   2.061   5.571
    9SOL     OW  925   6.393   1.738   6.081
    9SOL    HW1  926   6.393   1.648   6.123
    9SOL    HW2  927   6.432   1.733   5.989
   10SOL     OW  928   3.507   5.145   4.006
   10SOL    HW1  929   3.408   5.143   4.017
   10SOL    HW2  930   3.533   5.086   3.930
   11SOL     OW  931   1.803   1.158   6.884
   11SOL    HW1  932   1.756   1.247   6.884
   11SOL    HW2  933   1.737   1.086   6.905
   12SOL     OW  934   2.704   4.619   4.001
   12SOL    HW1  935   2.690   4.587   3.908
   12SOL    HW2  936   2.789   4.671   4.006
   13SOL     OW  937   3.592   6.265   2.901
   13SOL    HW1  938   3.582   6.324   2.821
   13SOL    HW2  939   3.606   6.170   2.871
   14SOL     OW  940   4.325   3.943   6.173
   14SOL    HW1  941   4.327   3.857   6.224
   14SOL    HW2  942   4.407   3.950   6.117
   15SOL     OW  943   0.777   6.774   6.273
   15SOL    HW1  944   0.782   6.784   6.174
   15SOL    HW2  945   0.718   6.847   6.311
   16SOL     OW  946   6.091   2.302   6.221
   16SOL    HW1  947   6.127   2.372   6.159
   16SOL    HW2  948   6.034   2.345   6.291
   17SOL     OW  949   5.290   0.410   6.350
   17SOL    HW1  950   5.218   0.366   6.405
   17SOL    HW2  951   5.379   0.387   6.390
   18SOL     OW  952   4.033   1.246   5.077
   18SOL    HW1  953   4.124   1.278   5.103
   18SOL    HW2  954   3.964   1.293   5.133
   19SOL     OW  955   0.534   2.123   2.575
   19SOL    HW1  956   0.457   2.177   2.610
   19SOL    HW2  957   0.550   2.045   2.634
   20SOL     OW  958   5.403   1.945   5.100
   20SOL    HW1  959   5.331   2.002   5.139
   20SOL    HW2  960   5.386   1.849   5.123
   21SOL     OW  961   2.926   0.434   2.818
   21SOL    HW1  962   2.939   0.453   2.915
   21SOL    HW2  963   2.829   0.417   2.800
   22SOL     OW  964   1.194   6.216   6.319
   22SOL    HW1  965   1.133   6.295   6.318
   22SOL    HW2  966   1.267   6.229   6.252
   23SOL     OW  967   3.991   5.651   2.313
   23SOL    HW1  968   3.904   5.626   2.269
   23SOL    HW2  969   4.058   5.579   2.296
   24SOL     OW  970   3.554   0.049   2.464
   24SOL    HW1  971   3.615   0.089   2.396
   24SOL    HW2  972   3.609   7.024   2.532
   25SOL     OW  973   2.523   6.931   4.227
   25SOL    HW1  974   2.616   6.894   4.220
   25SOL    HW2  975   2.464   6.887   4.159
   26SOL     OW  976   0.543   1.964   0.190
   26SOL    HW1  977   0.590   1.935   0.273
   26SOL    HW2  978   0.600   1.946   0.110
   27SOL     OW  979   1.257   1.372   2.057
   27SOL    HW1  980   1.292   1.451   2.008
   27SOL    HW2  981   1.311   1.357   2.140
   28SOL     OW  982   0.550   1.009   4.624
   28SOL    HW1  983   0.452   1.010   4.641
   28SOL    HW2  984   0.598   0.984   4.708
   29SOL     OW  985   6.264   1.043   1.155
   29SOL    HW1  986   6.312   0.956   1.164
   29SOL    HW2  987   6.190   1.033   1.089
   30SOL     OW  988   3.659   0.366   5.292
   30SOL    HW1  989   3.638   0.379   5.195
   30SOL    HW2  990   3.732   0.299   5.301
   31SOL     OW  991   0.427   2.305   5.566
   31SOL    HW1  992   0.486   2.350   5.632
   31SOL    HW2  993   0.449   2.337   5.474
   32SOL     OW  994   1.367   2.058   2.391
   32SOL    HW1  995   1.407   2.127   2.332
   32SOL    HW2  996   1.429   2.038   2.467
   33SOL     OW  997   0.593   4.129   5.082
   33SOL    HW1  998   0.635   4.038   5.087
   33SOL    HW2  999   0.587   4.157   4.986
   34SOL     OW 1000   2.448   5.812   5.070
   34SOL    HW1 1001   2.484   5.899   5.102
   34SOL    HW2 1002   2.351   5.822   5.047
   35SOL     OW 1003   4.491   1.878   5.399
   35SOL    HW1 1004   4.486   1.807   5.468
   35SOL    HW2 1005   4.442   1.849   5.316
   36SOL     OW 1006   5.375   1.305   3.747
   36SOL    HW1 1007   5.333   1.388   3.712
   36SOL    HW2 1008   5.445   1.329   3.815
   37SOL     OW 1009   2.050   1.572   4.733
   37SOL    HW1 1010   2.144   1.589   4.765
   37SOL    HW2 1011   1.997   1.656   4.743
   38SOL     OW 1012   2.231   4.128   1.757
   38SOL    HW1 1013   2.320   4.139   1.713
   38SOL    HW2 1014   2.159   4.162   1.695
   39SOL     OW 1015   6.545   4.942   6.326
   39SOL    HW1 1016   6.632   4.904   6.356
   39SOL    HW2 1017   6.511   4.890   6.248
   40SOL     OW 1018   3.301   1.386   6.322
   40SOL    HW1 1019   3.326   1.392   6.419
   40SOL    HW2 1020   3.250   1.302   6.306
   41SOL     OW 1021   6.469   3.715   2.430
   41SOL    HW1 1022   6.509   3.784   2.490
   41SOL    HW2 1023   6.372   3.704   2.452
   42SOL     OW 1024   3.274   6.145   4.253
   42SOL    HW1 1025   3.346   6.158   4.321
   42SOL    HW2 1026   3.251   6.233   4.212
   43SOL     OW 1027   4.129   0.220   5.535
   43SOL    HW1 1028   4.123   0.268   5.623
   43SOL    HW2 1029   4.037   0.205   5.499
   44SOL     OW 1030   6.095   2.883   4.976
   44SOL    HW1 1031   6.173   2.943   4.989
   44SOL    HW2 1032   6.012   2.929   5.009
   45SOL     OW 1033   4.243   5.462   1.375
   45SOL    HW1 1034   4.176   5.536   1.364
   45SOL    HW2 1035   4.275   5.433   1.285
   46SOL     OW 1036   0.257   2.608   4.084
   46SOL    HW1 1037   0.208   2.636   4.167
   46SOL    HW2 1038   0.276   2.689   4.028
   47SOL     OW 1039   5.164   3.726   1.370
   47SOL    HW1 1040   5.085   3.680   1.412
   47SOL    HW2 1041   5.132   3.802   1.314
   48SOL     OW 1042   0.181   2.428   6.258
   48SOL    HW1 1043   0.245   2.447   6.184
   48SOL    HW2 1044   0.230   2.422   6.345
   49SOL     OW 1045   5.352   3.027   1.485
   49SOL    HW1 1046   5.451   3.040   1.491
   49SOL    HW2 1047   5.331   2.951   1.424
   50SOL     OW 1048   6.044   1.764   5.201
   50SOL    HW1 1049   5.960   1.728   5.243
   50SOL    HW2 1050   6.087   1.829   5.264
   51SOL     OW 1051   2.273   6.431   2.803
   51SOL    HW1 1052   2.241   6.360   2.740
   51SOL    HW2 1053   2.301   6.389   2.889
   52SOL     OW 1054   5.228   2.587   1.889
   52SOL    HW1 1055   5.171   2.505   1.894
   52SOL    HW2 1056   5.190   2.650   1.821
   53SOL     OW 1057   5.005   0.168   3.610
   53SOL    HW1 1058   5.097   0.207   3.615
   53SOL    HW2 1059   4.988   0.134   3.518
   54SOL     OW 1060   5.524   0.003   0.051
   54SOL    HW1 1061   5.600   6.970   0.080
   54SOL    HW2 1062   5.438   6.976   0.062
   55SOL     OW 1063   2.475   2.219   5.537
   55SOL    HW1 1064   2.569   2.249   5.552
   55SOL    HW2 1065   2.430   2.202   5.625
   56SOL     OW 1066   1.373   1.899   1.229
   56SOL    HW1 1067   1.287   1.870   1.271
   56SOL    HW2 1068   1.412   1.974   1.283
   57SOL     OW 1069   3.571   1.408   6.930
   57SOL    HW1 1070   3.613   1.425   6.841
   57SOL    HW2 1071   3.603   1.321   6.967
   58SOL     OW 1072   0.476   0.194   6.106
   58SOL    HW1 1073   0.440   0.243   6.027
   58SOL    HW2 1074   0.543   0.251   6.153
   59SOL     OW 1075   6.357   3.721   6.280
   59SOL    HW1 1076   6.309   3.652   6.334
   59SOL    HW2 1077   6.291   3.788   6.245
   60SOL     OW 1078   5.218   1.913   3.757
   60SOL    HW1 1079   5.297   1.914   3.819
   60SOL    HW2 1080   5.146   1.856   3.797
   61SOL     OW 1081   6.767   0.968   4.320
   61SOL    HW1 1082   6.770   0.872   4.348
   61SOL    HW2 1083   6.672   0.996   4.306
   62SOL     OW 1084   1.874   1.394   1.559
   62SOL    HW1 1085   1.797   1.331   1.569
   62SOL    HW2 1086   1.915   1.411   1.648
   63SOL     OW 1087   3.719   0.353   4.458
   63SOL    HW1 1088   3.768   0.309   4.383
   63SOL    HW2 1089   3.738   0.451   4.458
   64SOL     OW 1090   0.703   3.384   6.568
   64SOL    HW1 1091   0.787   3.379   6.514
   64SOL    HW2 1092   0.640   3.449   6.526
   65SOL     OW 1093   1.285   6.491   5.662
   65SOL    HW1 1094   1.332   6.405   5.683
   65SOL    HW2 1095   1.243   6.484   5.571
   66SOL     OW 1096   3.526   0.346   3.081
   66SOL    HW1 1097   3.505   0.248   3.087
   66SOL    HW2 1098   3.621   0.357   3.050
   67SOL     OW 1099   0.184   3.011   6.206
   67SOL    HW1 1100   0.229   3.001   6.295
   67SOL    HW2 1101   0.202   3.102   6.169
   68SOL     OW 1102   6.631   1.448   6.191
   68SOL    HW1 1103   6.704   1.383   6.210
   68SOL    HW2 1104   6.609   1.446   6.094
   69SOL     OW 1105   1.843   3.219   6.003
   69SOL    HW1 1106   1.876   3.279   6.075
   69SOL    HW2 1107   1.894   3.133   6.004
   70SOL     OW 1108   5.421   4.983   4.850
   70SOL    HW1 1109   5.506   5.034   4.834
   70SOL    HW2 1110   5.422   4.899   4.796
   71SOL     OW 1111   4.795   1.529   3.382
   71SOL    HW1 1112   4.860   1.590   3.428
   71SOL    HW2 1113   4.733   1.583   3.325
   72SOL     OW 1114   0.485   1.071   3.133
   72SOL    HW1 1115   0.421   1.131   3.084
   72SOL    HW2 1116   0.434   0.996   3.174
   73SOL     OW 1117   2.912   0.089   0.863
   73SOL    HW1 1118   2.934   0.091   0.766
   73SOL    HW2 1119   2.896   7.020   0.893
   74SOL     OW 1120   2.475   1.631   6.705
   74SOL    HW1 1121   2.479   1.532   6.716
   74SOL    HW2 1122   2.528   1.674   6.778
   75SOL     OW 1123   3.496   1.051   1.617
   75SOL    HW1 1124   3.469   0.980   1.552
   75SOL    HW2 1125   3.575   1.019   1.669
   76SOL     OW 1126   1.831   4.162   5.863
   76SOL    HW1 1127   1.828   4.069   5.899
   76SOL    HW2 1128   1.742   4.206   5.878
   77SOL     OW 1129   2.202   5.675   3.634
   77SOL    HW1 1130   2.223   5.718   3.722
   77SOL    HW2 1131   2.168   5.582   3.650
   78SOL     OW 1132   4.325   1.376   0.944
   78SOL    HW1 1133   4.270   1.443   0.894
   78SOL    HW2 1134   4.265   1.314   0.995
   79SOL     OW 1135   2.466   6.026   2.021
   79SOL    HW1 1136   2.472   5.939   1.974
   79SOL    HW2 1137   2.474   6.101   1.955
   80SOL     OW 1138   4.725   1.934   4.650
   80SOL    HW1 1139   4.695   2.027   4.671
   80SOL    HW2 1140   4.792   1.904   4.717
   81SOL     OW 1141   1.794   0.087   0.571
   81SOL    HW1 1142   1.819   7.023   0.532
   81SOL    HW2 1143   1.734   0.135   0.507
   82SOL     OW 1144   0.392   6.238   1.673
   82SOL    HW1 1145   0.436   6.204   1.590
   82SOL    HW2 1146   0.409   6.336   1.682
   83SOL     OW 1147   0.188   1.417   6.213
   83SOL    HW1 1148   0.174   1.367   6.299
   83SOL    HW2 1149   0.242   1.361   6.151
   84SOL     OW 1150   6.455   4.042   2.817
   84SOL    HW1 1151   6.417   4.133   2.832
   84SOL    HW2 1152   6.554   4.044   2.834
   85SOL     OW 1153   1.953   0.283   3.477
   85SOL    HW1 1154   1.859   0.312   3.497
   85SOL    HW2 1155   1.969   0.285   3.378
   86SOL     OW 1156   6.610   0.872   6.594
   86SOL    HW1 1157   6.561   0.816   6.661
   86SOL    HW2 1158   6.606   0.968   6.621
   87SOL     OW 1159   3.907   3.876   0.750
   87SOL    HW1 1160   3.977   3.931   0.704
   87SOL    HW2 1161   3.944   3.844   0.838
   88SOL     OW 1162   3.029   1.977   6.382
   88SOL    HW1 1163   3.053   1.957   6.477
   88SOL    HW2 1164   3.083   2.054   6.349
   89SOL     OW 1165   3.083   3.527   1.158
   89SOL    HW1 1166   2.993   3.557   1.127
   89SOL    HW2 1167   3.149   3.537   1.084
   90SOL     OW 1168   4.671   4.689   2.261
   90SOL    HW1 1169   4.621   4.611   2.223
   90SOL    HW2 1170   4.611   4.769   2.262
   91SOL     OW 1171   5.993   5.313   6.303
   91SOL    HW1 1172   5.928   5.275   6.237
   91SOL    HW2 1173   6.055   5.376   6.257
   92SOL     OW 1174   5.556   3.774   1.041
   92SOL    HW1 1175   5.576   3.871   1.028
   92SOL    HW2 1176   5.594   3.722   0.964
   93SOL     OW 1177   3.133   3.790   0.346
   93SOL    HW1 1178   3.084   3.712   0.307
   93SOL    HW2 1179   3.166   3.849   0.273
   94SOL     OW 1180   2.594   6.033   0.855
   94SOL    HW1 1181   2.571   6.123   0.819
   94SOL    HW2 1182   2.528   6.006   0.925
   95SOL     OW 1183   1.296   0.955   3.483
   95SOL    HW1 1184   1.375   0.983   3.429
   95SOL    HW2 1185   1.319   0.958   3.580
   96SOL     OW 1186   4.569   5.780   6.803
   96SOL    HW1 1187   4.574   5.785   6.902
   96SOL    HW2 1188   4.580   5.872   6.764
   97SOL     OW 1189   1.977   4.254   4.801
   97SOL    HW1 1190   1.952   4.311   4.723
   97SOL    HW2 1191   2.072   4.270   4.826
   98SOL     OW 1192   0.817   2.349   1.003
   98SOL    HW1 1193   0.765   2.305   1.076
   98SOL    HW2 1194   0.769   2.432   0.974
   99SOL     OW 1195   3.736   4.089   2.869
   99SOL    HW1 1196   3.813   4.140   2.907
   99SOL    HW2 1197   3.668   4.074   2.941
  100SOL     OW 1198   6.292   7.013   4.381
  100SOL    HW1 1199   6.205   6.967   4.398
  100SOL    HW2 1200   6.288   0.082   4.415
  101SOL     OW 1201   0.592   5.460   2.187
  101SOL    HW1 1202   0.679   5.481   2.144
  101SOL    HW2 1203   0.550   5.545   2.220
  102SOL     OW 1204   3.123   6.099   2.343
  102SOL    HW1 1205   3.156   6.041   2.417
  102SOL    HW2 1206   3.085   6.042   2.270
  103SOL     OW 1207   1.593   1.879   2.222
  103SOL    HW1 1208   1.519   1.917   2.278
  103SOL    HW2 1209   1.614   1.943   2.147
  104SOL     OW 1210   1.567   5.220   2.453
  104SOL    HW1 1211   1.603   5.290   2.392
  104SOL    HW2 1212   1.642   5.178   2.504
  105SOL     OW 1213   5.138   1.748   6.187
  105SOL    HW1 1214   5.186   1.787   6.266
  105SOL    HW2 1215   5.176   1.657   6.167
  106SOL     OW 1216   4.635   4.890   1.902
  106SOL    HW1 1217   4.569   4.883   1.977
  106SOL    HW2 1218   4.687   4.805   1.895
  107SOL     OW 1219   6.239   0.622   6.814
  107SOL    HW1 1220   6.234   0.624   6.914
  107SOL    HW2 1221   6.236   0.716   6.780
  108SOL     OW 1222   3.293   6.828   5.412
  108SOL    HW1 1223   3.234   6.871   5.343
  108SOL    HW2 1224   3.343   6.898   5.461
  109SOL     OW 1225   3.099   0.666   2.340
  109SOL    HW1 1226   3.153   0.736   2.387
  109SOL    HW2 1227   3.012   0.653   2.387
  110SOL     OW 1228   2.742   5.202   4.860
  110SOL    HW1 1229   2.672   5.271   4.841
  110SOL    HW2 1230   2.715   5.147   4.939
  111SOL     OW 1231   0.673   1.629   2.727
  111SOL    HW1 1232   0.675   1.589   2.635
  111SOL    HW2 1233   0.696   1.726   2.721
  112SOL     OW 1234   5.154   6.740   6.571
  112SOL    HW1 1235   5.085   6.786   6.515
  112SOL    HW2 1236   5.240   6.790   6.566
  113SOL     OW 1237   0.121   5.915   2.485
  113SOL    HW1 1238   0.031   5.872   2.491
  113SOL    HW2 1239   0.160   5.923   2.576
  114SOL     OW 1240   1.055   5.431   2.458
  114SOL    HW1 1241   0.973   5.422   2.515
  114SOL    HW2 1242   1.098   5.341   2.447
  115SOL     OW 1243   5.760   1.025   3.499
  115SOL    HW1 1244   5.805   0.984   3.420
  115SOL    HW2 1245   5.770   1.125   3.495
  116SOL     OW 1246   0.110   6.306   1.378
  116SOL    HW1 1247   0.074   6.239   1.443
  116SOL    HW2 1248   0.060   6.393   1.390
  117SOL     OW 1249   2.337   0.819   0.462
  117SOL    HW1 1250   2.355   0.815   0.364
  117SOL    HW2 1251   2.308   0.911   0.487
  118SOL     OW 1252   1.541   1.621   3.770
  118SOL    HW1 1253   1.634   1.588   3.759
  118SOL    HW2 1254   1.527   1.651   3.864
  119SOL     OW 1255   0.069   6.640   6.597
  119SOL    HW1 1256   0.015   6.562   6.563
  119SOL    HW2 1257   0.166   6.619   6.589
  120SOL     OW 1258   4.480   0.526   4.675
  120SOL    HW1 1259   4.545   0.595   4.707
  120SOL    HW2 1260   4.391   0.569   4.662
  121SOL     OW 1261   1.932   3.658   0.132
  121SOL    HW1 1262   1.964   3.641   0.226
  121SOL    HW2 1263   1.874   3.739   0.131
  122SOL     OW 1264   1.730   3.478   0.331
  122SOL    HW1 1265   1.785   3.394   0.324
  122SOL    HW2 1266   1.641   3.462   0.289
  123SOL     OW 1267   1.019   0.972   1.562
  123SOL    HW1 1268   0.986   0.879   1.578
  123SOL    HW2 1269   0.960   1.037   1.610
  124SOL     OW 1270   3.165   1.903   0.552
  124SOL    HW1 1271   3.073   1.917   0.588
  124SOL    HW2 1272   3.179   1.963   0.473
  125SOL     OW 1273   3.706   2.717   0.509
  125SOL    HW1 1274   3.659   2.781   0.570
  125SOL    HW2 1275   3.657   2.630   0.508
  126SOL     OW 1276   2.943   3.308   3.296
  126SOL    HW1 1277   2.913   3.396   3.261
  126SOL    HW2 1278   2.960   3.245   3.219
  127SOL     OW 1279   6.654   6.274   6.029
  127SOL    HW1 1280   6.679   6.177   6.026
  127SOL    HW2 1281   6.686   6.319   5.946
  128SOL     OW 1282   5.161   3.163   2.496
  128SOL    HW1 1283   5.180   3.190   2.402
  128SOL    HW2 1284   5.191   3.236   2.558
  129SOL     OW 1285   3.083   4.386   0.875
  129SOL    HW1 1286   3.170   4.383   0.827
  129SOL    HW2 1287   3.046   4.479   0.872
  130SOL     OW 1288   6.391   0.923   4.804
  130SOL    HW1 1289   6.315   0.985   4.825
  130SOL    HW2 1290   6.377   0.837   4.853
  131SOL     OW 1291   5.594   0.770   4.547
  131SOL    HW1 1292   5.539   0.689   4.526
  131SOL    HW2 1293   5.609   0.776   4.646
  132SOL     OW 1294   3.706   3.519   1.415
  132SOL    HW1 1295   3.611   3.549   1.424
  132SOL    HW2 1296   3.715   3.423   1.442
  133SOL     OW 1297   5.423   1.277   3.273
  133SOL    HW1 1298   5.351   1.234   3.328
  133SOL    HW2 1299   5.500   1.214   3.264
  134SOL     OW 1300   0.549   0.809   2.531
  134SOL    HW1 1301   0.639   0.848   2.510
  134SOL    HW2 1302   0.538   0.804   2.631
  135SOL     OW 1303   4.953   3.350   4.457
  135SOL    HW1 1304   5.052   3.361   4.456
  135SOL    HW2 1305   4.923   3.303   4.374
  136SOL     OW 1306   2.648   6.409   4.359
  136SOL    HW1 1307   2.695   6.354   4.289
  136SOL    HW2 1308   2.550   6.406   4.342
  137SOL     OW 1309   4.313   1.106   4.217
  137SOL    HW1 1310   4.290   1.089   4.313
  137SOL    HW2 1311   4.237   1.079   4.159
  138SOL     OW 1312   0.816   4.932   3.439
  138SOL    HW1 1313   0.746   5.001   3.420
  138SOL    HW2 1314   0.872   4.918   3.358
  139SOL     OW 1315   2.468   5.594   6.447
  139SOL    HW1 1316   2.406   5.637   6.512
  139SOL    HW2 1317   2.431   5.505   6.419
  140SOL     OW 1318   1.878   6.433   2.698
  140SOL    HW1 1319   1.783   6.403   2.687
  140SOL    HW2 1320   1.890   6.472   2.789
  141SOL     OW 1321   6.664   3.637   6.503
  141SOL    HW1 1322   6.596   3.616   6.573
  141SOL    HW2 1323   6.711   3.722   6.528
  142SOL     OW 1324   2.121   4.077   1.352
  142SOL    HW1 1325   2.152   3.998   1.405
  142SOL    HW2 1326   2.078   4.144   1.413
  143SOL     OW 1327   5.750   6.295   0.928
  143SOL    HW1 1328   5.679   6.362   0.949
  143SOL    HW2 1329   5.817   6.293   1.002
  144SOL     OW 1330   3.085   4.848   3.710
  144SOL    HW1 1331   3.141   4.770   3.682
  144SOL    HW2 1332   3.003   4.853   3.652
  145SOL     OW 1333   1.124   5.172   2.450
  145SOL    HW1 1334   1.213   5.131   2.466
  145SOL    HW2 1335   1.070   5.113   2.391
  146SOL     OW 1336   5.485   0.826   5.489
  146SOL    HW1 1337   5.478   0.831   5.389
  146SOL    HW2 1338   5.426   0.896   5.529
  147SOL     OW 1339   5.158   1.352   4.778
  147SOL    HW1 1340   5.212   1.418   4.726
  147SOL    HW2 1341   5.107   1.294   4.715
  148SOL     OW 1342   1.215   5.209   1.534
  148SOL    HW1 1343   1.269   5.126   1.520
  148SOL    HW2 1344   1.189   5.248   1.445
  149SOL     OW 1345   3.074   2.250   5.387
  149SOL    HW1 1346   3.127   2.306   5.323
  149SOL    HW2 1347   3.120   2.248   5.476
  150SOL     OW 1348   4.607   0.751   6.102
  150SOL    HW1 1349   4.601   0.807   6.019
  150SOL    HW2 1350   4.696   0.763   6.144
  151SOL     OW 1351   4.090   0.676   1.561
  151SOL    HW1 1352   4.152   0.726   1.501
  151SOL    HW2 1353   4.089   0.580   1.535
  152SOL     OW 1354   6.923   1.361   0.579
  152SOL    HW1 1355   6.933   1.381   0.677
  152SOL    HW2 1356   6.986   1.287   0.554
  153SOL     OW 1357   2.734   0.596   3.520
  153SOL    HW1 1358   2.649   0.547   3.502
  153SOL    HW2 1359   2.811   0.544   3.481
  154SOL     OW 1360   6.797   2.473   0.228
  154SOL    HW1 1361   6.830   2.398   0.286
  154SOL    HW2 1362   6.731   2.528   0.278
  155SOL     OW 1363   0.539   0.171   2.011
  155SOL    HW1 1364   0.608   0.237   2.041
  155SOL    HW2 1365   0.528   0.177   1.912
  156SOL     OW 1366   6.198   1.632   0.590
  156SOL    HW1 1367   6.184   1.660   0.685
  156SOL    HW2 1368   6.113   1.646   0.539
  157SOL     OW 1369   5.849   2.931   6.771
  157SOL    HW1 1370   5.947   2.952   6.767
  157SOL    HW2 1371   5.808   2.979   6.849
  158SOL     OW 1372   1.594   2.390   1.608
  158SOL    HW1 1373   1.667   2.381   1.676
  158SOL    HW2 1374   1.522   2.450   1.644
  159SOL     OW 1375   4.439   4.458   1.145
  159SOL    HW1 1376   4.472   4.371   1.108
  159SOL    HW2 1377   4.431   4.525   1.071
  160SOL     OW 1378   6.477   0.360   1.613
  160SOL    HW1 1379   6.555   0.375   1.551
  160SOL    HW2 1380   6.408   0.430   1.597
  161SOL     OW 1381   0.862   6.934   1.228
  161SOL    HW1 1382   0.786   6.997   1.248
  161SOL    HW2 1383   0.948   6.986   1.225
  162SOL     OW 1384   2.625   6.697   0.273
  162SOL    HW1 1385   2.547   6.673   0.215
  162SOL    HW2 1386   2.699   6.631   0.257
  163SOL     OW 1387   0.315   5.297   3.166
  163SOL    HW1 1388   0.234   5.343   3.130
  163SOL    HW2 1389   0.287   5.223   3.226
  164SOL     OW 1390   0.762   1.906   2.742
  164SOL    HW1 1391   0.787   1.933   2.649
  164SOL    HW2 1392   0.731   1.986   2.793
  165SOL     OW 1393   6.395   5.689   1.795
  165SOL    HW1 1394   6.364   5.599   1.765
  165SOL    HW2 1395   6.469   5.720   1.735
  166SOL     OW 1396   6.530   3.551   1.655
  166SOL    HW1 1397   6.597   3.481   1.631
  166SOL    HW2 1398   6.460   3.512   1.713
  167SOL     OW 1399   5.479   1.779   6.956
  167SOL    HW1 1400   5.434   1.752   0.016
  167SOL    HW2 1401   5.523   1.868   6.968
  168SOL     OW 1402   3.901   2.447   1.515
  168SOL    HW1 1403   3.824   2.450   1.452
  168SOL    HW2 1404   3.929   2.540   1.539
  169SOL     OW 1405   6.059   3.208   6.869
  169SOL    HW1 1406   5.980   3.239   6.815
  169SOL    HW2 1407   6.114   3.145   6.813
  170SOL     OW 1408   0.035   5.758   3.398
  170SOL    HW1 1409   6.980   5.708   3.433
  170SOL    HW2 1410   0.004   5.823   3.327
  171SOL     OW 1411   1.802   3.836   6.585
  171SOL    HW1 1412   1.712   3.793   6.574
  171SOL    HW2 1413   1.872   3.765   6.593
  172SOL     OW 1414   6.298   2.748   2.159
  172SOL    HW1 1415   6.285   2.847   2.154
  172SOL    HW2 1416   6.209   2.703   2.168
  173SOL     OW 1417   5.846   1.434   4.234
  173SOL    HW1 1418   5.885   1.465   4.320
  173SOL    HW2 1419   5.870   1.338   4.219
  174SOL     OW 1420   5.429   5.316   4.813
  174SOL    HW1 1421   5.494   5.265   4.757
  174SOL    HW2 1422   5.347   5.261   4.827
  175SOL     OW 1423   2.949   0.469   1.192
  175SOL    HW1 1424   2.976   0.399   1.126
  175SOL    HW2 1425   2.862   0.511   1.164
  176SOL     OW 1426   4.864   4.158   3.305
  176SOL    HW1 1427   4.846   4.169   3.403
  176SOL    HW2 1428   4.833   4.068   3.276
  177SOL     OW 1429   5.341   2.543   5.249
  177SOL    HW1 1430   5.355   2.493   5.335
  177SOL    HW2 1431   5.378   2.490   5.173
  178SOL     OW 1432   3.160   4.849   4.352
  178SOL    HW1 1433   3.177   4.942   4.386
  178SOL    HW2 1434   3.231   4.788   4.387
  179SOL     OW 1435   4.253   6.362   0.086
  179SOL    HW1 1436   4.316   6.397   0.156
  179SOL    HW2 1437   4.159   6.365   0.122
  180SOL     OW 1438   2.425   6.644   0.073
  180SOL    HW1 1439   2.345   6.641   0.133
  180SOL    HW2 1440   2.420   6.569   0.007
  181SOL     OW 1441   3.265   2.547   5.836
  181SOL    HW1 1442   3.311   2.631   5.865
  181SOL    HW2 1443   3.314   2.467   5.870
  182SOL     OW 1444   4.832   3.252   6.715
  182SOL    HW1 1445   4.755   3.267   6.777
  182SOL    HW2 1446   4.888   3.335   6.711
  183SOL     OW 1447   3.982   2.137   3.780
  183SOL    HW1 1448   3.915   2.092   3.840
  183SOL    HW2 1449   3.948   2.136   3.686
  184SOL     OW 1450   0.915   6.835   3.261
  184SOL    HW1 1451   0.988   6.767   3.261
  184SOL    HW2 1452   0.871   6.838   3.350
  185SOL     OW 1453   1.260   1.411   3.901
  185SOL    HW1 1454   1.355   1.399   3.873
  185SOL    HW2 1455   1.228   1.329   3.948
  186SOL     OW 1456   5.810   6.726   4.333
  186SOL    HW1 1457   5.853   6.700   4.246
  186SOL    HW2 1458   5.728   6.781   4.314
  187SOL     OW 1459   4.598   5.998   2.245
  187SOL    HW1 1460   4.511   6.027   2.206
  187SOL    HW2 1461   4.620   5.906   2.211
  188SOL     OW 1462   1.048   2.061   3.341
  188SOL    HW1 1463   1.004   2.143   3.306
  188SOL    HW2 1464   0.983   1.985   3.340
  189SOL     OW 1465   0.282   4.671   6.624
  189SOL    HW1 1466   0.187   4.676   6.653
  189SOL    HW2 1467   0.290   4.702   6.529
  190SOL     OW 1468   5.738   4.901   6.883
  190SOL    HW1 1469   5.722   4.868   6.790
  190SOL    HW2 1470   5.832   4.883   6.910
  191SOL     OW 1471   6.667   1.498   5.716
  191SOL    HW1 1472   6.682   1.499   5.617
  191SOL    HW2 1473   6.742   1.545   5.762
  192SOL     OW 1474   0.582   4.635   1.552
  192SOL    HW1 1475   0.649   4.674   1.614
  192SOL    HW2 1476   0.568   4.698   1.475
  193SOL     OW 1477   4.677   4.597   5.355
  193SOL    HW1 1478   4.735   4.516   5.345
  193SOL    HW2 1479   4.597   4.574   5.411
  194SOL     OW 1480   4.257   7.016   1.950
  194SOL    HW1 1481   4.239   0.055   1.874
  194SOL    HW2 1482   4.222   0.031   2.035
  195SOL     OW 1483   2.320   0.696   3.869
  195SOL    HW1 1484   2.254   0.766   3.842
  195SOL    HW2 1485   2.407   0.739   3.893
  196SOL     OW 1486   3.403   0.009   7.013
  196SOL    HW1 1487   3.407   6.946   6.965
  196SOL    HW2 1488   3.391   0.083   6.947
  197SOL     OW 1489   3.174   5.719   6.782
  197SOL    HW1 1490   3.151   5.749   6.874
  197SOL    HW2 1491   3.099   5.666   6.744
  198SOL     OW 1492   4.534   6.575   0.886
  198SOL    HW1 1493   4.559   6.486   0.846
  198SOL    HW2 1494   4.478   6.560   0.967
  199SOL     OW 1495   6.431   1.131   2.796
  199SOL    HW1 1496   6.438   1.101   2.701
  199SOL    HW2 1497   6.336   1.151   2.819
  200SOL     OW 1498   0.716   3.470   2.526
  200SOL    HW1 1499   0.631   3.421   2.548
  200SOL    HW2 1500   0.756   3.506   2.611
  201SOL     OW 1501   3.165   6.588   6.030
  201SOL    HW1 1502   3.227   6.525   5.983
  201SOL    HW2 1503   3.071   6.572   5.998
  202SOL     OW 1504   5.131   0.451   5.317
  202SOL    HW1 1505   5.146   0.507   5.236
  202SOL    HW2 1506   5.040   0.470   5.354
  203SOL     OW 1507   4.844   2.428   5.102
  203SOL    HW1 1508   4.853   2.468   5.010
  203SOL    HW2 1509   4.922   2.456   5.158
  204SOL     OW 1510   0.830   6.962   6.815
  204SOL    HW1 1511   0.735   6.953   6.786
  204SOL    HW2 1512   0.840   6.928   6.909
  205SOL     OW 1513   0.894   1.498   1.835
  205SOL    HW1 1514   0.874   1.574   1.897
  205SOL    HW2 1515   0.933   1.422   1.887
  206SOL     OW 1516   0.502   4.949   2.194
  206SOL    HW1 1517   0.549   4.944   2.106
  206SOL    HW2 1518   0.497   5.044   2.224
  207SOL     OW 1519   3.879   0.741   5.265
  207SOL    HW1 1520   3.917   0.834   5.264
  207SOL    HW2 1521   3.788   0.742   5.224
  208SOL     OW 1522   5.411   4.034   5.605
  208SOL    HW1 1523   5.442   4.104   5.669
  208SOL    HW2 1524   5.406   4.072   5.513
  209SOL     OW 1525   0.816   5.530   5.651
  209SOL    HW1 1526   0.717   5.524   5.660
  209SOL    HW2 1527   0.844   5.626   5.655
  210SOL     OW 1528   4.213   2.284   2.406
  210SOL    HW1 1529   4.144   2.278   2.478
  210SOL    HW2 1530   4.193   2.216   2.335
  211SOL     OW 1531   0.916   6.248   3.472
  211SOL    HW1 1532   0.934   6.263   3.374
  211SOL    HW2 1533   0.918   6.150   3.492
  212SOL     OW 1534   1.614   4.501   1.959
  212SOL    HW1 1535   1.658   4.539   2.040
  212SOL    HW2 1536   1.683   4.458   1.900
  213SOL     OW 1537   4.019   0.911   6.926
  213SOL    HW1 1538   4.060   0.849   6.993
  213SOL    HW2 1539   4.043   0.881   6.834
  214SOL     OW 1540   2.421   6.116   2.513
  214SOL    HW1 1541   2.472   6.116   2.428
  214SOL    HW2 1542   2.481   6.086   2.588
  215SOL     OW 1543   3.610   4.168   2.273
  215SOL    HW1 1544   3.635   4.263   2.295
  215SOL    HW2 1545   3.511   4.157   2.278
  216SOL     OW 1546   1.533   6.816   4.561
  216SOL    HW1 1547   1.492   6.732   4.525
  216SOL    HW2 1548   1.539   6.809   4.661
  217SOL     OW 1549   2.030   2.768   4.873
  217SOL    HW1 1550   1.983   2.793   4.958
  217SOL    HW2 1551   2.128   2.765   4.890
  218SOL     OW 1552   1.278   2.743   5.153
  218SOL    HW1 1553   1.338   2.668   5.126
  218SOL    HW2 1554   1.288   2.819   5.087
  219SOL     OW 1555   3.855   4.659   5.786
  219SOL    HW1 1556   3.936   4.642   5.842
  219SOL    HW2 1557   3.773   4.644   5.841
  220SOL     OW 1558   3.333   5.125   6.978
  220SOL    HW1 1559   3.394   5.117   6.899
  220SOL    HW2 1560   3.352   5.051   0.018
  221SOL     OW 1561   5.967   4.006   2.521
  221SOL    HW1 1562   6.007   4.091   2.487
  221SOL    HW2 1563   5.867   4.014   2.520
  222SOL     OW 1564   1.766   4.832   5.447
  222SOL    HW1 1565   1.833   4.760   5.467
  222SOL    HW2 1566   1.674   4.796   5.461
  223SOL     OW 1567   0.629   3.282   0.648
  223SOL    HW1 1568   0.696   3.356   0.642
  223SOL    HW2 1569   0.675   3.194   0.638
  224SOL     OW 1570   2.855   2.218   3.736
  224SOL    HW1 1571   2.809   2.264   3.661
  224SOL    HW2 1572   2.938   2.269   3.761
  225SOL     OW 1573   5.358   1.236   6.620
  225SOL    HW1 1574   5.273   1.202   6.659
  225SOL    HW2 1575   5.339   1.313   6.560
  226SOL     OW 1576   0.685   6.417   6.734
  226SOL    HW1 1577   0.747   6.486   6.770
  226SOL    HW2 1578   0.590   6.444   6.752
  227SOL     OW 1579   1.061   4.392   2.899
  227SOL    HW1 1580   0.999   4.404   2.976
  227SOL    HW2 1581   1.119   4.473   2.889
  228SOL     OW 1582   3.003   0.110   3.749
  228SOL    HW1 1583   2.917   0.061   3.762
  228SOL    HW2 1584   2.993   0.205   3.778
  229SOL     OW 1585   6.153   5.588   0.897
  229SOL    HW1 1586   6.085   5.639   0.949
  229SOL    HW2 1587   6.237   5.581   0.951
  230SOL     OW 1588   2.848   4.760   3.526
  230SOL    HW1 1589   2.803   4.775   3.614
  230SOL    HW2 1590   2.798   4.692   3.473
  231SOL     OW 1591   6.645   2.431   5.788
  231SOL    HW1 1592   6.643   2.386   5.877
  231SOL    HW2 1593   6.740   2.441   5.758
  232SOL     OW 1594   0.631   4.349   6.068
  232SOL    HW1 1595   0.589   4.375   5.981
  232SOL    HW2 1596   0.611   4.418   6.137
  233SOL     OW 1597   2.546   0.999   4.598
  233SOL    HW1 1598   2.547   1.092   4.634
  233SOL    HW2 1599   2.640   0.970   4.578
  234SOL     OW 1600   2.288   5.548   5.338
  234SOL    HW1 1601   2.367   5.568   5.280
  234SOL    HW2 1602   2.209   5.526   5.280
  235SOL     OW 1603   3.730   2.894   2.206
  235SOL    HW1 1604   3.656   2.881   2.272
  235SOL    HW2 1605   3.719   2.831   2.130
  236SOL     OW 1606   5.668   3.442   6.590
  236SOL    HW1 1607   5.709   3.465   6.501
  236SOL    HW2 1608   5.612   3.518   6.621
  237SOL     OW 1609   0.342   6.732   0.661
  237SOL    HW1 1610   0.406   6.730   0.738
  237SOL    HW2 1611   0.384   6.777   0.582
  238SOL     OW 1612   6.716   2.881   0.667
  238SOL    HW1 1613   6.776   2.938   0.724
  238SOL    HW2 1614   6.765   2.851   0.586
  239SOL     OW 1615   6.561   4.686   0.143
  239SOL    HW1 1616   6.520   4.644   0.061
  239SOL    HW2 1617   6.490   4.735   0.194
  240SOL     OW 1618   0.450   2.905   5.711
  240SOL    HW1 1619   0.523   2.919   5.644
  240SOL    HW2 1620   0.427   2.808   5.715
  241SOL     OW 1621   0.753   0.560   3.868
  241SOL    HW1 1622   0.730   0.571   3.965
  241SOL    HW2 1623   0.756   0.462   3.846
  242SOL     OW 1624   1.340   2.637   6.299
  242SOL    HW1 1625   1.359   2.632   6.397
  242SOL    HW2 1626   1.296   2.724   6.278
  243SOL     OW 1627   4.430   0.094   5.862
  243SOL    HW1 1628   4.418   0.079   5.960
  243SOL    HW2 1629   4.449   0.191   5.845
  244SOL     OW 1630   4.732   2.775   4.295
  244SOL    HW1 1631   4.675   2.723   4.358
  244SOL    HW2 1632   4.758   2.716   4.218
  245SOL     OW 1633   6.788   2.784   4.492
  245SOL    HW1 1634   6.882   2.758   4.515
  245SOL    HW2 1635   6.743   2.708   4.446
  246SOL     OW 1636   5.341   3.566   3.648
  246SOL    HW1 1637   5.324   3.632   3.574
  246SOL    HW2 1638   5.418   3.597   3.704
  247SOL     OW 1639   2.430   1.816   2.809
  247SOL    HW1 1640   2.507   1.802   2.746
  247SOL    HW2 1641   2.458   1.878   2.882
  248SOL     OW 1642   4.433   2.450   4.152
  248SOL    HW1 1643   4.434   2.454   4.052
  248SOL    HW2 1644   4.450   2.541   4.189
  249SOL     OW 1645   3.262   6.912   5.005
  249SOL    HW1 1646   3.164   6.904   5.024
  249SOL    HW2 1647   3.276   6.923   4.906
  250SOL     OW 1648   5.354   1.770   5.670
  250SOL    HW1 1649   5.277   1.816   5.626
  250SOL    HW2 1650   5.342   1.671   5.662
  251SOL     OW 1651   4.361   3.619   5.968
  251SOL    HW1 1652   4.403   3.569   6.044
  251SOL    HW2 1653   4.427   3.684   5.930
  252SOL     OW 1654   0.046   1.283   5.865
  252SOL    HW1 1655   0.006   1.357   5.920
  252SOL    HW2 1656   6.999   1.238   5.812
  253SOL     OW 1657   2.817   4.293   0.107
  253SOL    HW1 1658   2.793   4.208   0.154
  253SOL    HW2 1659   2.858   4.357   0.172
  254SOL     OW 1660   6.476   2.620   3.741
  254SOL    HW1 1661   6.433   2.692   3.797
  254SOL    HW2 1662   6.466   2.532   3.788
  255SOL     OW 1663   2.878   1.713   4.175
  255SOL    HW1 1664   2.963   1.660   4.170
  255SOL    HW2 1665   2.855   1.729   4.271
  256SOL     OW 1666   6.686   4.800   6.915
  256SOL    HW1 1667   6.651   4.759   6.999
  256SOL    HW2 1668   6.624   4.779   6.839
  257SOL     OW 1669   3.151   5.376   5.340
  257SOL    HW1 1670   3.176   5.415   5.429
  257SOL    HW2 1671   3.056   5.400   5.319
  258SOL     OW 1672   5.271   3.599   4.879
  258SOL    HW1 1673   5.335   3.524   4.861
  258SOL    HW2 1674   5.288   3.637   4.969
  259SOL     OW 1675   1.563   2.941   3.082
  259SOL    HW1 1676   1.650   2.986   3.101
  259SOL    HW2 1677   1.548   2.868   3.149
  260SOL     OW 1678   4.606   0.260   0.686
  260SOL    HW1 1679   4.519   0.301   0.715
  260SOL    HW2 1680   4.590   0.165   0.661
  261SOL     OW 1681   0.428   3.468   1.211
  261SOL    HW1 1682   0.448   3.389   1.152
  261SOL    HW2 1683   0.421   3.550   1.155
  262SOL     OW 1684   0.955   4.150   2.294
  262SOL    HW1 1685   0.893   4.098   2.354
  262SOL    HW2 1686   0.941   4.122   2.199
  263SOL     OW 1687   6.980   1.584   4.518
  263SOL    HW1 1688   6.974   1.682   4.498
  263SOL    HW2 1689   6.934   1.533   4.445
  264SOL     OW 1690   6.655   3.740   5.610
  264SOL    HW1 1691   6.654   3.836   5.581
  264SOL    HW2 1692   6.561   3.704   5.607
  265SOL     OW 1693   5.136   3.947   3.301
  265SOL    HW1 1694   5.067   3.892   3.254
  265SOL    HW2 1695   5.164   3.902   3.386
  266SOL     OW 1696   3.403   2.381   6.817
  266SOL    HW1 1697   3.419   2.480   6.819
  266SOL    HW2 1698   3.475   2.336   6.765
  267SOL     OW 1699   1.202   3.063   6.961
  267SOL    HW1 1700   1.130   3.082   6.894
  267SOL    HW2 1701   1.172   2.988   7.021
  268SOL     OW 1702   4.860   5.321   4.922
  268SOL    HW1 1703   4.768   5.357   4.909
  268SOL    HW2 1704   4.861   5.223   4.907
  269SOL     OW 1705   2.027   2.348   6.929
  269SOL    HW1 1706   1.972   2.273   6.893
  269SOL    HW2 1707   2.083   2.316   7.005
  270SOL     OW 1708   5.005   1.099   2.318
  270SOL    HW1 1709   4.984   1.002   2.307
  270SOL    HW2 1710   5.098   1.117   2.285
  271SOL     OW 1711   2.024   2.075   0.832
  271SOL    HW1 1712   2.091   2.137   0.792
  271SOL    HW2 1713   2.001   2.104   0.925
  272SOL     OW 1714   3.949   5.603   4.086
  272SOL    HW1 1715   3.911   5.685   4.130
  272SOL    HW2 1716   3.884   5.528   4.094
  273SOL     OW 1717   1.175   5.414   5.033
  273SOL    HW1 1718   1.153   5.499   5.081
  273SOL    HW2 1719   1.274   5.405   5.023
  274SOL     OW 1720   5.004   2.832   3.400
  274SOL    HW1 1721   5.008   2.805   3.496
  274SOL    HW2 1722   4.923   2.792   3.357
  275SOL     OW 1723   1.127   5.359   6.455
  275SOL    HW1 1724   1.127   5.364   6.355
  275SOL    HW2 1725   1.111   5.450   6.493
  276SOL     OW 1726   6.346   5.430   4.159
  276SOL    HW1 1727   6.377   5.504   4.219
  276SOL    HW2 1728   6.246   5.427   4.158
  277SOL     OW 1729   2.902   0.628   5.850
  277SOL    HW1 1730   2.838   0.614   5.774
  277SOL    HW2 1731   2.869   0.702   5.909
  278SOL     OW 1732   5.431   3.511   2.547
  278SOL    HW1 1733   5.363   3.516   2.473
  278SOL    HW2 1734   5.466   3.418   2.554
  279SOL     OW 1735   6.600   3.072   3.762
  279SOL    HW1 1736   6.595   3.122   3.675
  279SOL    HW2 1737   6.548   3.120   3.832
  280SOL     OW 1738   4.700   6.727   3.791
  280SOL    HW1 1739   4.789   6.697   3.757
  280SOL    HW2 1740   4.710   6.813   3.841
  281SOL     OW 1741   2.963   5.334   3.616
  281SOL    HW1 1742   3.032   5.312   3.547
  281SOL    HW2 1743   2.940   5.252   3.668
  282SOL     OW 1744   3.799   2.259   5.376
  282SOL    HW1 1745   3.848   2.346   5.380
  282SOL    HW2 1746   3.726   2.260   5.444
  283SOL     OW 1747   6.321   6.922   5.275
  283SOL    HW1 1748   6.297   6.945   5.181
  283SOL    HW2 1749   6.297   6.998   5.335
  284SOL     OW 1750   0.589   4.532   4.090
  284SOL    HW1 1751   0.678   4.560   4.053
  284SOL    HW2 1752   0.603   4.466   4.164
  285SOL     OW 1753   5.378   6.342   0.209
  285SOL    HW1 1754   5.474   6.323   0.226
  285SOL    HW2 1755   5.325   6.257   0.220
  286SOL     OW 1756   3.796   4.874   5.618
  286SOL    HW1 1757   3.798   4.795   5.680
  286SOL    HW2 1758   3.887   4.889   5.580
  287SOL     OW 1759   1.435   5.497   6.391
  287SOL    HW1 1760   1.436   5.436   6.312
  287SOL    HW2 1761   1.483   5.454   6.467
  288SOL     OW 1762   4.334   0.880   1.056
  288SOL    HW1 1763   4.269   0.857   1.129
  288SOL    HW2 1764   4.370   0.796   1.016
  289SOL     OW 1765   1.206   5.586   5.921
  289SOL    HW1 1766   1.252   5.505   5.959
  289SOL    HW2 1767   1.228   5.666   5.976
  290SOL     OW 1768   4.459   0.352   3.388
  290SOL    HW1 1769   4.425   0.366   3.481
  290SOL    HW2 1770   4.390   0.382   3.322
  291SOL     OW 1771   3.992   1.255   3.643
  291SOL    HW1 1772   3.952   1.169   3.611
  291SOL    HW2 1773   4.036   1.240   3.731
  292SOL     OW 1774   4.100   0.914   3.428
  292SOL    HW1 1775   4.127   0.963   3.345
  292SOL    HW2 1776   4.026   0.964   3.474
  293SOL     OW 1777   4.752   5.996   1.640
  293SOL    HW1 1778   4.668   5.986   1.586
  293SOL    HW2 1779   4.750   6.084   1.688
  294SOL     OW 1780   6.109   6.145   6.334
  294SOL    HW1 1781   6.021   6.105   6.357
  294SOL    HW2 1782   6.154   6.177   6.417
  295SOL     OW 1783   1.479   2.500   5.680
  295SOL    HW1 1784   1.381   2.506   5.661
  295SOL    HW2 1785   1.529   2.491   5.594
  296SOL     OW 1786   6.245   2.135   1.355
  296SOL    HW1 1787   6.148   2.153   1.372
  296SOL    HW2 1788   6.279   2.198   1.285
  297SOL     OW 1789   4.365   4.970   3.499
  297SOL    HW1 1790   4.405   4.956   3.408
  297SOL    HW2 1791   4.436   4.999   3.563
  298SOL     OW 1792   4.231   0.510   0.730
  298SOL    HW1 1793   4.306   0.488   0.792
  298SOL    HW2 1794   4.144   0.500   0.779
  299SOL     OW 1795   3.377   1.781   6.968
  299SOL    HW1 1796   3.397   1.773   6.870
  299SOL    HW2 1797   3.420   1.864   7.004
  300SOL     OW 1798   3.844   0.753   2.679
  300SOL    HW1 1799   3.789   0.754   2.763
  300SOL    HW2 1800   3.792   0.797   2.606
  301SOL     OW 1801   5.218   0.854   1.540
  301SOL    HW1 1802   5.266   0.839   1.627
  301SOL    HW2 1803   5.187   0.949   1.536
  302SOL     OW 1804   0.768   0.202   2.320
  302SOL    HW1 1805   0.671   0.188   2.339
  302SOL    HW2 1806   0.777   0.260   2.239
  303SOL     OW 1807   5.844   6.231   1.637
  303SOL    HW1 1808   5.810   6.307   1.694
  303SOL    HW2 1809   5.821   6.144   1.681
  304SOL     OW 1810   2.179   6.336   6.286
  304SOL    HW1 1811   2.131   6.254   6.256
  304SOL    HW2 1812   2.264   6.310   6.332
  305SOL     OW 1813   1.497   3.354   0.660
  305SOL    HW1 1814   1.472   3.276   0.717
  305SOL    HW2 1815   1.417   3.385   0.609
  306SOL     OW 1816   0.257   0.806   2.808
  306SOL    HW1 1817   0.312   0.879   2.847
  306SOL    HW2 1818   0.201   0.842   2.734
  307SOL     OW 1819   3.733   3.784   0.474
  307SOL    HW1 1820   3.718   3.751   0.567
  307SOL    HW2 1821   3.818   3.837   0.471
  308SOL     OW 1822   6.302   2.829   4.236
  308SOL    HW1 1823   6.394   2.849   4.201
  308SOL    HW2 1824   6.263   2.754   4.183
  309SOL     OW 1825   1.610   6.643   0.463
  309SOL    HW1 1826   1.592   6.623   0.367
  309SOL    HW2 1827   1.660   6.729   0.471
  310SOL     OW 1828   5.748   6.425   4.000
  310SOL    HW1 1829   5.805   6.484   4.057
  310SOL    HW2 1830   5.701   6.481   3.931
  311SOL     OW 1831   2.342   4.458   2.364
  311SOL    HW1 1832   2.266   4.502   2.411
  311SOL    HW2 1833   2.414   4.436   2.430
  312SOL     OW 1834   3.957   2.168   4.314
  312SOL    HW1 1835   3.938   2.212   4.401
  312SOL    HW2 1836   3.883   2.187   4.250
  313SOL     OW 1837   3.095   3.697   2.840
  313SOL    HW1 1838   3.174   3.757   2.852
  313SOL    HW2 1839   3.036   3.702   2.920
  314SOL     OW 1840   2.052   4.869   4.852
  314SOL    HW1 1841   1.967   4.859   4.801
  314SOL    HW2 1842   2.080   4.780   4.889
  315SOL     OW 1843   0.299   2.043   3.800
  315SOL    HW1 1844   0.369   1.975   3.781
  315SOL    HW2 1845   0.309   2.077   3.894
  316SOL     OW 1846   4.211   1.158   4.486
  316SOL    HW1 1847   4.133   1.199   4.533
  316SOL    HW2 1848   4.284   1.227   4.477
  317SOL     OW 1849   1.320   1.646   1.594
  317SOL    HW1 1850   1.221   1.649   1.606
  317SOL    HW2 1851   1.365   1.666   1.681
  318SOL     OW 1852   5.927   0.956   6.354
  318SOL    HW1 1853   5.844   0.979   6.302
  318SOL    HW2 1854   6.007   0.968   6.296
  319SOL     OW 1855   6.811   2.143   3.165
  319SOL    HW1 1856   6.795   2.209   3.092
  319SOL    HW2 1857   6.743   2.069   3.159
  320SOL     OW 1858   6.242   3.400   6.944
  320SOL    HW1 1859   6.169   3.340   6.911
  320SOL    HW2 1860   6.316   3.345   6.981
  321SOL     OW 1861   4.099   2.201   0.623
  321SOL    HW1 1862   4.123   2.178   0.718
  321SOL    HW2 1863   4.042   2.129   0.585
  322SOL     OW 1864   3.871   2.977   4.629
  322SOL    HW1 1865   3.879   2.918   4.549
  322SOL    HW2 1866   3.958   3.023   4.646
  323SOL     OW 1867   1.132   2.252   4.574
  323SOL    HW1 1868   1.203   2.230   4.640
  323SOL    HW2 1869   1.169   2.311   4.503
  324SOL     OW 1870   2.091   6.950   3.727
  324SOL    HW1 1871   2.093   0.026   3.724
  324SOL    HW2 1872   1.997   6.918   3.724
  325SOL     OW 1873   1.197   3.980   2.545
  325SOL    HW1 1874   1.246   4.031   2.615
  325SOL    HW2 1875   1.262   3.932   2.486
  326SOL     OW 1876   1.056   4.372   5.709
  326SOL    HW1 1877   1.065   4.420   5.797
  326SOL    HW2 1878   1.125   4.300   5.703
  327SOL     OW 1879   2.546   4.593   2.501
  327SOL    HW1 1880   2.450   4.610   2.524
  327SOL    HW2 1881   2.592   4.552   2.580
  328SOL     OW 1882   1.783   4.835   1.175
  328SOL    HW1 1883   1.767   4.930   1.203
  328SOL    HW2 1884   1.696   4.786   1.172
  329SOL     OW 1885   2.200   3.674   5.894
  329SOL    HW1 1886   2.296   3.652   5.879
  329SOL    HW2 1887   2.193   3.760   5.944
  330SOL     OW 1888   3.388   6.343   0.064
  330SOL    HW1 1889   3.291   6.366   0.068
  330SOL    HW2 1890   3.442   6.424   0.087
  331SOL     OW 1891   5.633   5.287   1.178
  331SOL    HW1 1892   5.560   5.248   1.234
  331SOL    HW2 1893   5.610   5.278   1.081
  332SOL     OW 1894   5.766   1.922   4.005
  332SOL    HW1 1895   5.776   1.926   3.905
  332SOL    HW2 1896   5.702   1.993   4.034
  333SOL     OW 1897   4.246   0.845   5.386
  333SOL    HW1 1898   4.269   0.914   5.454
  333SOL    HW2 1899   4.330   0.813   5.342
  334SOL     OW 1900   3.774   2.269   0.722
  334SOL    HW1 1901   3.702   2.314   0.669
  334SOL    HW2 1902   3.774   2.171   0.704
  335SOL     OW 1903   4.277   0.602   6.642
  335SOL    HW1 1904   4.362   0.570   6.685
  335SOL    HW2 1905   4.296   0.629   6.548
  336SOL     OW 1906   2.848   1.165   2.975
  336SOL    HW1 1907   2.887   1.074   2.989
  336SOL    HW2 1908   2.919   1.227   2.941
  337SOL     OW 1909   1.101   2.251   6.009
  337SOL    HW1 1910   1.188   2.279   5.968
  337SOL    HW2 1911   1.066   2.324   6.067
  338SOL     OW 1912   3.117   2.972   1.925
  338SOL    HW1 1913   3.063   2.892   1.898
  338SOL    HW2 1914   3.056   3.041   1.964
  339SOL     OW 1915   4.564   5.323   4.901
  339SOL    HW1 1916   4.610   5.263   4.967
  339SOL    HW2 1917   4.470   5.291   4.887
  340SOL     OW 1918   4.924   3.195   5.080
  340SOL    HW1 1919   4.932   3.187   5.179
  340SOL    HW2 1920   4.949   3.288   5.052
  341SOL     OW 1921   5.125   6.674   4.415
  341SOL    HW1 1922   5.196   6.609   4.443
  341SOL    HW2 1923   5.163   6.739   4.350
  342SOL     OW 1924   4.722   3.044   0.418
  342SOL    HW1 1925   4.756   2.973   0.356
  342SOL    HW2 1926   4.774   3.128   0.404
  343SOL     OW 1927   0.244   6.607   2.437
  343SOL    HW1 1928   0.258   6.531   2.500
  343SOL    HW2 1929   0.310   6.680   2.459
  344SOL     OW 1930   0.952   2.428   1.849
  344SOL    HW1 1931   1.006   2.348   1.876
  344SOL    HW2 1932   0.858   2.417   1.881
  345SOL     OW 1933   6.176   2.130   4.077
  345SOL    HW1 1934   6.186   2.035   4.050
  345SOL    HW2 1935   6.193   2.139   4.175
  346SOL     OW 1936   1.711   0.165   2.773
  346SOL    HW1 1937   1.649   0.121   2.709
  346SOL    HW2 1938   1.798   0.184   2.728
  347SOL     OW 1939   3.203   5.613   0.086
  347SOL    HW1 1940   3.157   5.702   0.084
  347SOL    HW2 1941   3.140   5.543   0.051
  348SOL     OW 1942   4.601   4.605   3.264
  348SOL    HW1 1943   4.542   4.591   3.343
  348SOL    HW2 1944   4.615   4.703   3.250
  349SOL     OW 1945   6.734   4.771   2.156
  349SOL    HW1 1946   6.785   4.767   2.241
  349SOL    HW2 1947   6.667   4.697   2.153
  350SOL     OW 1948   2.927   3.327   0.961
  350SOL    HW1 1949   2.845   3.324   0.905
  350SOL    HW2 1950   2.901   3.322   1.058
  351SOL     OW 1951   2.459   3.480   0.587
  351SOL    HW1 1952   2.433   3.471   0.683
  351SOL    HW2 1953   2.442   3.574   0.557
  352SOL     OW 1954   3.847   6.866   3.576
  352SOL    HW1 1955   3.905   6.888   3.654
  352SOL    HW2 1956   3.762   6.825   3.608
  353SOL     OW 1957   3.148   0.538   6.613
  353SOL    HW1 1958   3.242   0.545   6.647
  353SOL    HW2 1959   3.144   0.471   6.539
  354SOL     OW 1960   4.723   2.518   1.392
  354SOL    HW1 1961   4.796   2.502   1.458
  354SOL    HW2 1962   4.719   2.442   1.327
  355SOL     OW 1963   1.772   3.788   2.601
  355SOL    HW1 1964   1.673   3.777   2.611
  355SOL    HW2 1965   1.811   3.705   2.563
  356SOL     OW 1966   2.527   1.026   5.539
  356SOL    HW1 1967   2.575   1.084   5.473
  356SOL    HW2 1968   2.480   1.083   5.606
  357SOL     OW 1969   6.388   6.019   4.816
  357SOL    HW1 1970   6.345   6.105   4.843
  357SOL    HW2 1971   6.332   5.942   4.849
  358SOL     OW 1972   4.950   6.695   0.510
  358SOL    HW1 1973   4.937   6.753   0.590
  358SOL    HW2 1974   4.972   6.602   0.540
  359SOL     OW 1975   3.275   1.268   2.054
  359SOL    HW1 1976   3.240   1.175   2.065
  359SOL    HW2 1977   3.325   1.275   1.967
  360SOL     OW 1978   1.526   3.556   4.741
  360SOL    HW1 1979   1.572   3.623   4.800
  360SOL    HW2 1980   1.537   3.582   4.645
  361SOL     OW 1981   6.411   6.080   2.834
  361SOL    HW1 1982   6.463   6.165   2.842
  361SOL    HW2 1983   6.463   6.013   2.780
  362SOL     OW 1984   3.399   2.841   1.802
  362SOL    HW1 1985   3.317   2.877   1.846
  362SOL    HW2 1986   3.384   2.745   1.777
  363SOL     OW 1987   5.638   4.583   3.054
  363SOL    HW1 1988   5.693   4.666   3.068
  363SOL    HW2 1989   5.610   4.547   3.143
  364SOL     OW 1990   6.809   5.063   6.905
  364SOL    HW1 1991   6.879   5.059   6.834
  364SOL    HW2 1992   6.773   4.971   6.922
  365SOL     OW 1993   4.752   0.003   0.940
  365SOL    HW1 1994   4.791   0.066   0.873
  365SOL    HW2 1995   4.781   0.030   1.032
  366SOL     OW 1996   6.186   2.066   6.570
  366SOL    HW1 1997   6.212   2.158   6.542
  366SOL    HW2 1998   6.194   2.003   6.493
  367SOL     OW 1999   5.959   2.445   6.410
  367SOL    HW1 2000   5.983   2.528   6.460
  367SOL    HW2 2001   5.912   2.381   6.471
  368SOL     OW 2002   0.116   2.519   5.536
  368SOL    HW1 2003   0.119   2.434   5.588
  368SOL    HW2 2004   0.156   2.504   5.445
  369SOL     OW 2005   6.007   4.780   2.990
  369SOL    HW1 2006   6.021   4.841   3.068
  369SOL    HW2 2007   5.909   4.771   2.972
  370SOL     OW 2008   0.847   2.143   4.411
  370SOL    HW1 2009   0.872   2.235   4.380
  370SOL    HW2 2010   0.823   2.145   4.508
  371SOL     OW 2011   1.824   4.555   6.483
  371SOL    HW1 2012   1.833   4.492   6.560
  371SOL    HW2 2013   1.862   4.644   6.509
  372SOL     OW 2014   2.120   6.808   5.717
  372SOL    HW1 2015   2.206   6.775   5.678
  372SOL    HW2 2016   2.137   6.844   5.809
  373SOL     OW 2017   5.743   6.497   5.662
  373SOL    HW1 2018   5.724   6.571   5.597
  373SOL    HW2 2019   5.841   6.492   5.679
  374SOL     OW 2020   2.729   2.225   3.313
  374SOL    HW1 2021   2.743   2.298   3.380
  374SOL    HW2 2022   2.793   2.151   3.331
  375SOL     OW 2023   1.127   4.414   4.073
  375SOL    HW1 2024   1.037   4.451   4.049
  375SOL    HW2 2025   1.116   4.322   4.111
  376SOL     OW 2026   1.237   1.249   5.363
  376SOL    HW1 2027   1.312   1.243   5.297
  376SOL    HW2 2028   1.268   1.302   5.443
  377SOL     OW 2029   1.691   2.008   6.937
  377SOL    HW1 2030   1.661   1.955   6.858
  377SOL    HW2 2031   1.689   1.951   7.019
  378SOL     OW 2032   3.952   1.742   0.763
  378SOL    HW1 2033   3.886   1.671   0.787
  378SOL    HW2 2034   4.045   1.710   0.781
  379SOL     OW 2035   5.541   2.803   0.300
  379SOL    HW1 2036   5.540   2.706   0.278
  379SOL    HW2 2037   5.454   2.830   0.340
  380SOL     OW 2038   2.919   1.368   1.285
  380SOL    HW1 2039   2.832   1.379   1.235
  380SOL    HW2 2040   2.945   1.456   1.325
  381SOL     OW 2041   1.839   3.666   3.647
  381SOL    HW1 2042   1.880   3.626   3.729
  381SOL    HW2 2043   1.743   3.639   3.641
  382SOL     OW 2044   6.064   1.239   0.420
  382SOL    HW1 2045   5.985   1.231   0.360
  382SOL    HW2 2046   6.037   1.280   0.507
  383SOL     OW 2047   3.822   3.113   0.262
  383SOL    HW1 2048   3.811   3.016   0.280
  383SOL    HW2 2049   3.859   3.125   0.170
  384SOL     OW 2050   6.723   5.440   4.760
  384SOL    HW1 2051   6.661   5.408   4.832
  384SOL    HW2 2052   6.758   5.530   4.783
  385SOL     OW 2053   2.821   5.187   5.257
  385SOL    HW1 2054   2.915   5.177   5.224
  385SOL    HW2 2055   2.786   5.099   5.288
  386SOL     OW 2056   2.985   6.477   4.259
  386SOL    HW1 2057   2.921   6.524   4.198
  386SOL    HW2 2058   2.993   6.529   4.344
  387SOL     OW 2059   0.562   5.439   2.666
  387SOL    HW1 2060   0.621   5.358   2.671
  387SOL    HW2 2061   0.586   5.502   2.741
  388SOL     OW 2062   2.118   2.195   6.492
  388SOL    HW1 2063   2.069   2.229   6.412
  388SOL    HW2 2064   2.211   2.233   6.494
  389SOL     OW 2065   3.859   3.550   2.486
  389SOL    HW1 2066   3.959   3.543   2.495
  389SOL    HW2 2067   3.816   3.524   2.571
  390SOL     OW 2068   2.455   1.364   3.186
  390SOL    HW1 2069   2.438   1.440   3.249
  390SOL    HW2 2070   2.551   1.337   3.191
  391SOL     OW 2071   2.200   2.277   6.214
  391SOL    HW1 2072   2.191   2.375   6.198
  391SOL    HW2 2073   2.141   2.227   6.150
  392SOL     OW 2074   1.999   4.334   0.835
  392SOL    HW1 2075   1.991   4.433   0.837
  392SOL    HW2 2076   2.060   4.303   0.908
  393SOL     OW 2077   0.782   4.449   6.724
  393SOL    HW1 2078   0.772   4.375   6.656
  393SOL    HW2 2079   0.779   4.537   6.677
  394SOL     OW 2080   0.076   0.706   7.017
  394SOL    HW1 2081   0.031   0.692   6.929
  394SOL    HW2 2082   0.032   0.781   0.041
  395SOL     OW 2083   4.952   3.575   3.425
  395SOL    HW1 2084   4.964   3.556   3.523
  395SOL    HW2 2085   4.906   3.663   3.413
  396SOL     OW 2086   4.128   3.680   2.513
  396SOL    HW1 2087   4.068   3.752   2.476
  396SOL    HW2 2088   4.222   3.700   2.488
  397SOL     OW 2089   4.560   2.265   5.535
  397SOL    HW1 2090   4.637   2.278   5.473
  397SOL    HW2 2091   4.479   2.311   5.499
  398SOL     OW 2092   0.910   6.251   2.550
  398SOL    HW1 2093   0.899   6.267   2.649
  398SOL    HW2 2094   0.880   6.158   2.529
  399SOL     OW 2095   5.381   6.072   2.745
  399SOL    HW1 2096   5.325   6.145   2.706
  399SOL    HW2 2097   5.339   5.984   2.723
  400SOL     OW 2098   6.283   6.802   5.965
  400SOL    HW1 2099   6.305   6.899   5.976
  400SOL    HW2 2100   6.185   6.791   5.951
  401SOL     OW 2101   5.281   0.957   5.633
  401SOL    HW1 2102   5.214   1.028   5.610
  401SOL    HW2 2103   5.233   0.879   5.674
  402SOL     OW 2104   5.374   0.461   3.323
  402SOL    HW1 2105   5.387   0.455   3.224
  402SOL    HW2 2106   5.460   0.440   3.369
  403SOL     OW 2107   4.508   1.928   4.440
  403SOL    HW1 2108   4.513   1.945   4.341
  403SOL    HW2 2109   4.601   1.916   4.476
  404SOL     OW 2110   1.393   6.124   3.965
  404SOL    HW1 2111   1.338   6.091   3.888
  404SOL    HW2 2112   1.409   6.050   4.029
  405SOL     OW 2113   1.953   3.450   1.767
  405SOL    HW1 2114   2.043   3.408   1.754
  405SOL    HW2 2115   1.963   3.549   1.772
  406SOL     OW 2116   1.164   4.310   4.451
  406SOL    HW1 2117   1.238   4.271   4.506
  406SOL    HW2 2118   1.191   4.312   4.355
  407SOL     OW 2119   1.684   0.786   3.347
  407SOL    HW1 2120   1.699   0.825   3.438
  407SOL    HW2 2121   1.689   0.858   3.278
  408SOL     OW 2122   1.340   2.354   3.385
  408SOL    HW1 2123   1.414   2.287   3.393
  408SOL    HW2 2124   1.267   2.331   3.450
  409SOL     OW 2125   6.886   2.309   1.091
  409SOL    HW1 2126   6.921   2.352   1.008
  409SOL    HW2 2127   6.819   2.240   1.067
  410SOL     OW 2128   1.204   0.295   1.211
  410SOL    HW1 2129   1.151   0.216   1.242
  410SOL    HW2 2130   1.151   0.378   1.224
  411SOL     OW 2131   5.128   0.072   0.197
  411SOL    HW1 2132   5.038   0.063   0.238
  411SOL    HW2 2133   5.132   0.157   0.144
  412SOL     OW 2134   5.366   6.392   3.714
  412SOL    HW1 2135   5.445   6.452   3.729
  412SOL    HW2 2136   5.284   6.434   3.754
  413SOL     OW 2137   5.517   5.046   2.041
  413SOL    HW1 2138   5.438   5.102   2.015
  413SOL    HW2 2139   5.490   4.982   2.114
  414SOL     OW 2140   3.787   5.357   3.392
  414SOL    HW1 2141   3.879   5.396   3.397
  414SOL    HW2 2142   3.724   5.413   3.446
  415SOL     OW 2143   1.092   5.803   6.649
  415SOL    HW1 2144   1.084   5.790   6.550
  415SOL    HW2 2145   1.042   5.730   6.696
  416SOL     OW 2146   4.924   5.606   3.936
  416SOL    HW1 2147   4.971   5.550   3.867
  416SOL    HW2 2148   4.966   5.591   4.025
  417SOL     OW 2149   2.685   5.114   0.110
  417SOL    HW1 2150   2.599   5.069   0.137
  417SOL    HW2 2151   2.672   5.159   0.022
  418SOL     OW 2152   4.108   5.747   0.943
  418SOL    HW1 2153   4.065   5.660   0.967
  418SOL    HW2 2154   4.124   5.800   1.026
  419SOL     OW 2155   1.644   0.409   1.144
  419SOL    HW1 2156   1.718   0.373   1.088
  419SOL    HW2 2157   1.663   0.504   1.168
  420SOL     OW 2158   5.863   1.864   0.007
  420SOL    HW1 2159   5.946   1.812   7.012
  420SOL    HW2 2160   5.821   1.894   6.945
  421SOL     OW 2161   0.037   4.422   6.167
  421SOL    HW1 2162   0.132   4.430   6.195
  421SOL    HW2 2163   0.021   4.477   6.085
  422SOL     OW 2164   5.699   4.188   0.166
  422SOL    HW1 2165   5.747   4.105   0.193
  422SOL    HW2 2166   5.656   4.229   0.246
  423SOL     OW 2167   1.168   2.402   6.954
  423SOL    HW1 2168   1.242   2.381   7.017
  423SOL    HW2 2169   1.142   2.319   6.904
  424SOL     OW 2170   2.305   3.807   0.689
  424SOL    HW1 2171   2.221   3.755   0.673
  424SOL    HW2 2172   2.300   3.852   0.778
  425SOL     OW 2173   5.849   1.314   2.798
  425SOL    HW1 2174   5.778   1.253   2.834
  425SOL    HW2 2175   5.848   1.400   2.849
  426SOL     OW 2176   4.420   2.428   3.858
  426SOL    HW1 2177   4.323   2.404   3.863
  426SOL    HW2 2178   4.442   2.459   3.765
  427SOL     OW 2179   5.040   5.658   2.708
  427SOL    HW1 2180   5.066   5.753   2.723
  427SOL    HW2 2181   5.048   5.607   2.794
  428SOL     OW 2182   4.300   0.591   4.405
  428SOL    HW1 2183   4.283   0.630   4.314
  428SOL    HW2 2184   4.395   0.559   4.411
  429SOL     OW 2185   1.874   3.445   1.131
  429SOL    HW1 2186   1.951   3.382   1.146
  429SOL    HW2 2187   1.799   3.397   1.087
  430SOL     OW 2188   6.654   0.339   5.345
  430SOL    HW1 2189   6.726   0.270   5.353
  430SOL    HW2 2190   6.645   0.367   5.250
  431SOL     OW 2191   3.334   6.842   0.436
  431SOL    HW1 2192   3.363   6.751   0.465
  431SOL    HW2 2193   3.403   6.909   0.461
  432SOL     OW 2194   6.654   1.583   1.504
  432SOL    HW1 2195   6.605   1.662   1.468
  432SOL    HW2 2196   6.704   1.539   1.430
  433SOL     OW 2197   2.859   6.465   5.034
  433SOL    HW1 2198   2.882   6.385   4.978
  433SOL    HW2 2199   2.766   6.455   5.068
  434SOL     OW 2200   3.358   6.081   2.124
  434SOL    HW1 2201   3.291   6.099   2.052
  434SOL    HW2 2202   3.344   6.145   2.200
  435SOL     OW 2203   5.446   2.502   6.263
  435SOL    HW1 2204   5.353   2.483   6.295
  435SOL    HW2 2205   5.459   2.601   6.257
  436SOL     OW 2206   3.263   6.393   1.248
  436SOL    HW1 2207   3.280   6.404   1.150
  436SOL    HW2 2208   3.164   6.387   1.264
  437SOL     OW 2209   0.989   0.666   6.851
  437SOL    HW1 2210   0.900   0.647   6.808
  437SOL    HW2 2211   0.975   0.706   6.941
  438SOL     OW 2212   2.000   3.687   2.460
  438SOL    HW1 2213   1.970   3.656   2.370
  438SOL    HW2 2214   2.024   3.608   2.516
  439SOL     OW 2215   6.090   4.531   2.899
  439SOL    HW1 2216   6.126   4.508   2.989
  439SOL    HW2 2217   6.062   4.628   2.898
  440SOL     OW 2218   1.959   1.259   5.168
  440SOL    HW1 2219   2.033   1.326   5.163
  440SOL    HW2 2220   1.997   1.166   5.165
  441SOL     OW 2221   0.882   2.664   4.314
  441SOL    HW1 2222   0.896   2.707   4.224
  441SOL    HW2 2223   0.787   2.677   4.342
  442SOL     OW 2224   3.044   4.672   6.096
  442SOL    HW1 2225   3.080   4.757   6.133
  442SOL    HW2 2226   3.092   4.594   6.137
  443SOL     OW 2227   6.038   4.354   4.813
  443SOL    HW1 2228   6.114   4.289   4.814
  443SOL    HW2 2229   5.979   4.335   4.735
  444SOL     OW 2230   4.855   1.679   5.821
  444SOL    HW1 2231   4.883   1.618   5.747
  444SOL    HW2 2232   4.858   1.773   5.789
  445SOL     OW 2233   0.663   5.220   3.004
  445SOL    HW1 2234   0.566   5.211   2.984
  445SOL    HW2 2235   0.713   5.146   2.958
  446SOL     OW 2236   3.660   4.900   3.330
  446SOL    HW1 2237   3.633   4.844   3.251
  446SOL    HW2 2238   3.685   4.991   3.299
  447SOL     OW 2239   0.524   2.983   6.293
  447SOL    HW1 2240   0.595   3.053   6.285
  447SOL    HW2 2241   0.498   2.973   6.389
  448SOL     OW 2242   1.915   0.815   3.807
  448SOL    HW1 2243   1.990   0.867   3.847
  448SOL    HW2 2244   1.934   0.717   3.814
  449SOL     OW 2245   3.994   1.344   4.053
  449SOL    HW1 2246   4.051   1.375   4.129
  449SOL    HW2 2247   4.048   1.285   3.993
  450SOL     OW 2248   1.345   5.830   3.540
  450SOL    HW1 2249   1.285   5.778   3.600
  450SOL    HW2 2250   1.317   5.926   3.540
  451SOL     OW 2251   1.915   1.458   3.880
  451SOL    HW1 2252   1.869   1.439   3.793
  451SOL    HW2 2253   1.935   1.556   3.887
  452SOL     OW 2254   6.114   5.988   0.936
  452SOL    HW1 2255   6.197   5.934   0.950
  452SOL    HW2 2256   6.074   6.010   1.025
  453SOL     OW 2257   4.312   1.032   6.107
  453SOL    HW1 2258   4.227   0.985   6.130
  453SOL    HW2 2259   4.295   1.131   6.099
  454SOL     OW 2260   0.038   4.776   6.762
  454SOL    HW1 2261   6.984   4.714   6.772
  454SOL    HW2 2262   0.047   4.831   6.845
  455SOL     OW 2263   6.252   2.918   3.079
  455SOL    HW1 2264   6.233   2.830   3.121
  455SOL    HW2 2265   6.351   2.936   3.083
  456SOL     OW 2266   5.919   6.688   4.091
  456SOL    HW1 2267   5.885   6.766   4.038
  456SOL    HW2 2268   6.016   6.674   4.070
  457SOL     OW 2269   2.121   2.815   4.031
  457SOL    HW1 2270   2.024   2.818   4.007
  457SOL    HW2 2271   2.138   2.876   4.108
  458SOL     OW 2272   4.319   5.523   3.694
  458SOL    HW1 2273   4.248   5.569   3.641
  458SOL    HW2 2274   4.365   5.454   3.637
  459SOL     OW 2275   1.704   6.797   5.001
  459SOL    HW1 2276   1.788   6.775   4.951
  459SOL    HW2 2277   1.629   6.809   4.936
  460SOL     OW 2278   1.604   0.071   3.559
  460SOL    HW1 2279   1.637   0.118   3.478
  460SOL    HW2 2280   1.507   0.051   3.549
  461SOL     OW 2281   6.764   0.085   6.472
  461SOL    HW1 2282   6.801   7.017   6.480
  461SOL    HW2 2283   6.839   0.151   6.467
  462SOL     OW 2284   3.374   3.095   6.192
  462SOL    HW1 2285   3.343   3.112   6.098
  462SOL    HW2 2286   3.437   3.167   6.220
  463SOL     OW 2287   6.690   5.745   3.369
  463SOL    HW1 2288   6.709   5.841   3.350
  463SOL    HW2 2289   6.740   5.716   3.450
  464SOL     OW 2290   2.442   2.059   5.006
  464SOL    HW1 2291   2.474   2.145   5.046
  464SOL    HW2 2292   2.357   2.030   5.050
  465SOL     OW 2293   0.604   2.422   5.720
  465SOL    HW1 2294   0.620   2.498   5.783
  465SOL    HW2 2295   0.679   2.417   5.654
  466SOL     OW 2296   0.697   5.618   2.842
  466SOL    HW1 2297   0.765   5.630   2.770
  466SOL    HW2 2298   0.743   5.587   2.926
  467SOL     OW 2299   1.746   1.242   0.596
  467SOL    HW1 2300   1.732   1.220   0.692
  467SOL    HW2 2301   1.791   1.331   0.588
  468SOL     OW 2302   3.615   0.234   6.333
  468SOL    HW1 2303   3.675   0.155   6.343
  468SOL    HW2 2304   3.520   0.204   6.338
  469SOL     OW 2305   2.536   2.970   6.327
  469SOL    HW1 2306   2.538   2.996   6.231
  469SOL    HW2 2307   2.629   2.953   6.359
  470SOL     OW 2308   3.964   6.797   1.992
  470SOL    HW1 2309   4.039   6.794   1.925
  470SOL    HW2 2310   3.936   6.892   2.006
  471SOL     OW 2311   2.246   2.336   4.003
  471SOL    HW1 2312   2.239   2.419   4.058
  471SOL    HW2 2313   2.270   2.259   4.061
  472SOL     OW 2314   5.423   3.400   6.234
  472SOL    HW1 2315   5.456   3.328   6.172
  472SOL    HW2 2316   5.365   3.359   6.305
  473SOL     OW 2317   1.004   2.912   3.332
  473SOL    HW1 2318   1.053   2.905   3.245
  473SOL    HW2 2319   0.986   3.008   3.353
  474SOL     OW 2320   5.040   5.805   4.193
  474SOL    HW1 2321   4.996   5.894   4.181
  474SOL    HW2 2322   5.134   5.810   4.160
  475SOL     OW 2323   5.719   1.129   6.249
  475SOL    HW1 2324   5.623   1.138   6.278
  475SOL    HW2 2325   5.744   1.208   6.194
  476SOL     OW 2326   0.183   3.482   3.465
  476SOL    HW1 2327   0.237   3.502   3.548
  476SOL    HW2 2328   0.245   3.455   3.391
  477SOL     OW 2329   1.510   5.128   3.488
  477SOL    HW1 2330   1.563   5.075   3.555
  477SOL    HW2 2331   1.420   5.149   3.526
  478SOL     OW 2332   3.041   6.334   2.176
  478SOL    HW1 2333   3.094   6.402   2.126
  478SOL    HW2 2334   3.100   6.286   2.240
  479SOL     OW 2335   4.267   1.883   5.776
  479SOL    HW1 2336   4.204   1.921   5.844
  479SOL    HW2 2337   4.290   1.954   5.709
  480SOL     OW 2338   2.405   1.010   0.177
  480SOL    HW1 2339   2.440   1.032   0.086
  480SOL    HW2 2340   2.338   1.078   0.204
  481SOL     OW 2341   1.625   6.899   0.246
  481SOL    HW1 2342   1.580   6.958   0.312
  481SOL    HW2 2343   1.597   6.925   0.153
  482SOL     OW 2344   4.431   4.907   2.192
  482SOL    HW1 2345   4.377   4.896   2.275
  482SOL    HW2 2346   4.425   5.001   2.160
  483SOL     OW 2347   6.561   1.475   2.038
  483SOL    HW1 2348   6.542   1.534   1.961
  483SOL    HW2 2349   6.649   1.429   2.024
  484SOL     OW 2350   1.998   3.440   4.785
  484SOL    HW1 2351   2.020   3.393   4.699
  484SOL    HW2 2352   1.906   3.414   4.815
  485SOL     OW 2353   3.228   5.463   2.597
  485SOL    HW1 2354   3.189   5.523   2.666
  485SOL    HW2 2355   3.221   5.506   2.507
  486SOL     OW 2356   6.792   1.220   0.307
  486SOL    HW1 2357   6.724   1.281   0.350
  486SOL    HW2 2358   6.853   1.274   0.250
  487SOL     OW 2359   0.917   0.698   1.577
  487SOL    HW1 2360   0.894   0.620   1.520
  487SOL    HW2 2361   0.911   0.672   1.673
  488SOL     OW 2362   0.999   1.417   2.105
  488SOL    HW1 2363   1.094   1.395   2.080
  488SOL    HW2 2364   0.988   1.516   2.111
  489SOL     OW 2365   3.773   6.333   5.933
  489SOL    HW1 2366   3.693   6.274   5.924
  489SOL    HW2 2367   3.855   6.276   5.939
  490SOL     OW 2368   6.219   6.278   2.750
  490SOL    HW1 2369   6.161   6.236   2.680
  490SOL    HW2 2370   6.266   6.206   2.801
  491SOL     OW 2371   0.655   3.029   2.714
  491SOL    HW1 2372   0.668   3.043   2.615
  491SOL    HW2 2373   0.737   2.987   2.753
  492SOL     OW 2374   1.875   0.297   4.881
  492SOL    HW1 2375   1.790   0.301   4.933
  492SOL    HW2 2376   1.945   0.250   4.935
  493SOL     OW 2377   5.101   5.813   5.561
  493SOL    HW1 2378   5.138   5.809   5.468
  493SOL    HW2 2379   5.001   5.824   5.556
  494SOL     OW 2380   0.258   6.647   6.202
  494SOL    HW1 2381   0.290   6.602   6.285
  494SOL    HW2 2382   0.321   6.722   6.179
  495SOL     OW 2383   4.803   5.999   3.222
  495SOL    HW1 2384   4.781   5.968   3.314
  495SOL    HW2 2385   4.859   5.929   3.176
  496SOL     OW 2386   5.476   3.888   1.741
  496SOL    HW1 2387   5.461   3.921   1.834
  496SOL    HW2 2388   5.388   3.870   1.697
  497SOL     OW 2389   2.886   1.434   4.645
  497SOL    HW1 2390   2.883   1.400   4.739
  497SOL    HW2 2391   2.981   1.450   4.619
  498SOL     OW 2392   1.834   4.022   1.560
  498SOL    HW1 2393   1.814   3.972   1.477
  498SOL    HW2 2394   1.769   3.995   1.632
  499SOL     OW 2395   1.925   6.486   4.766
  499SOL    HW1 2396   1.852   6.435   4.812
  499SOL    HW2 2397   1.902   6.583   4.763
  500SOL     OW 2398   0.711   3.365   4.476
  500SOL    HW1 2399   0.735   3.409   4.390
  500SOL    HW2 2400   0.730   3.428   4.552
  501SOL     OW 2401   3.413   5.560   1.043
  501SOL    HW1 2402   3.332   5.531   1.093
  501SOL    HW2 2403   3.458   5.481   1.002
  502SOL     OW 2404   0.230   4.074   0.291
  502SOL    HW1 2405   0.273   4.050   0.204
  502SOL    HW2 2406   0.169   4.000   0.320
  503SOL     OW 2407   6.939   5.308   0.040
  503SOL    HW1 2408   6.868   5.251   7.024
  503SOL    HW2 2409   6.900   5.364   0.113
  504SOL     OW 2410   0.937   5.464   2.204
  504SOL    HW1 2411   1.032   5.454   2.177
  504SOL    HW2 2412   0.930   5.460   2.304
  505SOL     OW 2413   2.944   5.749   5.356
  505SOL    HW1 2414   2.901   5.834   5.326
  505SOL    HW2 2415   3.023   5.729   5.298
  506SOL     OW 2416   2.468   4.835   4.239
  506SOL    HW1 2417   2.567   4.823   4.244
  506SOL    HW2 2418   2.422   4.762   4.289
  507SOL     OW 2419   3.541   6.761   2.962
  507SOL    HW1 2420   3.485   6.734   2.884
  507SOL    HW2 2421   3.558   6.682   3.020
  508SOL     OW 2422   0.119   3.872   2.371
  508SOL    HW1 2423   0.197   3.895   2.314
  508SOL    HW2 2424   0.127   3.919   2.459
  509SOL     OW 2425   3.115   1.594   1.430
  509SOL    HW1 2426   3.152   1.687   1.435
  509SOL    HW2 2427   3.190   1.529   1.425
  510SOL     OW 2428   6.428   4.938   0.216
  510SOL    HW1 2429   6.399   4.957   0.122
  510SOL    HW2 2430   6.506   4.995   0.239
  511SOL     OW 2431   0.925   1.606   5.350
  511SOL    HW1 2432   0.991   1.654   5.407
  511SOL    HW2 2433   0.833   1.644   5.366
  512SOL     OW 2434   0.091   3.270   0.151
  512SOL    HW1 2435   0.164   3.224   0.100
  512SOL    HW2 2436   0.051   3.206   0.216
  513SOL     OW 2437   6.149   6.989   3.203
  513SOL    HW1 2438   6.200   6.983   3.289
  513SOL    HW2 2439   6.069   0.023   3.216
  514SOL     OW 2440   6.661   2.176   3.801
  514SOL    HW1 2441   6.690   2.115   3.874
  514SOL    HW2 2442   6.614   2.123   3.730
  515SOL     OW 2443   1.104   0.969   6.486
  515SOL    HW1 2444   1.008   0.975   6.512
  515SOL    HW2 2445   1.149   0.897   6.539
  516SOL     OW 2446   2.548   4.501   1.865
  516SOL    HW1 2447   2.464   4.521   1.916
  516SOL    HW2 2448   2.628   4.520   1.922
  517SOL     OW 2449   4.473   5.783   1.815
  517SOL    HW1 2450   4.519   5.719   1.754
  517SOL    HW2 2451   4.499   5.877   1.791
  518SOL     OW 2452   2.913   2.016   3.288
  518SOL    HW1 2453   2.985   2.059   3.233
  518SOL    HW2 2454   2.954   1.949   3.350
  519SOL     OW 2455   0.292   0.390   4.910
  519SOL    HW1 2456   0.339   0.322   4.854
  519SOL    HW2 2457   0.313   0.481   4.877
  520SOL     OW 2458   6.681   3.888   0.942
  520SOL    HW1 2459   6.597   3.917   0.986
  520SOL    HW2 2460   6.668   3.796   0.903
  521SOL     OW 2461   6.668   4.633   4.837
  521SOL    HW1 2462   6.682   4.645   4.935
  521SOL    HW2 2463   6.588   4.685   4.808
  522SOL     OW 2464   3.690   3.189   4.620
  522SOL    HW1 2465   3.656   3.224   4.707
  522SOL    HW2 2466   3.756   3.116   4.636
  523SOL     OW 2467   0.274   5.384   1.740
  523SOL    HW1 2468   0.190   5.332   1.727
  523SOL    HW2 2469   0.252   5.481   1.754
  524SOL     OW 2470   0.502   1.232   2.286
  524SOL    HW1 2471   0.581   1.261   2.341
  524SOL    HW2 2472   0.431   1.302   2.290
  525SOL     OW 2473   2.028   3.003   5.646
  525SOL    HW1 2474   2.032   3.090   5.598
  525SOL    HW2 2475   2.120   2.977   5.676
  526SOL     OW 2476   3.990   6.677   3.979
  526SOL    HW1 2477   4.081   6.638   3.973
  526SOL    HW2 2478   3.957   6.671   4.074
  527SOL     OW 2479   6.164   2.537   6.852
  527SOL    HW1 2480   6.183   2.588   6.768
  527SOL    HW2 2481   6.244   2.540   6.912
  528SOL     OW 2482   0.877   1.815   3.688
  528SOL    HW1 2483   0.927   1.755   3.626
  528SOL    HW2 2484   0.782   1.824   3.657
  529SOL     OW 2485   2.061   6.818   4.290
  529SOL    HW1 2486   2.017   6.848   4.205
  529SOL    HW2 2487   2.018   6.733   4.320
  530SOL     OW 2488   3.389   3.367   4.518
  530SOL    HW1 2489   3.389   3.269   4.496
  530SOL    HW2 2490   3.457   3.385   4.590
  531SOL     OW 2491   0.360   1.306   3.547
  531SOL    HW1 2492   0.414   1.223   3.554
  531SOL    HW2 2493   0.352   1.349   3.637
  532SOL     OW 2494   1.358   2.803   6.888
  532SOL    HW1 2495   1.356   2.889   6.839
  532SOL    HW2 2496   1.325   2.817   6.981
  533SOL     OW 2497   4.245   6.889   3.893
  533SOL    HW1 2498   4.315   6.821   3.872
  533SOL    HW2 2499   4.158   6.861   3.854
  534SOL     OW 2500   5.256   6.264   2.592
  534SOL    HW1 2501   5.338   6.312   2.561
  534SOL    HW2 2502   5.206   6.229   2.512
  535SOL     OW 2503   1.034   3.656   4.384
  535SOL    HW1 2504   0.937   3.671   4.361
  535SOL    HW2 2505   1.044   3.568   4.430
  536SOL     OW 2506   0.051   5.056   1.529
  536SOL    HW1 2507   0.007   4.995   1.463
  536SOL    HW2 2508   0.002   5.143   1.532
  537SOL     OW 2509   2.976   6.591   4.529
  537SOL    HW1 2510   2.895   6.562   4.580
  537SOL    HW2 2511   3.058   6.572   4.583
  538SOL     OW 2512   1.486   4.659   3.277
  538SOL    HW1 2513   1.503   4.696   3.185
  538SOL    HW2 2514   1.555   4.591   3.299
  539SOL     OW 2515   1.518   5.834   1.008
  539SOL    HW1 2516   1.609   5.817   0.971
  539SOL    HW2 2517   1.522   5.909   1.074
  540SOL     OW 2518   0.931   0.318   3.187
  540SOL    HW1 2519   0.926   0.416   3.165
  540SOL    HW2 2520   0.841   0.276   3.171
  541SOL     OW 2521   4.702   5.745   3.997
  541SOL    HW1 2522   4.786   5.701   3.966
  541SOL    HW2 2523   4.724   5.833   4.039
  542SOL     OW 2524   6.564   6.772   0.131
  542SOL    HW1 2525   6.648   6.748   0.083
  542SOL    HW2 2526   6.542   6.868   0.114
  543SOL     OW 2527   1.590   4.108   5.573
  543SOL    HW1 2528   1.521   4.098   5.645
  543SOL    HW2 2529   1.612   4.205   5.561
  544SOL     OW 2530   3.108   4.140   0.273
  544SOL    HW1 2531   3.017   4.111   0.241
  544SOL    HW2 2532   3.177   4.078   0.237
  545SOL     OW 2533   2.868   1.205   2.305
  545SOL    HW1 2534   2.788   1.177   2.357
  545SOL    HW2 2535   2.946   1.218   2.367
  546SOL     OW 2536   2.011   2.924   0.589
  546SOL    HW1 2537   1.984   2.979   0.667
  546SOL    HW2 2538   2.095   2.961   0.549
  547SOL     OW 2539   3.262   1.151   0.102
  547SOL    HW1 2540   3.220   1.208   0.173
  547SOL    HW2 2541   3.253   1.055   0.127
  548SOL     OW 2542   3.583   2.881   2.624
  548SOL    HW1 2543   3.485   2.897   2.637
  548SOL    HW2 2544   3.603   2.882   2.526
  549SOL     OW 2545   5.028   3.098   0.358
  549SOL    HW1 2546   5.091   3.058   0.292
  549SOL    HW2 2547   5.051   3.195   0.372
  550SOL     OW 2548   6.940   5.302   3.568
  550SOL    HW1 2549   7.010   5.235   3.592
  550SOL    HW2 2550   6.897   5.337   3.652
  551SOL     OW 2551   0.753   0.534   2.370
  551SOL    HW1 2552   0.816   0.612   2.365
  551SOL    HW2 2553   0.802   0.454   2.404
  552SOL     OW 2554   4.970   4.432   0.245
  552SOL    HW1 2555   5.005   4.524   0.261
  552SOL    HW2 2556   4.873   4.429   0.269
  553SOL     OW 2557   1.516   6.255   2.000
  553SOL    HW1 2558   1.608   6.291   1.983
  553SOL    HW2 2559   1.464   6.320   2.055
  554SOL     OW 2560   5.723   0.097   5.626
  554SOL    HW1 2561   5.639   0.150   5.611
  554SOL    HW2 2562   5.790   0.119   5.556
  555SOL     OW 2563   1.379   5.265   3.088
  555SOL    HW1 2564   1.368   5.168   3.106
  555SOL    HW2 2565   1.344   5.318   3.166
  556SOL     OW 2566   5.162   2.160   3.935
  556SOL    HW1 2567   5.202   2.250   3.917
  556SOL    HW2 2568   5.169   2.104   3.852
  557SOL     OW 2569   0.546   4.508   0.187
  557SOL    HW1 2570   0.603   4.507   0.105
  557SOL    HW2 2571   0.573   4.432   0.247
  558SOL     OW 2572   2.885   3.489   4.397
  558SOL    HW1 2573   2.793   3.462   4.369
  558SOL    HW2 2574   2.927   3.415   4.449
  559SOL     OW 2575   6.377   5.571   6.970
  559SOL    HW1 2576   6.361   5.666   6.994
  559SOL    HW2 2577   6.333   5.512   0.014
  560SOL     OW 2578   4.527   4.236   6.908
  560SOL    HW1 2579   4.560   4.158   6.962
  560SOL    HW2 2580   4.505   4.312   6.970
  561SOL     OW 2581   6.559   1.361   0.372
  561SOL    HW1 2582   6.507   1.279   0.347
  561SOL    HW2 2583   6.495   1.435   0.394
  562SOL     OW 2584   5.532   0.963   5.788
  562SOL    HW1 2585   5.556   0.868   5.806
  562SOL    HW2 2586   5.449   0.967   5.733
  563SOL     OW 2587   2.130   0.580   3.409
  563SOL    HW1 2588   2.175   0.669   3.421
  563SOL    HW2 2589   2.031   0.591   3.421
  564SOL     OW 2590   2.564   2.498   6.718
  564SOL    HW1 2591   2.500   2.421   6.717
  564SOL    HW2 2592   2.635   2.481   6.786
  565SOL     OW 2593   3.789   2.615   5.823
  565SOL    HW1 2594   3.874   2.659   5.793
  565SOL    HW2 2595   3.715   2.638   5.761
  566SOL     OW 2596   6.092   5.423   4.095
  566SOL    HW1 2597   6.083   5.326   4.072
  566SOL    HW2 2598   6.008   5.455   4.140
  567SOL     OW 2599   3.814   3.350   2.259
  567SOL    HW1 2600   3.809   3.397   2.347
  567SOL    HW2 2601   3.909   3.343   2.229
  568SOL     OW 2602   4.195   1.744   0.205
  568SOL    HW1 2603   4.276   1.733   0.262
  568SOL    HW2 2604   4.222   1.761   0.110
  569SOL     OW 2605   1.262   3.580   6.362
  569SOL    HW1 2606   1.350   3.556   6.320
  569SOL    HW2 2607   1.247   3.522   6.442
  570SOL     OW 2608   2.904   6.351   0.036
  570SOL    HW1 2609   2.983   6.311   7.013
  570SOL    HW2 2610   2.836   6.380   6.993
  571SOL     OW 2611   3.273   0.302   2.635
  571SOL    HW1 2612   3.251   0.266   2.726
  571SOL    HW2 2613   3.278   0.226   2.570
  572SOL     OW 2614   2.829   4.870   5.749
  572SOL    HW1 2615   2.807   4.790   5.693
  572SOL    HW2 2616   2.926   4.892   5.738
  573SOL     OW 2617   5.248   1.371   5.894
  573SOL    HW1 2618   5.328   1.311   5.890
  573SOL    HW2 2619   5.190   1.353   5.815
  574SOL     OW 2620   3.660   2.074   4.510
  574SOL    HW1 2621   3.636   1.978   4.523
  574SOL    HW2 2622   3.614   2.109   4.428
  575SOL     OW 2623   5.608   3.922   7.018
  575SOL    HW1 2624   5.672   3.984   6.973
  575SOL    HW2 2625   5.515   3.938   6.983
  576SOL     OW 2626   0.907   2.326   2.949
  576SOL    HW1 2627   0.833   2.303   2.886
  576SOL    HW2 2628   0.982   2.369   2.897
  577SOL     OW 2629   1.872   1.737   2.596
  577SOL    HW1 2630   1.881   1.827   2.638
  577SOL    HW2 2631   1.959   1.710   2.555
  578SOL     OW 2632   6.229   4.885   3.337
  578SOL    HW1 2633   6.268   4.836   3.259
  578SOL    HW2 2634   6.247   4.983   3.327
  579SOL     OW 2635   1.464   3.090   2.031
  579SOL    HW1 2636   1.489   3.124   2.122
  579SOL    HW2 2637   1.491   3.157   1.962
  580SOL     OW 2638   6.539   4.843   6.673
  580SOL    HW1 2639   6.451   4.836   6.626
  580SOL    HW2 2640   6.613   4.830   6.608
  581SOL     OW 2641   3.174   3.185   2.812
  581SOL    HW1 2642   3.111   3.172   2.736
  581SOL    HW2 2643   3.214   3.276   2.808
  582SOL     OW 2644   5.537   5.727   2.675
  582SOL    HW1 2645   5.549   5.630   2.695
  582SOL    HW2 2646   5.576   5.748   2.586
  583SOL     OW 2647   2.952   5.135   5.951
  583SOL    HW1 2648   2.869   5.172   5.993
  583SOL    HW2 2649   2.947   5.035   5.952
  584SOL     OW 2650   1.977   3.973   6.390
  584SOL    HW1 2651   1.900   3.939   6.444
  584SOL    HW2 2652   2.037   3.897   6.366
  585SOL     OW 2653   5.771   3.132   6.171
  585SOL    HW1 2654   5.765   3.159   6.267
  585SOL    HW2 2655   5.683   3.093   6.142
  586SOL     OW 2656   3.968   1.827   6.586
  586SOL    HW1 2657   4.032   1.834   6.663
  586SOL    HW2 2658   3.909   1.748   6.599
  587SOL     OW 2659   2.940   1.548   5.129
  587SOL    HW1 2660   2.958   1.450   5.138
  587SOL    HW2 2661   3.026   1.599   5.143
  588SOL     OW 2662   2.505   4.724   0.888
  588SOL    HW1 2663   2.522   4.671   0.971
  588SOL    HW2 2664   2.433   4.680   0.835
  589SOL     OW 2665   3.195   5.349   1.445
  589SOL    HW1 2666   3.096   5.355   1.449
  589SOL    HW2 2667   3.224   5.333   1.351
  590SOL     OW 2668   5.253   2.730   2.367
  590SOL    HW1 2669   5.202   2.790   2.306
  590SOL    HW2 2670   5.193   2.657   2.400
  591SOL     OW 2671   3.595   5.794   3.427
  591SOL    HW1 2672   3.615   5.873   3.485
  591SOL    HW2 2673   3.600   5.820   3.331
  592SOL     OW 2674   3.114   0.105   1.245
  592SOL    HW1 2675   3.066   0.129   1.330
  592SOL    HW2 2676   3.211   0.126   1.255
  593SOL     OW 2677   4.161   2.192   3.274
  593SOL    HW1 2678   4.246   2.143   3.253
  593SOL    HW2 2679   4.175   2.251   3.354
  594SOL     OW 2680   5.162   2.126   6.374
  594SOL    HW1 2681   5.124   2.091   6.288
  594SOL    HW2 2682   5.262   2.129   6.368
  595SOL     OW 2683   5.773   0.366   3.831
  595SOL    HW1 2684   5.755   0.459   3.864
  595SOL    HW2 2685   5.810   0.371   3.738
  596SOL     OW 2686   1.559   4.675   2.973
  596SOL    HW1 2687   1.615   4.598   3.004
  596SOL    HW2 2688   1.614   4.759   2.975
  597SOL     OW 2689   3.998   0.091   6.576
  597SOL    HW1 2690   4.067   0.019   6.581
  597SOL    HW2 2691   3.917   0.057   6.528
  598SOL     OW 2692   3.301   3.685   6.368
  598SOL    HW1 2693   3.228   3.637   6.321
  598SOL    HW2 2694   3.271   3.710   6.460
  599SOL     OW 2695   2.305   6.439   2.481
  599SOL    HW1 2696   2.400   6.431   2.451
  599SOL    HW2 2697   2.277   6.355   2.527
  600SOL     OW 2698   0.454   0.709   1.123
  600SOL    HW1 2699   0.417   0.763   1.047
  600SOL    HW2 2700   0.544   0.744   1.148
  601SOL     OW 2701   3.055   6.094   4.009
  601SOL    HW1 2702   3.104   6.063   3.928
  601SOL    HW2 2703   3.115   6.149   4.067
  602SOL     OW 2704   1.872   3.052   6.540
  602SOL    HW1 2705   1.956   3.011   6.574
  602SOL    HW2 2706   1.881   3.073   6.443
  603SOL     OW 2707   3.960   1.793   3.846
  603SOL    HW1 2708   4.056   1.820   3.859
  603SOL    HW2 2709   3.954   1.729   3.770
  604SOL     OW 2710   0.763   3.391   1.634
  604SOL    HW1 2711   0.751   3.474   1.688
  604SOL    HW2 2712   0.764   3.311   1.693
  605SOL     OW 2713   6.069   6.243   2.519
  605SOL    HW1 2714   6.098   6.154   2.483
  605SOL    HW2 2715   6.035   6.300   2.444
  606SOL     OW 2716   5.000   0.625   6.694
  606SOL    HW1 2717   5.062   0.559   6.650
  606SOL    HW2 2718   5.030   0.718   6.672
  607SOL     OW 2719   5.713   1.124   5.446
  607SOL    HW1 2720   5.779   1.054   5.418
  607SOL    HW2 2721   5.628   1.079   5.476
  608SOL     OW 2722   3.716   6.210   6.589
  608SOL    HW1 2723   3.676   6.126   6.553
  608SOL    HW2 2724   3.687   6.223   6.684
  609SOL     OW 2725   4.077   3.204   3.655
  609SOL    HW1 2726   4.082   3.191   3.754
  609SOL    HW2 2727   4.013   3.139   3.616
  610SOL     OW 2728   5.152   2.357   2.490
  610SOL    HW1 2729   5.136   2.421   2.566
  610SOL    HW2 2730   5.119   2.397   2.405
  611SOL     OW 2731   2.340   0.417   6.476
  611SOL    HW1 2732   2.248   0.455   6.471
  611SOL    HW2 2733   2.405   0.489   6.499
  612SOL     OW 2734   4.019   6.723   6.143
  612SOL    HW1 2735   4.114   6.718   6.173
  612SOL    HW2 2736   3.962   6.756   6.219
  613SOL     OW 2737   4.360   6.799   6.063
  613SOL    HW1 2738   4.449   6.824   6.100
  613SOL    HW2 2739   4.364   6.799   5.963
  614SOL     OW 2740   5.307   4.091   1.452
  614SOL    HW1 2741   5.210   4.112   1.438
  614SOL    HW2 2742   5.342   4.044   1.371
  615SOL     OW 2743   0.518   1.715   0.748
  615SOL    HW1 2744   0.483   1.763   0.828
  615SOL    HW2 2745   0.470   1.627   0.738
  616SOL     OW 2746   0.222   2.294   3.685
  616SOL    HW1 2747   0.122   2.290   3.681
  616SOL    HW2 2748   0.258   2.206   3.716
  617SOL     OW 2749   6.969   3.730   6.650
  617SOL    HW1 2750   6.993   3.656   6.713
  617SOL    HW2 2751   0.021   3.794   6.643
  618SOL     OW 2752   0.207   3.373   6.832
  618SOL    HW1 2753   0.266   3.450   6.855
  618SOL    HW2 2754   0.238   3.291   6.881
  619SOL     OW 2755   5.066   0.332   6.533
  619SOL    HW1 2756   5.076   0.235   6.556
  619SOL    HW2 2757   5.012   0.341   6.449
  620SOL     OW 2758   4.963   2.259   1.520
  620SOL    HW1 2759   4.870   2.225   1.504
  620SOL    HW2 2760   4.960   2.355   1.547
  621SOL     OW 2761   2.427   7.020   6.033
  621SOL    HW1 2762   2.523   6.997   6.049
  621SOL    HW2 2763   2.390   0.043   6.113
  622SOL     OW 2764   0.928   1.696   5.066
  622SOL    HW1 2765   0.852   1.631   5.058
  622SOL    HW2 2766   0.895   1.781   5.108
  623SOL     OW 2767   1.059   6.135   5.918
  623SOL    HW1 2768   1.015   6.077   5.987
  623SOL    HW2 2769   1.093   6.218   5.962
  624SOL     OW 2770   0.260   1.066   0.365
  624SOL    HW1 2771   0.274   0.967   0.355
  624SOL    HW2 2772   0.290   1.112   0.281
  625SOL     OW 2773   1.944   2.141   1.085
  625SOL    HW1 2774   1.848   2.112   1.083
  625SOL    HW2 2775   1.970   2.163   1.179
  626SOL     OW 2776   0.459   5.935   3.053
  626SOL    HW1 2777   0.439   6.002   2.982
  626SOL    HW2 2778   0.405   5.955   3.134
  627SOL     OW 2779   6.343   6.222   0.742
  627SOL    HW1 2780   6.360   6.124   0.726
  627SOL    HW2 2781   6.246   6.237   0.756
  628SOL     OW 2782   5.254   5.355   5.426
  628SOL    HW1 2783   5.216   5.329   5.337
  628SOL    HW2 2784   5.288   5.274   5.473
  629SOL     OW 2785   0.643   0.591   6.437
  629SOL    HW1 2786   0.604   0.675   6.397
  629SOL    HW2 2787   0.597   0.512   6.398
  630SOL     OW 2788   0.352   1.528   0.178
  630SOL    HW1 2789   0.443   1.492   0.154
  630SOL    HW2 2790   0.301   1.457   0.226
  631SOL     OW 2791   3.791   0.709   5.592
  631SOL    HW1 2792   3.838   0.755   5.517
  631SOL    HW2 2793   3.706   0.670   5.558
  632SOL     OW 2794   4.721   1.962   1.408
  632SOL    HW1 2795   4.792   1.946   1.340
  632SOL    HW2 2796   4.762   1.964   1.499
  633SOL     OW 2797   2.947   3.757   6.805
  633SOL    HW1 2798   2.927   3.816   6.726
  633SOL    HW2 2799   2.879   3.684   6.810
  634SOL     OW 2800   3.335   4.118   3.120
  634SOL    HW1 2801   3.377   4.209   3.120
  634SOL    HW2 2802   3.407   4.049   3.130
  635SOL     OW 2803   4.707   5.951   1.111
  635SOL    HW1 2804   4.707   5.959   1.012
  635SOL    HW2 2805   4.709   6.042   1.153
  636SOL     OW 2806   2.921   6.789   6.219
  636SOL    HW1 2807   3.009   6.744   6.230
  636SOL    HW2 2808   2.884   6.812   6.309
  637SOL     OW 2809   0.297   2.986   3.620
  637SOL    HW1 2810   0.307   2.886   3.615
  637SOL    HW2 2811   0.285   3.023   3.528
  638SOL     OW 2812   5.621   3.182   3.783
  638SOL    HW1 2813   5.590   3.089   3.805
  638SOL    HW2 2814   5.560   3.248   3.828
  639SOL     OW 2815   4.959   3.368   2.937
  639SOL    HW1 2816   4.912   3.399   3.019
  639SOL    HW2 2817   4.960   3.441   2.869
  640SOL     OW 2818   0.147   5.237   4.260
  640SOL    HW1 2819   0.152   5.336   4.273
  640SOL    HW2 2820   0.051   5.210   4.245
  641SOL     OW 2821   0.503   4.727   4.957
  641SOL    HW1 2822   0.481   4.817   4.993
  641SOL    HW2 2823   0.425   4.666   4.968
  642SOL     OW 2824   0.574   3.241   4.064
  642SOL    HW1 2825   0.585   3.149   4.102
  642SOL    HW2 2826   0.665   3.280   4.045
  643SOL     OW 2827   6.100   0.283   6.170
  643SOL    HW1 2828   6.089   0.363   6.229
  643SOL    HW2 2829   6.050   0.297   6.085
  644SOL     OW 2830   1.391   0.157   4.310
  644SOL    HW1 2831   1.463   0.097   4.345
  644SOL    HW2 2832   1.307   0.144   4.364
  645SOL     OW 2833   4.213   6.976   5.076
  645SOL    HW1 2834   4.201   0.044   5.042
  645SOL    HW2 2835   4.280   6.976   5.151
  646SOL     OW 2836   3.695   1.072   4.882
  646SOL    HW1 2837   3.745   1.134   4.821
  646SOL    HW2 2838   3.632   1.125   4.939
  647SOL     OW 2839   5.339   2.175   4.922
  647SOL    HW1 2840   5.253   2.223   4.907
  647SOL    HW2 2841   5.320   2.080   4.947
  648SOL     OW 2842   0.522   4.200   4.116
  648SOL    HW1 2843   0.550   4.270   4.182
  648SOL    HW2 2844   0.433   4.226   4.077
  649SOL     OW 2845   2.541   3.783   1.168
  649SOL    HW1 2846   2.502   3.850   1.232
  649SOL    HW2 2847   2.560   3.828   1.081
  650SOL     OW 2848   6.532   4.195   1.134
  650SOL    HW1 2849   6.555   4.107   1.092
  650SOL    HW2 2850   6.517   4.263   1.062
  651SOL     OW 2851   1.705   0.108   6.024
  651SOL    HW1 2852   1.740   0.200   6.039
  651SOL    HW2 2853   1.681   0.067   6.112
  652SOL     OW 2854   4.760   0.247   3.294
  652SOL    HW1 2855   4.847   0.205   3.321
  652SOL    HW2 2856   4.689   0.219   3.358
  653SOL     OW 2857   0.932   5.763   0.188
  653SOL    HW1 2858   0.966   5.701   0.258
  653SOL    HW2 2859   0.973   5.741   0.100
  654SOL     OW 2860   0.973   6.158   0.313
  654SOL    HW1 2861   1.067   6.132   0.331
  654SOL    HW2 2862   0.967   6.203   0.223
  655SOL     OW 2863   6.990   5.854   1.226
  655SOL    HW1 2864   0.012   5.775   1.266
  655SOL    HW2 2865   6.929   5.895   1.293
  656SOL     OW 2866   2.522   6.065   0.364
  656SOL    HW1 2867   2.566   6.021   0.443
  656SOL    HW2 2868   2.531   6.164   0.373
  657SOL     OW 2869   3.210   3.779   1.245
  657SOL    HW1 2870   3.199   3.745   1.339
  657SOL    HW2 2871   3.214   3.701   1.182
  658SOL     OW 2872   1.621   3.894   6.255
  658SOL    HW1 2873   1.525   3.903   6.282
  658SOL    HW2 2874   1.667   3.830   6.316
  659SOL     OW 2875   2.469   6.114   4.468
  659SOL    HW1 2876   2.419   6.199   4.455
  659SOL    HW2 2877   2.441   6.071   4.554
  660SOL     OW 2878   5.900   3.856   2.971
  660SOL    HW1 2879   5.973   3.848   2.903
  660SOL    HW2 2880   5.823   3.905   2.932
  661SOL     OW 2881   4.835   3.860   3.922
  661SOL    HW1 2882   4.873   3.820   3.839
  661SOL    HW2 2883   4.758   3.805   3.954
  662SOL     OW 2884   4.175   0.412   5.788
  662SOL    HW1 2885   4.190   0.491   5.728
  662SOL    HW2 2886   4.200   0.437   5.882
  663SOL     OW 2887   1.481   3.843   0.274
  663SOL    HW1 2888   1.576   3.850   0.245
  663SOL    HW2 2889   1.444   3.753   0.250
  664SOL     OW 2890   0.950   5.385   6.149
  664SOL    HW1 2891   1.005   5.307   6.179
  664SOL    HW2 2892   1.005   5.443   6.089
  665SOL     OW 2893   4.490   5.022   1.098
  665SOL    HW1 2894   4.522   4.971   1.018
  665SOL    HW2 2895   4.441   4.960   1.159
  666SOL     OW 2896   4.364   2.415   2.187
  666SOL    HW1 2897   4.287   2.366   2.229
  666SOL    HW2 2898   4.419   2.457   2.259
  667SOL     OW 2899   6.536   4.304   3.373
  667SOL    HW1 2900   6.601   4.374   3.404
  667SOL    HW2 2901   6.499   4.331   3.284
  668SOL     OW 2902   4.987   5.789   6.901
  668SOL    HW1 2903   4.977   5.875   6.850
  668SOL    HW2 2904   5.026   5.719   6.841
  669SOL     OW 2905   3.043   5.953   2.810
  669SOL    HW1 2906   3.006   6.009   2.736
  669SOL    HW2 2907   3.141   5.938   2.795
  670SOL     OW 2908   2.777   3.092   1.792
  670SOL    HW1 2909   2.711   3.164   1.812
  670SOL    HW2 2910   2.830   3.117   1.710
  671SOL     OW 2911   2.297   5.733   6.616
  671SOL    HW1 2912   2.213   5.685   6.641
  671SOL    HW2 2913   2.274   5.812   6.559
  672SOL     OW 2914   0.754   4.370   1.769
  672SOL    HW1 2915   0.656   4.368   1.790
  672SOL    HW2 2916   0.767   4.387   1.671
  673SOL     OW 2917   6.342   0.413   1.315
  673SOL    HW1 2918   6.252   0.424   1.357
  673SOL    HW2 2919   6.362   0.316   1.303
  674SOL     OW 2920   6.373   4.364   4.894
  674SOL    HW1 2921   6.300   4.296   4.882
  674SOL    HW2 2922   6.366   4.433   4.823
  675SOL     OW 2923   6.877   1.337   5.088
  675SOL    HW1 2924   6.872   1.331   4.988
  675SOL    HW2 2925   6.811   1.274   5.129
  676SOL     OW 2926   3.529   5.347   2.430
  676SOL    HW1 2927   3.578   5.269   2.391
  676SOL    HW2 2928   3.485   5.320   2.515
  677SOL     OW 2929   6.354   1.671   6.503
  677SOL    HW1 2930   6.399   1.752   6.465
  677SOL    HW2 2931   6.415   1.625   6.567
  678SOL     OW 2932   1.134   1.712   5.539
  678SOL    HW1 2933   1.150   1.630   5.594
  678SOL    HW2 2934   1.208   1.724   5.474
  679SOL     OW 2935   4.844   1.178   3.778
  679SOL    HW1 2936   4.943   1.191   3.792
  679SOL    HW2 2937   4.829   1.131   3.692
  680SOL     OW 2938   5.351   5.557   6.095
  680SOL    HW1 2939   5.411   5.634   6.074
  680SOL    HW2 2940   5.371   5.481   6.033
  681SOL     OW 2941   5.931   6.748   1.604
  681SOL    HW1 2942   5.834   6.730   1.614
  681SOL    HW2 2943   5.983   6.686   1.664
  682SOL     OW 2944   1.511   7.008   0.003
  682SOL    HW1 2945   1.506   7.016   6.928
  682SOL    HW2 2946   1.433   6.954   0.036
  683SOL     OW 2947   3.447   1.723   6.687
  683SOL    HW1 2948   3.423   1.715   6.590
  683SOL    HW2 2949   3.405   1.648   6.738
  684SOL     OW 2950   5.811   1.088   6.921
  684SOL    HW1 2951   5.790   1.079   6.824
  684SOL    HW2 2952   5.821   1.184   6.945
  685SOL     OW 2953   4.697   0.840   5.062
  685SOL    HW1 2954   4.666   0.862   4.970
  685SOL    HW2 2955   4.690   0.741   5.077
  686SOL     OW 2956   5.983   2.829   3.285
  686SOL    HW1 2957   5.963   2.927   3.275
  686SOL    HW2 2958   5.941   2.779   3.209
  687SOL     OW 2959   0.103   2.503   4.354
  687SOL    HW1 2960   0.198   2.487   4.379
  687SOL    HW2 2961   0.074   2.591   4.391
  688SOL     OW 2962   1.834   2.957   0.075
  688SOL    HW1 2963   1.903   2.886   0.060
  688SOL    HW2 2964   1.762   2.947   0.006
  689SOL     OW 2965   0.456   4.565   5.465
  689SOL    HW1 2966   0.501   4.491   5.514
  689SOL    HW2 2967   0.371   4.590   5.512
  690SOL     OW 2968   1.004   4.189   3.621
  690SOL    HW1 2969   1.063   4.137   3.682
  690SOL    HW2 2970   1.059   4.224   3.544
  691SOL     OW 2971   2.579   1.229   6.392
  691SOL    HW1 2972   2.638   1.160   6.433
  691SOL    HW2 2973   2.484   1.200   6.399
  692SOL     OW 2974   3.958   6.482   3.164
  692SOL    HW1 2975   3.865   6.499   3.134
  692SOL    HW2 2976   3.957   6.460   3.262
  693SOL     OW 2977   6.462   1.916   3.058
  693SOL    HW1 2978   6.463   1.985   2.986
  693SOL    HW2 2979   6.548   1.918   3.108
  694SOL     OW 2980   3.420   6.820   2.669
  694SOL    HW1 2981   3.485   6.880   2.623
  694SOL    HW2 2982   3.422   6.730   2.626
  695SOL     OW 2983   4.420   4.770   5.672
  695SOL    HW1 2984   4.427   4.847   5.609
  695SOL    HW2 2985   4.500   4.711   5.660
  696SOL     OW 2986   2.958   5.343   1.904
  696SOL    HW1 2987   2.932   5.283   1.828
  696SOL    HW2 2988   3.048   5.316   1.938
  697SOL     OW 2989   1.709   2.953   4.940
  697SOL    HW1 2990   1.777   2.911   5.000
  697SOL    HW2 2991   1.742   2.953   4.846
  698SOL     OW 2992   5.590   0.061   6.558
  698SOL    HW1 2993   5.628   0.045   6.649
  698SOL    HW2 2994   5.659   0.105   6.500
  699SOL     OW 2995   1.244   3.931   6.950
  699SOL    HW1 2996   1.199   3.939   0.015
  699SOL    HW2 2997   1.332   3.977   6.954
  700SOL     OW 2998   2.742   1.026   4.053
  700SOL    HW1 2999   2.710   1.037   3.959
  700SOL    HW2 3000   2.817   0.960   4.055
  701SOL     OW 3001   6.839   4.348   5.480
  701SOL    HW1 3002   6.771   4.316   5.546
  701SOL    HW2 3003   6.915   4.283   5.477
  702SOL     OW 3004   6.302   6.337   6.081
  702SOL    HW1 3005   6.323   6.355   5.985
  702SOL    HW2 3006   6.206   6.313   6.090
  703SOL     OW 3007   4.031   3.541   6.529
  703SOL    HW1 3008   4.093   3.507   6.459
  703SOL    HW2 3009   3.982   3.465   6.571
  704SOL     OW 3010   1.790   1.508   6.618
  704SOL    HW1 3011   1.823   1.426   6.571
  704SOL    HW2 3012   1.829   1.511   6.710
  705SOL     OW 3013   5.375   6.900   3.592
  705SOL    HW1 3014   5.423   6.987   3.588
  705SOL    HW2 3015   5.302   6.905   3.661
  706SOL     OW 3016   4.159   2.061   4.162
  706SOL    HW1 3017   4.086   2.097   4.220
  706SOL    HW2 3018   4.119   2.007   4.088
  707SOL     OW 3019   4.596   7.000   2.726
  707SOL    HW1 3020   4.624   6.913   2.685
  707SOL    HW2 3021   4.566   0.038   2.653
  708SOL     OW 3022   4.070   0.437   1.421
  708SOL    HW1 3023   4.043   0.489   1.340
  708SOL    HW2 3024   4.036   0.343   1.414
  709SOL     OW 3025   1.119   5.403   0.543
  709SOL    HW1 3026   1.070   5.464   0.482
  709SOL    HW2 3027   1.201   5.369   0.497
  710SOL     OW 3028   3.799   3.137   2.098
  710SOL    HW1 3029   3.788   3.206   2.170
  710SOL    HW2 3030   3.766   3.049   2.131
  711SOL     OW 3031   6.998   1.968   5.882
  711SOL    HW1 3032   0.004   2.062   5.868
  711SOL    HW2 3033   6.953   1.961   5.971
  712SOL     OW 3034   3.243   4.064   0.508
  712SOL    HW1 3035   3.198   4.031   0.426
  712SOL    HW2 3036   3.175   4.080   0.580
  713SOL     OW 3037   3.456   2.841   0.279
  713SOL    HW1 3038   3.555   2.845   0.262
  713SOL    HW2 3039   3.437   2.769   0.345
  714SOL     OW 3040   6.320   4.929   4.670
  714SOL    HW1 3041   6.321   5.022   4.635
  714SOL    HW2 3042   6.403   4.882   4.643
  715SOL     OW 3043   5.314   6.211   0.605
  715SOL    HW1 3044   5.280   6.305   0.599
  715SOL    HW2 3045   5.402   6.205   0.558
  716SOL     OW 3046   1.077   6.836   0.718
  716SOL    HW1 3047   1.123   6.753   0.747
  716SOL    HW2 3048   1.004   6.814   0.654
  717SOL     OW 3049   5.569   4.956   6.309
  717SOL    HW1 3050   5.590   4.981   6.215
  717SOL    HW2 3051   5.654   4.937   6.358
  718SOL     OW 3052   4.867   2.570   5.702
  718SOL    HW1 3053   4.816   2.631   5.763
  718SOL    HW2 3054   4.826   2.478   5.705
  719SOL     OW 3055   6.610   2.119   1.000
  719SOL    HW1 3056   6.566   2.208   1.011
  719SOL    HW2 3057   6.586   2.081   0.911
  720SOL     OW 3058   3.401   1.058   6.509
  720SOL    HW1 3059   3.413   1.061   6.410
  720SOL    HW2 3060   3.332   0.989   6.532
  721SOL     OW 3061   2.233   0.453   4.479
  721SOL    HW1 3062   2.248   0.356   4.459
  721SOL    HW2 3063   2.298   0.508   4.427
  722SOL     OW 3064   2.215   7.007   4.762
  722SOL    HW1 3065   2.226   0.022   4.671
  722SOL    HW2 3066   2.144   0.033   4.811
  723SOL     OW 3067   2.169   3.324   3.450
  723SOL    HW1 3068   2.213   3.359   3.533
  723SOL    HW2 3069   2.165   3.224   3.454
  724SOL     OW 3070   1.213   2.284   5.213
  724SOL    HW1 3071   1.224   2.191   5.177
  724SOL    HW2 3072   1.211   2.349   5.137
  725SOL     OW 3073   3.349   5.582   0.637
  725SOL    HW1 3074   3.322   5.624   0.551
  725SOL    HW2 3075   3.440   5.615   0.664
  726SOL     OW 3076   4.169   4.500   0.700
  726SOL    HW1 3077   4.139   4.548   0.618
  726SOL    HW2 3078   4.144   4.553   0.781
  727SOL     OW 3079   5.105   5.411   6.079
  727SOL    HW1 3080   5.069   5.442   5.991
  727SOL    HW2 3081   5.175   5.475   6.111
  728SOL     OW 3082   6.660   3.246   4.508
  728SOL    HW1 3083   6.719   3.276   4.433
  728SOL    HW2 3084   6.608   3.325   4.542
  729SOL     OW 3085   1.649   2.170   0.397
  729SOL    HW1 3086   1.717   2.101   0.374
  729SOL    HW2 3087   1.582   2.131   0.460
  730SOL     OW 3088   5.179   1.190   2.794
  730SOL    HW1 3089   5.163   1.287   2.813
  730SOL    HW2 3090   5.131   1.134   2.863
  731SOL     OW 3091   5.962   4.246   5.901
  731SOL    HW1 3092   5.976   4.328   5.957
  731SOL    HW2 3093   5.931   4.171   5.960
  732SOL     OW 3094   0.571   2.929   1.007
  732SOL    HW1 3095   0.654   2.873   1.015
  732SOL    HW2 3096   0.555   2.951   0.911
  733SOL     OW 3097   5.609   5.505   5.551
  733SOL    HW1 3098   5.668   5.550   5.484
  733SOL    HW2 3099   5.535   5.568   5.577
  734SOL     OW 3100   6.703   4.193   2.694
  734SOL    HW1 3101   6.660   4.264   2.638
  734SOL    HW2 3102   6.704   4.223   2.790
  735SOL     OW 3103   4.441   2.761   0.352
  735SOL    HW1 3104   4.483   2.795   0.268
  735SOL    HW2 3105   4.367   2.822   0.379
  736SOL     OW 3106   0.231   0.290   2.893
  736SOL    HW1 3107   0.320   0.300   2.850
  736SOL    HW2 3108   0.185   0.379   2.899
  737SOL     OW 3109   4.789   2.345   6.519
  737SOL    HW1 3110   4.743   2.300   6.442
  737SOL    HW2 3111   4.874   2.297   6.538
  738SOL     OW 3112   2.230   3.994   2.551
  738SOL    HW1 3113   2.285   3.916   2.520
  738SOL    HW2 3114   2.230   4.064   2.480
  739SOL     OW 3115   3.573   0.225   4.990
  739SOL    HW1 3116   3.523   0.201   4.907
  739SOL    HW2 3117   3.672   0.225   4.971
  740SOL     OW 3118   4.673   6.997   0.425
  740SOL    HW1 3119   4.656   6.964   0.518
  740SOL    HW2 3120   4.651   6.925   0.359
  741SOL     OW 3121   2.298   6.260   3.034
  741SOL    HW1 3122   2.281   6.161   3.040
  741SOL    HW2 3123   2.373   6.285   3.095
  742SOL     OW 3124   1.755   6.466   1.074
  742SOL    HW1 3125   1.660   6.464   1.044
  742SOL    HW2 3126   1.772   6.549   1.127
  743SOL     OW 3127   0.280   4.448   4.469
  743SOL    HW1 3128   0.207   4.484   4.410
  743SOL    HW2 3129   0.367   4.489   4.442
  744SOL     OW 3130   6.002   6.873   6.578
  744SOL    HW1 3131   6.021   6.960   6.625
  744SOL    HW2 3132   5.972   6.891   6.485
  745SOL     OW 3133   0.975   5.142   4.415
  745SOL    HW1 3134   0.949   5.238   4.406
  745SOL    HW2 3135   0.981   5.101   4.323
  746SOL     OW 3136   0.610   5.440   6.009
  746SOL    HW1 3137   0.684   5.382   5.975
  746SOL    HW2 3138   0.643   5.535   6.017
  747SOL     OW 3139   4.251   6.709   5.016
  747SOL    HW1 3140   4.182   6.664   5.073
  747SOL    HW2 3141   4.251   6.807   5.035
  748SOL     OW 3142   3.135   4.975   2.310
  748SOL    HW1 3143   3.078   4.908   2.262
  748SOL    HW2 3144   3.228   4.972   2.273
  749SOL     OW 3145   6.630   4.330   4.911
  749SOL    HW1 3146   6.675   4.411   4.873
  749SOL    HW2 3147   6.531   4.341   4.904
  750SOL     OW 3148   2.206   2.656   1.318
  750SOL    HW1 3149   2.158   2.675   1.232
  750SOL    HW2 3150   2.209   2.739   1.373
  751SOL     OW 3151   4.130   2.891   6.142
  751SOL    HW1 3152   4.105   2.832   6.065
  751SOL    HW2 3153   4.073   2.973   6.141
  752SOL     OW 3154   3.858   1.643   2.215
  752SOL    HW1 3155   3.944   1.614   2.256
  752SOL    HW2 3156   3.876   1.685   2.126
  753SOL     OW 3157   1.611   2.899   4.576
  753SOL    HW1 3158   1.571   2.812   4.605
  753SOL    HW2 3159   1.709   2.900   4.597
  754SOL     OW 3160   5.463   3.189   6.033
  754SOL    HW1 3161   5.422   3.102   6.059
  754SOL    HW2 3162   5.475   3.192   5.934
  755SOL     OW 3163   1.641   4.717   5.764
  755SOL    HW1 3164   1.578   4.705   5.687
  755SOL    HW2 3165   1.734   4.697   5.733
  756SOL     OW 3166   3.424   0.367   1.462
  756SOL    HW1 3167   3.396   0.443   1.521
  756SOL    HW2 3168   3.519   0.379   1.434
  757SOL     OW 3169   0.759   0.119   3.411
  757SOL    HW1 3170   0.839   0.147   3.465
  757SOL    HW2 3171   0.739   0.022   3.430
  758SOL     OW 3172   3.935   0.050   2.022
  758SOL    HW1 3173   3.948   0.069   1.925
  758SOL    HW2 3174   3.956   0.132   2.076
  759SOL     OW 3175   0.961   1.306   0.712
  759SOL    HW1 3176   0.977   1.234   0.643
  759SOL    HW2 3177   1.033   1.302   0.781
  760SOL     OW 3178   4.858   0.265   5.764
  760SOL    HW1 3179   4.827   0.175   5.735
  760SOL    HW2 3180   4.950   0.282   5.728
  761SOL     OW 3181   5.510   3.147   5.567
  761SOL    HW1 3182   5.443   3.179   5.500
  761SOL    HW2 3183   5.561   3.070   5.529
  762SOL     OW 3184   2.303   0.273   4.802
  762SOL    HW1 3185   2.261   0.244   4.716
  762SOL    HW2 3186   2.380   0.334   4.782
  763SOL     OW 3187   4.208   4.679   6.713
  763SOL    HW1 3188   4.112   4.690   6.688
  763SOL    HW2 3189   4.229   4.582   6.721
  764SOL     OW 3190   4.542   1.022   3.818
  764SOL    HW1 3191   4.463   1.003   3.876
  764SOL    HW2 3192   4.616   1.058   3.875
  765SOL     OW 3193   1.148   6.067   1.071
  765SOL    HW1 3194   1.071   6.126   1.047
  765SOL    HW2 3195   1.218   6.073   1.000
  766SOL     OW 3196   2.047   3.866   6.780
  766SOL    HW1 3197   1.980   3.902   6.845
  766SOL    HW2 3198   2.009   3.786   6.733
  767SOL     OW 3199   5.830   5.809   2.265
  767SOL    HW1 3200   5.918   5.764   2.280
  767SOL    HW2 3201   5.802   5.857   2.348
  768SOL     OW 3202   1.682   6.368   1.406
  768SOL    HW1 3203   1.630   6.311   1.470
  768SOL    HW2 3204   1.623   6.397   1.331
  769SOL     OW 3205   3.361   0.667   4.352
  769SOL    HW1 3206   3.374   0.693   4.447
  769SOL    HW2 3207   3.380   0.745   4.293
  770SOL     OW 3208   2.064   3.612   3.111
  770SOL    HW1 3209   2.102   3.520   3.118
  770SOL    HW2 3210   1.964   3.607   3.116
  771SOL     OW 3211   2.019   5.472   1.985
  771SOL    HW1 3212   2.033   5.532   2.063
  771SOL    HW2 3213   2.103   5.468   1.930
  772SOL     OW 3214   5.961   5.309   0.754
  772SOL    HW1 3215   6.045   5.359   0.736
  772SOL    HW2 3216   5.929   5.330   0.847
  773SOL     OW 3217   0.394   3.961   4.232
  773SOL    HW1 3218   0.425   4.023   4.160
  773SOL    HW2 3219   0.355   4.014   4.307
  774SOL     OW 3220   1.520   2.072   1.367
  774SOL    HW1 3221   1.466   2.148   1.403
  774SOL    HW2 3222   1.613   2.078   1.403
  775SOL     OW 3223   0.766   2.297   2.627
  775SOL    HW1 3224   0.686   2.301   2.567
  775SOL    HW2 3225   0.770   2.208   2.673
  776SOL     OW 3226   0.856   7.020   5.718
  776SOL    HW1 3227   0.804   6.999   5.800
  776SOL    HW2 3228   0.838   6.951   5.648
  777SOL     OW 3229   3.054   4.955   0.893
  777SOL    HW1 3230   3.029   5.015   0.817
  777SOL    HW2 3231   3.121   5.002   0.951
  778SOL     OW 3232   3.314   1.271   2.841
  778SOL    HW1 3233   3.337   1.274   2.744
  778SOL    HW2 3234   3.351   1.187   2.882
  779SOL     OW 3235   0.373   2.315   2.704
  779SOL    HW1 3236   0.280   2.310   2.668
  779SOL    HW2 3237   0.371   2.346   2.799
  780SOL     OW 3238   5.814   3.927   3.733
  780SOL    HW1 3239   5.836   3.905   3.639
  780SOL    HW2 3240   5.897   3.923   3.789
  781SOL     OW 3241   5.488   1.337   0.318
  781SOL    HW1 3242   5.428   1.264   0.284
  781SOL    HW2 3243   5.460   1.363   0.411
  782SOL     OW 3244   1.846   4.104   6.708
  782SOL    HW1 3245   1.783   4.153   6.647
  782SOL    HW2 3246   1.844   4.006   6.687
  783SOL     OW 3247   4.127   4.841   1.096
  783SOL    HW1 3248   4.046   4.841   1.155
  783SOL    HW2 3249   4.209   4.845   1.153
  784SOL     OW 3250   5.171   6.678   6.959
  784SOL    HW1 3251   5.096   6.680   6.893
  784SOL    HW2 3252   5.257   6.662   6.911
  785SOL     OW 3253   0.339   2.612   2.806
  785SOL    HW1 3254   0.389   2.699   2.809
  785SOL    HW2 3255   0.386   2.544   2.862
  786SOL     OW 3256   0.718   0.795   1.172
  786SOL    HW1 3257   0.781   0.852   1.119
  786SOL    HW2 3258   0.708   0.834   1.264
  787SOL     OW 3259   2.862   0.887   6.674
  787SOL    HW1 3260   2.837   0.963   6.734
  787SOL    HW2 3261   2.907   0.815   6.727
  788SOL     OW 3262   3.426   2.764   5.886
  788SOL    HW1 3263   3.516   2.781   5.928
  788SOL    HW2 3264   3.358   2.823   5.929
  789SOL     OW 3265   5.674   3.760   1.293
  789SOL    HW1 3266   5.661   3.801   1.203
  789SOL    HW2 3267   5.617   3.677   1.301
  790SOL     OW 3268   2.494   0.799   4.215
  790SOL    HW1 3269   2.521   0.755   4.130
  790SOL    HW2 3270   2.560   0.870   4.238
  791SOL     OW 3271   3.922   5.719   3.348
  791SOL    HW1 3272   3.920   5.818   3.334
  791SOL    HW2 3273   3.835   5.688   3.385
  792SOL     OW 3274   0.233   0.710   1.392
  792SOL    HW1 3275   0.237   0.638   1.461
  792SOL    HW2 3276   0.180   0.677   1.314
  793SOL     OW 3277   5.239   5.602   3.464
  793SOL    HW1 3278   5.315   5.566   3.518
  793SOL    HW2 3279   5.263   5.692   3.429
  794SOL     OW 3280   2.688   3.912   5.547
  794SOL    HW1 3281   2.714   3.841   5.481
  794SOL    HW2 3282   2.661   3.995   5.498
  795SOL     OW 3283   3.944   6.807   4.614
  795SOL    HW1 3284   4.009   6.823   4.540
  795SOL    HW2 3285   3.857   6.851   4.593
  796SOL     OW 3286   1.181   1.677   6.240
  796SOL    HW1 3287   1.207   1.661   6.145
  796SOL    HW2 3288   1.187   1.775   6.260
  797SOL     OW 3289   5.086   2.707   1.681
  797SOL    HW1 3290   5.061   2.804   1.677
  797SOL    HW2 3291   5.123   2.679   1.593
  798SOL     OW 3292   4.821   6.807   1.755
  798SOL    HW1 3293   4.755   6.882   1.759
  798SOL    HW2 3294   4.899   6.829   1.813
  799SOL     OW 3295   6.270   1.080   5.500
  799SOL    HW1 3296   6.346   1.138   5.529
  799SOL    HW2 3297   6.184   1.128   5.516
  800SOL     OW 3298   5.244   1.744   2.959
  800SOL    HW1 3299   5.207   1.754   2.867
  800SOL    HW2 3300   5.240   1.648   2.986
  801SOL     OW 3301   1.963   3.049   4.340
  801SOL    HW1 3302   1.906   2.989   4.284
  801SOL    HW2 3303   1.931   3.047   4.435
  802SOL     OW 3304   4.535   0.744   0.612
  802SOL    HW1 3305   4.583   0.678   0.555
  802SOL    HW2 3306   4.484   0.808   0.553
  803SOL     OW 3307   7.018   6.251   5.269
  803SOL    HW1 3308   7.019   6.316   5.344
  803SOL    HW2 3309   0.084   6.209   5.259
  804SOL     OW 3310   5.506   6.012   0.123
  804SOL    HW1 3311   5.544   5.928   0.163
  804SOL    HW2 3312   5.509   6.005   0.024
  805SOL     OW 3313   3.380   1.522   5.406
  805SOL    HW1 3314   3.424   1.544   5.493
  805SOL    HW2 3315   3.353   1.426   5.405
  806SOL     OW 3316   5.439   0.857   3.937
  806SOL    HW1 3317   5.460   0.760   3.950
  806SOL    HW2 3318   5.438   0.878   3.840
  807SOL     OW 3319   0.711   1.802   4.654
  807SOL    HW1 3320   0.672   1.715   4.626
  807SOL    HW2 3321   0.665   1.834   4.737
  808SOL     OW 3322   4.888   3.141   6.058
  808SOL    HW1 3323   4.969   3.086   6.081
  808SOL    HW2 3324   4.827   3.145   6.137
  809SOL     OW 3325   0.242   4.986   1.677
  809SOL    HW1 3326   0.175   5.016   1.609
  809SOL    HW2 3327   0.207   4.906   1.726
  810SOL     OW 3328   3.364   2.900   0.786
  810SOL    HW1 3329   3.279   2.846   0.784
  810SOL    HW2 3330   3.355   2.973   0.854
  811SOL     OW 3331   3.901   5.564   4.411
  811SOL    HW1 3332   3.876   5.611   4.327
  811SOL    HW2 3333   3.997   5.535   4.406
  812SOL     OW 3334   0.590   1.468   1.710
  812SOL    HW1 3335   0.515   1.482   1.775
  812SOL    HW2 3336   0.605   1.370   1.698
  813SOL     OW 3337   3.330   5.690   5.224
  813SOL    HW1 3338   3.420   5.717   5.190
  813SOL    HW2 3339   3.333   5.679   5.323
  814SOL     OW 3340   5.776   6.400   2.704
  814SOL    HW1 3341   5.693   6.414   2.758
  814SOL    HW2 3342   5.834   6.331   2.747
  815SOL     OW 3343   0.652   3.884   2.999
  815SOL    HW1 3344   0.649   3.834   3.086
  815SOL    HW2 3345   0.572   3.860   2.945
  816SOL     OW 3346   6.376   6.795   0.387
  816SOL    HW1 3347   6.441   6.802   0.462
  816SOL    HW2 3348   6.387   6.874   0.325
  817SOL     OW 3349   2.214   3.844   1.450
  817SOL    HW1 3350   2.239   3.793   1.532
  817SOL    HW2 3351   2.178   3.781   1.381
  818SOL     OW 3352   6.491   2.661   1.415
  818SOL    HW1 3353   6.557   2.702   1.479
  818SOL    HW2 3354   6.404   2.709   1.421
  819SOL     OW 3355   5.454   2.958   3.287
  819SOL    HW1 3356   5.494   3.043   3.254
  819SOL    HW2 3357   5.442   2.895   3.210
  820SOL     OW 3358   2.529   3.217   5.633
  820SOL    HW1 3359   2.623   3.186   5.646
  820SOL    HW2 3360   2.512   3.297   5.691
  821SOL     OW 3361   1.981   4.111   0.226
  821SOL    HW1 3362   2.071   4.128   0.187
  821SOL    HW2 3363   1.986   4.036   0.292
  822SOL     OW 3364   1.773   4.144   4.594
  822SOL    HW1 3365   1.781   4.092   4.679
  822SOL    HW2 3366   1.720   4.227   4.610
  823SOL     OW 3367   4.963   4.001   5.869
  823SOL    HW1 3368   5.054   4.030   5.841
  823SOL    HW2 3369   4.918   4.075   5.920
  824SOL     OW 3370   5.341   1.372   5.182
  824SOL    HW1 3371   5.418   1.361   5.245
  824SOL    HW2 3372   5.374   1.409   5.095
  825SOL     OW 3373   1.733   4.117   0.762
  825SOL    HW1 3374   1.776   4.147   0.847
  825SOL    HW2 3375   1.746   4.187   0.692
  826SOL     OW 3376   4.992   3.294   5.874
  826SOL    HW1 3377   5.092   3.287   5.883
  826SOL    HW2 3378   4.949   3.240   5.947
  827SOL     OW 3379   3.150   4.497   6.284
  827SOL    HW1 3380   3.056   4.506   6.318
  827SOL    HW2 3381   3.181   4.403   6.298
  828SOL     OW 3382   5.348   6.262   5.738
  828SOL    HW1 3383   5.298   6.176   5.730
  828SOL    HW2 3384   5.284   6.335   5.763
  829SOL     OW 3385   2.922   3.256   3.601
  829SOL    HW1 3386   2.933   3.193   3.678
  829SOL    HW2 3387   2.849   3.223   3.541
  830SOL     OW 3388   4.845   4.642   0.013
  830SOL    HW1 3389   4.785   4.601   0.082
  830SOL    HW2 3390   4.852   4.581   6.959
  831SOL     OW 3391   5.448   0.969   6.564
  831SOL    HW1 3392   5.414   1.056   6.600
  831SOL    HW2 3393   5.424   0.961   6.467
  832SOL     OW 3394   2.937   0.608   1.440
  832SOL    HW1 3395   2.952   0.561   1.353
  832SOL    HW2 3396   2.839   0.617   1.457
  833SOL     OW 3397   0.664   3.970   6.402
  833SOL    HW1 3398   0.681   3.971   6.303
  833SOL    HW2 3399   0.579   4.019   6.422
  834SOL     OW 3400   2.870   3.762   0.944
  834SOL    HW1 3401   2.940   3.711   0.894
  834SOL    HW2 3402   2.846   3.711   1.027
  835SOL     OW 3403   3.440   0.742   4.613
  835SOL    HW1 3404   3.439   0.675   4.688
  835SOL    HW2 3405   3.440   0.834   4.651
  836SOL     OW 3406   3.829   6.720   6.482
  836SOL    HW1 3407   3.733   6.690   6.474
  836SOL    HW2 3408   3.835   6.795   6.548
  837SOL     OW 3409   5.530   6.608   0.062
  837SOL    HW1 3410   5.483   6.615   6.998
  837SOL    HW2 3411   5.465   6.580   0.132
  838SOL     OW 3412   2.132   0.054   4.347
  838SOL    HW1 3413   2.131   6.985   4.311
  838SOL    HW2 3414   2.039   0.090   4.347
  839SOL     OW 3415   2.577   2.416   1.969
  839SOL    HW1 3416   2.673   2.411   1.996
  839SOL    HW2 3417   2.564   2.496   1.909
  840SOL     OW 3418   5.892   6.923   6.895
  840SOL    HW1 3419   5.920   6.989   6.965
  840SOL    HW2 3420   5.967   6.860   6.878
  841SOL     OW 3421   4.453   5.125   0.566
  841SOL    HW1 3422   4.514   5.155   0.493
  841SOL    HW2 3423   4.364   5.169   0.555
  842SOL     OW 3424   4.458   6.061   4.713
  842SOL    HW1 3425   4.419   5.977   4.674
  842SOL    HW2 3426   4.478   6.047   4.810
  843SOL     OW 3427   2.289   1.839   6.945
  843SOL    HW1 3428   2.319   1.934   6.939
  843SOL    HW2 3429   2.366   1.778   6.926
  844SOL     OW 3430   6.093   0.199   1.282
  844SOL    HW1 3431   6.070   0.235   1.192
  844SOL    HW2 3432   6.066   0.265   1.352
  845SOL     OW 3433   5.656   4.435   5.200
  845SOL    HW1 3434   5.689   4.344   5.174
  845SOL    HW2 3435   5.710   4.504   5.154
  846SOL     OW 3436   2.475   1.871   0.196
  846SOL    HW1 3437   2.496   1.791   0.252
  846SOL    HW2 3438   2.377   1.875   0.178
  847SOL     OW 3439   1.452   4.007   0.821
  847SOL    HW1 3440   1.422   3.990   0.728
  847SOL    HW2 3441   1.537   4.061   0.819
  848SOL     OW 3442   5.912   0.902   6.623
  848SOL    HW1 3443   5.824   0.860   6.646
  848SOL    HW2 3444   5.918   0.914   6.524
  849SOL     OW 3445   0.659   4.804   5.710
  849SOL    HW1 3446   0.688   4.795   5.615
  849SOL    HW2 3447   0.638   4.900   5.729
  850SOL     OW 3448   5.882   1.148   4.200
  850SOL    HW1 3449   5.965   1.104   4.234
  850SOL    HW2 3450   5.851   1.100   4.118
  851SOL     OW 3451   0.569   0.951   2.202
  851SOL    HW1 3452   0.494   0.893   2.233
  851SOL    HW2 3453   0.557   1.043   2.237
  852SOL     OW 3454   1.074   2.550   0.358
  852SOL    HW1 3455   1.138   2.625   0.343
  852SOL    HW2 3456   1.083   2.517   0.452
  853SOL     OW 3457   2.027   4.459   2.409
  853SOL    HW1 3458   2.048   4.406   2.491
  853SOL    HW2 3459   1.945   4.422   2.365
  854SOL     OW 3460   4.439   6.283   1.831
  854SOL    HW1 3461   4.388   6.198   1.841
  854SOL    HW2 3462   4.475   6.311   1.920
  855SOL     OW 3463   0.212   0.353   1.279
  855SOL    HW1 3464   0.115   0.332   1.262
  855SOL    HW2 3465   0.269   0.285   1.231
  856SOL     OW 3466   1.918   1.654   5.111
  856SOL    HW1 3467   1.876   1.692   5.193
  856SOL    HW2 3468   2.017   1.647   5.125
  857SOL     OW 3469   6.085   4.202   2.392
  857SOL    HW1 3470   6.068   4.299   2.375
  857SOL    HW2 3471   6.145   4.165   2.322
  858SOL     OW 3472   2.655   4.159   1.075
  858SOL    HW1 3473   2.753   4.161   1.054
  858SOL    HW2 3474   2.618   4.068   1.055
  859SOL     OW 3475   4.711   5.598   6.504
  859SOL    HW1 3476   4.706   5.572   6.601
  859SOL    HW2 3477   4.656   5.534   6.451
  860SOL     OW 3478   4.142   4.008   0.315
  860SOL    HW1 3479   4.055   4.014   0.266
  860SOL    HW2 3480   4.175   4.101   0.335
  861SOL     OW 3481   3.081   0.359   4.553
  861SOL    HW1 3482   3.099   0.346   4.650
  861SOL    HW2 3483   3.151   0.314   4.499
  862SOL     OW 3484   0.437   4.303   5.685
  862SOL    HW1 3485   0.522   4.271   5.642
  862SOL    HW2 3486   0.457   4.373   5.752
  863SOL     OW 3487   0.487   0.131   0.376
  863SOL    HW1 3488   0.559   0.086   0.322
  863SOL    HW2 3489   0.447   0.206   0.324
  864SOL     OW 3490   4.771   4.607   3.640
  864SOL    HW1 3491   4.679   4.641   3.618
  864SOL    HW2 3492   4.817   4.578   3.556
  865SOL     OW 3493   1.921   6.602   5.731
  865SOL    HW1 3494   1.985   6.676   5.713
  865SOL    HW2 3495   1.931   6.532   5.660
  866SOL     OW 3496   2.096   2.839   1.787
  866SOL    HW1 3497   2.131   2.748   1.807
  866SOL    HW2 3498   2.169   2.896   1.750
  867SOL     OW 3499   3.769   2.953   1.017
  867SOL    HW1 3500   3.710   2.877   0.991
  867SOL    HW2 3501   3.863   2.934   0.987
  868SOL     OW 3502   6.202   6.969   1.229
  868SOL    HW1 3503   6.179   6.900   1.297
  868SOL    HW2 3504   6.136   0.019   1.233
  869SOL     OW 3505   6.432   5.425   3.453
  869SOL    HW1 3506   6.460   5.329   3.463
  869SOL    HW2 3507   6.332   5.429   3.442
  870SOL     OW 3508   5.474   3.692   0.552
  870SOL    HW1 3509   5.479   3.651   0.460
  870SOL    HW2 3510   5.491   3.791   0.545
  871SOL     OW 3511   5.396   3.888   2.846
  871SOL    HW1 3512   5.495   3.877   2.838
  871SOL    HW2 3513   5.353   3.859   2.760
  872SOL     OW 3514   6.009   4.504   4.141
  872SOL    HW1 3515   5.986   4.599   4.162
  872SOL    HW2 3516   5.998   4.488   4.043
  873SOL     OW 3517   5.908   6.946   3.913
  873SOL    HW1 3518   5.842   7.015   3.886
  873SOL    HW2 3519   5.964   6.981   3.988
  874SOL     OW 3520   0.930   4.850   4.865
  874SOL    HW1 3521   0.990   4.891   4.933
  874SOL    HW2 3522   0.922   4.910   4.786
  875SOL     OW 3523   4.181   2.800   0.717
  875SOL    HW1 3524   4.089   2.764   0.730
  875SOL    HW2 3525   4.242   2.727   0.687
  876SOL     OW 3526   0.270   5.965   3.241
  876SOL    HW1 3527   0.290   5.943   3.337
  876SOL    HW2 3528   0.171   5.970   3.228
  877SOL     OW 3529   3.564   4.336   0.490
  877SOL    HW1 3530   3.584   4.252   0.540
  877SOL    HW2 3531   3.468   4.358   0.500
  878SOL     OW 3532   4.287   6.351   5.424
  878SOL    HW1 3533   4.271   6.252   5.429
  878SOL    HW2 3534   4.248   6.395   5.504
  879SOL     OW 3535   2.831   2.179   1.820
  879SOL    HW1 3536   2.801   2.229   1.739
  879SOL    HW2 3537   2.832   2.242   1.898
  880SOL     OW 3538   2.925   4.502   6.422
  880SOL    HW1 3539   2.869   4.425   6.392
  880SOL    HW2 3540   2.872   4.561   6.483
  881SOL     OW 3541   4.396   4.587   5.427
  881SOL    HW1 3542   4.365   4.492   5.421
  881SOL    HW2 3543   4.390   4.618   5.522
  882SOL     OW 3544   1.476   1.664   4.293
  882SOL    HW1 3545   1.427   1.618   4.219
  882SOL    HW2 3546   1.411   1.695   4.362
  883SOL     OW 3547   4.987   5.481   5.825
  883SOL    HW1 3548   5.064   5.502   5.766
  883SOL    HW2 3549   4.926   5.416   5.779
  884SOL     OW 3550   6.988   3.246   0.559
  884SOL    HW1 3551   6.915   3.232   0.492
  884SOL    HW2 3552   6.992   3.343   0.584
  885SOL     OW 3553   5.057   6.128   7.021
  885SOL    HW1 3554   5.115   6.068   6.966
  885SOL    HW2 3555   5.066   6.222   6.988
  886SOL     OW 3556   3.285   0.086   0.609
  886SOL    HW1 3557   3.228   0.168   0.606
  886SOL    HW2 3558   3.239   0.011   0.561
  887SOL     OW 3559   4.336   0.151   4.342
  887SOL    HW1 3560   4.429   0.185   4.354
  887SOL    HW2 3561   4.285   0.213   4.282
  888SOL     OW 3562   5.984   6.786   3.081
  888SOL    HW1 3563   5.980   6.686   3.078
  888SOL    HW2 3564   6.044   6.815   3.156
  889SOL     OW 3565   1.656   6.510   5.096
  889SOL    HW1 3566   1.559   6.516   5.116
  889SOL    HW2 3567   1.685   6.592   5.046
  890SOL     OW 3568   2.612   5.196   2.222
  890SOL    HW1 3569   2.556   5.119   2.253
  890SOL    HW2 3570   2.591   5.277   2.276
  891SOL     OW 3571   6.139   3.676   1.594
  891SOL    HW1 3572   6.163   3.711   1.684
  891SOL    HW2 3573   6.156   3.746   1.525
  892SOL     OW 3574   4.300   3.862   0.144
  892SOL    HW1 3575   4.228   3.891   0.207
  892SOL    HW2 3576   4.380   3.921   0.155
  893SOL     OW 3577   2.248   1.290   2.154
  893SOL    HW1 3578   2.150   1.290   2.133
  893SOL    HW2 3579   2.298   1.245   2.080
  894SOL     OW 3580   1.924   2.729   4.395
  894SOL    HW1 3581   1.874   2.789   4.332
  894SOL    HW2 3582   1.981   2.666   4.343
  895SOL     OW 3583   1.959   5.728   4.562
  895SOL    HW1 3584   2.044   5.699   4.518
  895SOL    HW2 3585   1.966   5.715   4.660
  896SOL     OW 3586   5.074   0.101   2.177
  896SOL    HW1 3587   5.030   0.094   2.088
  896SOL    HW2 3588   5.020   0.051   2.245
  897SOL     OW 3589   5.629   0.771   0.128
  897SOL    HW1 3590   5.649   0.701   0.059
  897SOL    HW2 3591   5.713   0.821   0.151
  898SOL     OW 3592   4.017   5.651   2.745
  898SOL    HW1 3593   4.075   5.596   2.805
  898SOL    HW2 3594   3.989   5.734   2.793
  899SOL     OW 3595   0.105   5.005   0.118
  899SOL    HW1 3596   0.048   5.081   0.089
  899SOL    HW2 3597   0.051   4.941   0.173
  900SOL     OW 3598   5.087   6.597   1.586
  900SOL    HW1 3599   5.001   6.599   1.636
  900SOL    HW2 3600   5.090   6.674   1.522
  901SOL     OW 3601   0.731   1.119   5.434
  901SOL    HW1 3602   0.697   1.025   5.431
  901SOL    HW2 3603   0.826   1.121   5.402
  902SOL     OW 3604   0.059   2.260   6.492
  902SOL    HW1 3605   0.072   2.262   6.393
  902SOL    HW2 3606   0.148   2.255   6.538
  903SOL     OW 3607   6.989   4.073   6.390
  903SOL    HW1 3608   6.939   4.064   6.476
  903SOL    HW2 3609   0.061   4.053   6.405
  904SOL     OW 3610   1.424   1.948   4.142
  904SOL    HW1 3611   1.362   1.995   4.205
  904SOL    HW2 3612   1.455   1.863   4.183
  905SOL     OW 3613   4.116   3.240   5.877
  905SOL    HW1 3614   4.018   3.217   5.878
  905SOL    HW2 3615   4.170   3.157   5.866
  906SOL     OW 3616   7.015   3.896   5.949
  906SOL    HW1 3617   0.051   3.873   5.873
  906SOL    HW2 3618   6.930   3.844   5.941
  907SOL     OW 3619   5.350   3.081   3.539
  907SOL    HW1 3620   5.284   3.153   3.518
  907SOL    HW2 3621   5.442   3.113   3.514
  908SOL     OW 3622   1.737   6.250   3.483
  908SOL    HW1 3623   1.652   6.225   3.531
  908SOL    HW2 3624   1.725   6.338   3.438
  909SOL     OW 3625   1.901   6.679   1.231
  909SOL    HW1 3626   1.976   6.669   1.166
  909SOL    HW2 3627   1.932   6.653   1.323
  910SOL     OW 3628   2.445   7.024   0.532
  910SOL    HW1 3629   2.524   7.004   0.475
  910SOL    HW2 3630   2.471   0.066   0.603
  911SOL     OW 3631   0.024   6.041   1.030
  911SOL    HW1 3632   6.972   6.080   0.979
  911SOL    HW2 3633   7.015   5.967   1.089
  912SOL     OW 3634   6.381   1.444   4.950
  912SOL    HW1 3635   6.360   1.394   4.866
  912SOL    HW2 3636   6.295   1.467   4.997
  913SOL     OW 3637   2.249   0.403   2.976
  913SOL    HW1 3638   2.316   0.477   2.973
  913SOL    HW2 3639   2.292   0.321   3.013
  914SOL     OW 3640   2.513   5.586   5.187
  914SOL    HW1 3641   2.482   5.671   5.144
  914SOL    HW2 3642   2.612   5.588   5.200
  915SOL     OW 3643   1.208   3.148   0.274
  915SOL    HW1 3644   1.305   3.130   0.254
  915SOL    HW2 3645   1.151   3.106   0.204
  916SOL     OW 3646   1.432   2.729   2.267
  916SOL    HW1 3647   1.395   2.652   2.319
  916SOL    HW2 3648   1.447   2.807   2.327
  917SOL     OW 3649   5.295   0.629   1.429
  917SOL    HW1 3650   5.229   0.554   1.430
  917SOL    HW2 3651   5.263   0.703   1.489
  918SOL     OW 3652   2.616   5.882   6.832
  918SOL    HW1 3653   2.656   5.968   6.865
  918SOL    HW2 3654   2.631   5.875   6.733
  919SOL     OW 3655   6.917   5.694   2.506
  919SOL    HW1 3656   7.008   5.664   2.533
  919SOL    HW2 3657   6.850   5.626   2.535
  920SOL     OW 3658   1.547   6.926   3.231
  920SOL    HW1 3659   1.626   6.950   3.174
  920SOL    HW2 3660   1.464   6.960   3.188
  921SOL     OW 3661   5.041   4.623   4.345
  921SOL    HW1 3662   5.060   4.593   4.251
  921SOL    HW2 3663   4.959   4.681   4.345
  922SOL     OW 3664   3.296   3.057   6.883
  922SOL    HW1 3665   3.267   3.020   6.971
  922SOL    HW2 3666   3.357   3.134   6.898
  923SOL     OW 3667   3.193   4.880   6.570
  923SOL    HW1 3668   3.159   4.901   6.662
  923SOL    HW2 3669   3.156   4.791   6.541
  924SOL     OW 3670   6.153   2.741   1.847
  924SOL    HW1 3671   6.067   2.729   1.897
  924SOL    HW2 3672   6.195   2.651   1.831
  925SOL     OW 3673   6.386   1.588   5.574
  925SOL    HW1 3674   6.443   1.629   5.646
  925SOL    HW2 3675   6.397   1.639   5.489
  926SOL     OW 3676   6.351   0.999   0.144
  926SOL    HW1 3677   6.428   0.935   0.148
  926SOL    HW2 3678   6.269   0.949   0.117
  927SOL     OW 3679   5.328   4.473   3.761
  927SOL    HW1 3680   5.316   4.394   3.701
  927SOL    HW2 3681   5.364   4.443   3.850
  928SOL     OW 3682   1.896   0.475   0.339
  928SOL    HW1 3683   1.929   0.483   0.433
  928SOL    HW2 3684   1.974   0.472   0.276
  929SOL     OW 3685   0.109   1.632   0.601
  929SOL    HW1 3686   0.178   1.574   0.644
  929SOL    HW2 3687   0.025   1.579   0.589
  930SOL     OW 3688   5.685   5.777   4.713
  930SOL    HW1 3689   5.781   5.748   4.710
  930SOL    HW2 3690   5.626   5.703   4.681
  931SOL     OW 3691   6.324   3.401   3.535
  931SOL    HW1 3692   6.263   3.425   3.460
  931SOL    HW2 3693   6.271   3.379   3.616
  932SOL     OW 3694   1.999   0.273   1.625
  932SOL    HW1 3695   1.962   0.230   1.542
  932SOL    HW2 3696   1.924   0.287   1.690
  933SOL     OW 3697   0.371   5.695   2.665
  933SOL    HW1 3698   0.385   5.695   2.764
  933SOL    HW2 3699   0.325   5.780   2.638
  934SOL     OW 3700   2.076   0.648   4.616
  934SOL    HW1 3701   2.093   0.556   4.583
  934SOL    HW2 3702   2.039   0.644   4.709
  935SOL     OW 3703   5.310   3.641   5.153
  935SOL    HW1 3704   5.222   3.684   5.171
  935SOL    HW2 3705   5.342   3.593   5.235
  936SOL     OW 3706   1.560   0.873   6.418
  936SOL    HW1 3707   1.612   0.796   6.382
  936SOL    HW2 3708   1.470   0.876   6.375
  937SOL     OW 3709   5.087   2.016   5.046
  937SOL    HW1 3710   5.109   1.918   5.048
  937SOL    HW2 3711   5.116   2.059   5.131
  938SOL     OW 3712   0.278   4.992   6.350
  938SOL    HW1 3713   0.285   5.076   6.404
  938SOL    HW2 3714   0.329   5.003   6.264
  939SOL     OW 3715   5.074   1.678   5.033
  939SOL    HW1 3716   5.016   1.727   5.098
  939SOL    HW2 3717   5.037   1.586   5.018
  940SOL     OW 3718   0.446   2.855   2.778
  940SOL    HW1 3719   0.403   2.859   2.688
  940SOL    HW2 3720   0.520   2.922   2.782
  941SOL     OW 3721   6.542   0.498   4.427
  941SOL    HW1 3722   6.492   0.463   4.348
  941SOL    HW2 3723   6.581   0.422   4.478
  942SOL     OW 3724   4.989   1.008   4.124
  942SOL    HW1 3725   5.086   1.013   4.101
  942SOL    HW2 3726   4.966   0.915   4.152
  943SOL     OW 3727   1.155   2.871   3.578
  943SOL    HW1 3728   1.100   2.817   3.515
  943SOL    HW2 3729   1.200   2.945   3.528
  944SOL     OW 3730   6.140   3.366   6.167
  944SOL    HW1 3731   6.045   3.366   6.135
  944SOL    HW2 3732   6.161   3.454   6.208
  945SOL     OW 3733   6.953   4.119   5.806
  945SOL    HW1 3734   6.960   4.049   5.877
  945SOL    HW2 3735   0.020   4.152   5.782
  946SOL     OW 3736   5.153   2.695   6.365
  946SOL    HW1 3737   5.143   2.598   6.387
  946SOL    HW2 3738   5.246   2.713   6.333
  947SOL     OW 3739   2.980   3.226   4.823
  947SOL    HW1 3740   2.964   3.129   4.839
  947SOL    HW2 3741   3.072   3.251   4.854
  948SOL     OW 3742   4.490   0.701   0.870
  948SOL    HW1 3743   4.558   0.629   0.885
  948SOL    HW2 3744   4.501   0.738   0.778
  949SOL     OW 3745   0.024   6.404   6.458
  949SOL    HW1 3746   0.040   6.308   6.434
  949SOL    HW2 3747   7.017   6.454   6.377
  950SOL     OW 3748   4.171   5.234   1.922
  950SOL    HW1 3749   4.215   5.171   1.858
  950SOL    HW2 3750   4.207   5.219   2.014
  951SOL     OW 3751   1.467   0.555   2.294
  951SOL    HW1 3752   1.561   0.571   2.263
  951SOL    HW2 3753   1.468   0.523   2.388
  952SOL     OW 3754   5.739   1.824   2.107
  952SOL    HW1 3755   5.760   1.921   2.112
  952SOL    HW2 3756   5.801   1.773   2.166
  953SOL     OW 3757   5.335   6.049   5.362
  953SOL    HW1 3758   5.307   5.953   5.352
  953SOL    HW2 3759   5.256   6.104   5.389
  954SOL     OW 3760   5.068   5.705   0.592
  954SOL    HW1 3761   5.153   5.653   0.585
  954SOL    HW2 3762   5.082   5.797   0.555
  955SOL     OW 3763   7.006   5.006   3.408
  955SOL    HW1 3764   6.940   5.044   3.341
  955SOL    HW2 3765   6.962   4.999   3.497
  956SOL     OW 3766   0.893   2.179   2.369
  956SOL    HW1 3767   0.830   2.202   2.296
  956SOL    HW2 3768   0.930   2.263   2.409
  957SOL     OW 3769   1.119   4.873   4.554
  957SOL    HW1 3770   1.107   4.829   4.643
  957SOL    HW2 3771   1.121   4.802   4.483
  958SOL     OW 3772   4.674   2.578   1.780
  958SOL    HW1 3773   4.594   2.519   1.767
  958SOL    HW2 3774   4.650   2.672   1.760
  959SOL     OW 3775   2.617   4.725   3.091
  959SOL    HW1 3776   2.534   4.702   3.042
  959SOL    HW2 3777   2.692   4.740   3.026
  960SOL     OW 3778   0.071   5.814   3.996
  960SOL    HW1 3779   0.005   5.800   3.921
  960SOL    HW2 3780   0.051   5.901   4.042
  961SOL     OW 3781   5.000   0.108   3.316
  961SOL    HW1 3782   5.058   0.030   3.339
  961SOL    HW2 3783   4.990   0.114   3.217
  962SOL     OW 3784   1.734   1.161   4.613
  962SOL    HW1 3785   1.652   1.191   4.564
  962SOL    HW2 3786   1.787   1.241   4.643
  963SOL     OW 3787   6.557   1.426   5.940
  963SOL    HW1 3788   6.474   1.372   5.944
  963SOL    HW2 3789   6.572   1.457   5.846
  964SOL     OW 3790   6.428   3.652   0.627
  964SOL    HW1 3791   6.348   3.658   0.686
  964SOL    HW2 3792   6.428   3.564   0.580
  965SOL     OW 3793   5.595   2.041   1.278
  965SOL    HW1 3794   5.596   2.116   1.344
  965SOL    HW2 3795   5.626   2.074   1.189
  966SOL     OW 3796   5.354   1.650   2.372
  966SOL    HW1 3797   5.282   1.581   2.360
  966SOL    HW2 3798   5.345   1.693   2.461
  967SOL     OW 3799   2.538   4.935   1.402
  967SOL    HW1 3800   2.612   4.981   1.352
  967SOL    HW2 3801   2.527   4.977   1.492
  968SOL     OW 3802   4.601   2.622   2.321
  968SOL    HW1 3803   4.555   2.688   2.261
  968SOL    HW2 3804   4.699   2.641   2.323
  969SOL     OW 3805   4.303   5.798   6.895
  969SOL    HW1 3806   4.294   5.889   6.937
  969SOL    HW2 3807   4.388   5.795   6.842
  970SOL     OW 3808   4.671   1.417   4.804
  970SOL    HW1 3809   4.719   1.453   4.884
  970SOL    HW2 3810   4.612   1.488   4.766
  971SOL     OW 3811   0.522   1.950   3.220
  971SOL    HW1 3812   0.501   1.975   3.314
  971SOL    HW2 3813   0.577   2.023   3.179
  972SOL     OW 3814   5.859   4.045   1.315
  972SOL    HW1 3815   5.890   3.961   1.359
  972SOL    HW2 3816   5.854   4.118   1.384
  973SOL     OW 3817   6.630   4.271   0.091
  973SOL    HW1 3818   6.628   4.298   7.019
  973SOL    HW2 3819   6.687   4.190   0.102
  974SOL     OW 3820   4.676   0.205   2.505
  974SOL    HW1 3821   4.732   0.230   2.584
  974SOL    HW2 3822   4.713   0.249   2.423
  975SOL     OW 3823   1.987   6.115   6.251
  975SOL    HW1 3824   1.924   6.164   6.191
  975SOL    HW2 3825   1.959   6.020   6.259
  976SOL     OW 3826   6.344   3.008   2.494
  976SOL    HW1 3827   6.249   2.984   2.477
  976SOL    HW2 3828   6.355   3.035   2.590
  977SOL     OW 3829   2.158   0.961   3.914
  977SOL    HW1 3830   2.099   1.025   3.964
  977SOL    HW2 3831   2.253   0.989   3.923
  978SOL     OW 3832   4.338   4.335   5.553
  978SOL    HW1 3833   4.332   4.395   5.633
  978SOL    HW2 3834   4.254   4.281   5.545
  979SOL     OW 3835   0.100   1.581   1.561
  979SOL    HW1 3836   0.119   1.483   1.557
  979SOL    HW2 3837   0.076   1.614   1.469
  980SOL     OW 3838   4.568   2.215   4.110
  980SOL    HW1 3839   4.666   2.235   4.122
  980SOL    HW2 3840   4.515   2.297   4.131
  981SOL     OW 3841   1.697   1.302   5.013
  981SOL    HW1 3842   1.705   1.394   4.975
  981SOL    HW2 3843   1.778   1.280   5.066
  982SOL     OW 3844   2.685   1.833   3.227
  982SOL    HW1 3845   2.766   1.892   3.227
  982SOL    HW2 3846   2.713   1.737   3.231
  983SOL     OW 3847   5.648   2.235   3.709
  983SOL    HW1 3848   5.624   2.326   3.675
  983SOL    HW2 3849   5.565   2.178   3.711
  984SOL     OW 3850   2.860   1.184   3.825
  984SOL    HW1 3851   2.854   1.275   3.866
  984SOL    HW2 3852   2.908   1.190   3.737
  985SOL     OW 3853   5.014   4.807   6.240
  985SOL    HW1 3854   4.916   4.810   6.220
  985SOL    HW2 3855   5.037   4.717   6.277
  986SOL     OW 3856   5.361   4.536   0.392
  986SOL    HW1 3857   5.432   4.606   0.385
  986SOL    HW2 3858   5.360   4.500   0.485
  987SOL     OW 3859   4.550   6.577   1.297
  987SOL    HW1 3860   4.507   6.548   1.383
  987SOL    HW2 3861   4.614   6.651   1.315
  988SOL     OW 3862   3.317   2.966   2.146
  988SOL    HW1 3863   3.246   2.975   2.216
  988SOL    HW2 3864   3.273   2.953   2.057
  989SOL     OW 3865   6.500   1.236   5.586
  989SOL    HW1 3866   6.543   1.321   5.557
  989SOL    HW2 3867   6.565   1.182   5.639
  990SOL     OW 3868   4.535   1.145   1.894
  990SOL    HW1 3869   4.498   1.238   1.890
  990SOL    HW2 3870   4.626   1.147   1.935
  991SOL     OW 3871   1.914   2.424   5.154
  991SOL    HW1 3872   1.983   2.394   5.088
  991SOL    HW2 3873   1.943   2.511   5.194
  992SOL     OW 3874   0.984   3.650   1.310
  992SOL    HW1 3875   1.041   3.682   1.385
  992SOL    HW2 3876   0.906   3.599   1.346
  993SOL     OW 3877   1.153   4.634   1.920
  993SOL    HW1 3878   1.088   4.575   1.872
  993SOL    HW2 3879   1.216   4.577   1.972
  994SOL     OW 3880   3.334   3.813   2.850
  994SOL    HW1 3881   3.418   3.828   2.903
  994SOL    HW2 3882   3.352   3.749   2.776
  995SOL     OW 3883   3.389   2.811   6.236
  995SOL    HW1 3884   3.479   2.772   6.213
  995SOL    HW2 3885   3.393   2.910   6.226
  996SOL     OW 3886   1.952   4.424   4.579
  996SOL    HW1 3887   2.023   4.389   4.518
  996SOL    HW2 3888   1.979   4.514   4.614
  997SOL     OW 3889   6.782   0.726   2.559
  997SOL    HW1 3890   6.774   0.745   2.461
  997SOL    HW2 3891   6.778   0.812   2.610
  998SOL     OW 3892   4.772   6.482   3.981
  998SOL    HW1 3893   4.736   6.520   3.895
  998SOL    HW2 3894   4.848   6.421   3.961
  999SOL     OW 3895   5.331   5.272   1.693
  999SOL    HW1 3896   5.318   5.246   1.789
  999SOL    HW2 3897   5.248   5.253   1.641
 1000SOL     OW 3898   1.193   1.098   2.170
 1000SOL    HW1 3899   1.207   1.191   2.135
 1000SOL    HW2 3900   1.281   1.054   2.182
 1001SOL     OW 3901   5.776   7.014   0.741
 1001SOL    HW1 3902   5.806   6.990   0.833
 1001SOL    HW2 3903   5.826   6.960   0.674
 1002SOL     OW 3904   6.332   2.317   6.880
 1002SOL    HW1 3905   6.293   2.230   6.912
 1002SOL    HW2 3906   6.259   2.378   6.852
 1003SOL     OW 3907   2.056   6.343   1.432
 1003SOL    HW1 3908   2.013   6.294   1.356
 1003SOL    HW2 3909   1.998   6.339   1.512
 1004SOL     OW 3910   0.279   0.457   1.521
 1004SOL    HW1 3911   0.249   0.424   1.431
 1004SOL    HW2 3912   0.268   0.385   1.589
 1005SOL     OW 3913   0.583   1.530   2.940
 1005SOL    HW1 3914   0.493   1.545   2.982
 1005SOL    HW2 3915   0.595   1.593   2.863
 1006SOL     OW 3916   1.609   5.207   1.385
 1006SOL    HW1 3917   1.548   5.283   1.364
 1006SOL    HW2 3918   1.559   5.137   1.436
 1007SOL     OW 3919   5.291   0.210   4.289
 1007SOL    HW1 3920   5.344   0.185   4.370
 1007SOL    HW2 3921   5.198   0.234   4.317
 1008SOL     OW 3922   2.189   2.996   5.270
 1008SOL    HW1 3923   2.247   3.002   5.352
 1008SOL    HW2 3924   2.247   3.002   5.188
 1009SOL     OW 3925   0.122   6.482   4.605
 1009SOL    HW1 3926   0.092   6.575   4.588
 1009SOL    HW2 3927   0.148   6.439   4.518
 1010SOL     OW 3928   3.513   2.108   6.149
 1010SOL    HW1 3929   3.505   2.009   6.141
 1010SOL    HW2 3930   3.432   2.152   6.111
 1011SOL     OW 3931   2.323   5.455   2.599
 1011SOL    HW1 3932   2.358   5.531   2.544
 1011SOL    HW2 3933   2.258   5.402   2.545
 1012SOL     OW 3934   6.548   6.857   0.586
 1012SOL    HW1 3935   6.647   6.859   0.600
 1012SOL    HW2 3936   6.505   6.923   0.647
 1013SOL     OW 3937   1.061   1.317   6.339
 1013SOL    HW1 3938   1.027   1.407   6.368
 1013SOL    HW2 3939   1.144   1.295   6.390
 1014SOL     OW 3940   4.979   6.003   6.729
 1014SOL    HW1 3941   4.987   6.102   6.728
 1014SOL    HW2 3942   4.887   5.976   6.699
 1015SOL     OW 3943   2.226   6.407   5.650
 1015SOL    HW1 3944   2.138   6.401   5.603
 1015SOL    HW2 3945   2.224   6.352   5.733
 1016SOL     OW 3946   3.371   3.383   0.190
 1016SOL    HW1 3947   3.329   3.469   0.217
 1016SOL    HW2 3948   3.460   3.373   0.235
 1017SOL     OW 3949   4.409   2.803   1.250
 1017SOL    HW1 3950   4.393   2.721   1.196
 1017SOL    HW2 3951   4.363   2.881   1.208
 1018SOL     OW 3952   1.547   3.345   4.355
 1018SOL    HW1 3953   1.635   3.299   4.369
 1018SOL    HW2 3954   1.497   3.347   4.442
 1019SOL     OW 3955   0.667   0.213   6.774
 1019SOL    HW1 3956   0.765   0.195   6.791
 1019SOL    HW2 3957   0.656   0.305   6.737
 1020SOL     OW 3958   1.030   6.695   1.035
 1020SOL    HW1 3959   1.009   6.767   1.102
 1020SOL    HW2 3960   1.129   6.694   1.017
 1021SOL     OW 3961   5.969   1.362   1.491
 1021SOL    HW1 3962   5.947   1.410   1.576
 1021SOL    HW2 3963   5.987   1.266   1.510
 1022SOL     OW 3964   4.056   4.337   6.099
 1022SOL    HW1 3965   4.033   4.311   6.006
 1022SOL    HW2 3966   4.098   4.259   6.146
 1023SOL     OW 3967   0.245   6.894   1.839
 1023SOL    HW1 3968   0.228   6.808   1.790
 1023SOL    HW2 3969   0.343   6.908   1.850
 1024SOL     OW 3970   6.083   3.489   3.937
 1024SOL    HW1 3971   5.985   3.476   3.922
 1024SOL    HW2 3972   6.116   3.562   3.877
 1025SOL     OW 3973   3.305   3.747   0.760
 1025SOL    HW1 3974   3.209   3.727   0.778
 1025SOL    HW2 3975   3.349   3.666   0.722
 1026SOL     OW 3976   1.936   2.447   1.763
 1026SOL    HW1 3977   1.981   2.478   1.847
 1026SOL    HW2 3978   1.991   2.473   1.684
 1027SOL     OW 3979   3.043   6.039   0.780
 1027SOL    HW1 3980   3.017   6.083   0.866
 1027SOL    HW2 3981   3.007   5.945   0.780
 1028SOL     OW 3982   3.894   5.647   0.271
 1028SOL    HW1 3983   3.807   5.649   0.222
 1028SOL    HW2 3984   3.879   5.670   0.367
 1029SOL     OW 3985   1.213   0.522   6.822
 1029SOL    HW1 3986   1.127   0.572   6.819
 1029SOL    HW2 3987   1.195   0.424   6.832
 1030SOL     OW 3988   3.776   4.035   1.640
 1030SOL    HW1 3989   3.687   4.075   1.663
 1030SOL    HW2 3990   3.777   4.010   1.543
 1031SOL     OW 3991   4.986   5.401   0.819
 1031SOL    HW1 3992   5.019   5.339   0.890
 1031SOL    HW2 3993   4.903   5.364   0.777
 1032SOL     OW 3994   1.613   1.707   4.640
 1032SOL    HW1 3995   1.670   1.649   4.582
 1032SOL    HW2 3996   1.604   1.798   4.599
 1033SOL     OW 3997   1.469   6.480   0.937
 1033SOL    HW1 3998   1.381   6.528   0.934
 1033SOL    HW2 3999   1.529   6.518   0.866
 1034SOL     OW 4000   0.900   5.903   5.091
 1034SOL    HW1 4001   0.932   5.997   5.088
 1034SOL    HW2 4002   0.918   5.865   5.182
 1035SOL     OW 4003   1.463   0.694   3.635
 1035SOL    HW1 4004   1.548   0.644   3.651
 1035SOL    HW2 4005   1.428   0.672   3.544
 1036SOL     OW 4006   2.892   0.652   1.931
 1036SOL    HW1 4007   2.863   0.596   1.853
 1036SOL    HW2 4008   2.862   0.747   1.917
 1037SOL     OW 4009   1.799   0.975   1.239
 1037SOL    HW1 4010   1.895   0.970   1.211
 1037SOL    HW2 4011   1.793   0.958   1.337
 1038SOL     OW 4012   1.100   0.498   5.639
 1038SOL    HW1 4013   1.051   0.584   5.625
 1038SOL    HW2 4014   1.107   0.449   5.552
 1039SOL     OW 4015   3.050   2.824   5.712
 1039SOL    HW1 4016   3.104   2.806   5.629
 1039SOL    HW2 4017   3.112   2.838   5.789
 1040SOL     OW 4018   4.887   2.783   2.299
 1040SOL    HW1 4019   4.956   2.747   2.237
 1040SOL    HW2 4020   4.887   2.883   2.296
 1041SOL     OW 4021   6.342   6.709   4.268
 1041SOL    HW1 4022   6.287   6.625   4.272
 1041SOL    HW2 4023   6.351   6.748   4.360
 1042SOL     OW 4024   3.575   4.919   2.211
 1042SOL    HW1 4025   3.498   4.965   2.167
 1042SOL    HW2 4026   3.609   4.847   2.151
 1043SOL     OW 4027   4.436   1.523   5.033
 1043SOL    HW1 4028   4.355   1.468   5.053
 1043SOL    HW2 4029   4.516   1.479   5.073
 1044SOL     OW 4030   4.816   4.254   1.917
 1044SOL    HW1 4031   4.870   4.274   1.999
 1044SOL    HW2 4032   4.726   4.295   1.926
 1045SOL     OW 4033   3.017   6.433   2.793
 1045SOL    HW1 4034   3.005   6.380   2.709
 1045SOL    HW2 4035   2.972   6.385   2.869
 1046SOL     OW 4036   1.286   6.740   0.491
 1046SOL    HW1 4037   1.336   6.802   0.551
 1046SOL    HW2 4038   1.191   6.770   0.484
 1047SOL     OW 4039   1.003   6.247   2.220
 1047SOL    HW1 4040   1.074   6.209   2.280
 1047SOL    HW2 4041   1.041   6.326   2.171
 1048SOL     OW 4042   4.956   6.028   5.902
 1048SOL    HW1 4043   4.891   6.079   5.958
 1048SOL    HW2 4044   4.942   5.930   5.917
 1049SOL     OW 4045   6.431   4.807   3.886
 1049SOL    HW1 4046   6.460   4.716   3.856
 1049SOL    HW2 4047   6.511   4.866   3.893
 1050SOL     OW 4048   3.367   5.563   0.344
 1050SOL    HW1 4049   3.303   5.570   0.268
 1050SOL    HW2 4050   3.424   5.646   0.347
 1051SOL     OW 4051   2.895   5.388   0.932
 1051SOL    HW1 4052   2.985   5.431   0.927
 1051SOL    HW2 4053   2.825   5.452   0.901
 1052SOL     OW 4054   4.038   0.158   4.386
 1052SOL    HW1 4055   4.045   0.257   4.372
 1052SOL    HW2 4056   4.050   0.137   4.483
 1053SOL     OW 4057   5.232   5.184   3.441
 1053SOL    HW1 4058   5.323   5.215   3.414
 1053SOL    HW2 4059   5.190   5.132   3.365
 1054SOL     OW 4060   2.318   3.963   5.810
 1054SOL    HW1 4061   2.314   4.028   5.735
 1054SOL    HW2 4062   2.404   3.912   5.806
 1055SOL     OW 4063   6.103   6.487   4.268
 1055SOL    HW1 4064   6.062   6.515   4.354
 1055SOL    HW2 4065   6.033   6.480   4.197
 1056SOL     OW 4066   1.391   5.409   6.047
 1056SOL    HW1 4067   1.401   5.340   6.120
 1056SOL    HW2 4068   1.425   5.372   5.961
 1057SOL     OW 4069   3.705   3.215   2.888
 1057SOL    HW1 4070   3.738   3.219   2.982
 1057SOL    HW2 4071   3.777   3.178   2.829
 1058SOL     OW 4072   5.044   1.343   2.000
 1058SOL    HW1 4073   5.090   1.427   2.028
 1058SOL    HW2 4074   5.110   1.268   2.000
 1059SOL     OW 4075   2.345   6.921   1.216
 1059SOL    HW1 4076   2.259   6.917   1.165
 1059SOL    HW2 4077   2.364   7.016   1.241
 1060SOL     OW 4078   7.021   3.441   4.083
 1060SOL    HW1 4079   0.041   3.380   4.017
 1060SOL    HW2 4080   0.058   3.517   4.105
 1061SOL     OW 4081   5.029   3.915   2.065
 1061SOL    HW1 4082   5.069   3.921   1.973
 1061SOL    HW2 4083   5.082   3.971   2.128
 1062SOL     OW 4084   6.128   5.133   5.155
 1062SOL    HW1 4085   6.049   5.080   5.123
 1062SOL    HW2 4086   6.210   5.076   5.147
 1063SOL     OW 4087   1.350   4.466   1.568
 1063SOL    HW1 4088   1.264   4.432   1.532
 1063SOL    HW2 4089   1.400   4.392   1.613
 1064SOL     OW 4090   1.763   4.136   2.155
 1064SOL    HW1 4091   1.666   4.158   2.152
 1064SOL    HW2 4092   1.801   4.136   2.063
 1065SOL     OW 4093   4.585   0.671   4.291
 1065SOL    HW1 4094   4.532   0.737   4.345
 1065SOL    HW2 4095   4.653   0.627   4.349
 1066SOL     OW 4096   5.254   0.606   4.323
 1066SOL    HW1 4097   5.267   0.697   4.285
 1066SOL    HW2 4098   5.197   0.552   4.262
 1067SOL     OW 4099   1.409   3.066   6.768
 1067SOL    HW1 4100   1.320   3.076   6.723
 1067SOL    HW2 4101   1.402   3.100   6.862
 1068SOL     OW 4102   4.707   4.602   2.516
 1068SOL    HW1 4103   4.789   4.630   2.564
 1068SOL    HW2 4104   4.711   4.633   2.421
 1069SOL     OW 4105   4.877   4.736   1.164
 1069SOL    HW1 4106   4.778   4.727   1.179
 1069SOL    HW2 4107   4.924   4.731   1.253
 1070SOL     OW 4108   1.333   1.007   1.710
 1070SOL    HW1 4109   1.294   0.948   1.640
 1070SOL    HW2 4110   1.296   1.100   1.699
 1071SOL     OW 4111   3.277   6.504   3.783
 1071SOL    HW1 4112   3.186   6.463   3.778
 1071SOL    HW2 4113   3.344   6.433   3.801
 1072SOL     OW 4114   1.738   6.159   0.850
 1072SOL    HW1 4115   1.656   6.184   0.901
 1072SOL    HW2 4116   1.810   6.226   0.868
 1073SOL     OW 4117   3.447   6.519   2.804
 1073SOL    HW1 4118   3.391   6.446   2.842
 1073SOL    HW2 4119   3.457   6.506   2.705
 1074SOL     OW 4120   2.632   5.214   0.387
 1074SOL    HW1 4121   2.633   5.200   0.288
 1074SOL    HW2 4122   2.680   5.138   0.431
 1075SOL     OW 4123   4.480   6.010   4.100
 1075SOL    HW1 4124   4.415   5.944   4.062
 1075SOL    HW2 4125   4.517   5.974   4.186
 1076SOL     OW 4126   0.023   4.798   5.177
 1076SOL    HW1 4127   6.975   4.768   5.239
 1076SOL    HW2 4128   0.068   4.880   5.215
 1077SOL     OW 4129   5.816   0.562   0.613
 1077SOL    HW1 4130   5.744   0.544   0.680
 1077SOL    HW2 4131   5.779   0.551   0.521
 1078SOL     OW 4132   1.085   1.097   2.747
 1078SOL    HW1 4133   1.061   1.079   2.652
 1078SOL    HW2 4134   1.023   1.048   2.807
 1079SOL     OW 4135   1.622   6.056   2.183
 1079SOL    HW1 4136   1.581   6.126   2.125
 1079SOL    HW2 4137   1.721   6.065   2.181
 1080SOL     OW 4138   1.936   4.968   3.833
 1080SOL    HW1 4139   1.885   4.937   3.913
 1080SOL    HW2 4140   2.005   5.034   3.861
 1081SOL     OW 4141   0.351   6.540   5.794
 1081SOL    HW1 4142   0.411   6.581   5.725
 1081SOL    HW2 4143   0.258   6.536   5.757
 1082SOL     OW 4144   3.175   1.242   6.009
 1082SOL    HW1 4145   3.144   1.336   6.024
 1082SOL    HW2 4146   3.132   1.205   5.927
 1083SOL     OW 4147   3.931   4.221   1.177
 1083SOL    HW1 4148   3.890   4.237   1.267
 1083SOL    HW2 4149   3.893   4.137   1.138
 1084SOL     OW 4150   6.522   6.272   0.533
 1084SOL    HW1 4151   6.459   6.323   0.473
 1084SOL    HW2 4152   6.469   6.217   0.597
 1085SOL     OW 4153   1.380   4.414   3.434
 1085SOL    HW1 4154   1.396   4.496   3.379
 1085SOL    HW2 4155   1.397   4.435   3.531
 1086SOL     OW 4156   7.011   5.638   2.200
 1086SOL    HW1 4157   0.073   5.587   2.198
 1086SOL    HW2 4158   6.985   5.656   2.295
 1087SOL     OW 4159   6.201   3.074   5.774
 1087SOL    HW1 4160   6.171   3.149   5.715
 1087SOL    HW2 4161   6.160   2.989   5.743
 1088SOL     OW 4162   6.084   4.671   3.425
 1088SOL    HW1 4163   6.124   4.761   3.407
 1088SOL    HW2 4164   5.992   4.682   3.463
 1089SOL     OW 4165   1.017   0.570   4.362
 1089SOL    HW1 4166   1.069   0.602   4.441
 1089SOL    HW2 4167   0.995   0.648   4.304
 1090SOL     OW 4168   2.406   1.588   3.381
 1090SOL    HW1 4169   2.423   1.682   3.350
 1090SOL    HW2 4170   2.468   1.567   3.457
 1091SOL     OW 4171   1.962   2.973   5.070
 1091SOL    HW1 4172   2.034   3.015   5.014
 1091SOL    HW2 4173   1.997   2.956   5.162
 1092SOL     OW 4174   1.945   3.423   0.639
 1092SOL    HW1 4175   2.001   3.501   0.614
 1092SOL    HW2 4176   1.860   3.455   0.681
 1093SOL     OW 4177   2.119   1.968   2.477
 1093SOL    HW1 4178   2.048   2.012   2.423
 1093SOL    HW2 4179   2.153   2.032   2.546
 1094SOL     OW 4180   1.098   6.098   3.226
 1094SOL    HW1 4181   1.072   6.002   3.220
 1094SOL    HW2 4182   1.198   6.105   3.232
 1095SOL     OW 4183   0.193   2.308   5.670
 1095SOL    HW1 4184   0.180   2.273   5.762
 1095SOL    HW2 4185   0.288   2.292   5.642
 1096SOL     OW 4186   3.360   4.640   1.688
 1096SOL    HW1 4187   3.449   4.651   1.733
 1096SOL    HW2 4188   3.367   4.573   1.615
 1097SOL     OW 4189   1.586   4.174   3.903
 1097SOL    HW1 4190   1.547   4.098   3.850
 1097SOL    HW2 4191   1.668   4.144   3.950
 1098SOL     OW 4192   5.622   3.320   0.603
 1098SOL    HW1 4193   5.666   3.410   0.596
 1098SOL    HW2 4194   5.596   3.289   0.512
 1099SOL     OW 4195   3.889   1.597   4.817
 1099SOL    HW1 4196   3.934   1.672   4.865
 1099SOL    HW2 4197   3.846   1.630   4.733
 1100SOL     OW 4198   3.081   1.767   6.979
 1100SOL    HW1 4199   3.175   1.792   7.001
 1100SOL    HW2 4200   3.046   1.705   0.025
 1101SOL     OW 4201   6.084   2.558   0.421
 1101SOL    HW1 4202   6.178   2.548   0.386
 1101SOL    HW2 4203   6.026   2.488   0.380
 1102SOL     OW 4204   0.779   5.602   3.840
 1102SOL    HW1 4205   0.763   5.536   3.914
 1102SOL    HW2 4206   0.874   5.595   3.810
 1103SOL     OW 4207   2.849   1.539   0.869
 1103SOL    HW1 4208   2.941   1.559   0.836
 1103SOL    HW2 4209   2.812   1.461   0.818
 1104SOL     OW 4210   2.212   3.334   5.777
 1104SOL    HW1 4211   2.155   3.416   5.787
 1104SOL    HW2 4212   2.219   3.310   5.680
 1105SOL     OW 4213   5.678   3.672   4.832
 1105SOL    HW1 4214   5.681   3.751   4.771
 1105SOL    HW2 4215   5.767   3.626   4.831
 1106SOL     OW 4216   0.663   1.885   0.416
 1106SOL    HW1 4217   0.656   1.788   0.439
 1106SOL    HW2 4218   0.605   1.938   0.478
 1107SOL     OW 4219   1.074   0.429   6.243
 1107SOL    HW1 4220   1.023   0.344   6.238
 1107SOL    HW2 4221   1.078   0.461   6.338
 1108SOL     OW 4222   2.618   0.292   5.955
 1108SOL    HW1 4223   2.577   0.288   6.046
 1108SOL    HW2 4224   2.717   0.304   5.964
 1109SOL     OW 4225   4.307   6.571   4.795
 1109SOL    HW1 4226   4.280   6.631   4.871
 1109SOL    HW2 4227   4.329   6.481   4.831
 1110SOL     OW 4228   2.963   1.378   2.841
 1110SOL    HW1 4229   2.967   1.332   2.752
 1110SOL    HW2 4230   2.873   1.420   2.853
 1111SOL     OW 4231   5.470   5.483   0.166
 1111SOL    HW1 4232   5.473   5.543   0.246
 1111SOL    HW2 4233   5.512   5.531   0.088
 1112SOL     OW 4234   6.046   1.389   2.582
 1112SOL    HW1 4235   6.017   1.481   2.605
 1112SOL    HW2 4236   6.052   1.335   2.666
 1113SOL     OW 4237   6.834   3.516   2.993
 1113SOL    HW1 4238   6.928   3.515   3.026
 1113SOL    HW2 4239   6.822   3.593   2.930
 1114SOL     OW 4240   4.312   1.188   6.648
 1114SOL    HW1 4241   4.291   1.199   6.745
 1114SOL    HW2 4242   4.390   1.127   6.638
 1115SOL     OW 4243   4.500   3.123   0.059
 1115SOL    HW1 4244   4.515   3.030   0.092
 1115SOL    HW2 4245   4.418   3.161   0.103
 1116SOL     OW 4246   5.549   5.859   4.935
 1116SOL    HW1 4247   5.600   5.910   5.005
 1116SOL    HW2 4248   5.613   5.820   4.869
 1117SOL     OW 4249   2.222   2.874   1.461
 1117SOL    HW1 4250   2.311   2.890   1.418
 1117SOL    HW2 4251   2.223   2.910   1.554
 1118SOL     OW 4252   2.077   4.496   1.655
 1118SOL    HW1 4253   2.166   4.473   1.615
 1118SOL    HW2 4254   2.011   4.514   1.582
 1119SOL     OW 4255   4.146   4.074   1.402
 1119SOL    HW1 4256   4.109   4.107   1.488
 1119SOL    HW2 4257   4.127   4.140   1.330
 1120SOL     OW 4258   5.581   6.724   5.377
 1120SOL    HW1 4259   5.557   6.821   5.380
 1120SOL    HW2 4260   5.538   6.681   5.297
 1121SOL     OW 4261   5.100   4.322   2.371
 1121SOL    HW1 4262   5.133   4.298   2.462
 1121SOL    HW2 4263   5.066   4.416   2.372
 1122SOL     OW 4264   4.731   3.230   6.283
 1122SOL    HW1 4265   4.752   3.177   6.365
 1122SOL    HW2 4266   4.632   3.239   6.274
 1123SOL     OW 4267   5.463   1.404   2.815
 1123SOL    HW1 4268   5.363   1.404   2.819
 1123SOL    HW2 4269   5.498   1.329   2.871
 1124SOL     OW 4270   5.947   4.403   5.426
 1124SOL    HW1 4271   5.911   4.317   5.462
 1124SOL    HW2 4272   5.876   4.473   5.431
 1125SOL     OW 4273   2.706   1.696   5.123
 1125SOL    HW1 4274   2.762   1.616   5.142
 1125SOL    HW2 4275   2.764   1.777   5.115
 1126SOL     OW 4276   5.696   6.475   0.681
 1126SOL    HW1 4277   5.601   6.474   0.714
 1126SOL    HW2 4278   5.704   6.414   0.602
 1127SOL     OW 4279   4.516   5.574   5.274
 1127SOL    HW1 4280   4.602   5.556   5.321
 1127SOL    HW2 4281   4.460   5.491   5.274
 1128SOL     OW 4282   5.451   2.357   5.092
 1128SOL    HW1 4283   5.521   2.402   5.037
 1128SOL    HW2 4284   5.411   2.281   5.041
 1129SOL     OW 4285   3.632   0.333   6.640
 1129SOL    HW1 4286   3.663   0.420   6.679
 1129SOL    HW2 4287   3.696   0.302   6.570
 1130SOL     OW 4288   1.559   4.337   0.968
 1130SOL    HW1 4289   1.621   4.378   0.901
 1130SOL    HW2 4290   1.470   4.321   0.925
 1131SOL     OW 4291   0.347   6.427   6.045
 1131SOL    HW1 4292   0.333   6.499   6.113
 1131SOL    HW2 4293   0.365   6.467   5.956
 1132SOL     OW 4294   5.518   0.331   0.601
 1132SOL    HW1 4295   5.551   0.419   0.634
 1132SOL    HW2 4296   5.418   0.332   0.596
 1133SOL     OW 4297   0.712   1.394   0.577
 1133SOL    HW1 4298   0.780   1.360   0.642
 1133SOL    HW2 4299   0.628   1.341   0.587
 1134SOL     OW 4300   5.078   1.662   1.264
 1134SOL    HW1 4301   5.172   1.649   1.297
 1134SOL    HW2 4302   5.014   1.615   1.325
 1135SOL     OW 4303   2.853   1.437   2.137
 1135SOL    HW1 4304   2.766   1.453   2.091
 1135SOL    HW2 4305   2.848   1.353   2.190
 1136SOL     OW 4306   3.463   5.264   4.931
 1136SOL    HW1 4307   3.503   5.221   5.012
 1136SOL    HW2 4308   3.441   5.359   4.953
 1137SOL     OW 4309   1.372   2.038   6.592
 1137SOL    HW1 4310   1.336   2.104   6.658
 1137SOL    HW2 4311   1.461   2.004   6.624
 1138SOL     OW 4312   0.552   1.302   6.320
 1138SOL    HW1 4313   0.529   1.326   6.415
 1138SOL    HW2 4314   0.602   1.378   6.278
 1139SOL     OW 4315   2.863   6.018   1.190
 1139SOL    HW1 4316   2.920   6.006   1.271
 1139SOL    HW2 4317   2.816   5.932   1.169
 1140SOL     OW 4318   3.336   0.655   2.005
 1140SOL    HW1 4319   3.254   0.701   2.041
 1140SOL    HW2 4320   3.352   0.570   2.055
 1141SOL     OW 4321   6.379   6.482   6.585
 1141SOL    HW1 4322   6.320   6.561   6.567
 1141SOL    HW2 4323   6.418   6.489   6.677
 1142SOL     OW 4324   4.240   0.658   4.170
 1142SOL    HW1 4325   4.300   0.663   4.090
 1142SOL    HW2 4326   4.164   0.721   4.159
 1143SOL     OW 4327   2.172   2.957   2.421
 1143SOL    HW1 4328   2.207   2.985   2.331
 1143SOL    HW2 4329   2.215   3.012   2.492
 1144SOL     OW 4330   6.192   4.559   5.501
 1144SOL    HW1 4331   6.151   4.649   5.518
 1144SOL    HW2 4332   6.129   4.503   5.447
 1145SOL     OW 4333   0.399   4.712   2.314
 1145SOL    HW1 4334   0.401   4.649   2.236
 1145SOL    HW2 4335   0.423   4.804   2.284
 1146SOL     OW 4336   5.459   0.829   1.325
 1146SOL    HW1 4337   5.400   0.751   1.346
 1146SOL    HW2 4338   5.502   0.862   1.408
 1147SOL     OW 4339   1.891   4.669   0.821
 1147SOL    HW1 4340   1.847   4.760   0.822
 1147SOL    HW2 4341   1.914   4.644   0.727
 1148SOL     OW 4342   4.407   6.836   6.811
 1148SOL    HW1 4343   4.494   6.882   6.794
 1148SOL    HW2 4344   4.423   6.757   6.871
 1149SOL     OW 4345   6.168   3.888   3.346
 1149SOL    HW1 4346   6.135   3.973   3.387
 1149SOL    HW2 4347   6.255   3.862   3.390
 1150SOL     OW 4348   2.451   4.334   1.032
 1150SOL    HW1 4349   2.431   4.306   0.938
 1150SOL    HW2 4350   2.530   4.283   1.066
 1151SOL     OW 4351   4.728   5.452   0.058
 1151SOL    HW1 4352   4.699   5.356   0.058
 1151SOL    HW2 4353   4.671   5.504   0.122
 1152SOL     OW 4354   0.601   5.632   5.750
 1152SOL    HW1 4355   0.644   5.613   5.838
 1152SOL    HW2 4356   0.634   5.720   5.715
 1153SOL     OW 4357   2.209   0.222   2.045
 1153SOL    HW1 4358   2.167   0.144   2.091
 1153SOL    HW2 4359   2.139   0.275   1.997
 1154SOL     OW 4360   0.804   3.778   2.070
 1154SOL    HW1 4361   0.876   3.742   2.011
 1154SOL    HW2 4362   0.814   3.740   2.162
 1155SOL     OW 4363   2.806   4.964   6.880
 1155SOL    HW1 4364   2.842   4.906   6.807
 1155SOL    HW2 4365   2.796   4.909   6.963
 1156SOL     OW 4366   1.899   0.668   4.875
 1156SOL    HW1 4367   1.807   0.642   4.845
 1156SOL    HW2 4368   1.892   0.727   4.956
 1157SOL     OW 4369   6.186   1.134   4.849
 1157SOL    HW1 4370   6.224   1.215   4.803
 1157SOL    HW2 4371   6.141   1.162   4.934
 1158SOL     OW 4372   0.371   5.594   5.987
 1158SOL    HW1 4373   0.437   5.520   5.998
 1158SOL    HW2 4374   0.364   5.619   5.891
 1159SOL     OW 4375   5.197   6.941   3.357
 1159SOL    HW1 4376   5.195   6.863   3.294
 1159SOL    HW2 4377   5.278   6.934   3.415
 1160SOL     OW 4378   3.809   3.697   1.591
 1160SOL    HW1 4379   3.796   3.647   1.506
 1160SOL    HW2 4380   3.757   3.783   1.588
 1161SOL     OW 4381   4.965   0.480   6.056
 1161SOL    HW1 4382   5.008   0.420   6.124
 1161SOL    HW2 4383   5.036   0.531   6.007
 1162SOL     OW 4384   3.582   2.320   0.334
 1162SOL    HW1 4385   3.539   2.359   0.252
 1162SOL    HW2 4386   3.670   2.279   0.308
 1163SOL     OW 4387   6.232   3.216   1.846
 1163SOL    HW1 4388   6.320   3.177   1.872
 1163SOL    HW2 4389   6.162   3.145   1.848
 1164SOL     OW 4390   5.730   2.691   4.568
 1164SOL    HW1 4391   5.699   2.717   4.660
 1164SOL    HW2 4392   5.659   2.713   4.502
 1165SOL     OW 4393   1.815   4.434   4.337
 1165SOL    HW1 4394   1.853   4.396   4.421
 1165SOL    HW2 4395   1.879   4.499   4.298
 1166SOL     OW 4396   3.805   0.981   0.253
 1166SOL    HW1 4397   3.773   1.070   0.287
 1166SOL    HW2 4398   3.854   0.934   0.326
 1167SOL     OW 4399   3.776   0.013   6.475
 1167SOL    HW1 4400   3.686   7.022   6.516
 1167SOL    HW2 4401   3.773   7.015   6.377
 1168SOL     OW 4402   6.959   1.165   3.443
 1168SOL    HW1 4403   6.910   1.247   3.412
 1168SOL    HW2 4404   6.907   1.084   3.417
 1169SOL     OW 4405   5.860   3.307   6.711
 1169SOL    HW1 4406   5.772   3.339   6.678
 1169SOL    HW2 4407   5.920   3.288   6.633
 1170SOL     OW 4408   4.929   0.896   1.798
 1170SOL    HW1 4409   4.914   0.843   1.882
 1170SOL    HW2 4410   4.846   0.948   1.777
 1171SOL     OW 4411   2.516   6.483   6.749
 1171SOL    HW1 4412   2.427   6.511   6.783
 1171SOL    HW2 4413   2.523   6.505   6.651
 1172SOL     OW 4414   3.811   3.950   2.629
 1172SOL    HW1 4415   3.788   4.024   2.691
 1172SOL    HW2 4416   3.727   3.913   2.588
 1173SOL     OW 4417   3.276   6.994   5.677
 1173SOL    HW1 4418   3.261   6.907   5.723
 1173SOL    HW2 4419   3.209   0.036   5.709
 1174SOL     OW 4420   3.438   4.490   0.269
 1174SOL    HW1 4421   3.503   4.422   0.235
 1174SOL    HW2 4422   3.369   4.446   0.325
 1175SOL     OW 4423   4.525   3.379   6.501
 1175SOL    HW1 4424   4.525   3.362   6.402
 1175SOL    HW2 4425   4.551   3.296   6.550
 1176SOL     OW 4426   5.670   4.274   0.952
 1176SOL    HW1 4427   5.680   4.359   1.004
 1176SOL    HW2 4428   5.755   4.222   0.955
 1177SOL     OW 4429   0.338   1.537   5.813
 1177SOL    HW1 4430   0.352   1.502   5.720
 1177SOL    HW2 4431   0.266   1.607   5.812
 1178SOL     OW 4432   3.726   3.249   1.399
 1178SOL    HW1 4433   3.747   3.186   1.473
 1178SOL    HW2 4434   3.700   3.198   1.317
 1179SOL     OW 4435   2.881   5.463   6.978
 1179SOL    HW1 4436   2.804   5.520   6.950
 1179SOL    HW2 4437   2.857   5.412   0.036
 1180SOL     OW 4438   2.782   6.678   3.935
 1180SOL    HW1 4439   2.708   6.651   3.874
 1180SOL    HW2 4440   2.854   6.609   3.934
 1181SOL     OW 4441   6.808   2.951   4.701
 1181SOL    HW1 4442   6.795   2.887   4.625
 1181SOL    HW2 4443   6.722   2.997   4.721
 1182SOL     OW 4444   2.080   5.459   3.388
 1182SOL    HW1 4445   2.161   5.515   3.370
 1182SOL    HW2 4446   2.004   5.491   3.331
 1183SOL     OW 4447   3.610   6.155   1.549
 1183SOL    HW1 4448   3.652   6.070   1.518
 1183SOL    HW2 4449   3.544   6.135   1.621
 1184SOL     OW 4450   4.189   1.067   5.549
 1184SOL    HW1 4451   4.240   1.062   5.635
 1184SOL    HW2 4452   4.094   1.093   5.568
 1185SOL     OW 4453   1.736   0.238   0.251
 1185SOL    HW1 4454   1.794   0.319   0.263
 1185SOL    HW2 4455   1.761   0.192   0.165
 1186SOL     OW 4456   6.064   6.385   6.221
 1186SOL    HW1 4457   5.965   6.394   6.230
 1186SOL    HW2 4458   6.093   6.298   6.262
 1187SOL     OW 4459   5.132   6.193   5.488
 1187SOL    HW1 4460   5.123   6.134   5.568
 1187SOL    HW2 4461   5.042   6.228   5.462
 1188SOL     OW 4462   3.207   6.002   6.574
 1188SOL    HW1 4463   3.294   5.966   6.608
 1188SOL    HW2 4464   3.141   6.007   6.649
 1189SOL     OW 4465   5.458   0.599   2.013
 1189SOL    HW1 4466   5.471   0.561   1.921
 1189SOL    HW2 4467   5.450   0.699   2.006
 1190SOL     OW 4468   3.968   4.863   4.362
 1190SOL    HW1 4469   3.918   4.865   4.276
 1190SOL    HW2 4470   3.903   4.876   4.438
 1191SOL     OW 4471   4.203   6.168   5.102
 1191SOL    HW1 4472   4.115   6.211   5.079
 1191SOL    HW2 4473   4.191   6.108   5.181
 1192SOL     OW 4474   5.334   5.338   2.826
 1192SOL    HW1 4475   5.281   5.394   2.889
 1192SOL    HW2 4476   5.307   5.359   2.732
 1193SOL     OW 4477   0.166   0.014   5.166
 1193SOL    HW1 4478   0.094   0.068   5.122
 1193SOL    HW2 4479   0.130   6.949   5.192
 1194SOL     OW 4480   0.030   1.410   0.798
 1194SOL    HW1 4481   0.088   1.488   0.823
 1194SOL    HW2 4482   0.052   1.332   0.857
 1195SOL     OW 4483   6.104   3.132   1.440
 1195SOL    HW1 4484   6.020   3.148   1.389
 1195SOL    HW2 4485   6.087   3.067   1.514
 1196SOL     OW 4486   0.027   4.144   1.693
 1196SOL    HW1 4487   0.007   4.201   1.613
 1196SOL    HW2 4488   0.054   4.202   1.770
 1197SOL     OW 4489   4.290   6.866   4.675
 1197SOL    HW1 4490   4.287   6.770   4.704
 1197SOL    HW2 4491   4.296   6.870   4.576
 1198SOL     OW 4492   1.787   3.088   3.119
 1198SOL    HW1 4493   1.861   3.046   3.172
 1198SOL    HW2 4494   1.816   3.179   3.089
 1199SOL     OW 4495   3.589   2.991   3.586
 1199SOL    HW1 4496   3.596   3.071   3.646
 1199SOL    HW2 4497   3.647   3.003   3.506
 1200SOL     OW 4498   3.832   4.181   4.914
 1200SOL    HW1 4499   3.860   4.154   4.822
 1200SOL    HW2 4500   3.876   4.268   4.937
 1201SOL     OW 4501   0.239   1.251   4.191
 1201SOL    HW1 4502   0.198   1.306   4.264
 1201SOL    HW2 4503   0.297   1.181   4.230
 1202SOL     OW 4504   5.599   1.383   6.430
 1202SOL    HW1 4505   5.524   1.368   6.365
 1202SOL    HW2 4506   5.607   1.302   6.489
 1203SOL     OW 4507   6.598   6.510   1.591
 1203SOL    HW1 4508   6.524   6.576   1.602
 1203SOL    HW2 4509   6.681   6.558   1.561
 1204SOL     OW 4510   4.361   1.391   1.402
 1204SOL    HW1 4511   4.263   1.399   1.388
 1204SOL    HW2 4512   4.409   1.434   1.325
 1205SOL     OW 4513   4.473   3.265   6.236
 1205SOL    HW1 4514   4.487   3.246   6.138
 1205SOL    HW2 4515   4.386   3.225   6.265
 1206SOL     OW 4516   0.906   2.390   4.684
 1206SOL    HW1 4517   0.969   2.328   4.636
 1206SOL    HW2 4518   0.926   2.388   4.782
 1207SOL     OW 4519   0.315   6.735   6.873
 1207SOL    HW1 4520   0.320   6.834   6.882
 1207SOL    HW2 4521   0.229   6.702   6.912
 1208SOL     OW 4522   3.295   4.079   2.560
 1208SOL    HW1 4523   3.221   4.044   2.617
 1208SOL    HW2 4524   3.381   4.077   2.612
 1209SOL     OW 4525   5.264   0.054   4.868
 1209SOL    HW1 4526   5.179   0.041   4.817
 1209SOL    HW2 4527   5.338   0.007   4.820
 1210SOL     OW 4528   4.440   6.710   3.831
 1210SOL    HW1 4529   4.419   6.613   3.819
 1210SOL    HW2 4530   4.537   6.726   3.815
 1211SOL     OW 4531   1.365   3.003   3.404
 1211SOL    HW1 4532   1.444   3.059   3.428
 1211SOL    HW2 4533   1.344   3.015   3.307
 1212SOL     OW 4534   6.918   1.153   5.678
 1212SOL    HW1 4535   6.825   1.131   5.707
 1212SOL    HW2 4536   6.915   1.201   5.590
 1213SOL     OW 4537   5.431   3.008   4.029
 1213SOL    HW1 4538   5.500   2.965   3.972
 1213SOL    HW2 4539   5.389   2.939   4.088
 1214SOL     OW 4540   1.184   2.774   5.586
 1214SOL    HW1 4541   1.114   2.810   5.648
 1214SOL    HW2 4542   1.269   2.826   5.598
 1215SOL     OW 4543   1.857   5.274   2.030
 1215SOL    HW1 4544   1.919   5.350   2.010
 1215SOL    HW2 4545   1.821   5.285   2.123
 1216SOL     OW 4546   0.146   0.712   0.596
 1216SOL    HW1 4547   0.144   0.690   0.498
 1216SOL    HW2 4548   0.062   0.681   0.639
 1217SOL     OW 4549   3.305   5.594   1.541
 1217SOL    HW1 4550   3.381   5.543   1.580
 1217SOL    HW2 4551   3.232   5.532   1.515
 1218SOL     OW 4552   0.571   3.539   5.710
 1218SOL    HW1 4553   0.553   3.577   5.801
 1218SOL    HW2 4554   0.509   3.580   5.643
 1219SOL     OW 4555   4.816   5.044   2.192
 1219SOL    HW1 4556   4.893   4.986   2.165
 1219SOL    HW2 4557   4.806   5.118   2.125
 1220SOL     OW 4558   6.219   3.934   2.922
 1220SOL    HW1 4559   6.220   3.867   2.996
 1220SOL    HW2 4560   6.313   3.959   2.899
 1221SOL     OW 4561   5.835   4.102   6.104
 1221SOL    HW1 4562   5.738   4.088   6.082
 1221SOL    HW2 4563   5.879   4.013   6.116
 1222SOL     OW 4564   0.302   0.559   6.994
 1222SOL    HW1 4565   0.222   0.618   6.985
 1222SOL    HW2 4566   0.284   0.488   0.037
 1223SOL     OW 4567   4.538   1.150   0.813
 1223SOL    HW1 4568   4.545   1.249   0.822
 1223SOL    HW2 4569   4.620   1.115   0.766
 1224SOL     OW 4570   2.962   5.532   6.729
 1224SOL    HW1 4571   2.883   5.513   6.671
 1224SOL    HW2 4572   2.948   5.493   6.819
 1225SOL     OW 4573   3.861   2.431   1.160
 1225SOL    HW1 4574   3.884   2.337   1.133
 1225SOL    HW2 4575   3.785   2.429   1.225
 1226SOL     OW 4576   4.951   6.389   0.854
 1226SOL    HW1 4577   4.985   6.354   0.767
 1226SOL    HW2 4578   4.892   6.321   0.897
 1227SOL     OW 4579   5.305   5.006   6.514
 1227SOL    HW1 4580   5.393   4.989   6.470
 1227SOL    HW2 4581   5.316   5.000   6.613
 1228SOL     OW 4582   3.827   2.497   0.872
 1228SOL    HW1 4583   3.804   2.494   0.969
 1228SOL    HW2 4584   3.793   2.415   0.826
 1229SOL     OW 4585   1.756   5.911   1.344
 1229SOL    HW1 4586   1.676   5.951   1.299
 1229SOL    HW2 4587   1.775   5.821   1.305
 1230SOL     OW 4588   5.378   5.241   2.470
 1230SOL    HW1 4589   5.393   5.340   2.468
 1230SOL    HW2 4590   5.463   5.195   2.495
 1231SOL     OW 4591   1.295   1.845   5.885
 1231SOL    HW1 4592   1.332   1.867   5.795
 1231SOL    HW2 4593   1.357   1.881   5.956
 1232SOL     OW 4594   5.611   1.422   5.667
 1232SOL    HW1 4595   5.670   1.466   5.599
 1232SOL    HW2 4596   5.667   1.364   5.726
 1233SOL     OW 4597   0.578   5.954   3.887
 1233SOL    HW1 4598   0.671   5.978   3.862
 1233SOL    HW2 4599   0.530   5.915   3.808
 1234SOL     OW 4600   6.246   2.672   5.526
 1234SOL    HW1 4601   6.267   2.764   5.493
 1234SOL    HW2 4602   6.309   2.606   5.485
 1235SOL     OW 4603   6.227   4.488   1.263
 1235SOL    HW1 4604   6.155   4.461   1.199
 1235SOL    HW2 4605   6.316   4.462   1.227
 1236SOL     OW 4606   4.260   1.472   1.899
 1236SOL    HW1 4607   4.255   1.522   1.986
 1236SOL    HW2 4608   4.355   1.464   1.871
 1237SOL     OW 4609   1.427   5.678   4.851
 1237SOL    HW1 4610   1.481   5.758   4.825
 1237SOL    HW2 4611   1.374   5.646   4.773
 1238SOL     OW 4612   0.658   0.449   4.915
 1238SOL    HW1 4613   0.671   0.525   4.851
 1238SOL    HW2 4614   0.646   0.486   5.008
 1239SOL     OW 4615   6.661   6.377   5.752
 1239SOL    HW1 4616   6.626   6.306   5.691
 1239SOL    HW2 4617   6.599   6.456   5.750
 1240SOL     OW 4618   5.944   5.244   2.276
 1240SOL    HW1 4619   5.875   5.272   2.209
 1240SOL    HW2 4620   6.022   5.202   2.228
 1241SOL     OW 4621   6.330   4.991   5.094
 1241SOL    HW1 4622   6.385   5.073   5.112
 1241SOL    HW2 4623   6.364   4.946   5.011
 1242SOL     OW 4624   1.904   3.288   0.374
 1242SOL    HW1 4625   1.949   3.311   0.460
 1242SOL    HW2 4626   1.973   3.258   0.308
 1243SOL     OW 4627   0.052   1.328   4.374
 1243SOL    HW1 4628   6.985   1.364   4.356
 1243SOL    HW2 4629   0.045   1.250   4.437
 1244SOL     OW 4630   5.294   6.721   5.166
 1244SOL    HW1 4631   5.341   6.684   5.086
 1244SOL    HW2 4632   5.296   6.821   5.163
 1245SOL     OW 4633   5.924   5.080   0.390
 1245SOL    HW1 4634   5.907   4.982   0.384
 1245SOL    HW2 4635   5.874   5.117   0.469
 1246SOL     OW 4636   3.422   0.853   2.299
 1246SOL    HW1 4637   3.476   0.867   2.216
 1246SOL    HW2 4638   3.476   0.799   2.365
 1247SOL     OW 4639   5.633   0.234   5.280
 1247SOL    HW1 4640   5.721   0.233   5.326
 1247SOL    HW2 4641   5.590   0.324   5.291
 1248SOL     OW 4642   1.334   6.380   3.752
 1248SOL    HW1 4643   1.370   6.423   3.669
 1248SOL    HW2 4644   1.253   6.430   3.783
 1249SOL     OW 4645   0.421   3.560   1.689
 1249SOL    HW1 4646   0.441   3.464   1.706
 1249SOL    HW2 4647   0.428   3.579   1.591
 1250SOL     OW 4648   6.378   4.218   4.060
 1250SOL    HW1 4649   6.320   4.141   4.087
 1250SOL    HW2 4650   6.465   4.182   4.024
 1251SOL     OW 4651   2.354   0.847   2.432
 1251SOL    HW1 4652   2.405   0.880   2.512
 1251SOL    HW2 4653   2.262   0.887   2.434
 1252SOL     OW 4654   4.014   4.686   6.532
 1252SOL    HW1 4655   3.947   4.755   6.507
 1252SOL    HW2 4656   4.082   4.678   6.459
 1253SOL     OW 4657   2.733   0.199   1.796
 1253SOL    HW1 4658   2.739   0.123   1.731
 1253SOL    HW2 4659   2.643   0.242   1.788
 1254SOL     OW 4660   6.915   2.895   3.436
 1254SOL    HW1 4661   6.958   2.819   3.386
 1254SOL    HW2 4662   6.830   2.920   3.391
 1255SOL     OW 4663   6.440   2.972   5.952
 1255SOL    HW1 4664   6.362   2.911   5.935
 1255SOL    HW2 4665   6.409   3.049   6.009
 1256SOL     OW 4666   0.239   6.332   3.991
 1256SOL    HW1 4667   0.172   6.370   3.928
 1256SOL    HW2 4668   0.252   6.235   3.971
 1257SOL     OW 4669   6.937   5.165   4.394
 1257SOL    HW1 4670   6.960   5.101   4.467
 1257SOL    HW2 4671   6.875   5.235   4.430
 1258SOL     OW 4672   2.326   5.094   2.931
 1258SOL    HW1 4673   2.328   5.137   3.022
 1258SOL    HW2 4674   2.240   5.116   2.885
 1259SOL     OW 4675   3.753   6.271   5.249
 1259SOL    HW1 4676   3.724   6.225   5.333
 1259SOL    HW2 4677   3.676   6.276   5.186
 1260SOL     OW 4678   3.103   1.223   1.118
 1260SOL    HW1 4679   3.066   1.255   1.205
 1260SOL    HW2 4680   3.138   1.301   1.066
 1261SOL     OW 4681   0.147   4.248   6.997
 1261SOL    HW1 4682   0.171   4.234   6.901
 1261SOL    HW2 4683   0.149   4.345   7.018
 1262SOL     OW 4684   5.066   5.528   1.688
 1262SOL    HW1 4685   4.994   5.598   1.687
 1262SOL    HW2 4686   5.062   5.475   1.604
 1263SOL     OW 4687   6.462   1.275   1.307
 1263SOL    HW1 4688   6.370   1.236   1.308
 1263SOL    HW2 4689   6.481   1.316   1.396
 1264SOL     OW 4690   0.645   3.852   1.376
 1264SOL    HW1 4691   0.716   3.854   1.446
 1264SOL    HW2 4692   0.625   3.946   1.346
 1265SOL     OW 4693   6.352   5.077   3.843
 1265SOL    HW1 4694   6.354   5.016   3.765
 1265SOL    HW2 4695   6.375   5.026   3.926
 1266SOL     OW 4696   1.584   0.994   4.163
 1266SOL    HW1 4697   1.504   1.045   4.193
 1266SOL    HW2 4698   1.576   0.899   4.194
 1267SOL     OW 4699   5.723   6.724   1.179
 1267SOL    HW1 4700   5.719   6.627   1.202
 1267SOL    HW2 4701   5.636   6.752   1.138
 1268SOL     OW 4702   4.831   2.340   0.239
 1268SOL    HW1 4703   4.770   2.280   0.291
 1268SOL    HW2 4704   4.810   2.435   0.259
 1269SOL     OW 4705   6.210   6.308   5.802
 1269SOL    HW1 4706   6.284   6.241   5.808
 1269SOL    HW2 4707   6.123   6.265   5.825
 1270SOL     OW 4708   2.246   3.034   4.651
 1270SOL    HW1 4709   2.318   3.025   4.720
 1270SOL    HW2 4710   2.263   2.970   4.576
 1271SOL     OW 4711   3.235   2.092   3.647
 1271SOL    HW1 4712   3.287   2.073   3.731
 1271SOL    HW2 4713   3.138   2.073   3.663
 1272SOL     OW 4714   6.101   5.744   0.497
 1272SOL    HW1 4715   6.169   5.705   0.559
 1272SOL    HW2 4716   6.097   5.689   0.413
 1273SOL     OW 4717   0.946   4.507   0.294
 1273SOL    HW1 4718   0.985   4.453   0.220
 1273SOL    HW2 4719   0.994   4.594   0.301
 1274SOL     OW 4720   6.261   3.029   1.241
 1274SOL    HW1 4721   6.358   3.025   1.264
 1274SOL    HW2 4722   6.209   3.065   1.319
 1275SOL     OW 4723   3.977   7.003   4.184
 1275SOL    HW1 4724   4.050   6.940   4.212
 1275SOL    HW2 4725   3.983   0.062   4.238
 1276SOL     OW 4726   7.012   0.685   4.547
 1276SOL    HW1 4727   6.963   0.702   4.461
 1276SOL    HW2 4728   7.017   0.586   4.563
 1277SOL     OW 4729   1.071   0.081   5.422
 1277SOL    HW1 4730   1.078   0.098   5.520
 1277SOL    HW2 4731   1.159   0.097   5.378
 1278SOL     OW 4732   1.191   0.746   5.049
 1278SOL    HW1 4733   1.122   0.818   5.061
 1278SOL    HW2 4734   1.247   0.739   5.132
 1279SOL     OW 4735   3.652   5.184   6.920
 1279SOL    HW1 4736   3.731   5.192   6.981
 1279SOL    HW2 4737   3.643   5.089   6.889
 1280SOL     OW 4738   3.496   5.567   4.093
 1280SOL    HW1 4739   3.451   5.592   4.007
 1280SOL    HW2 4740   3.580   5.517   4.073
 1281SOL     OW 4741   0.914   5.628   2.671
 1281SOL    HW1 4742   0.904   5.528   2.669
 1281SOL    HW2 4743   1.011   5.652   2.666
 1282SOL     OW 4744   6.968   0.964   6.375
 1282SOL    HW1 4745   6.877   0.934   6.344
 1282SOL    HW2 4746   0.001   0.983   6.296
 1283SOL     OW 4747   5.397   3.187   5.298
 1283SOL    HW1 4748   5.339   3.246   5.242
 1283SOL    HW2 4749   5.486   3.176   5.252
 1284SOL     OW 4750   4.682   2.383   2.157
 1284SOL    HW1 4751   4.629   2.301   2.180
 1284SOL    HW2 4752   4.661   2.456   2.223
 1285SOL     OW 4753   4.779   3.477   6.204
 1285SOL    HW1 4754   4.742   3.384   6.207
 1285SOL    HW2 4755   4.818   3.494   6.113
 1286SOL     OW 4756   5.083   3.895   2.567
 1286SOL    HW1 4757   5.050   3.845   2.646
 1286SOL    HW2 4758   5.050   3.851   2.483
 1287SOL     OW 4759   4.469   3.935   5.451
 1287SOL    HW1 4760   4.529   3.863   5.419
 1287SOL    HW2 4761   4.394   3.947   5.387
 1288SOL     OW 4762   5.754   3.437   0.324
 1288SOL    HW1 4763   5.691   3.361   0.343
 1288SOL    HW2 4764   5.826   3.407   0.262
 1289SOL     OW 4765   0.111   6.287   1.102
 1289SOL    HW1 4766   0.105   6.188   1.087
 1289SOL    HW2 4767   0.119   6.305   1.200
 1290SOL     OW 4768   0.856   0.254   7.007
 1290SOL    HW1 4769   0.807   0.338   0.006
 1290SOL    HW2 4770   0.900   0.265   6.918
 1291SOL     OW 4771   6.941   3.481   5.796
 1291SOL    HW1 4772   6.955   3.433   5.709
 1291SOL    HW2 4773   6.890   3.566   5.780
 1292SOL     OW 4774   6.249   6.024   2.577
 1292SOL    HW1 4775   6.338   5.997   2.614
 1292SOL    HW2 4776   6.243   5.997   2.481
 1293SOL     OW 4777   1.281   1.595   6.800
 1293SOL    HW1 4778   1.261   1.688   6.768
 1293SOL    HW2 4779   1.319   1.541   6.725
 1294SOL     OW 4780   1.806   3.565   6.920
 1294SOL    HW1 4781   1.740   3.634   6.889
 1294SOL    HW2 4782   1.833   3.586   7.014
 1295SOL     OW 4783   0.098   3.799   2.772
 1295SOL    HW1 4784   0.155   3.719   2.752
 1295SOL    HW2 4785   0.010   3.769   2.808
 1296SOL     OW 4786   3.542   0.431   6.104
 1296SOL    HW1 4787   3.579   0.376   6.178
 1296SOL    HW2 4788   3.447   0.455   6.124
 1297SOL     OW 4789   5.859   0.478   6.894
 1297SOL    HW1 4790   5.893   0.452   6.804
 1297SOL    HW2 4791   5.771   0.525   6.885
 1298SOL     OW 4792   6.554   4.659   3.301
 1298SOL    HW1 4793   6.608   4.735   3.337
 1298SOL    HW2 4794   6.485   4.694   3.237
 1299SOL     OW 4795   0.145   4.065   2.934
 1299SOL    HW1 4796   0.236   4.050   2.895
 1299SOL    HW2 4797   0.088   3.985   2.914
 1300SOL     OW 4798   3.578   4.024   2.022
 1300SOL    HW1 4799   3.602   4.103   2.079
 1300SOL    HW2 4800   3.560   3.945   2.081
 1301SOL     OW 4801   0.489   5.348   1.967
 1301SOL    HW1 4802   0.547   5.387   2.038
 1301SOL    HW2 4803   0.482   5.412   1.891
 1302SOL     OW 4804   3.475   0.032   5.426
 1302SOL    HW1 4805   3.437   0.100   5.488
 1302SOL    HW2 4806   3.445   0.052   5.332
 1303SOL     OW 4807   4.681   1.692   1.441
 1303SOL    HW1 4808   4.597   1.665   1.488
 1303SOL    HW2 4809   4.686   1.792   1.436
 1304SOL     OW 4810   1.134   1.071   7.003
 1304SOL    HW1 4811   1.099   1.120   0.059
 1304SOL    HW2 4812   1.108   1.121   6.920
 1305SOL     OW 4813   4.919   3.710   6.913
 1305SOL    HW1 4814   4.983   3.785   6.897
 1305SOL    HW2 4815   4.887   3.714   7.008
 1306SOL     OW 4816   0.849   4.031   5.715
 1306SOL    HW1 4817   0.857   4.101   5.785
 1306SOL    HW2 4818   0.871   4.071   5.626
 1307SOL     OW 4819   1.412   3.201   5.044
 1307SOL    HW1 4820   1.495   3.256   5.060
 1307SOL    HW2 4821   1.334   3.245   5.088
 1308SOL     OW 4822   4.041   5.468   5.096
 1308SOL    HW1 4823   4.027   5.478   5.195
 1308SOL    HW2 4824   3.957   5.434   5.054
 1309SOL     OW 4825   5.270   2.976   5.659
 1309SOL    HW1 4826   5.251   3.063   5.613
 1309SOL    HW2 4827   5.348   2.986   5.719
 1310SOL     OW 4828   0.125   4.149   5.022
 1310SOL    HW1 4829   0.204   4.196   5.060
 1310SOL    HW2 4830   0.150   4.055   4.999
 1311SOL     OW 4831   7.009   0.697   4.083
 1311SOL    HW1 4832   7.017   0.785   4.131
 1311SOL    HW2 4833   0.039   0.701   3.999
 1312SOL     OW 4834   0.882   0.129   6.324
 1312SOL    HW1 4835   0.824   0.207   6.298
 1312SOL    HW2 4836   0.948   0.159   6.392
 1313SOL     OW 4837   1.438   4.688   4.233
 1313SOL    HW1 4838   1.432   4.663   4.136
 1313SOL    HW2 4839   1.347   4.679   4.275
 1314SOL     OW 4840   3.657   1.530   5.554
 1314SOL    HW1 4841   3.687   1.587   5.630
 1314SOL    HW2 4842   3.642   1.436   5.587
 1315SOL     OW 4843   0.464   0.875   0.501
 1315SOL    HW1 4844   0.428   0.820   0.425
 1315SOL    HW2 4845   0.388   0.924   0.545
 1316SOL     OW 4846   2.733   6.501   4.594
 1316SOL    HW1 4847   2.656   6.551   4.634
 1316SOL    HW2 4848   2.711   6.478   4.499
 1317SOL     OW 4849   1.232   4.076   4.244
 1317SOL    HW1 4850   1.159   4.128   4.199
 1317SOL    HW2 4851   1.275   4.015   4.177
 1318SOL     OW 4852   0.493   1.246   0.516
 1318SOL    HW1 4853   0.411   1.207   0.475
 1318SOL    HW2 4854   0.571   1.234   0.454
 1319SOL     OW 4855   0.100   0.738   0.324
 1319SOL    HW1 4856   0.077   0.642   0.312
 1319SOL    HW2 4857   0.020   0.795   0.305
 1320SOL     OW 4858   5.694   4.250   0.435
 1320SOL    HW1 4859   5.683   4.260   0.534
 1320SOL    HW2 4860   5.791   4.261   0.411
 1321SOL     OW 4861   4.540   2.227   6.001
 1321SOL    HW1 4862   4.612   2.296   5.985
 1321SOL    HW2 4863   4.567   2.141   5.958
 1322SOL     OW 4864   4.291   0.387   3.632
 1322SOL    HW1 4865   4.259   0.300   3.668
 1322SOL    HW2 4866   4.261   0.461   3.693
 1323SOL     OW 4867   5.381   2.168   4.498
 1323SOL    HW1 4868   5.391   2.212   4.408
 1323SOL    HW2 4869   5.435   2.217   4.566
 1324SOL     OW 4870   0.918   2.693   0.632
 1324SOL    HW1 4871   0.836   2.641   0.655
 1324SOL    HW2 4872   0.934   2.763   0.702
 1325SOL     OW 4873   1.703   6.695   2.085
 1325SOL    HW1 4874   1.784   6.661   2.037
 1325SOL    HW2 4875   1.688   6.641   2.168
 1326SOL     OW 4876   4.757   2.809   5.042
 1326SOL    HW1 4877   4.784   2.888   4.987
 1326SOL    HW2 4878   4.768   2.725   4.987
 1327SOL     OW 4879   2.284   4.760   1.859
 1327SOL    HW1 4880   2.346   4.722   1.791
 1327SOL    HW2 4881   2.208   4.696   1.875
 1328SOL     OW 4882   1.697   2.842   0.871
 1328SOL    HW1 4883   1.644   2.757   0.873
 1328SOL    HW2 4884   1.693   2.881   0.779
 1329SOL     OW 4885   1.156   2.596   0.763
 1329SOL    HW1 4886   1.082   2.637   0.709
 1329SOL    HW2 4887   1.152   2.497   0.756
 1330SOL     OW 4888   6.675   1.224   1.599
 1330SOL    HW1 4889   6.659   1.139   1.549
 1330SOL    HW2 4890   6.593   1.282   1.593
 1331SOL     OW 4891   4.934   2.476   3.294
 1331SOL    HW1 4892   4.980   2.446   3.378
 1331SOL    HW2 4893   4.940   2.403   3.225
 1332SOL     OW 4894   3.126   0.021   0.225
 1332SOL    HW1 4895   3.137   6.974   0.155
 1332SOL    HW2 4896   3.216   0.058   0.249
 1333SOL     OW 4897   3.143   3.524   6.175
 1333SOL    HW1 4898   3.238   3.543   6.149
 1333SOL    HW2 4899   3.115   3.435   6.139
 1334SOL     OW 4900   6.865   2.547   4.818
 1334SOL    HW1 4901   6.776   2.502   4.808
 1334SOL    HW2 4902   6.866   2.598   4.904
 1335SOL     OW 4903   2.693   0.581   3.241
 1335SOL    HW1 4904   2.620   0.518   3.214
 1335SOL    HW2 4905   2.673   0.672   3.205
 1336SOL     OW 4906   2.004   0.805   6.801
 1336SOL    HW1 4907   1.945   0.763   6.870
 1336SOL    HW2 4908   1.952   0.874   6.751
 1337SOL     OW 4909   1.483   1.268   5.211
 1337SOL    HW1 4910   1.542   1.278   5.131
 1337SOL    HW2 4911   1.535   1.230   5.287
 1338SOL     OW 4912   5.423   2.787   6.252
 1338SOL    HW1 4913   5.399   2.861   6.316
 1338SOL    HW2 4914   5.493   2.820   6.188
 1339SOL     OW 4915   0.499   0.303   0.033
 1339SOL    HW1 4916   0.587   0.348   0.046
 1339SOL    HW2 4917   0.492   0.269   6.964
 1340SOL     OW 4918   0.375   1.847   1.908
 1340SOL    HW1 4919   0.352   1.892   1.994
 1340SOL    HW2 4920   0.294   1.842   1.850
 1341SOL     OW 4921   4.672   0.913   5.828
 1341SOL    HW1 4922   4.626   0.897   5.741
 1341SOL    HW2 4923   4.766   0.878   5.823
 1342SOL     OW 4924   1.538   4.775   6.276
 1342SOL    HW1 4925   1.443   4.750   6.294
 1342SOL    HW2 4926   1.594   4.692   6.268
 1343SOL     OW 4927   4.583   5.999   2.529
 1343SOL    HW1 4928   4.527   5.928   2.570
 1343SOL    HW2 4929   4.587   5.985   2.430
 1344SOL     OW 4930   6.890   4.340   3.872
 1344SOL    HW1 4931   6.928   4.259   3.917
 1344SOL    HW2 4932   6.947   4.366   3.795
 1345SOL     OW 4933   2.045   1.472   3.222
 1345SOL    HW1 4934   2.123   1.483   3.160
 1345SOL    HW2 4935   2.079   1.443   3.312
 1346SOL     OW 4936   1.340   6.849   3.606
 1346SOL    HW1 4937   1.269   6.865   3.675
 1346SOL    HW2 4938   1.328   6.914   3.530
 1347SOL     OW 4939   6.114   6.233   4.497
 1347SOL    HW1 4940   6.203   6.246   4.454
 1347SOL    HW2 4941   6.056   6.313   4.477
 1348SOL     OW 4942   5.248   4.726   3.203
 1348SOL    HW1 4943   5.303   4.742   3.286
 1348SOL    HW2 4944   5.270   4.635   3.167
 1349SOL     OW 4945   5.008   2.207   6.567
 1349SOL    HW1 4946   5.027   2.177   6.474
 1349SOL    HW2 4947   5.094   2.215   6.618
 1350SOL     OW 4948   4.734   4.162   6.000
 1350SOL    HW1 4949   4.747   4.239   6.062
 1350SOL    HW2 4950   4.725   4.196   5.906
 1351SOL     OW 4951   6.903   2.285   2.931
 1351SOL    HW1 4952   6.951   2.373   2.924
 1351SOL    HW2 4953   6.804   2.301   2.929
 1352SOL     OW 4954   6.839   0.272   3.307
 1352SOL    HW1 4955   6.874   0.332   3.234
 1352SOL    HW2 4956   6.843   0.177   3.276
 1353SOL     OW 4957   6.289   4.388   5.907
 1353SOL    HW1 4958   6.245   4.428   5.987
 1353SOL    HW2 4959   6.257   4.294   5.893
 1354SOL     OW 4960   0.927   1.935   0.341
 1354SOL    HW1 4961   0.950   2.016   0.287
 1354SOL    HW2 4962   0.829   1.936   0.361
 1355SOL     OW 4963   6.402   2.288   5.176
 1355SOL    HW1 4964   6.361   2.371   5.213
 1355SOL    HW2 4965   6.498   2.305   5.153
 1356SOL     OW 4966   3.067   3.113   3.809
 1356SOL    HW1 4967   3.042   3.174   3.884
 1356SOL    HW2 4968   3.121   3.037   3.844
 1357SOL     OW 4969   2.079   4.372   5.608
 1357SOL    HW1 4970   2.075   4.327   5.519
 1357SOL    HW2 4971   2.147   4.446   5.605
 1358SOL     OW 4972   4.341   1.471   5.715
 1358SOL    HW1 4973   4.362   1.525   5.796
 1358SOL    HW2 4974   4.243   1.474   5.697
 1359SOL     OW 4975   0.209   4.803   1.336
 1359SOL    HW1 4976   0.218   4.808   1.236
 1359SOL    HW2 4977   0.293   4.835   1.379
 1360SOL     OW 4978   4.110   3.780   1.868
 1360SOL    HW1 4979   4.168   3.836   1.809
 1360SOL    HW2 4980   4.075   3.836   1.943
 1361SOL     OW 4981   0.228   5.878   5.685
 1361SOL    HW1 4982   0.207   5.917   5.775
 1361SOL    HW2 4983   0.276   5.791   5.697
 1362SOL     OW 4984   3.083   3.941   3.893
 1362SOL    HW1 4985   3.176   3.965   3.917
 1362SOL    HW2 4986   3.020   3.977   3.962
 1363SOL     OW 4987   6.274   5.888   3.672
 1363SOL    HW1 4988   6.227   5.809   3.632
 1363SOL    HW2 4989   6.211   5.966   3.674
 1364SOL     OW 4990   0.407   2.229   0.158
 1364SOL    HW1 4991   0.457   2.152   0.196
 1364SOL    HW2 4992   0.313   2.228   0.193
 1365SOL     OW 4993   0.989   2.916   5.718
 1365SOL    HW1 4994   0.896   2.880   5.719
 1365SOL    HW2 4995   0.990   3.010   5.751
 1366SOL     OW 4996   1.208   4.211   0.186
 1366SOL    HW1 4997   1.120   4.230   0.144
 1366SOL    HW2 4998   1.258   4.296   0.201
 1367SOL     OW 4999   1.423   5.603   2.588
 1367SOL    HW1 5000   1.458   5.696   2.596
 1367SOL    HW2 5001   1.466   5.545   2.657
 1368SOL     OW 5002   6.824   6.885   3.366
 1368SOL    HW1 5003   6.810   6.793   3.403
 1368SOL    HW2 5004   6.870   6.878   3.277
 1369SOL     OW 5005   1.782   0.362   2.406
 1369SOL    HW1 5006   1.861   0.325   2.357
 1369SOL    HW2 5007   1.742   0.291   2.463
 1370SOL     OW 5008   4.814   1.580   3.825
 1370SOL    HW1 5009   4.826   1.500   3.884
 1370SOL    HW2 5010   4.774   1.550   3.738
 1371SOL     OW 5011   5.678   1.556   4.653
 1371SOL    HW1 5012   5.613   1.534   4.580
 1371SOL    HW2 5013   5.716   1.472   4.691
 1372SOL     OW 5014   1.282   2.096   0.740
 1372SOL    HW1 5015   1.184   2.075   0.743
 1372SOL    HW2 5016   1.326   2.062   0.824
 1373SOL     OW 5017   4.357   2.240   0.559
 1373SOL    HW1 5018   4.370   2.152   0.514
 1373SOL    HW2 5019   4.263   2.247   0.593
 1374SOL     OW 5020   4.346   2.278   1.252
 1374SOL    HW1 5021   4.388   2.197   1.295
 1374SOL    HW2 5022   4.275   2.314   1.311
 1375SOL     OW 5023   6.840   6.818   6.267
 1375SOL    HW1 5024   6.890   6.821   6.181
 1375SOL    HW2 5025   6.742   6.807   6.248
 1376SOL     OW 5026   4.303   4.826   5.070
 1376SOL    HW1 5027   4.230   4.887   5.039
 1376SOL    HW2 5028   4.299   4.741   5.017
 1377SOL     OW 5029   1.158   3.819   3.741
 1377SOL    HW1 5030   1.135   3.906   3.696
 1377SOL    HW2 5031   1.162   3.833   3.840
 1378SOL     OW 5032   6.168   2.376   4.509
 1378SOL    HW1 5033   6.106   2.315   4.558
 1378SOL    HW2 5034   6.121   2.413   4.428
 1379SOL     OW 5035   4.548   6.176   3.478
 1379SOL    HW1 5036   4.456   6.162   3.515
 1379SOL    HW2 5037   4.541   6.215   3.386
 1380SOL     OW 5038   0.572   6.586   3.324
 1380SOL    HW1 5039   0.491   6.635   3.290
 1380SOL    HW2 5040   0.623   6.548   3.247
 1381SOL     OW 5041   5.824   1.912   0.511
 1381SOL    HW1 5042   5.837   1.959   0.424
 1381SOL    HW2 5043   5.726   1.900   0.528
 1382SOL     OW 5044   5.920   3.385   1.250
 1382SOL    HW1 5045   6.014   3.383   1.218
 1382SOL    HW2 5046   5.859   3.408   1.173
 1383SOL     OW 5047   0.922   0.629   1.848
 1383SOL    HW1 5048   0.857   0.693   1.890
 1383SOL    HW2 5049   1.015   0.652   1.875
 1384SOL     OW 5050   4.266   0.977   1.858
 1384SOL    HW1 5051   4.252   1.003   1.762
 1384SOL    HW2 5052   4.358   1.003   1.886
 1385SOL     OW 5053   2.532   4.905   3.496
 1385SOL    HW1 5054   2.495   4.957   3.573
 1385SOL    HW2 5055   2.601   4.960   3.448
 1386SOL     OW 5056   3.116   1.115   4.440
 1386SOL    HW1 5057   3.113   1.039   4.505
 1386SOL    HW2 5058   3.093   1.081   4.349
 1387SOL     OW 5059   3.765   5.163   2.684
 1387SOL    HW1 5060   3.798   5.206   2.600
 1387SOL    HW2 5061   3.777   5.064   2.678
 1388SOL     OW 5062   6.717   0.331   3.026
 1388SOL    HW1 5063   6.670   0.391   3.091
 1388SOL    HW2 5064   6.654   0.303   2.955
 1389SOL     OW 5065   6.388   0.656   3.904
 1389SOL    HW1 5066   6.420   0.747   3.933
 1389SOL    HW2 5067   6.346   0.610   3.982
 1390SOL     OW 5068   6.844   3.091   6.459
 1390SOL    HW1 5069   6.827   3.109   6.362
 1390SOL    HW2 5070   6.766   3.043   6.498
 1391SOL     OW 5071   6.210   6.616   4.952
 1391SOL    HW1 5072   6.266   6.537   4.928
 1391SOL    HW2 5073   6.134   6.586   5.010
 1392SOL     OW 5074   6.230   6.459   5.592
 1392SOL    HW1 5075   6.218   6.411   5.679
 1392SOL    HW2 5076   6.182   6.546   5.596
 1393SOL     OW 5077   6.852   4.215   6.198
 1393SOL    HW1 5078   6.910   4.163   6.260
 1393SOL    HW2 5079   6.906   4.288   6.155
 1394SOL     OW 5080   3.529   5.409   5.709
 1394SOL    HW1 5081   3.502   5.417   5.805
 1394SOL    HW2 5082   3.526   5.313   5.682
 1395SOL     OW 5083   2.111   4.635   4.639
 1395SOL    HW1 5084   2.167   4.707   4.598
 1395SOL    HW2 5085   2.148   4.611   4.729
 1396SOL     OW 5086   0.555   1.831   5.178
 1396SOL    HW1 5087   0.569   1.735   5.201
 1396SOL    HW2 5088   0.634   1.885   5.204
 1397SOL     OW 5089   0.261   6.970   4.646
 1397SOL    HW1 5090   0.328   6.960   4.572
 1397SOL    HW2 5091   0.179   6.918   4.624
 1398SOL     OW 5092   3.050   1.223   6.799
 1398SOL    HW1 5093   3.071   1.128   6.822
 1398SOL    HW2 5094   3.127   1.281   6.827
 1399SOL     OW 5095   3.998   5.270   0.792
 1399SOL    HW1 5096   4.061   5.199   0.824
 1399SOL    HW2 5097   3.964   5.247   0.701
 1400SOL     OW 5098   0.145   1.824   4.070
 1400SOL    HW1 5099   0.160   1.752   4.003
 1400SOL    HW2 5100   0.149   1.785   4.162
 1401SOL     OW 5101   6.275   0.587   4.617
 1401SOL    HW1 5102   6.224   0.541   4.689
 1401SOL    HW2 5103   6.367   0.548   4.611
 1402SOL     OW 5104   5.825   4.007   6.435
 1402SOL    HW1 5105   5.789   3.947   6.507
 1402SOL    HW2 5106   5.909   3.968   6.399
 1403SOL     OW 5107   2.227   1.995   1.136
 1403SOL    HW1 5108   2.187   2.068   1.080
 1403SOL    HW2 5109   2.154   1.937   1.173
 1404SOL     OW 5110   6.642   0.159   6.830
 1404SOL    HW1 5111   6.553   0.180   6.869
 1404SOL    HW2 5112   6.631   0.098   6.752
 1405SOL     OW 5113   2.218   3.535   0.993
 1405SOL    HW1 5114   2.143   3.539   0.927
 1405SOL    HW2 5115   2.306   3.545   0.946
 1406SOL     OW 5116   0.750   5.613   0.554
 1406SOL    HW1 5117   0.785   5.636   0.644
 1406SOL    HW2 5118   0.670   5.669   0.533
 1407SOL     OW 5119   0.387   3.748   3.163
 1407SOL    HW1 5120   0.379   3.756   3.064
 1407SOL    HW2 5121   0.435   3.828   3.199
 1408SOL     OW 5122   5.352   1.478   5.617
 1408SOL    HW1 5123   5.447   1.455   5.639
 1408SOL    HW2 5124   5.291   1.431   5.680
 1409SOL     OW 5125   0.329   0.450   5.198
 1409SOL    HW1 5126   0.330   0.549   5.186
 1409SOL    HW2 5127   0.301   0.406   5.112
 1410SOL     OW 5128   1.532   4.290   6.165
 1410SOL    HW1 5129   1.533   4.301   6.066
 1410SOL    HW2 5130   1.600   4.223   6.192
 1411SOL     OW 5131   3.864   6.793   0.680
 1411SOL    HW1 5132   3.940   6.777   0.618
 1411SOL    HW2 5133   3.783   6.744   0.648
 1412SOL     OW 5134   1.284   2.289   1.293
 1412SOL    HW1 5135   1.339   2.369   1.269
 1412SOL    HW2 5136   1.218   2.271   1.219
 1413SOL     OW 5137   2.176   1.700   5.198
 1413SOL    HW1 5138   2.176   1.800   5.188
 1413SOL    HW2 5139   2.186   1.676   5.294
 1414SOL     OW 5140   2.603   1.630   1.605
 1414SOL    HW1 5141   2.574   1.586   1.690
 1414SOL    HW2 5142   2.703   1.627   1.599
 1415SOL     OW 5143   2.013   0.973   4.850
 1415SOL    HW1 5144   1.918   0.998   4.868
 1415SOL    HW2 5145   2.051   1.033   4.780
 1416SOL     OW 5146   4.266   4.966   4.400
 1416SOL    HW1 5147   4.306   4.914   4.325
 1416SOL    HW2 5148   4.166   4.962   4.395
 1417SOL     OW 5149   3.276   2.246   0.720
 1417SOL    HW1 5150   3.299   2.335   0.681
 1417SOL    HW2 5151   3.225   2.192   0.653
 1418SOL     OW 5152   3.528   4.136   2.708
 1418SOL    HW1 5153   3.601   4.105   2.770
 1418SOL    HW2 5154   3.555   4.223   2.667
 1419SOL     OW 5155   2.907   5.608   3.022
 1419SOL    HW1 5156   2.869   5.542   3.087
 1419SOL    HW2 5157   3.004   5.589   3.007
 1420SOL     OW 5158   1.733   6.368   1.888
 1420SOL    HW1 5159   1.680   6.438   1.841
 1420SOL    HW2 5160   1.795   6.324   1.823
 1421SOL     OW 5161   2.653   5.018   3.140
 1421SOL    HW1 5162   2.658   4.918   3.135
 1421SOL    HW2 5163   2.681   5.049   3.231
 1422SOL     OW 5164   1.092   4.160   6.726
 1422SOL    HW1 5165   1.099   4.150   6.626
 1422SOL    HW2 5166   1.140   4.084   6.770
 1423SOL     OW 5167   5.286   6.874   4.259
 1423SOL    HW1 5168   5.342   6.930   4.198
 1423SOL    HW2 5169   5.200   6.921   4.278
 1424SOL     OW 5170   6.627   4.300   6.845
 1424SOL    HW1 5171   6.550   4.243   6.818
 1424SOL    HW2 5172   6.636   4.376   6.781
 1425SOL     OW 5173   2.041   5.472   5.198
 1425SOL    HW1 5174   1.956   5.523   5.185
 1425SOL    HW2 5175   2.020   5.382   5.235
 1426SOL     OW 5176   2.162   3.257   6.475
 1426SOL    HW1 5177   2.253   3.297   6.474
 1426SOL    HW2 5178   2.163   3.174   6.532
 1427SOL     OW 5179   6.892   0.320   3.596
 1427SOL    HW1 5180   6.871   0.415   3.619
 1427SOL    HW2 5181   6.894   0.308   3.497
 1428SOL     OW 5182   0.639   2.290   6.818
 1428SOL    HW1 5183   0.688   2.353   6.757
 1428SOL    HW2 5184   0.683   2.200   6.815
 1429SOL     OW 5185   4.638   1.448   0.131
 1429SOL    HW1 5186   4.601   1.406   0.214
 1429SOL    HW2 5187   4.720   1.500   0.154
 1430SOL     OW 5188   1.679   5.224   4.159
 1430SOL    HW1 5189   1.736   5.142   4.155
 1430SOL    HW2 5190   1.730   5.299   4.202
 1431SOL     OW 5191   3.207   2.242   7.005
 1431SOL    HW1 5192   3.272   2.297   6.954
 1431SOL    HW2 5193   3.115   2.282   6.997
 1432SOL     OW 5194   2.479   1.811   1.449
 1432SOL    HW1 5195   2.509   1.796   1.354
 1432SOL    HW2 5196   2.500   1.730   1.504
 1433SOL     OW 5197   4.692   0.054   5.633
 1433SOL    HW1 5198   4.728   0.091   5.547
 1433SOL    HW2 5199   4.592   0.055   5.631
 1434SOL     OW 5200   1.166   0.487   5.957
 1434SOL    HW1 5201   1.163   0.562   6.022
 1434SOL    HW2 5202   1.165   0.524   5.864
 1435SOL     OW 5203   6.933   6.861   3.121
 1435SOL    HW1 5204   6.990   6.780   3.132
 1435SOL    HW2 5205   6.979   6.926   3.061
 1436SOL     OW 5206   5.280   4.087   6.021
 1436SOL    HW1 5207   5.222   4.083   6.102
 1436SOL    HW2 5208   5.358   4.147   6.038
 1437SOL     OW 5209   3.015   2.106   5.167
 1437SOL    HW1 5210   3.095   2.146   5.122
 1437SOL    HW2 5211   3.017   2.130   5.264
 1438SOL     OW 5212   2.383   6.705   1.790
 1438SOL    HW1 5213   2.347   6.704   1.696
 1438SOL    HW2 5214   2.330   6.771   1.844
 1439SOL     OW 5215   6.549   5.328   1.091
 1439SOL    HW1 5216   6.508   5.336   1.183
 1439SOL    HW2 5217   6.632   5.273   1.097
 1440SOL     OW 5218   3.387   3.262   6.464
 1440SOL    HW1 5219   3.487   3.264   6.464
 1440SOL    HW2 5220   3.352   3.319   6.537
 1441SOL     OW 5221   6.553   1.269   3.394
 1441SOL    HW1 5222   6.541   1.241   3.489
 1441SOL    HW2 5223   6.511   1.202   3.333
 1442SOL     OW 5224   6.594   5.956   6.631
 1442SOL    HW1 5225   6.504   5.912   6.636
 1442SOL    HW2 5226   6.588   6.048   6.669
 1443SOL     OW 5227   1.029   2.832   4.098
 1443SOL    HW1 5228   0.977   2.794   4.021
 1443SOL    HW2 5229   0.995   2.923   4.120
 1444SOL     OW 5230   4.822   5.192   1.019
 1444SOL    HW1 5231   4.761   5.248   0.962
 1444SOL    HW2 5232   4.892   5.151   0.961
 1445SOL     OW 5233   0.479   3.348   2.616
 1445SOL    HW1 5234   0.396   3.302   2.586
 1445SOL    HW2 5235   0.537   3.284   2.667
 1446SOL     OW 5236   5.170   2.394   0.204
 1446SOL    HW1 5237   5.267   2.374   0.214
 1446SOL    HW2 5238   5.127   2.400   0.294
 1447SOL     OW 5239   6.003   0.017   4.941
 1447SOL    HW1 5240   5.945   6.963   4.966
 1447SOL    HW2 5241   5.961   0.101   4.974
 1448SOL     OW 5242   0.061   2.147   5.408
 1448SOL    HW1 5243   7.004   2.194   5.442
 1448SOL    HW2 5244   0.034   2.076   5.343
 1449SOL     OW 5245   1.041   1.242   0.209
 1449SOL    HW1 5246   1.012   1.330   0.245
 1449SOL    HW2 5247   1.071   1.183   0.284
 1450SOL     OW 5248   0.724   2.191   1.217
 1450SOL    HW1 5249   0.671   2.275   1.233
 1450SOL    HW2 5250   0.775   2.168   1.300
 1451SOL     OW 5251   1.576   6.959   1.986
 1451SOL    HW1 5252   1.571   6.876   2.043
 1451SOL    HW2 5253   1.529   6.942   1.899
 1452SOL     OW 5254   4.480   1.132   4.695
 1452SOL    HW1 5255   4.401   1.143   4.756
 1452SOL    HW2 5256   4.486   1.212   4.635
 1453SOL     OW 5257   6.947   3.885   5.287
 1453SOL    HW1 5258   6.958   3.919   5.193
 1453SOL    HW2 5259   6.977   3.789   5.292
 1454SOL     OW 5260   0.122   3.394   2.105
 1454SOL    HW1 5261   0.173   3.342   2.173
 1454SOL    HW2 5262   0.146   3.363   2.013
 1455SOL     OW 5263   1.276   0.871   1.465
 1455SOL    HW1 5264   1.245   0.777   1.453
 1455SOL    HW2 5265   1.197   0.930   1.482
 1456SOL     OW 5266   6.706   6.237   5.477
 1456SOL    HW1 5267   6.703   6.337   5.487
 1456SOL    HW2 5268   6.780   6.213   5.414
 1457SOL     OW 5269   1.192   6.700   1.676
 1457SOL    HW1 5270   1.221   6.747   1.592
 1457SOL    HW2 5271   1.113   6.642   1.655
 1458SOL     OW 5272   5.431   5.533   3.605
 1458SOL    HW1 5273   5.445   5.449   3.552
 1458SOL    HW2 5274   5.468   5.519   3.697
 1459SOL     OW 5275   2.901   5.957   5.719
 1459SOL    HW1 5276   2.903   5.867   5.675
 1459SOL    HW2 5277   2.896   5.946   5.818
 1460SOL     OW 5278   0.548   6.270   5.278
 1460SOL    HW1 5279   0.469   6.305   5.327
 1460SOL    HW2 5280   0.543   6.170   5.275
 1461SOL     OW 5281   6.356   4.769   3.123
 1461SOL    HW1 5282   6.407   4.782   3.038
 1461SOL    HW2 5283   6.285   4.700   3.110
 1462SOL     OW 5284   1.256   0.198   6.841
 1462SOL    HW1 5285   1.294   0.127   6.782
 1462SOL    HW2 5286   1.237   0.159   6.931
 1463SOL     OW 5287   6.831   5.646   6.788
 1463SOL    HW1 5288   6.766   5.592   6.734
 1463SOL    HW2 5289   6.910   5.590   6.810
 1464SOL     OW 5290   0.012   6.573   1.350
 1464SOL    HW1 5291   0.087   6.631   1.380
 1464SOL    HW2 5292   6.949   6.616   1.372
 1465SOL     OW 5293   1.476   1.072   3.307
 1465SOL    HW1 5294   1.459   1.170   3.295
 1465SOL    HW2 5295   1.554   1.045   3.251
 1466SOL     OW 5296   1.766   2.221   2.118
 1466SOL    HW1 5297   1.835   2.178   2.060
 1466SOL    HW2 5298   1.751   2.316   2.089
 1467SOL     OW 5299   1.740   1.523   2.697
 1467SOL    HW1 5300   1.718   1.463   2.620
 1467SOL    HW2 5301   1.789   1.603   2.664
 1468SOL     OW 5302   3.649   6.058   2.216
 1468SOL    HW1 5303   3.555   6.091   2.201
 1468SOL    HW2 5304   3.697   6.122   2.276
 1469SOL     OW 5305   0.449   1.579   2.005
 1469SOL    HW1 5306   0.354   1.549   2.010
 1469SOL    HW2 5307   0.454   1.679   2.004
 1470SOL     OW 5308   1.196   2.080   2.651
 1470SOL    HW1 5309   1.142   1.997   2.664
 1470SOL    HW2 5310   1.198   2.103   2.553
 1471SOL     OW 5311   0.519   7.023   1.072
 1471SOL    HW1 5312   0.488   7.001   0.980
 1471SOL    HW2 5313   0.596   6.965   1.096
 1472SOL     OW 5314   3.405   5.035   5.645
 1472SOL    HW1 5315   3.422   4.943   5.682
 1472SOL    HW2 5316   3.391   5.099   5.720
 1473SOL     OW 5317   4.116   5.952   5.257
 1473SOL    HW1 5318   4.139   5.856   5.244
 1473SOL    HW2 5319   4.156   5.985   5.343
 1474SOL     OW 5320   5.557   5.453   2.480
 1474SOL    HW1 5321   5.583   5.456   2.577
 1474SOL    HW2 5322   5.580   5.363   2.442
 1475SOL     OW 5323   5.999   0.444   2.067
 1475SOL    HW1 5324   6.021   0.522   2.126
 1475SOL    HW2 5325   5.954   0.373   2.122
 1476SOL     OW 5326   3.110   0.652   0.855
 1476SOL    HW1 5327   3.042   0.722   0.878
 1476SOL    HW2 5328   3.202   0.687   0.873
 1477SOL     OW 5329   3.274   0.227   6.044
 1477SOL    HW1 5330   3.209   0.278   5.987
 1477SOL    HW2 5331   3.334   0.173   5.986
 1478SOL     OW 5332   5.870   5.793   6.062
 1478SOL    HW1 5333   5.870   5.737   5.979
 1478SOL    HW2 5334   5.829   5.741   6.138
 1479SOL     OW 5335   1.188   2.352   0.629
 1479SOL    HW1 5336   1.267   2.291   0.634
 1479SOL    HW2 5337   1.107   2.306   0.665
 1480SOL     OW 5338   3.188   1.138   5.018
 1480SOL    HW1 5339   3.170   1.215   4.957
 1480SOL    HW2 5340   3.169   1.052   4.971
 1481SOL     OW 5341   6.290   3.190   6.045
 1481SOL    HW1 5342   6.244   3.154   5.964
 1481SOL    HW2 5343   6.226   3.245   6.098
 1482SOL     OW 5344   4.867   1.464   1.409
 1482SOL    HW1 5345   4.833   1.371   1.398
 1482SOL    HW2 5346   4.797   1.529   1.378
 1483SOL     OW 5347   5.260   2.181   6.697
 1483SOL    HW1 5348   5.327   2.249   6.668
 1483SOL    HW2 5349   5.256   2.178   6.796
 1484SOL     OW 5350   5.637   4.019   4.993
 1484SOL    HW1 5351   5.552   4.068   5.013
 1484SOL    HW2 5352   5.617   3.925   4.966
 1485SOL     OW 5353   3.606   1.636   3.348
 1485SOL    HW1 5354   3.587   1.563   3.282
 1485SOL    HW2 5355   3.598   1.725   3.303
 1486SOL     OW 5356   4.770   1.560   2.349
 1486SOL    HW1 5357   4.822   1.645   2.350
 1486SOL    HW2 5358   4.832   1.483   2.365
 1487SOL     OW 5359   6.843   2.136   6.397
 1487SOL    HW1 5360   6.756   2.183   6.411
 1487SOL    HW2 5361   6.914   2.179   6.452
 1488SOL     OW 5362   5.053   1.010   3.517
 1488SOL    HW1 5363   5.074   0.992   3.613
 1488SOL    HW2 5364   4.955   1.029   3.507
 1489SOL     OW 5365   4.535   4.844   5.278
 1489SOL    HW1 5366   4.558   4.937   5.305
 1489SOL    HW2 5367   4.595   4.780   5.325
 1490SOL     OW 5368   0.709   3.095   2.416
 1490SOL    HW1 5369   0.781   3.162   2.433
 1490SOL    HW2 5370   0.738   3.005   2.449
 1491SOL     OW 5371   6.550   3.960   2.577
 1491SOL    HW1 5372   6.519   4.004   2.661
 1491SOL    HW2 5373   6.644   3.927   2.590
 1492SOL     OW 5374   5.842   1.027   2.578
 1492SOL    HW1 5375   5.767   1.066   2.631
 1492SOL    HW2 5376   5.806   0.988   2.493
 1493SOL     OW 5377   3.669   6.885   5.507
 1493SOL    HW1 5378   3.606   6.961   5.492
 1493SOL    HW2 5379   3.709   6.857   5.420
 1494SOL     OW 5380   4.808   1.932   7.005
 1494SOL    HW1 5381   4.889   1.879   0.007
 1494SOL    HW2 5382   4.808   2.020   0.027
 1495SOL     OW 5383   6.538   3.363   5.633
 1495SOL    HW1 5384   6.578   3.284   5.585
 1495SOL    HW2 5385   6.600   3.391   5.706
 1496SOL     OW 5386   0.163   1.802   1.750
 1496SOL    HW1 5387   0.188   1.883   1.697
 1496SOL    HW2 5388   0.148   1.725   1.687
 1497SOL     OW 5389   6.188   3.423   2.977
 1497SOL    HW1 5390   6.251   3.353   2.944
 1497SOL    HW2 5391   6.213   3.512   2.939
 1498SOL     OW 5392   2.608   5.181   6.849
 1498SOL    HW1 5393   2.603   5.226   6.760
 1498SOL    HW2 5394   2.686   5.118   6.850
 1499SOL     OW 5395   0.482   2.773   6.141
 1499SOL    HW1 5396   0.501   2.846   6.207
 1499SOL    HW2 5397   0.384   2.756   6.138
 1500SOL     OW 5398   0.123   6.911   0.145
 1500SOL    HW1 5399   0.027   6.937   0.154
 1500SOL    HW2 5400   0.173   6.941   0.227
 1501SOL     OW 5401   5.628   2.285   6.520
 1501SOL    HW1 5402   5.670   2.253   6.435
 1501SOL    HW2 5403   5.627   2.210   6.587
 1502SOL     OW 5404   4.544   0.370   0.229
 1502SOL    HW1 5405   4.450   0.399   0.211
 1502SOL    HW2 5406   4.607   0.420   0.169
 1503SOL     OW 5407   0.813   3.796   1.575
 1503SOL    HW1 5408   0.908   3.767   1.562
 1503SOL    HW2 5409   0.757   3.717   1.601
 1504SOL     OW 5410   0.556   0.284   5.164
 1504SOL    HW1 5411   0.510   0.370   5.143
 1504SOL    HW2 5412   0.584   0.283   5.260
 1505SOL     OW 5413   4.978   0.402   5.090
 1505SOL    HW1 5414   4.939   0.487   5.056
 1505SOL    HW2 5415   4.969   0.398   5.190
 1506SOL     OW 5416   0.492   6.179   0.515
 1506SOL    HW1 5417   0.580   6.214   0.546
 1506SOL    HW2 5418   0.432   6.166   0.593
 1507SOL     OW 5419   1.014   1.761   5.929
 1507SOL    HW1 5420   1.110   1.762   5.900
 1507SOL    HW2 5421   0.977   1.854   5.926
 1508SOL     OW 5422   6.652   1.610   2.261
 1508SOL    HW1 5423   6.606   1.548   2.197
 1508SOL    HW2 5424   6.733   1.564   2.298
 1509SOL     OW 5425   3.956   1.470   5.772
 1509SOL    HW1 5426   3.865   1.500   5.802
 1509SOL    HW2 5427   3.974   1.378   5.805
 1510SOL     OW 5428   5.100   1.828   4.795
 1510SOL    HW1 5429   5.050   1.766   4.856
 1510SOL    HW2 5430   5.041   1.904   4.769
 1511SOL     OW 5431   3.908   2.980   2.951
 1511SOL    HW1 5432   3.995   3.018   2.986
 1511SOL    HW2 5433   3.903   2.993   2.852
 1512SOL     OW 5434   0.615   5.023   1.197
 1512SOL    HW1 5435   0.526   5.000   1.158
 1512SOL    HW2 5436   0.672   5.067   1.128
 1513SOL     OW 5437   3.786   0.945   4.594
 1513SOL    HW1 5438   3.810   0.892   4.675
 1513SOL    HW2 5439   3.713   0.899   4.544
 1514SOL     OW 5440   4.054   2.076   5.631
 1514SOL    HW1 5441   4.057   2.149   5.699
 1514SOL    HW2 5442   4.146   2.061   5.593
 1515SOL     OW 5443   6.125   2.148   2.874
 1515SOL    HW1 5444   6.077   2.060   2.871
 1515SOL    HW2 5445   6.097   2.204   2.796
 1516SOL     OW 5446   6.586   6.413   0.091
 1516SOL    HW1 5447   6.526   6.451   0.021
 1516SOL    HW2 5448   6.573   6.463   0.176
 1517SOL     OW 5449   4.717   6.299   3.136
 1517SOL    HW1 5450   4.736   6.206   3.165
 1517SOL    HW2 5451   4.680   6.299   3.043
 1518SOL     OW 5452   1.622   2.512   6.797
 1518SOL    HW1 5453   1.620   2.582   6.726
 1518SOL    HW2 5454   1.670   2.547   6.877
 1519SOL     OW 5455   6.992   5.339   1.298
 1519SOL    HW1 5456   7.001   5.247   1.258
 1519SOL    HW2 5457   6.950   5.332   1.389
 1520SOL     OW 5458   0.606   3.996   1.700
 1520SOL    HW1 5459   0.701   3.982   1.671
 1520SOL    HW2 5460   0.579   3.923   1.763
 1521SOL     OW 5461   1.715   4.146   6.283
 1521SOL    HW1 5462   1.683   4.051   6.276
 1521SOL    HW2 5463   1.805   4.154   6.239
 1522SOL     OW 5464   6.012   6.502   5.091
 1522SOL    HW1 5465   5.923   6.459   5.104
 1522SOL    HW2 5466   6.083   6.446   5.133
 1523SOL     OW 5467   5.117   6.128   1.028
 1523SOL    HW1 5468   5.088   6.072   0.951
 1523SOL    HW2 5469   5.059   6.109   1.107
 1524SOL     OW 5470   2.288   2.042   2.137
 1524SOL    HW1 5471   2.330   2.036   2.046
 1524SOL    HW2 5472   2.332   2.114   2.190
 1525SOL     OW 5473   0.102   2.656   0.529
 1525SOL    HW1 5474   0.080   2.573   0.581
 1525SOL    HW2 5475   0.131   2.630   0.437
 1526SOL     OW 5476   6.501   0.100   6.537
 1526SOL    HW1 5477   6.596   0.117   6.507
 1526SOL    HW2 5478   6.444   0.178   6.509
 1527SOL     OW 5479   4.114   0.596   5.319
 1527SOL    HW1 5480   4.160   0.684   5.331
 1527SOL    HW2 5481   4.015   0.610   5.319
 1528SOL     OW 5482   4.659   5.370   2.507
 1528SOL    HW1 5483   4.658   5.398   2.603
 1528SOL    HW2 5484   4.742   5.407   2.463
 1529SOL     OW 5485   3.764   0.876   0.008
 1529SOL    HW1 5486   3.853   0.887   6.988
 1529SOL    HW2 5487   3.776   0.880   0.108
 1530SOL     OW 5488   3.301   2.024   1.745
 1530SOL    HW1 5489   3.334   2.030   1.839
 1530SOL    HW2 5490   3.259   1.935   1.729
 1531SOL     OW 5491   4.406   0.480   5.531
 1531SOL    HW1 5492   4.449   0.417   5.596
 1531SOL    HW2 5493   4.407   0.439   5.440
 1532SOL     OW 5494   3.226   3.424   6.625
 1532SOL    HW1 5495   3.219   3.426   6.724
 1532SOL    HW2 5496   3.134   3.420   6.585
 1533SOL     OW 5497   5.263   4.406   6.636
 1533SOL    HW1 5498   5.341   4.458   6.670
 1533SOL    HW2 5499   5.212   4.367   6.713
 1534SOL     OW 5500   2.358   4.778   6.522
 1534SOL    HW1 5501   2.289   4.845   6.495
 1534SOL    HW2 5502   2.318   4.687   6.522
 1535SOL     OW 5503   4.687   6.324   4.182
 1535SOL    HW1 5504   4.710   6.404   4.127
 1535SOL    HW2 5505   4.771   6.280   4.214
 1536SOL     OW 5506   3.672   4.705   5.433
 1536SOL    HW1 5507   3.722   4.775   5.485
 1536SOL    HW2 5508   3.737   4.647   5.386
 1537SOL     OW 5509   4.994   6.316   3.133
 1537SOL    HW1 5510   4.901   6.353   3.124
 1537SOL    HW2 5511   5.014   6.299   3.230
 1538SOL     OW 5512   4.068   5.720   6.514
 1538SOL    HW1 5513   4.111   5.638   6.475
 1538SOL    HW2 5514   4.130   5.760   6.582
 1539SOL     OW 5515   4.732   3.792   1.360
 1539SOL    HW1 5516   4.750   3.736   1.441
 1539SOL    HW2 5517   4.781   3.753   1.281
 1540SOL     OW 5518   1.560   6.157   5.969
 1540SOL    HW1 5519   1.584   6.061   5.952
 1540SOL    HW2 5520   1.510   6.192   5.890
 1541SOL     OW 5521   3.774   3.050   3.400
 1541SOL    HW1 5522   3.804   3.141   3.371
 1541SOL    HW2 5523   3.798   2.983   3.330
 1542SOL     OW 5524   5.669   6.030   2.209
 1542SOL    HW1 5525   5.719   5.944   2.216
 1542SOL    HW2 5526   5.669   6.076   2.298
 1543SOL     OW 5527   3.401   4.765   5.481
 1543SOL    HW1 5528   3.497   4.747   5.459
 1543SOL    HW2 5529   3.365   4.835   5.420
 1544SOL     OW 5530   3.281   3.438   3.062
 1544SOL    HW1 5531   3.257   3.460   2.967
 1544SOL    HW2 5532   3.336   3.354   3.063
 1545SOL     OW 5533   4.933   0.780   3.839
 1545SOL    HW1 5534   4.861   0.735   3.892
 1545SOL    HW2 5535   4.891   0.838   3.769
 1546SOL     OW 5536   4.207   6.472   5.972
 1546SOL    HW1 5537   4.214   6.458   6.071
 1546SOL    HW2 5538   4.120   6.515   5.951
 1547SOL     OW 5539   1.894   3.623   2.830
 1547SOL    HW1 5540   1.849   3.554   2.774
 1547SOL    HW2 5541   1.852   3.712   2.813
 1548SOL     OW 5542   5.372   3.684   5.625
 1548SOL    HW1 5543   5.461   3.644   5.648
 1548SOL    HW2 5544   5.378   3.784   5.630
 1549SOL     OW 5545   4.600   1.201   2.464
 1549SOL    HW1 5546   4.562   1.247   2.545
 1549SOL    HW2 5547   4.692   1.168   2.485
 1550SOL     OW 5548   3.293   3.775   6.973
 1550SOL    HW1 5549   3.295   3.832   6.891
 1550SOL    HW2 5550   3.386   3.762   7.008
 1551SOL     OW 5551   1.905   4.843   6.232
 1551SOL    HW1 5552   1.918   4.745   6.248
 1551SOL    HW2 5553   1.971   4.876   6.165
 1552SOL     OW 5554   0.350   5.540   6.895
 1552SOL    HW1 5555   0.270   5.520   6.951
 1552SOL    HW2 5556   0.373   5.637   6.903
 1553SOL     OW 5557   0.115   1.667   5.396
 1553SOL    HW1 5558   0.018   1.691   5.403
 1553SOL    HW2 5559   0.126   1.599   5.323
 1554SOL     OW 5560   3.922   1.831   2.982
 1554SOL    HW1 5561   3.860   1.866   3.053
 1554SOL    HW2 5562   4.014   1.824   3.018
 1555SOL     OW 5563   5.021   2.686   0.231
 1555SOL    HW1 5564   5.061   2.710   0.320
 1555SOL    HW2 5565   5.081   2.623   0.183
 1556SOL     OW 5566   3.461   0.909   0.750
 1556SOL    HW1 5567   3.549   0.919   0.705
 1556SOL    HW2 5568   3.394   0.968   0.704
 1557SOL     OW 5569   2.292   1.231   6.296
 1557SOL    HW1 5570   2.210   1.178   6.273
 1557SOL    HW2 5571   2.269   1.296   6.369
 1558SOL     OW 5572   5.065   0.468   4.605
 1558SOL    HW1 5573   5.098   0.435   4.517
 1558SOL    HW2 5574   5.142   0.480   4.667
 1559SOL     OW 5575   0.419   2.613   6.977
 1559SOL    HW1 5576   0.446   2.612   6.881
 1559SOL    HW2 5577   0.475   2.547   0.004
 1560SOL     OW 5578   1.676   1.328   5.918
 1560SOL    HW1 5579   1.691   1.421   5.886
 1560SOL    HW2 5580   1.584   1.298   5.891
 1561SOL     OW 5581   5.902   6.275   4.163
 1561SOL    HW1 5582   5.843   6.329   4.103
 1561SOL    HW2 5583   5.945   6.202   4.111
 1562SOL     OW 5584   3.720   6.023   2.819
 1562SOL    HW1 5585   3.805   6.058   2.858
 1562SOL    HW2 5586   3.734   6.002   2.723
 1563SOL     OW 5587   1.972   0.761   6.194
 1563SOL    HW1 5588   1.968   0.849   6.145
 1563SOL    HW2 5589   2.020   0.694   6.136
 1564SOL     OW 5590   1.309   3.056   3.126
 1564SOL    HW1 5591   1.401   3.016   3.114
 1564SOL    HW2 5592   1.253   3.033   3.046
 1565SOL     OW 5593   4.449   4.970   4.795
 1565SOL    HW1 5594   4.373   5.031   4.775
 1565SOL    HW2 5595   4.416   4.875   4.796
 1566SOL     OW 5596   4.849   4.720   3.404
 1566SOL    HW1 5597   4.860   4.639   3.347
 1566SOL    HW2 5598   4.776   4.778   3.367
 1567SOL     OW 5599   5.823   5.302   0.053
 1567SOL    HW1 5600   5.761   5.260   0.120
 1567SOL    HW2 5601   5.806   5.400   0.049
 1568SOL     OW 5602   1.544   6.023   1.205
 1568SOL    HW1 5603   1.485   6.025   1.286
 1568SOL    HW2 5604   1.536   6.111   1.157
 1569SOL     OW 5605   3.870   6.237   3.639
 1569SOL    HW1 5606   3.955   6.241   3.691
 1569SOL    HW2 5607   3.800   6.290   3.687
 1570SOL     OW 5608   1.842   6.828   0.514
 1570SOL    HW1 5609   1.908   6.823   0.588
 1570SOL    HW2 5610   1.843   6.742   0.463
 1571SOL     OW 5611   5.641   1.668   1.851
 1571SOL    HW1 5612   5.665   1.575   1.879
 1571SOL    HW2 5613   5.626   1.671   1.752
 1572SOL     OW 5614   0.444   6.859   0.432
 1572SOL    HW1 5615   0.349   6.872   0.404
 1572SOL    HW2 5616   0.504   6.921   0.380
 1573SOL     OW 5617   5.849   3.804   2.131
 1573SOL    HW1 5618   5.854   3.745   2.050
 1573SOL    HW2 5619   5.832   3.749   2.212
 1574SOL     OW 5620   0.102   0.885   2.598
 1574SOL    HW1 5621   0.025   0.927   2.549
 1574SOL    HW2 5622   0.171   0.954   2.617
 1575SOL     OW 5623   3.075   1.616   0.730
 1575SOL    HW1 5624   3.121   1.565   0.658
 1575SOL    HW2 5625   3.099   1.713   0.724
 1576SOL     OW 5626   1.586   0.657   3.129
 1576SOL    HW1 5627   1.665   0.612   3.087
 1576SOL    HW2 5628   1.609   0.684   3.222
 1577SOL     OW 5629   2.667   0.905   5.161
 1577SOL    HW1 5630   2.593   0.843   5.135
 1577SOL    HW2 5631   2.755   0.862   5.140
 1578SOL     OW 5632   6.048   2.802   5.700
 1578SOL    HW1 5633   6.107   2.736   5.654
 1578SOL    HW2 5634   5.972   2.827   5.640
 1579SOL     OW 5635   0.639   1.791   2.366
 1579SOL    HW1 5636   0.547   1.798   2.404
 1579SOL    HW2 5637   0.663   1.695   2.353
 1580SOL     OW 5638   3.049   3.952   4.485
 1580SOL    HW1 5639   3.033   3.895   4.404
 1580SOL    HW2 5640   2.993   3.919   4.561
 1581SOL     OW 5641   0.373   4.057   4.727
 1581SOL    HW1 5642   0.296   3.996   4.708
 1581SOL    HW2 5643   0.339   4.150   4.742
 1582SOL     OW 5644   2.040   0.106   4.004
 1582SOL    HW1 5645   2.025   0.128   3.908
 1582SOL    HW2 5646   2.037   0.190   4.059
 1583SOL     OW 5647   1.233   4.720   3.366
 1583SOL    HW1 5648   1.248   4.781   3.444
 1583SOL    HW2 5649   1.321   4.701   3.322
 1584SOL     OW 5650   1.554   6.598   5.707
 1584SOL    HW1 5651   1.595   6.568   5.793
 1584SOL    HW2 5652   1.454   6.601   5.716
 1585SOL     OW 5653   5.646   1.417   3.699
 1585SOL    HW1 5654   5.576   1.479   3.663
 1585SOL    HW2 5655   5.722   1.470   3.737
 1586SOL     OW 5656   3.344   5.010   2.115
 1586SOL    HW1 5657   3.301   5.096   2.087
 1586SOL    HW2 5658   3.334   4.942   2.043
 1587SOL     OW 5659   3.361   5.411   6.178
 1587SOL    HW1 5660   3.322   5.502   6.195
 1587SOL    HW2 5661   3.318   5.344   6.238
 1588SOL     OW 5662   4.343   1.574   3.137
 1588SOL    HW1 5663   4.326   1.494   3.194
 1588SOL    HW2 5664   4.383   1.546   3.050
 1589SOL     OW 5665   5.805   3.478   1.512
 1589SOL    HW1 5666   5.823   3.455   1.416
 1589SOL    HW2 5667   5.890   3.472   1.564
 1590SOL     OW 5668   3.532   5.723   5.994
 1590SOL    HW1 5669   3.447   5.690   5.954
 1590SOL    HW2 5670   3.566   5.800   5.941
 1591SOL     OW 5671   6.613   4.907   2.673
 1591SOL    HW1 5672   6.589   4.875   2.582
 1591SOL    HW2 5673   6.711   4.929   2.676
 1592SOL     OW 5674   2.165   4.630   6.909
 1592SOL    HW1 5675   2.176   4.722   6.945
 1592SOL    HW2 5676   2.071   4.599   6.923
 1593SOL     OW 5677   1.344   6.238   4.533
 1593SOL    HW1 5678   1.310   6.257   4.441
 1593SOL    HW2 5679   1.435   6.196   4.526
 1594SOL     OW 5680   0.287   6.055   2.119
 1594SOL    HW1 5681   0.260   6.062   2.022
 1594SOL    HW2 5682   0.383   6.080   2.128
 1595SOL     OW 5683   1.551   5.550   0.607
 1595SOL    HW1 5684   1.527   5.466   0.655
 1595SOL    HW2 5685   1.484   5.621   0.628
 1596SOL     OW 5686   0.420   2.453   3.825
 1596SOL    HW1 5687   0.412   2.550   3.847
 1596SOL    HW2 5688   0.335   2.420   3.785
 1597SOL     OW 5689   1.741   6.747   6.957
 1597SOL    HW1 5690   1.738   6.705   6.866
 1597SOL    HW2 5691   1.654   6.732   7.003
 1598SOL     OW 5692   1.138   4.094   6.452
 1598SOL    HW1 5693   1.203   4.122   6.382
 1598SOL    HW2 5694   1.066   4.038   6.411
 1599SOL     OW 5695   4.604   4.528   5.625
 1599SOL    HW1 5696   4.622   4.431   5.609
 1599SOL    HW2 5697   4.601   4.546   5.723
 1600SOL     OW 5698   4.751   1.774   4.189
 1600SOL    HW1 5699   4.672   1.833   4.174
 1600SOL    HW2 5700   4.722   1.691   4.237
 1601SOL     OW 5701   0.308   4.343   4.726
 1601SOL    HW1 5702   0.299   4.411   4.799
 1601SOL    HW2 5703   0.288   4.386   4.638
 1602SOL     OW 5704   2.715   5.112   3.423
 1602SOL    HW1 5705   2.811   5.083   3.428
 1602SOL    HW2 5706   2.696   5.174   3.499
 1603SOL     OW 5707   0.301   5.808   2.270
 1603SOL    HW1 5708   0.224   5.838   2.326
 1603SOL    HW2 5709   0.324   5.880   2.205
 1604SOL     OW 5710   5.775   4.996   1.693
 1604SOL    HW1 5711   5.834   4.923   1.659
 1604SOL    HW2 5712   5.712   4.959   1.761
 1605SOL     OW 5713   6.800   6.234   1.454
 1605SOL    HW1 5714   6.712   6.186   1.451
 1605SOL    HW2 5715   6.864   6.183   1.511
 1606SOL     OW 5716   3.458   1.018   5.122
 1606SOL    HW1 5717   3.500   1.108   5.128
 1606SOL    HW2 5718   3.359   1.028   5.107
 1607SOL     OW 5719   4.255   1.180   1.115
 1607SOL    HW1 5720   4.168   1.197   1.161
 1607SOL    HW2 5721   4.249   1.094   1.063
 1608SOL     OW 5722   1.025   0.638   3.887
 1608SOL    HW1 5723   1.009   0.737   3.896
 1608SOL    HW2 5724   0.938   0.590   3.896
 1609SOL     OW 5725   3.536   0.050   0.706
 1609SOL    HW1 5726   3.537   7.008   0.780
 1609SOL    HW2 5727   3.444   0.052   0.665
 1610SOL     OW 5728   5.616   4.562   6.866
 1610SOL    HW1 5729   5.598   4.491   6.798
 1610SOL    HW2 5730   5.572   4.647   6.838
 1611SOL     OW 5731   2.478   3.952   1.414
 1611SOL    HW1 5732   2.383   3.924   1.430
 1611SOL    HW2 5733   2.537   3.907   1.481
 1612SOL     OW 5734   2.912   0.793   5.394
 1612SOL    HW1 5735   2.816   0.813   5.413
 1612SOL    HW2 5736   2.923   0.771   5.297
 1613SOL     OW 5737   1.980   5.115   1.834
 1613SOL    HW1 5738   2.004   5.174   1.757
 1613SOL    HW2 5739   1.941   5.169   1.907
 1614SOL     OW 5740   5.974   3.575   6.771
 1614SOL    HW1 5741   5.920   3.576   6.855
 1614SOL    HW2 5742   5.965   3.486   6.727
 1615SOL     OW 5743   6.438   4.825   1.158
 1615SOL    HW1 5744   6.518   4.830   1.097
 1615SOL    HW2 5745   6.360   4.871   1.114
 1616SOL     OW 5746   3.255   1.650   4.942
 1616SOL    HW1 5747   3.348   1.660   4.977
 1616SOL    HW2 5748   3.233   1.727   4.882
 1617SOL     OW 5749   5.912   0.601   2.662
 1617SOL    HW1 5750   5.917   0.508   2.626
 1617SOL    HW2 5751   5.818   0.634   2.657
 1618SOL     OW 5752   1.894   4.167   1.936
 1618SOL    HW1 5753   1.863   4.253   1.894
 1618SOL    HW2 5754   1.847   4.090   1.893
 1619SOL     OW 5755   1.132   3.015   2.492
 1619SOL    HW1 5756   1.067   3.066   2.549
 1619SOL    HW2 5757   1.171   3.076   2.423
 1620SOL     OW 5758   2.631   5.063   1.778
 1620SOL    HW1 5759   2.595   5.039   1.868
 1620SOL    HW2 5760   2.555   5.077   1.714
 1621SOL     OW 5761   0.650   0.873   0.222
 1621SOL    HW1 5762   0.714   0.886   0.147
 1621SOL    HW2 5763   0.642   0.957   0.275
 1622SOL     OW 5764   0.567   2.792   4.704
 1622SOL    HW1 5765   0.567   2.892   4.704
 1622SOL    HW2 5766   0.606   2.759   4.790
 1623SOL     OW 5767   2.026   3.407   5.543
 1623SOL    HW1 5768   2.036   3.322   5.491
 1623SOL    HW2 5769   2.028   3.485   5.481
 1624SOL     OW 5770   2.833   0.819   4.881
 1624SOL    HW1 5771   2.777   0.868   4.814
 1624SOL    HW2 5772   2.914   0.782   4.836
 1625SOL     OW 5773   1.063   5.587   1.569
 1625SOL    HW1 5774   1.068   5.547   1.661
 1625SOL    HW2 5775   0.997   5.535   1.515
 1626SOL     OW 5776   3.989   1.956   6.305
 1626SOL    HW1 5777   3.978   1.904   6.390
 1626SOL    HW2 5778   3.963   2.051   6.321
 1627SOL     OW 5779   6.994   3.002   4.102
 1627SOL    HW1 5780   0.008   3.036   4.016
 1627SOL    HW2 5781   6.958   2.910   4.087
 1628SOL     OW 5782   4.366   4.864   0.685
 1628SOL    HW1 5783   4.413   4.945   0.721
 1628SOL    HW2 5784   4.408   4.837   0.599
 1629SOL     OW 5785   3.037   0.972   3.925
 1629SOL    HW1 5786   2.976   1.050   3.930
 1629SOL    HW2 5787   3.016   0.919   3.843
 1630SOL     OW 5788   1.587   5.869   5.949
 1630SOL    HW1 5789   1.629   5.841   6.035
 1630SOL    HW2 5790   1.488   5.873   5.960
 1631SOL     OW 5791   0.365   2.407   6.461
 1631SOL    HW1 5792   0.326   2.443   6.546
 1631SOL    HW2 5793   0.465   2.403   6.469
 1632SOL     OW 5794   6.887   1.680   6.926
 1632SOL    HW1 5795   6.959   1.715   6.987
 1632SOL    HW2 5796   6.798   1.710   6.960
 1633SOL     OW 5797   5.106   3.096   4.706
 1633SOL    HW1 5798   5.096   3.088   4.805
 1633SOL    HW2 5799   5.024   3.138   4.667
 1634SOL     OW 5800   4.039   4.986   6.313
 1634SOL    HW1 5801   3.940   4.971   6.325
 1634SOL    HW2 5802   4.063   4.969   6.218
 1635SOL     OW 5803   7.023   5.920   6.084
 1635SOL    HW1 5804   0.070   5.854   6.105
 1635SOL    HW2 5805   6.964   5.933   6.163
 1636SOL     OW 5806   2.983   4.165   1.776
 1636SOL    HW1 5807   2.995   4.264   1.777
 1636SOL    HW2 5808   3.018   4.126   1.861
 1637SOL     OW 5809   0.750   0.007   2.934
 1637SOL    HW1 5810   0.733   0.020   2.837
 1637SOL    HW2 5811   0.665   0.021   2.985
 1638SOL     OW 5812   0.320   4.353   3.583
 1638SOL    HW1 5813   0.273   4.349   3.495
 1638SOL    HW2 5814   0.324   4.261   3.623
 1639SOL     OW 5815   5.070   6.521   2.978
 1639SOL    HW1 5816   5.079   6.450   2.909
 1639SOL    HW2 5817   5.064   6.479   3.068
 1640SOL     OW 5818   6.124   1.399   0.701
 1640SOL    HW1 5819   6.152   1.473   0.639
 1640SOL    HW2 5820   6.054   1.433   0.763
 1641SOL     OW 5821   5.141   2.677   4.291
 1641SOL    HW1 5822   5.160   2.644   4.383
 1641SOL    HW2 5823   5.087   2.609   4.242
 1642SOL     OW 5824   5.770   3.797   6.713
 1642SOL    HW1 5825   5.763   3.887   6.756
 1642SOL    HW2 5826   5.849   3.749   6.749
 1643SOL     OW 5827   2.640   5.202   4.232
 1643SOL    HW1 5828   2.673   5.292   4.262
 1643SOL    HW2 5829   2.571   5.168   4.296
 1644SOL     OW 5830   0.169   2.808   1.069
 1644SOL    HW1 5831   0.151   2.723   1.019
 1644SOL    HW2 5832   0.203   2.786   1.160
 1645SOL     OW 5833   3.327   5.933   5.823
 1645SOL    HW1 5834   3.298   5.918   5.728
 1645SOL    HW2 5835   3.291   5.859   5.881
 1646SOL     OW 5836   3.101   5.723   0.413
 1646SOL    HW1 5837   3.144   5.754   0.498
 1646SOL    HW2 5838   3.140   5.773   0.336
 1647SOL     OW 5839   6.366   2.935   4.865
 1647SOL    HW1 5840   6.433   2.875   4.823
 1647SOL    HW2 5841   6.366   3.023   4.818
 1648SOL     OW 5842   5.939   5.450   0.991
 1648SOL    HW1 5843   5.913   5.498   1.075
 1648SOL    HW2 5844   6.032   5.476   0.965
 1649SOL     OW 5845   3.434   0.164   4.742
 1649SOL    HW1 5846   3.398   0.072   4.725
 1649SOL    HW2 5847   3.437   0.214   4.655
 1650SOL     OW 5848   2.094   5.804   5.346
 1650SOL    HW1 5849   2.006   5.845   5.370
 1650SOL    HW2 5850   2.107   5.720   5.398
 1651SOL     OW 5851   0.492   1.482   0.912
 1651SOL    HW1 5852   0.567   1.547   0.927
 1651SOL    HW2 5853   0.443   1.467   0.997
 1652SOL     OW 5854   0.906   3.267   2.459
 1652SOL    HW1 5855   0.983   3.261   2.522
 1652SOL    HW2 5856   0.833   3.321   2.501
 1653SOL     OW 5857   1.115   0.053   1.282
 1653SOL    HW1 5858   1.197   0.010   1.243
 1653SOL    HW2 5859   1.100   0.019   1.374
 1654SOL     OW 5860   6.396   3.285   1.497
 1654SOL    HW1 5861   6.300   3.257   1.497
 1654SOL    HW2 5862   6.402   3.380   1.526
 1655SOL     OW 5863   6.620   2.403   5.070
 1655SOL    HW1 5864   6.687   2.428   5.139
 1655SOL    HW2 5865   6.568   2.485   5.042
 1656SOL     OW 5866   2.382   4.992   1.908
 1656SOL    HW1 5867   2.339   5.065   1.855
 1656SOL    HW2 5868   2.345   4.904   1.880
 1657SOL     OW 5869   6.630   0.782   3.764
 1657SOL    HW1 5870   6.549   0.806   3.710
 1657SOL    HW2 5871   6.609   0.791   3.861
 1658SOL     OW 5872   0.902   0.176   0.986
 1658SOL    HW1 5873   0.976   0.108   0.992
 1658SOL    HW2 5874   0.941   0.266   0.969
 1659SOL     OW 5875   3.521   0.770   6.211
 1659SOL    HW1 5876   3.529   0.670   6.215
 1659SOL    HW2 5877   3.610   0.811   6.230
 1660SOL     OW 5878   0.931   5.284   3.812
 1660SOL    HW1 5879   0.914   5.337   3.895
 1660SOL    HW2 5880   0.979   5.200   3.835
 1661SOL     OW 5881   2.904   1.423   1.847
 1661SOL    HW1 5882   2.843   1.356   1.804
 1661SOL    HW2 5883   2.889   1.423   1.946
 1662SOL     OW 5884   6.528   6.772   3.807
 1662SOL    HW1 5885   6.539   6.837   3.882
 1662SOL    HW2 5886   6.616   6.730   3.787
 1663SOL     OW 5887   4.324   6.738   2.885
 1663SOL    HW1 5888   4.287   6.659   2.933
 1663SOL    HW2 5889   4.253   6.780   2.829
 1664SOL     OW 5890   2.183   6.439   4.730
 1664SOL    HW1 5891   2.085   6.442   4.750
 1664SOL    HW2 5892   2.199   6.472   4.637
 1665SOL     OW 5893   0.437   1.648   3.383
 1665SOL    HW1 5894   0.508   1.716   3.400
 1665SOL    HW2 5895   0.480   1.561   3.359
 1666SOL     OW 5896   5.311   3.228   0.065
 1666SOL    HW1 5897   5.342   3.313   0.108
 1666SOL    HW2 5898   5.254   3.251   7.010
 1667SOL     OW 5899   6.783   6.710   1.519
 1667SOL    HW1 5900   6.842   6.780   1.559
 1667SOL    HW2 5901   6.746   6.744   1.432
 1668SOL     OW 5902   5.327   6.369   5.427
 1668SOL    HW1 5903   5.398   6.364   5.496
 1668SOL    HW2 5904   5.246   6.318   5.458
 1669SOL     OW 5905   0.123   5.627   6.373
 1669SOL    HW1 5906   0.084   5.540   6.340
 1669SOL    HW2 5907   0.179   5.667   6.301
 1670SOL     OW 5908   0.388   4.176   6.197
 1670SOL    HW1 5909   0.480   4.197   6.163
 1670SOL    HW2 5910   0.334   4.260   6.202
 1671SOL     OW 5911   4.834   2.254   0.956
 1671SOL    HW1 5912   4.742   2.289   0.935
 1671SOL    HW2 5913   4.887   2.326   1.001
 1672SOL     OW 5914   1.693   3.085   1.190
 1672SOL    HW1 5915   1.780   3.037   1.198
 1672SOL    HW2 5916   1.619   3.018   1.181
 1673SOL     OW 5917   0.084   2.413   3.992
 1673SOL    HW1 5918   0.137   2.467   4.057
 1673SOL    HW2 5919   0.088   2.456   3.902
 1674SOL     OW 5920   0.316   4.009   2.221
 1674SOL    HW1 5921   0.386   3.953   2.177
 1674SOL    HW2 5922   0.291   4.085   2.161
 1675SOL     OW 5923   4.260   0.946   6.452
 1675SOL    HW1 5924   4.352   0.977   6.429
 1675SOL    HW2 5925   4.252   0.848   6.435
 1676SOL     OW 5926   1.892   1.753   2.092
 1676SOL    HW1 5927   1.910   1.831   2.152
 1676SOL    HW2 5928   1.823   1.694   2.134
 1677SOL     OW 5929   3.588   2.966   5.303
 1677SOL    HW1 5930   3.651   2.913   5.248
 1677SOL    HW2 5931   3.622   2.972   5.397
 1678SOL     OW 5932   4.723   5.060   4.801
 1678SOL    HW1 5933   4.665   5.016   4.732
 1678SOL    HW2 5934   4.667   5.090   4.878
 1679SOL     OW 5935   2.268   2.727   5.038
 1679SOL    HW1 5936   2.325   2.802   5.072
 1679SOL    HW2 5937   2.210   2.693   5.113
 1680SOL     OW 5938   0.886   3.067   4.641
 1680SOL    HW1 5939   0.925   3.152   4.677
 1680SOL    HW2 5940   0.917   2.990   4.697
 1681SOL     OW 5941   6.311   5.435   0.187
 1681SOL    HW1 5942   6.325   5.513   0.248
 1681SOL    HW2 5943   6.232   5.382   0.219
 1682SOL     OW 5944   0.261   1.754   5.041
 1682SOL    HW1 5945   0.314   1.744   5.125
 1682SOL    HW2 5946   0.311   1.712   4.965
 1683SOL     OW 5947   4.449   5.701   1.060
 1683SOL    HW1 5948   4.353   5.726   1.050
 1683SOL    HW2 5949   4.491   5.688   0.970
 1684SOL     OW 5950   1.632   6.369   2.646
 1684SOL    HW1 5951   1.536   6.390   2.663
 1684SOL    HW2 5952   1.647   6.357   2.548
 1685SOL     OW 5953   2.228   1.235   5.908
 1685SOL    HW1 5954   2.230   1.152   5.965
 1685SOL    HW2 5955   2.308   1.291   5.928
 1686SOL     OW 5956   2.458   4.983   4.836
 1686SOL    HW1 5957   2.538   4.946   4.883
 1686SOL    HW2 5958   2.382   4.991   4.901
 1687SOL     OW 5959   2.487   3.600   0.878
 1687SOL    HW1 5960   2.509   3.698   0.879
 1687SOL    HW2 5961   2.551   3.552   0.818
 1688SOL     OW 5962   1.897   2.242   4.327
 1688SOL    HW1 5963   1.933   2.165   4.380
 1688SOL    HW2 5964   1.867   2.210   4.237
 1689SOL     OW 5965   5.184   0.984   1.945
 1689SOL    HW1 5966   5.231   1.058   1.898
 1689SOL    HW2 5967   5.089   0.979   1.914
 1690SOL     OW 5968   1.518   2.507   3.544
 1690SOL    HW1 5969   1.608   2.505   3.501
 1690SOL    HW2 5970   1.447   2.501   3.474
 1691SOL     OW 5971   5.776   4.209   3.406
 1691SOL    HW1 5972   5.854   4.209   3.469
 1691SOL    HW2 5973   5.716   4.287   3.426
 1692SOL     OW 5974   5.839   0.636   1.824
 1692SOL    HW1 5975   5.839   0.687   1.910
 1692SOL    HW2 5976   5.892   0.686   1.755
 1693SOL     OW 5977   0.286   2.501   2.123
 1693SOL    HW1 5978   0.261   2.572   2.058
 1693SOL    HW2 5979   0.298   2.542   2.214
 1694SOL     OW 5980   5.387   0.556   3.711
 1694SOL    HW1 5981   5.412   0.578   3.806
 1694SOL    HW2 5982   5.469   0.527   3.661
 1695SOL     OW 5983   3.179   1.591   6.163
 1695SOL    HW1 5984   3.110   1.549   6.103
 1695SOL    HW2 5985   3.221   1.520   6.220
 1696SOL     OW 5986   5.050   4.323   0.551
 1696SOL    HW1 5987   5.060   4.321   0.451
 1696SOL    HW2 5988   4.982   4.392   0.575
 1697SOL     OW 5989   5.319   6.455   1.517
 1697SOL    HW1 5990   5.390   6.522   1.494
 1697SOL    HW2 5991   5.244   6.501   1.564
 1698SOL     OW 5992   4.611   0.874   0.158
 1698SOL    HW1 5993   4.548   0.848   0.085
 1698SOL    HW2 5994   4.647   0.793   0.203
 1699SOL     OW 5995   2.728   1.343   0.692
 1699SOL    HW1 5996   2.676   1.416   0.647
 1699SOL    HW2 5997   2.735   1.264   0.631
 1700SOL     OW 5998   5.467   2.009   3.219
 1700SOL    HW1 5999   5.505   1.966   3.300
 1700SOL    HW2 6000   5.478   1.948   3.140
 1701SOL     OW 6001   5.574   4.731   5.466
 1701SOL    HW1 6002   5.667   4.704   5.442
 1701SOL    HW2 6003   5.567   4.831   5.465
 1702SOL     OW 6004   6.870   2.757   0.199
 1702SOL    HW1 6005   6.964   2.792   0.200
 1702SOL    HW2 6006   6.833   2.758   0.292
 1703SOL     OW 6007   3.429   3.177   2.274
 1703SOL    HW1 6008   3.348   3.228   2.303
 1703SOL    HW2 6009   3.403   3.110   2.204
 1704SOL     OW 6010   0.895   2.164   1.711
 1704SOL    HW1 6011   0.905   2.163   1.612
 1704SOL    HW2 6012   0.882   2.071   1.745
 1705SOL     OW 6013   3.666   2.090   1.333
 1705SOL    HW1 6014   3.588   2.090   1.395
 1705SOL    HW2 6015   3.658   2.014   1.269
 1706SOL     OW 6016   4.869   1.071   1.396
 1706SOL    HW1 6017   4.914   1.055   1.484
 1706SOL    HW2 6018   4.858   0.983   1.349
 1707SOL     OW 6019   4.842   1.761   2.595
 1707SOL    HW1 6020   4.808   1.673   2.629
 1707SOL    HW2 6021   4.766   1.816   2.562
 1708SOL     OW 6022   4.859   5.073   2.461
 1708SOL    HW1 6023   4.895   5.163   2.482
 1708SOL    HW2 6024   4.853   5.061   2.362
 1709SOL     OW 6025   2.820   5.604   1.317
 1709SOL    HW1 6026   2.749   5.635   1.381
 1709SOL    HW2 6027   2.852   5.514   1.344
 1710SOL     OW 6028   5.713   4.916   3.960
 1710SOL    HW1 6029   5.679   4.842   3.903
 1710SOL    HW2 6030   5.645   4.989   3.964
 1711SOL     OW 6031   1.268   5.006   4.319
 1711SOL    HW1 6032   1.233   4.968   4.405
 1711SOL    HW2 6033   1.274   4.933   4.251
 1712SOL     OW 6034   0.206   3.269   6.096
 1712SOL    HW1 6035   0.252   3.239   6.013
 1712SOL    HW2 6036   0.153   3.352   6.077
 1713SOL     OW 6037   4.020   2.061   1.771
 1713SOL    HW1 6038   3.955   2.131   1.741
 1713SOL    HW2 6039   3.980   2.006   1.844
 1714SOL     OW 6040   4.202   1.892   5.375
 1714SOL    HW1 6041   4.206   1.811   5.434
 1714SOL    HW2 6042   4.276   1.954   5.399
 1715SOL     OW 6043   0.039   4.364   2.572
 1715SOL    HW1 6044   0.058   4.450   2.620
 1715SOL    HW2 6045   0.124   4.330   2.530
 1716SOL     OW 6046   4.543   6.820   3.044
 1716SOL    HW1 6047   4.555   6.910   3.085
 1716SOL    HW2 6048   4.463   6.821   2.984
 1717SOL     OW 6049   2.365   6.056   6.207
 1717SOL    HW1 6050   2.309   5.999   6.146
 1717SOL    HW2 6051   2.462   6.040   6.186
 1718SOL     OW 6052   2.016   2.058   2.067
 1718SOL    HW1 6053   1.963   1.991   2.120
 1718SOL    HW2 6054   2.107   2.068   2.108
 1719SOL     OW 6055   2.024   4.141   0.668
 1719SOL    HW1 6056   2.020   4.215   0.735
 1719SOL    HW2 6057   1.973   4.062   0.702
 1720SOL     OW 6058   0.768   2.541   0.212
 1720SOL    HW1 6059   0.723   2.493   0.137
 1720SOL    HW2 6060   0.865   2.516   0.214
 1721SOL     OW 6061   1.403   6.954   1.772
 1721SOL    HW1 6062   1.407   6.854   1.782
 1721SOL    HW2 6063   1.439   6.980   1.683
 1722SOL     OW 6064   4.539   2.283   4.435
 1722SOL    HW1 6065   4.528   2.235   4.523
 1722SOL    HW2 6066   4.473   2.247   4.369
 1723SOL     OW 6067   0.149   3.036   2.097
 1723SOL    HW1 6068   0.137   3.122   2.146
 1723SOL    HW2 6069   0.060   2.998   2.073
 1724SOL     OW 6070   6.307   2.245   0.715
 1724SOL    HW1 6071   6.278   2.334   0.683
 1724SOL    HW2 6072   6.397   2.252   0.758
 1725SOL     OW 6073   2.466   4.918   6.888
 1725SOL    HW1 6074   2.485   5.015   6.874
 1725SOL    HW2 6075   2.367   4.905   6.901
 1726SOL     OW 6076   4.869   4.743   5.593
 1726SOL    HW1 6077   4.823   4.682   5.528
 1726SOL    HW2 6078   4.940   4.794   5.545
 1727SOL     OW 6079   3.845   3.356   4.452
 1727SOL    HW1 6080   3.780   3.366   4.377
 1727SOL    HW2 6081   3.805   3.298   4.523
 1728SOL     OW 6082   5.070   5.091   5.605
 1728SOL    HW1 6083   5.050   5.040   5.521
 1728SOL    HW2 6084   5.164   5.126   5.600
 1729SOL     OW 6085   2.123   3.745   3.358
 1729SOL    HW1 6086   2.037   3.709   3.395
 1729SOL    HW2 6087   2.143   3.699   3.271
 1730SOL     OW 6088   0.352   0.253   5.829
 1730SOL    HW1 6089   0.441   0.220   5.796
 1730SOL    HW2 6090   0.292   0.267   5.751
 1731SOL     OW 6091   6.977   4.593   2.159
 1731SOL    HW1 6092   0.051   4.584   2.175
 1731SOL    HW2 6093   6.928   4.534   2.223
 1732SOL     OW 6094   2.577   4.642   5.643
 1732SOL    HW1 6095   2.536   4.706   5.577
 1732SOL    HW2 6096   2.674   4.632   5.623
 1733SOL     OW 6097   1.521   4.196   2.093
 1733SOL    HW1 6098   1.477   4.219   2.006
 1733SOL    HW2 6099   1.455   4.206   2.167
 1734SOL     OW 6100   4.851   3.113   1.707
 1734SOL    HW1 6101   4.944   3.083   1.688
 1734SOL    HW2 6102   4.815   3.063   1.786
 1735SOL     OW 6103   5.222   6.002   1.399
 1735SOL    HW1 6104   5.284   5.988   1.477
 1735SOL    HW2 6105   5.270   6.052   1.327
 1736SOL     OW 6106   3.645   3.136   1.171
 1736SOL    HW1 6107   3.678   3.062   1.111
 1736SOL    HW2 6108   3.630   3.218   1.116
 1737SOL     OW 6109   2.396   1.113   4.248
 1737SOL    HW1 6110   2.493   1.119   4.271
 1737SOL    HW2 6111   2.342   1.161   4.317
 1738SOL     OW 6112   2.350   1.768   4.037
 1738SOL    HW1 6113   2.301   1.746   3.952
 1738SOL    HW2 6114   2.383   1.684   4.079
 1739SOL     OW 6115   5.963   2.217   5.240
 1739SOL    HW1 6116   5.950   2.313   5.216
 1739SOL    HW2 6117   5.885   2.163   5.206
 1740SOL     OW 6118   6.848   2.031   6.144
 1740SOL    HW1 6119   6.797   1.948   6.123
 1740SOL    HW2 6120   6.877   2.029   6.240
 1741SOL     OW 6121   1.789   0.704   4.056
 1741SOL    HW1 6122   1.811   0.754   3.972
 1741SOL    HW2 6123   1.690   0.688   4.059
 1742SOL     OW 6124   5.029   0.140   6.021
 1742SOL    HW1 6125   4.964   0.206   5.981
 1742SOL    HW2 6126   5.104   0.189   6.064
 1743SOL     OW 6127   1.403   2.700   1.986
 1743SOL    HW1 6128   1.400   2.691   2.086
 1743SOL    HW2 6129   1.316   2.670   1.948
 1744SOL     OW 6130   0.572   0.555   2.166
 1744SOL    HW1 6131   0.612   0.592   2.250
 1744SOL    HW2 6132   0.474   0.540   2.180
 1745SOL     OW 6133   5.859   0.413   3.578
 1745SOL    HW1 6134   5.868   0.325   3.531
 1745SOL    HW2 6135   5.915   0.482   3.533
 1746SOL     OW 6136   2.408   4.778   5.103
 1746SOL    HW1 6137   2.430   4.730   5.018
 1746SOL    HW2 6138   2.348   4.856   5.084
 1747SOL     OW 6139   5.791   1.734   2.769
 1747SOL    HW1 6140   5.844   1.693   2.694
 1747SOL    HW2 6141   5.696   1.701   2.764
 1748SOL     OW 6142   0.901   0.782   4.238
 1748SOL    HW1 6143   0.887   0.861   4.297
 1748SOL    HW2 6144   0.813   0.736   4.222
 1749SOL     OW 6145   2.784   6.844   4.861
 1749SOL    HW1 6146   2.773   6.919   4.795
 1749SOL    HW2 6147   2.779   6.881   4.954
 1750SOL     OW 6148   6.550   6.968   4.280
 1750SOL    HW1 6149   6.456   6.980   4.313
 1750SOL    HW2 6150   6.608   6.937   4.356
 1751SOL     OW 6151   4.002   5.993   4.918
 1751SOL    HW1 6152   3.905   5.972   4.932
 1751SOL    HW2 6153   4.047   6.001   5.007
 1752SOL     OW 6154   0.217   2.490   1.733
 1752SOL    HW1 6155   0.292   2.444   1.685
 1752SOL    HW2 6156   0.220   2.465   1.830
 1753SOL     OW 6157   0.511   2.008   0.579
 1753SOL    HW1 6158   0.426   2.055   0.601
 1753SOL    HW2 6159   0.523   1.931   0.642
 1754SOL     OW 6160   2.498   3.744   0.512
 1754SOL    HW1 6161   2.587   3.735   0.556
 1754SOL    HW2 6162   2.430   3.772   0.579
 1755SOL     OW 6163   6.239   6.040   1.964
 1755SOL    HW1 6164   6.248   6.138   1.947
 1755SOL    HW2 6165   6.328   5.996   1.955
 1756SOL     OW 6166   4.149   4.711   5.902
 1756SOL    HW1 6167   4.197   4.701   5.815
 1756SOL    HW2 6168   4.213   4.694   5.978
 1757SOL     OW 6169   2.270   4.836   4.551
 1757SOL    HW1 6170   2.272   4.934   4.571
 1757SOL    HW2 6171   2.352   4.793   4.588
 1758SOL     OW 6172   1.935   0.362   4.102
 1758SOL    HW1 6173   1.839   0.354   4.075
 1758SOL    HW2 6174   1.945   0.439   4.166
 1759SOL     OW 6175   2.353   5.340   6.383
 1759SOL    HW1 6176   2.265   5.389   6.382
 1759SOL    HW2 6177   2.363   5.292   6.469
 1760SOL     OW 6178   5.689   1.547   2.519
 1760SOL    HW1 6179   5.705   1.449   2.503
 1760SOL    HW2 6180   5.612   1.558   2.582
 1761SOL     OW 6181   0.249   0.169   0.170
 1761SOL    HW1 6182   0.162   0.217   0.182
 1761SOL    HW2 6183   0.298   0.208   0.091
 1762SOL     OW 6184   0.246   1.957   4.640
 1762SOL    HW1 6185   0.265   2.055   4.641
 1762SOL    HW2 6186   0.159   1.940   4.593
 1763SOL     OW 6187   1.574   3.663   3.556
 1763SOL    HW1 6188   1.533   3.654   3.466
 1763SOL    HW2 6189   1.582   3.760   3.580
 1764SOL     OW 6190   2.059   3.626   2.171
 1764SOL    HW1 6191   2.094   3.718   2.187
 1764SOL    HW2 6192   2.124   3.574   2.116
 1765SOL     OW 6193   4.068   1.465   0.852
 1765SOL    HW1 6194   3.997   1.476   0.922
 1765SOL    HW2 6195   4.063   1.374   0.813
 1766SOL     OW 6196   4.829   2.996   2.741
 1766SOL    HW1 6197   4.840   3.060   2.665
 1766SOL    HW2 6198   4.773   2.918   2.711
 1767SOL     OW 6199   0.069   3.437   3.110
 1767SOL    HW1 6200   0.146   3.501   3.116
 1767SOL    HW2 6201   0.007   3.452   3.188
 1768SOL     OW 6202   4.227   1.422   5.188
 1768SOL    HW1 6203   4.284   1.368   5.249
 1768SOL    HW2 6204   4.188   1.499   5.239
 1769SOL     OW 6205   4.360   2.808   5.742
 1769SOL    HW1 6206   4.341   2.711   5.755
 1769SOL    HW2 6207   4.383   2.825   5.646
 1770SOL     OW 6208   6.798   4.949   4.925
 1770SOL    HW1 6209   6.768   4.964   4.831
 1770SOL    HW2 6210   6.894   4.920   4.926
 1771SOL     OW 6211   2.459   5.396   6.917
 1771SOL    HW1 6212   2.511   5.314   6.894
 1771SOL    HW2 6213   2.505   5.476   6.878
 1772SOL     OW 6214   3.677   6.484   3.036
 1772SOL    HW1 6215   3.648   6.390   3.017
 1772SOL    HW2 6216   3.650   6.543   2.960
 1773SOL     OW 6217   3.206   3.955   6.457
 1773SOL    HW1 6218   3.125   3.941   6.513
 1773SOL    HW2 6219   3.183   3.938   6.361
 1774SOL     OW 6220   4.155   7.009   1.635
 1774SOL    HW1 6221   4.237   0.013   1.584
 1774SOL    HW2 6222   4.156   6.910   1.647
 1775SOL     OW 6223   1.384   5.498   4.270
 1775SOL    HW1 6224   1.301   5.484   4.324
 1775SOL    HW2 6225   1.431   5.411   4.257
 1776SOL     OW 6226   3.474   0.860   5.954
 1776SOL    HW1 6227   3.501   0.805   6.033
 1776SOL    HW2 6228   3.374   0.869   5.952
 1777SOL     OW 6229   3.160   5.126   5.480
 1777SOL    HW1 6230   3.259   5.121   5.488
 1777SOL    HW2 6231   3.135   5.197   5.414
 1778SOL     OW 6232   4.585   2.149   4.822
 1778SOL    HW1 6233   4.582   2.059   4.866
 1778SOL    HW2 6234   4.500   2.164   4.771
 1779SOL     OW 6235   5.319   1.526   4.658
 1779SOL    HW1 6236   5.350   1.587   4.731
 1779SOL    HW2 6237   5.336   1.569   4.569
 1780SOL     OW 6238   2.345   4.767   6.130
 1780SOL    HW1 6239   2.326   4.698   6.060
 1780SOL    HW2 6240   2.347   4.724   6.220
 1781SOL     OW 6241   4.135   5.237   3.730
 1781SOL    HW1 6242   4.183   5.252   3.816
 1781SOL    HW2 6243   4.189   5.176   3.671
 1782SOL     OW 6244   3.028   1.708   2.897
 1782SOL    HW1 6245   3.077   1.663   2.971
 1782SOL    HW2 6246   3.082   1.703   2.813
 1783SOL     OW 6247   1.785   3.344   6.312
 1783SOL    HW1 6248   1.842   3.269   6.277
 1783SOL    HW2 6249   1.691   3.313   6.324
 1784SOL     OW 6250   3.279   0.689   3.915
 1784SOL    HW1 6251   3.296   0.757   3.844
 1784SOL    HW2 6252   3.189   0.647   3.900
 1785SOL     OW 6253   5.262   6.125   3.736
 1785SOL    HW1 6254   5.247   6.072   3.653
 1785SOL    HW2 6255   5.287   6.219   3.712
 1786SOL     OW 6256   1.165   3.161   0.917
 1786SOL    HW1 6257   1.259   3.170   0.885
 1786SOL    HW2 6258   1.134   3.248   0.956
 1787SOL     OW 6259   2.126   1.101   4.558
 1787SOL    HW1 6260   2.129   1.164   4.480
 1787SOL    HW2 6261   2.174   1.141   4.636
 1788SOL     OW 6262   3.326   3.139   0.368
 1788SOL    HW1 6263   3.373   3.210   0.314
 1788SOL    HW2 6264   3.345   3.049   0.328
 1789SOL     OW 6265   6.634   2.398   2.188
 1789SOL    HW1 6266   6.611   2.301   2.197
 1789SOL    HW2 6267   6.665   2.416   2.095
 1790SOL     OW 6268   4.198   6.333   4.430
 1790SOL    HW1 6269   4.287   6.290   4.414
 1790SOL    HW2 6270   4.187   6.412   4.369
 1791SOL     OW 6271   0.557   1.893   4.378
 1791SOL    HW1 6272   0.647   1.934   4.395
 1791SOL    HW2 6273   0.500   1.958   4.328
 1792SOL     OW 6274   0.769   2.632   4.056
 1792SOL    HW1 6275   0.821   2.681   3.985
 1792SOL    HW2 6276   0.815   2.546   4.077
 1793SOL     OW 6277   6.599   0.240   3.429
 1793SOL    HW1 6278   6.693   0.263   3.404
 1793SOL    HW2 6279   6.540   0.318   3.411
 1794SOL     OW 6280   5.097   6.228   6.671
 1794SOL    HW1 6281   5.132   6.264   6.758
 1794SOL    HW2 6282   5.168   6.236   6.601
 1795SOL     OW 6283   0.791   3.615   2.315
 1795SOL    HW1 6284   0.754   3.697   2.358
 1795SOL    HW2 6285   0.754   3.534   2.360
 1796SOL     OW 6286   2.132   1.251   4.837
 1796SOL    HW1 6287   2.062   1.313   4.871
 1796SOL    HW2 6288   2.211   1.253   4.899
 1797SOL     OW 6289   1.269   1.176   6.481
 1797SOL    HW1 6290   1.209   1.096   6.489
 1797SOL    HW2 6291   1.339   1.159   6.412
 1798SOL     OW 6292   4.710   2.669   5.494
 1798SOL    HW1 6293   4.685   2.726   5.572
 1798SOL    HW2 6294   4.735   2.578   5.525
 1799SOL     OW 6295   6.878   1.895   6.517
 1799SOL    HW1 6296   6.792   1.859   6.552
 1799SOL    HW2 6297   6.863   1.986   6.478
 1800SOL     OW 6298   4.646   5.171   3.391
 1800SOL    HW1 6299   4.699   5.237   3.338
 1800SOL    HW2 6300   4.708   5.113   3.444
 1801SOL     OW 6301   1.080   1.036   2.445
 1801SOL    HW1 6302   1.084   1.020   2.346
 1801SOL    HW2 6303   1.100   1.132   2.464
 1802SOL     OW 6304   5.619   4.969   2.312
 1802SOL    HW1 6305   5.717   4.953   2.297
 1802SOL    HW2 6306   5.592   4.929   2.400
 1803SOL     OW 6307   6.574   5.689   0.738
 1803SOL    HW1 6308   6.655   5.642   0.702
 1803SOL    HW2 6309   6.571   5.782   0.703
 1804SOL     OW 6310   1.979   3.589   6.095
 1804SOL    HW1 6311   2.010   3.509   6.146
 1804SOL    HW2 6312   2.001   3.579   5.998
 1805SOL     OW 6313   0.291   3.965   5.359
 1805SOL    HW1 6314   0.281   4.064   5.369
 1805SOL    HW2 6315   0.254   3.938   5.270
 1806SOL     OW 6316   1.230   1.084   1.242
 1806SOL    HW1 6317   1.236   0.985   1.243
 1806SOL    HW2 6318   1.161   1.113   1.175
 1807SOL     OW 6319   5.142   2.258   5.979
 1807SOL    HW1 6320   5.131   2.169   6.023
 1807SOL    HW2 6321   5.114   2.330   6.042
 1808SOL     OW 6322   6.084   3.643   5.292
 1808SOL    HW1 6323   6.151   3.693   5.237
 1808SOL    HW2 6324   6.027   3.708   5.342
 1809SOL     OW 6325   2.205   2.964   4.258
 1809SOL    HW1 6326   2.252   2.906   4.325
 1809SOL    HW2 6327   2.129   3.012   4.302
 1810SOL     OW 6328   2.693   0.606   5.683
 1810SOL    HW1 6329   2.648   0.661   5.754
 1810SOL    HW2 6330   2.702   0.661   5.600
 1811SOL     OW 6331   4.034   4.806   3.179
 1811SOL    HW1 6332   3.943   4.802   3.137
 1811SOL    HW2 6333   4.025   4.828   3.276
 1812SOL     OW 6334   4.533   0.175   6.400
 1812SOL    HW1 6335   4.452   0.158   6.456
 1812SOL    HW2 6336   4.615   0.168   6.457
 1813SOL     OW 6337   4.045   4.613   1.397
 1813SOL    HW1 6338   4.045   4.587   1.300
 1813SOL    HW2 6339   4.099   4.546   1.448
 1814SOL     OW 6340   6.602   0.500   0.088
 1814SOL    HW1 6341   6.660   0.450   0.153
 1814SOL    HW2 6342   6.634   0.482   7.019
 1815SOL     OW 6343   6.661   1.960   1.592
 1815SOL    HW1 6344   6.610   1.887   1.546
 1815SOL    HW2 6345   6.751   1.926   1.619
 1816SOL     OW 6346   1.721   4.138   1.079
 1816SOL    HW1 6347   1.806   4.178   1.112
 1816SOL    HW2 6348   1.663   4.209   1.039
 1817SOL     OW 6349   3.220   6.615   3.116
 1817SOL    HW1 6350   3.289   6.596   3.046
 1817SOL    HW2 6351   3.217   6.539   3.181
 1818SOL     OW 6352   2.547   6.112   2.264
 1818SOL    HW1 6353   2.642   6.143   2.263
 1818SOL    HW2 6354   2.513   6.105   2.170
 1819SOL     OW 6355   0.827   5.684   1.329
 1819SOL    HW1 6356   0.860   5.594   1.359
 1819SOL    HW2 6357   0.757   5.717   1.391
 1820SOL     OW 6358   2.886   0.903   2.610
 1820SOL    HW1 6359   2.925   0.832   2.669
 1820SOL    HW2 6360   2.933   0.902   2.522
 1821SOL     OW 6361   2.778   0.480   1.749
 1821SOL    HW1 6362   2.691   0.524   1.728
 1821SOL    HW2 6363   2.762   0.385   1.777
 1822SOL     OW 6364   2.107   3.286   1.151
 1822SOL    HW1 6365   2.140   3.286   1.245
 1822SOL    HW2 6366   2.171   3.337   1.094
 1823SOL     OW 6367   2.551   5.862   2.687
 1823SOL    HW1 6368   2.598   5.777   2.709
 1823SOL    HW2 6369   2.617   5.936   2.679
 1824SOL     OW 6370   3.537   4.120   1.756
 1824SOL    HW1 6371   3.532   4.218   1.735
 1824SOL    HW2 6372   3.529   4.107   1.855
 1825SOL     OW 6373   1.389   2.541   3.971
 1825SOL    HW1 6374   1.362   2.457   4.018
 1825SOL    HW2 6375   1.393   2.616   4.037
 1826SOL     OW 6376   3.411   0.646   1.164
 1826SOL    HW1 6377   3.498   0.626   1.209
 1826SOL    HW2 6378   3.428   0.699   1.081
 1827SOL     OW 6379   0.264   5.648   1.411
 1827SOL    HW1 6380   0.358   5.643   1.446
 1827SOL    HW2 6381   0.250   5.577   1.342
 1828SOL     OW 6382   1.307   2.864   0.694
 1828SOL    HW1 6383   1.341   2.770   0.697
 1828SOL    HW2 6384   1.333   2.906   0.606
 1829SOL     OW 6385   2.639   0.844   3.099
 1829SOL    HW1 6386   2.630   0.807   3.006
 1829SOL    HW2 6387   2.580   0.923   3.109
 1830SOL     OW 6388   6.127   6.585   3.920
 1830SOL    HW1 6389   6.120   6.486   3.927
 1830SOL    HW2 6390   6.215   6.609   3.878
 1831SOL     OW 6391   5.984   0.335   2.588
 1831SOL    HW1 6392   6.031   0.263   2.639
 1831SOL    HW2 6393   6.050   0.391   2.539
 1832SOL     OW 6394   4.519   1.183   1.189
 1832SOL    HW1 6395   4.560   1.109   1.136
 1832SOL    HW2 6396   4.428   1.204   1.152
 1833SOL     OW 6397   5.820   0.849   0.333
 1833SOL    HW1 6398   5.915   0.819   0.336
 1833SOL    HW2 6399   5.815   0.946   0.313
 1834SOL     OW 6400   3.034   3.627   0.792
 1834SOL    HW1 6401   2.995   3.648   0.703
 1834SOL    HW2 6402   3.067   3.533   0.792
 1835SOL     OW 6403   0.199   4.483   2.228
 1835SOL    HW1 6404   0.275   4.478   2.164
 1835SOL    HW2 6405   0.206   4.409   2.295
 1836SOL     OW 6406   4.876   1.930   1.629
 1836SOL    HW1 6407   4.905   1.999   1.694
 1836SOL    HW2 6408   4.905   1.840   1.660
 1837SOL     OW 6409   1.041   0.333   4.937
 1837SOL    HW1 6410   0.990   0.319   5.022
 1837SOL    HW2 6411   0.979   0.364   4.866
 1838SOL     OW 6412   6.896   1.261   4.812
 1838SOL    HW1 6413   6.811   1.278   4.762
 1838SOL    HW2 6414   6.967   1.324   4.780
 1839SOL     OW 6415   6.148   2.646   4.932
 1839SOL    HW1 6416   6.160   2.745   4.946
 1839SOL    HW2 6417   6.167   2.598   5.018
 1840SOL     OW 6418   3.786   6.945   1.379
 1840SOL    HW1 6419   3.868   6.887   1.387
 1840SOL    HW2 6420   3.753   6.969   1.470
 1841SOL     OW 6421   2.442   1.110   3.024
 1841SOL    HW1 6422   2.456   1.206   3.051
 1841SOL    HW2 6423   2.352   1.101   2.982
 1842SOL     OW 6424   1.910   5.604   0.228
 1842SOL    HW1 6425   1.836   5.634   0.288
 1842SOL    HW2 6426   1.905   5.654   0.141
 1843SOL     OW 6427   6.308   2.192   3.343
 1843SOL    HW1 6428   6.270   2.279   3.311
 1843SOL    HW2 6429   6.243   2.147   3.403
 1844SOL     OW 6430   3.267   6.411   5.463
 1844SOL    HW1 6431   3.175   6.452   5.471
 1844SOL    HW2 6432   3.316   6.455   5.388
 1845SOL     OW 6433   2.733   7.014   4.625
 1845SOL    HW1 6434   2.735   0.085   4.595
 1845SOL    HW2 6435   2.777   6.956   4.557
 1846SOL     OW 6436   3.402   1.588   1.544
 1846SOL    HW1 6437   3.401   1.501   1.494
 1846SOL    HW2 6438   3.373   1.662   1.483
 1847SOL     OW 6439   1.364   0.924   6.933
 1847SOL    HW1 6440   1.442   0.972   6.973
 1847SOL    HW2 6441   1.279   0.960   6.971
 1848SOL     OW 6442   1.607   5.914   3.262
 1848SOL    HW1 6443   1.617   5.920   3.361
 1848SOL    HW2 6444   1.516   5.878   3.239
 1849SOL     OW 6445   3.969   2.848   1.309
 1849SOL    HW1 6446   3.904   2.918   1.280
 1849SOL    HW2 6447   3.937   2.805   1.393
 1850SOL     OW 6448   0.743   2.736   1.425
 1850SOL    HW1 6449   0.774   2.688   1.507
 1850SOL    HW2 6450   0.822   2.771   1.374
 1851SOL     OW 6451   0.229   2.582   0.310
 1851SOL    HW1 6452   0.235   2.507   0.376
 1851SOL    HW2 6453   0.173   2.552   0.232
 1852SOL     OW 6454   6.376   4.476   2.566
 1852SOL    HW1 6455   6.458   4.445   2.518
 1852SOL    HW2 6456   6.370   4.575   2.561
 1853SOL     OW 6457   0.085   2.247   2.724
 1853SOL    HW1 6458   0.018   2.284   2.788
 1853SOL    HW2 6459   0.039   2.219   2.640
 1854SOL     OW 6460   2.289   5.983   3.180
 1854SOL    HW1 6461   2.370   5.949   3.229
 1854SOL    HW2 6462   2.207   5.961   3.233
 1855SOL     OW 6463   5.186   2.793   5.458
 1855SOL    HW1 6464   5.232   2.829   5.539
 1855SOL    HW2 6465   5.225   2.835   5.376
 1856SOL     OW 6466   6.398   3.980   5.896
 1856SOL    HW1 6467   6.371   4.032   5.814
 1856SOL    HW2 6468   6.487   4.014   5.928
 1857SOL     OW 6469   4.847   2.063   5.955
 1857SOL    HW1 6470   4.795   2.063   5.870
 1857SOL    HW2 6471   4.795   2.111   6.026
 1858SOL     OW 6472   5.802   4.214   3.973
 1858SOL    HW1 6473   5.851   4.130   3.950
 1858SOL    HW2 6474   5.823   4.240   4.067
 1859SOL     OW 6475   5.749   2.531   3.425
 1859SOL    HW1 6476   5.751   2.452   3.364
 1859SOL    HW2 6477   5.842   2.568   3.434
 1860SOL     OW 6478   6.566   0.582   5.745
 1860SOL    HW1 6479   6.548   0.502   5.688
 1860SOL    HW2 6480   6.542   0.665   5.694
 1861SOL     OW 6481   6.257   6.605   2.228
 1861SOL    HW1 6482   6.173   6.644   2.190
 1861SOL    HW2 6483   6.251   6.602   2.327
 1862SOL     OW 6484   2.973   0.065   6.146
 1862SOL    HW1 6485   3.006   0.042   6.054
 1862SOL    HW2 6486   2.972   7.007   6.202
 1863SOL     OW 6487   0.819   2.837   3.573
 1863SOL    HW1 6488   0.876   2.798   3.500
 1863SOL    HW2 6489   0.813   2.936   3.561
 1864SOL     OW 6490   1.780   6.718   4.520
 1864SOL    HW1 6491   1.846   6.794   4.523
 1864SOL    HW2 6492   1.687   6.755   4.525
 1865SOL     OW 6493   3.414   6.607   6.717
 1865SOL    HW1 6494   3.336   6.664   6.692
 1865SOL    HW2 6495   3.459   6.645   6.798
 1866SOL     OW 6496   4.876   4.923   2.914
 1866SOL    HW1 6497   4.817   4.972   2.978
 1866SOL    HW2 6498   4.968   4.914   2.952
 1867SOL     OW 6499   0.663   3.895   0.421
 1867SOL    HW1 6500   0.601   3.854   0.488
 1867SOL    HW2 6501   0.670   3.993   0.437
 1868SOL     OW 6502   5.148   3.207   6.185
 1868SOL    HW1 6503   5.119   3.121   6.227
 1868SOL    HW2 6504   5.202   3.188   6.103
 1869SOL     OW 6505   5.734   3.311   5.615
 1869SOL    HW1 6506   5.773   3.335   5.526
 1869SOL    HW2 6507   5.676   3.231   5.605
 1870SOL     OW 6508   1.035   3.030   5.111
 1870SOL    HW1 6509   1.054   2.936   5.141
 1870SOL    HW2 6510   1.041   3.092   5.189
 1871SOL     OW 6511   1.004   0.255   6.763
 1871SOL    HW1 6512   1.089   0.252   6.815
 1871SOL    HW2 6513   1.024   0.243   6.665
 1872SOL     OW 6514   4.222   1.472   6.768
 1872SOL    HW1 6515   4.236   1.441   6.862
 1872SOL    HW2 6516   4.275   1.555   6.752
 1873SOL     OW 6517   5.128   0.879   6.622
 1873SOL    HW1 6518   5.196   0.904   6.689
 1873SOL    HW2 6519   5.058   0.950   6.616
 1874SOL     OW 6520   2.767   0.811   0.716
 1874SOL    HW1 6521   2.766   0.901   0.759
 1874SOL    HW2 6522   2.862   0.784   0.697
 1875SOL     OW 6523   0.043   0.356   0.008
 1875SOL    HW1 6524   6.982   0.333   6.986
 1875SOL    HW2 6525   0.035   0.447   0.050
 1876SOL     OW 6526   3.575   5.993   6.472
 1876SOL    HW1 6527   3.567   5.960   6.378
 1876SOL    HW2 6528   3.577   5.915   6.534
 1877SOL     OW 6529   1.080   1.446   3.430
 1877SOL    HW1 6530   1.130   1.364   3.457
 1877SOL    HW2 6531   0.987   1.442   3.467
 1878SOL     OW 6532   6.833   3.323   4.305
 1878SOL    HW1 6533   6.858   3.295   4.212
 1878SOL    HW2 6534   6.913   3.363   4.350
 1879SOL     OW 6535   2.073   5.413   3.716
 1879SOL    HW1 6536   1.990   5.417   3.661
 1879SOL    HW2 6537   2.081   5.323   3.759
 1880SOL     OW 6538   6.656   0.406   4.081
 1880SOL    HW1 6539   6.581   0.371   4.137
 1880SOL    HW2 6540   6.662   0.353   3.997
 1881SOL     OW 6541   6.670   3.298   2.950
 1881SOL    HW1 6542   6.744   3.364   2.965
 1881SOL    HW2 6543   6.615   3.289   3.033
 1882SOL     OW 6544   1.172   3.744   6.758
 1882SOL    HW1 6545   1.211   3.821   6.808
 1882SOL    HW2 6546   1.075   3.735   6.781
 1883SOL     OW 6547   1.515   2.254   3.705
 1883SOL    HW1 6548   1.458   2.189   3.655
 1883SOL    HW2 6549   1.525   2.338   3.652
 1884SOL     OW 6550   6.250   3.118   0.108
 1884SOL    HW1 6551   6.293   3.196   0.152
 1884SOL    HW2 6552   6.161   3.101   0.151
 1885SOL     OW 6553   0.916   1.621   6.153
 1885SOL    HW1 6554   0.945   1.651   6.062
 1885SOL    HW2 6555   0.994   1.580   6.200
 1886SOL     OW 6556   2.711   0.215   1.215
 1886SOL    HW1 6557   2.745   0.228   1.122
 1886SOL    HW2 6558   2.737   0.124   1.247
 1887SOL     OW 6559   1.527   5.843   5.566
 1887SOL    HW1 6560   1.557   5.906   5.638
 1887SOL    HW2 6561   1.591   5.767   5.560
 1888SOL     OW 6562   3.420   2.766   7.002
 1888SOL    HW1 6563   3.471   2.846   6.972
 1888SOL    HW2 6564   3.479   2.707   0.032
 1889SOL     OW 6565   6.790   3.193   6.196
 1889SOL    HW1 6566   6.819   3.288   6.192
 1889SOL    HW2 6567   6.820   3.145   6.113
 1890SOL     OW 6568   1.824   6.376   4.200
 1890SOL    HW1 6569   1.748   6.338   4.147
 1890SOL    HW2 6570   1.910   6.354   4.154
 1891SOL     OW 6571   5.943   2.533   2.592
 1891SOL    HW1 6572   6.026   2.585   2.576
 1891SOL    HW2 6573   5.880   2.586   2.649
 1892SOL     OW 6574   2.849   1.238   0.921
 1892SOL    HW1 6575   2.787   1.280   0.854
 1892SOL    HW2 6576   2.879   1.308   0.985
 1893SOL     OW 6577   4.028   2.785   0.178
 1893SOL    HW1 6578   4.004   2.801   0.082
 1893SOL    HW2 6579   4.082   2.701   0.185
 1894SOL     OW 6580   4.077   3.645   3.633
 1894SOL    HW1 6581   3.981   3.620   3.639
 1894SOL    HW2 6582   4.088   3.724   3.573
 1895SOL     OW 6583   5.615   1.102   1.989
 1895SOL    HW1 6584   5.646   1.155   2.068
 1895SOL    HW2 6585   5.694   1.066   1.940
 1896SOL     OW 6586   6.296   0.581   1.749
 1896SOL    HW1 6587   6.203   0.546   1.751
 1896SOL    HW2 6588   6.336   0.574   1.841
 1897SOL     OW 6589   1.287   4.438   2.294
 1897SOL    HW1 6590   1.314   4.504   2.223
 1897SOL    HW2 6591   1.270   4.349   2.252
 1898SOL     OW 6592   2.621   4.858   2.729
 1898SOL    HW1 6593   2.526   4.887   2.720
 1898SOL    HW2 6594   2.664   4.853   2.639
 1899SOL     OW 6595   0.870   1.298   2.302
 1899SOL    HW1 6596   0.929   1.318   2.224
 1899SOL    HW2 6597   0.808   1.376   2.318
 1900SOL     OW 6598   1.311   0.722   6.384
 1900SOL    HW1 6599   1.242   0.731   6.313
 1900SOL    HW2 6600   1.279   0.657   6.453
 1901SOL     OW 6601   1.840   2.364   0.893
 1901SOL    HW1 6602   1.879   2.336   0.981
 1901SOL    HW2 6603   1.907   2.419   0.843
 1902SOL     OW 6604   2.678   1.960   4.961
 1902SOL    HW1 6605   2.591   1.993   4.999
 1902SOL    HW2 6606   2.750   1.969   5.029
 1903SOL     OW 6607   6.841   2.994   2.677
 1903SOL    HW1 6608   6.753   2.994   2.628
 1903SOL    HW2 6609   6.874   3.087   2.685
 1904SOL     OW 6610   6.013   6.075   4.003
 1904SOL    HW1 6611   5.950   6.021   3.948
 1904SOL    HW2 6612   6.083   6.015   4.043
 1905SOL     OW 6613   1.887   0.571   4.282
 1905SOL    HW1 6614   1.933   0.638   4.341
 1905SOL    HW2 6615   1.850   0.618   4.202
 1906SOL     OW 6616   2.115   0.159   4.961
 1906SOL    HW1 6617   2.128   0.155   5.060
 1906SOL    HW2 6618   2.192   0.206   4.918
 1907SOL     OW 6619   3.161   6.866   2.555
 1907SOL    HW1 6620   3.231   6.823   2.611
 1907SOL    HW2 6621   3.080   6.886   2.611
 1908SOL     OW 6622   3.657   6.921   4.975
 1908SOL    HW1 6623   3.583   6.978   5.009
 1908SOL    HW2 6624   3.647   6.828   5.012
 1909SOL     OW 6625   0.706   3.844   2.424
 1909SOL    HW1 6626   0.624   3.894   2.454
 1909SOL    HW2 6627   0.787   3.885   2.465
 1910SOL     OW 6628   0.036   2.922   6.537
 1910SOL    HW1 6629   0.019   2.843   6.477
 1910SOL    HW2 6630   6.985   2.987   6.527
 1911SOL     OW 6631   5.673   3.495   5.096
 1911SOL    HW1 6632   5.618   3.529   5.172
 1911SOL    HW2 6633   5.614   3.476   5.017
 1912SOL     OW 6634   3.716   6.162   0.598
 1912SOL    HW1 6635   3.661   6.159   0.515
 1912SOL    HW2 6636   3.804   6.205   0.578
 1913SOL     OW 6637   1.919   6.179   4.970
 1913SOL    HW1 6638   1.944   6.100   5.026
 1913SOL    HW2 6639   1.999   6.212   4.920
 1914SOL     OW 6640   3.840   2.716   6.252
 1914SOL    HW1 6641   3.920   2.729   6.310
 1914SOL    HW2 6642   3.788   2.637   6.284
 1915SOL     OW 6643   4.394   2.341   5.337
 1915SOL    HW1 6644   4.432   2.272   5.276
 1915SOL    HW2 6645   4.296   2.323   5.352
 1916SOL     OW 6646   4.064   5.662   1.334
 1916SOL    HW1 6647   4.110   5.696   1.252
 1916SOL    HW2 6648   3.970   5.635   1.310
 1917SOL     OW 6649   2.938   2.996   5.285
 1917SOL    HW1 6650   2.975   3.012   5.194
 1917SOL    HW2 6651   2.903   2.902   5.291
 1918SOL     OW 6652   0.723   1.145   5.064
 1918SOL    HW1 6653   0.644   1.168   5.122
 1918SOL    HW2 6654   0.788   1.221   5.065
 1919SOL     OW 6655   1.938   0.586   1.817
 1919SOL    HW1 6656   1.904   0.561   1.726
 1919SOL    HW2 6657   1.916   0.514   1.883
 1920SOL     OW 6658   1.394   4.560   2.625
 1920SOL    HW1 6659   1.418   4.549   2.529
 1920SOL    HW2 6660   1.460   4.509   2.682
 1921SOL     OW 6661   1.303   4.373   6.531
 1921SOL    HW1 6662   1.224   4.432   6.513
 1921SOL    HW2 6663   1.384   4.431   6.544
 1922SOL     OW 6664   1.983   3.936   0.846
 1922SOL    HW1 6665   1.893   3.895   0.830
 1922SOL    HW2 6666   2.000   3.944   0.944
 1923SOL     OW 6667   3.188   0.752   5.259
 1923SOL    HW1 6668   3.146   0.837   5.291
 1923SOL    HW2 6669   3.275   0.737   5.305
 1924SOL     OW 6670   4.737   5.561   1.320
 1924SOL    HW1 6671   4.713   5.571   1.416
 1924SOL    HW2 6672   4.689   5.482   1.281
 1925SOL     OW 6673   1.922   5.157   0.617
 1925SOL    HW1 6674   1.985   5.179   0.692
 1925SOL    HW2 6675   1.869   5.238   0.594
 1926SOL     OW 6676   2.271   6.428   3.246
 1926SOL    HW1 6677   2.274   6.525   3.222
 1926SOL    HW2 6678   2.233   6.376   3.170
 1927SOL     OW 6679   2.731   4.580   6.620
 1927SOL    HW1 6680   2.631   4.582   6.618
 1927SOL    HW2 6681   2.762   4.493   6.659
 1928SOL     OW 6682   6.982   4.434   5.762
 1928SOL    HW1 6683   6.898   4.380   5.763
 1928SOL    HW2 6684   7.002   4.462   5.668
 1929SOL     OW 6685   1.472   5.454   1.335
 1929SOL    HW1 6686   1.452   5.552   1.339
 1929SOL    HW2 6687   1.423   5.413   1.258
 1930SOL     OW 6688   3.581   4.079   6.168
 1930SOL    HW1 6689   3.659   4.141   6.177
 1930SOL    HW2 6690   3.529   4.101   6.086
 1931SOL     OW 6691   0.868   3.253   2.168
 1931SOL    HW1 6692   0.823   3.164   2.156
 1931SOL    HW2 6693   0.889   3.268   2.264
 1932SOL     OW 6694   4.787   2.843   3.134
 1932SOL    HW1 6695   4.794   2.926   3.080
 1932SOL    HW2 6696   4.724   2.858   3.211
 1933SOL     OW 6697   2.123   3.239   0.752
 1933SOL    HW1 6698   2.074   3.311   0.701
 1933SOL    HW2 6699   2.057   3.178   0.795
 1934SOL     OW 6700   0.363   0.065   5.407
 1934SOL    HW1 6701   0.455   0.106   5.404
 1934SOL    HW2 6702   0.314   0.089   5.323
 1935SOL     OW 6703   4.283   6.497   3.742
 1935SOL    HW1 6704   4.309   6.401   3.729
 1935SOL    HW2 6705   4.236   6.530   3.661
 1936SOL     OW 6706   5.639   3.814   3.457
 1936SOL    HW1 6707   5.672   3.720   3.457
 1936SOL    HW2 6708   5.701   3.871   3.402
 1937SOL     OW 6709   4.300   6.244   1.407
 1937SOL    HW1 6710   4.311   6.243   1.307
 1937SOL    HW2 6711   4.206   6.267   1.430
 1938SOL     OW 6712   2.203   1.641   1.417
 1938SOL    HW1 6713   2.274   1.615   1.352
 1938SOL    HW2 6714   2.114   1.643   1.371
 1939SOL     OW 6715   6.622   6.804   4.527
 1939SOL    HW1 6716   6.536   6.767   4.562
 1939SOL    HW2 6717   6.658   6.743   4.457
 1940SOL     OW 6718   5.800   5.212   0.574
 1940SOL    HW1 6719   5.734   5.278   0.537
 1940SOL    HW2 6720   5.857   5.257   0.643
 1941SOL     OW 6721   1.239   3.664   4.165
 1941SOL    HW1 6722   1.238   3.581   4.109
 1941SOL    HW2 6723   1.164   3.662   4.230
 1942SOL     OW 6724   5.093   1.994   1.190
 1942SOL    HW1 6725   5.170   1.932   1.178
 1942SOL    HW2 6726   5.009   1.942   1.198
 1943SOL     OW 6727   2.584   6.274   3.941
 1943SOL    HW1 6728   2.571   6.241   4.034
 1943SOL    HW2 6729   2.657   6.342   3.940
 1944SOL     OW 6730   6.499   2.810   0.066
 1944SOL    HW1 6731   6.464   2.884   0.009
 1944SOL    HW2 6732   6.595   2.793   0.044
 1945SOL     OW 6733   3.242   5.247   0.774
 1945SOL    HW1 6734   3.244   5.209   0.681
 1945SOL    HW2 6735   3.180   5.325   0.777
 1946SOL     OW 6736   6.093   6.609   1.096
 1946SOL    HW1 6737   6.175   6.623   1.040
 1946SOL    HW2 6738   6.029   6.549   1.046
 1947SOL     OW 6739   5.296   6.222   4.438
 1947SOL    HW1 6740   5.223   6.170   4.394
 1947SOL    HW2 6741   5.277   6.231   4.536
 1948SOL     OW 6742   5.860   5.093   3.513
 1948SOL    HW1 6743   5.921   5.115   3.589
 1948SOL    HW2 6744   5.768   5.130   3.532
 1949SOL     OW 6745   3.696   3.518   5.831
 1949SOL    HW1 6746   3.787   3.556   5.810
 1949SOL    HW2 6747   3.628   3.558   5.770
 1950SOL     OW 6748   4.487   3.204   0.401
 1950SOL    HW1 6749   4.454   3.226   0.309
 1950SOL    HW2 6750   4.544   3.121   0.397
 1951SOL     OW 6751   6.039   4.448   0.087
 1951SOL    HW1 6752   6.004   4.356   0.068
 1951SOL    HW2 6753   5.983   4.515   0.038
 1952SOL     OW 6754   4.720   3.268   1.524
 1952SOL    HW1 6755   4.762   3.275   1.433
 1952SOL    HW2 6756   4.767   3.197   1.577
 1953SOL     OW 6757   6.174   1.903   5.750
 1953SOL    HW1 6758   6.155   1.875   5.844
 1953SOL    HW2 6759   6.096   1.878   5.692
 1954SOL     OW 6760   6.661   0.796   2.294
 1954SOL    HW1 6761   6.570   0.753   2.298
 1954SOL    HW2 6762   6.659   0.873   2.230
 1955SOL     OW 6763   0.869   0.801   3.177
 1955SOL    HW1 6764   0.806   0.812   3.254
 1955SOL    HW2 6765   0.963   0.812   3.210
 1956SOL     OW 6766   4.555   0.133   1.974
 1956SOL    HW1 6767   4.550   0.034   1.992
 1956SOL    HW2 6768   4.471   0.162   1.928
 1957SOL     OW 6769   5.782   4.264   4.244
 1957SOL    HW1 6770   5.728   4.346   4.225
 1957SOL    HW2 6771   5.855   4.286   4.309
 1958SOL     OW 6772   4.774   1.492   1.689
 1958SOL    HW1 6773   4.819   1.547   1.760
 1958SOL    HW2 6774   4.816   1.512   1.601
 1959SOL     OW 6775   1.331   0.305   4.077
 1959SOL    HW1 6776   1.322   0.240   4.152
 1959SOL    HW2 6777   1.274   0.385   4.095
 1960SOL     OW 6778   0.340   4.517   1.767
 1960SOL    HW1 6779   0.284   4.595   1.795
 1960SOL    HW2 6780   0.404   4.546   1.696
 1961SOL     OW 6781   6.053   5.021   4.896
 1961SOL    HW1 6782   6.024   5.111   4.863
 1961SOL    HW2 6783   6.150   5.008   4.877
 1962SOL     OW 6784   1.311   6.399   2.730
 1962SOL    HW1 6785   1.303   6.320   2.791
 1962SOL    HW2 6786   1.246   6.390   2.655
 1963SOL     OW 6787   1.147   1.892   1.391
 1963SOL    HW1 6788   1.053   1.911   1.419
 1963SOL    HW2 6789   1.201   1.866   1.471
 1964SOL     OW 6790   4.544   4.337   1.394
 1964SOL    HW1 6791   4.528   4.247   1.433
 1964SOL    HW2 6792   4.473   4.357   1.326
 1965SOL     OW 6793   1.389   3.069   4.530
 1965SOL    HW1 6794   1.465   3.007   4.550
 1965SOL    HW2 6795   1.421   3.163   4.534
 1966SOL     OW 6796   0.440   6.278   0.272
 1966SOL    HW1 6797   0.466   6.238   0.360
 1966SOL    HW2 6798   0.345   6.307   0.276
 1967SOL     OW 6799   5.763   2.745   5.069
 1967SOL    HW1 6800   5.748   2.795   4.984
 1967SOL    HW2 6801   5.675   2.721   5.110
 1968SOL     OW 6802   1.387   6.762   5.409
 1968SOL    HW1 6803   1.407   6.822   5.486
 1968SOL    HW2 6804   1.462   6.765   5.343
 1969SOL     OW 6805   2.310   2.005   0.642
 1969SOL    HW1 6806   2.246   2.071   0.682
 1969SOL    HW2 6807   2.316   1.925   0.702
 1970SOL     OW 6808   2.993   6.179   6.199
 1970SOL    HW1 6809   2.995   6.204   6.102
 1970SOL    HW2 6810   2.914   6.220   6.243
 1971SOL     OW 6811   0.398   0.405   5.447
 1971SOL    HW1 6812   0.315   0.385   5.499
 1971SOL    HW2 6813   0.376   0.412   5.349
 1972SOL     OW 6814   4.961   1.979   1.898
 1972SOL    HW1 6815   4.933   2.024   1.982
 1972SOL    HW2 6816   4.927   1.885   1.897
 1973SOL     OW 6817   3.575   2.945   0.611
 1973SOL    HW1 6818   3.494   2.922   0.665
 1973SOL    HW2 6819   3.549   3.004   0.535
 1974SOL     OW 6820   5.568   6.936   4.647
 1974SOL    HW1 6821   5.553   7.004   4.576
 1974SOL    HW2 6822   5.594   6.849   4.604
 1975SOL     OW 6823   2.182   1.682   4.486
 1975SOL    HW1 6824   2.094   1.645   4.516
 1975SOL    HW2 6825   2.245   1.683   4.563
 1976SOL     OW 6826   6.078   0.256   0.521
 1976SOL    HW1 6827   6.030   0.201   0.452
 1976SOL    HW2 6828   6.026   0.255   0.606
 1977SOL     OW 6829   2.148   3.119   4.946
 1977SOL    HW1 6830   2.169   3.127   4.848
 1977SOL    HW2 6831   2.228   3.083   4.994
 1978SOL     OW 6832   1.903   6.375   3.059
 1978SOL    HW1 6833   1.918   6.474   3.061
 1978SOL    HW2 6834   1.957   6.332   3.130
 1979SOL     OW 6835   5.680   4.473   0.104
 1979SOL    HW1 6836   5.695   4.374   0.111
 1979SOL    HW2 6837   5.638   4.494   0.016
 1980SOL     OW 6838   3.094   6.882   4.133
 1980SOL    HW1 6839   3.124   6.826   4.055
 1980SOL    HW2 6840   3.071   6.974   4.100
 1981SOL     OW 6841   6.703   3.303   1.923
 1981SOL    HW1 6842   6.746   3.273   2.009
 1981SOL    HW2 6843   6.760   3.274   1.846
 1982SOL     OW 6844   1.039   4.068   4.499
 1982SOL    HW1 6845   1.118   4.090   4.442
 1982SOL    HW2 6846   0.970   4.140   4.491
 1983SOL     OW 6847   1.261   0.453   1.949
 1983SOL    HW1 6848   1.237   0.486   2.040
 1983SOL    HW2 6849   1.268   0.530   1.886
 1984SOL     OW 6850   5.301   2.641   4.877
 1984SOL    HW1 6851   5.207   2.652   4.909
 1984SOL    HW2 6852   5.350   2.727   4.886
 1985SOL     OW 6853   0.761   6.468   2.346
 1985SOL    HW1 6854   0.663   6.451   2.340
 1985SOL    HW2 6855   0.799   6.417   2.424
 1986SOL     OW 6856   2.755   1.178   0.133
 1986SOL    HW1 6857   2.660   1.210   0.127
 1986SOL    HW2 6858   2.786   1.151   0.042
 1987SOL     OW 6859   2.097   1.725   2.930
 1987SOL    HW1 6860   2.132   1.714   2.837
 1987SOL    HW2 6861   2.174   1.722   2.995
 1988SOL     OW 6862   6.111   3.701   0.555
 1988SOL    HW1 6863   6.122   3.782   0.497
 1988SOL    HW2 6864   6.015   3.674   0.558
 1989SOL     OW 6865   2.037   5.754   4.865
 1989SOL    HW1 6866   2.099   5.681   4.895
 1989SOL    HW2 6867   2.063   5.839   4.912
 1990SOL     OW 6868   3.735   5.489   0.781
 1990SOL    HW1 6869   3.693   5.564   0.729
 1990SOL    HW2 6870   3.831   5.509   0.795
 1991SOL     OW 6871   3.157   4.611   6.557
 1991SOL    HW1 6872   3.147   4.543   6.630
 1991SOL    HW2 6873   3.093   4.589   6.483
 1992SOL     OW 6874   0.389   0.711   0.304
 1992SOL    HW1 6875   0.415   0.616   0.320
 1992SOL    HW2 6876   0.291   0.717   0.285
 1993SOL     OW 6877   3.726   2.303   5.939
 1993SOL    HW1 6878   3.690   2.395   5.932
 1993SOL    HW2 6879   3.741   2.281   6.036
 1994SOL     OW 6880   0.633   1.471   0.114
 1994SOL    HW1 6881   0.673   1.561   0.096
 1994SOL    HW2 6882   0.697   1.415   0.166
 1995SOL     OW 6883   5.223   2.393   3.718
 1995SOL    HW1 6884   5.229   2.466   3.786
 1995SOL    HW2 6885   5.266   2.424   3.633
 1996SOL     OW 6886   2.318   2.729   0.394
 1996SOL    HW1 6887   2.247   2.715   0.326
 1996SOL    HW2 6888   2.295   2.680   0.478
 1997SOL     OW 6889   3.238   2.068   4.839
 1997SOL    HW1 6890   3.210   2.131   4.912
 1997SOL    HW2 6891   3.226   2.113   4.750
 1998SOL     OW 6892   2.924   3.617   0.295
 1998SOL    HW1 6893   2.891   3.597   0.203
 1998SOL    HW2 6894   2.957   3.533   0.339
 1999SOL     OW 6895   2.184   6.586   6.110
 1999SOL    HW1 6896   2.166   6.487   6.107
 1999SOL    HW2 6897   2.099   6.635   6.126
 2000SOL     OW 6898   3.989   2.714   5.304
 2000SOL    HW1 6899   4.056   2.667   5.246
 2000SOL    HW2 6900   4.025   2.802   5.332
 2001SOL     OW 6901   2.489   0.121   1.428
 2001SOL    HW1 6902   2.403   0.110   1.480
 2001SOL    HW2 6903   2.545   0.190   1.472
 2002SOL     OW 6904   0.659   4.209   0.045
 2002SOL    HW1 6905   0.649   4.215   0.145
 2002SOL    HW2 6906   0.727   4.139   0.022
 2003SOL     OW 6907   6.451   5.082   2.255
 2003SOL    HW1 6908   6.450   5.159   2.192
 2003SOL    HW2 6909   6.543   5.069   2.292
 2004SOL     OW 6910   5.214   1.122   3.994
 2004SOL    HW1 6911   5.300   1.132   4.045
 2004SOL    HW2 6912   5.163   1.208   3.997
 2005SOL     OW 6913   0.140   4.464   0.579
 2005SOL    HW1 6914   0.192   4.444   0.662
 2005SOL    HW2 6915   0.163   4.556   0.547
 2006SOL     OW 6916   5.640   0.078   2.567
 2006SOL    HW1 6917   5.615   0.169   2.534
 2006SOL    HW2 6918   5.558   0.024   2.582
 2007SOL     OW 6919   4.618   4.519   0.491
 2007SOL    HW1 6920   4.568   4.599   0.523
 2007SOL    HW2 6921   4.713   4.525   0.520
 2008SOL     OW 6922   1.874   4.208   3.943
 2008SOL    HW1 6923   1.860   4.159   3.857
 2008SOL    HW2 6924   1.905   4.144   4.014
 2009SOL     OW 6925   5.192   0.381   2.827
 2009SOL    HW1 6926   5.174   0.370   2.924
 2009SOL    HW2 6927   5.272   0.327   2.802
 2010SOL     OW 6928   3.034   2.015   1.993
 2010SOL    HW1 6929   3.000   1.921   1.989
 2010SOL    HW2 6930   3.005   2.066   1.912
 2011SOL     OW 6931   0.006   0.659   4.967
 2011SOL    HW1 6932   6.998   0.728   4.903
 2011SOL    HW2 6933   0.005   0.569   4.923
 2012SOL     OW 6934   1.073   4.472   2.477
 2012SOL    HW1 6935   1.090   4.486   2.574
 2012SOL    HW2 6936   1.160   4.458   2.429
 2013SOL     OW 6937   6.421   2.818   2.735
 2013SOL    HW1 6938   6.485   2.777   2.671
 2013SOL    HW2 6939   6.432   2.775   2.825
 2014SOL     OW 6940   2.586   6.627   3.416
 2014SOL    HW1 6941   2.630   6.541   3.389
 2014SOL    HW2 6942   2.565   6.681   3.335
 2015SOL     OW 6943   2.078   0.365   0.143
 2015SOL    HW1 6944   2.116   0.320   0.062
 2015SOL    HW2 6945   2.123   0.453   0.156
 2016SOL     OW 6946   1.959   6.416   5.535
 2016SOL    HW1 6947   1.912   6.328   5.530
 2016SOL    HW2 6948   1.972   6.452   5.442
 2017SOL     OW 6949   4.096   0.339   3.902
 2017SOL    HW1 6950   4.153   0.421   3.901
 2017SOL    HW2 6951   4.000   0.366   3.891
 2018SOL     OW 6952   5.557   2.748   4.347
 2018SOL    HW1 6953   5.630   2.809   4.317
 2018SOL    HW2 6954   5.497   2.727   4.270
 2019SOL     OW 6955   5.296   3.756   5.977
 2019SOL    HW1 6956   5.380   3.711   5.945
 2019SOL    HW2 6957   5.301   3.768   6.076
 2020SOL     OW 6958   2.260   6.930   5.230
 2020SOL    HW1 6959   2.318   6.937   5.149
 2020SOL    HW2 6960   2.257   7.018   5.277
 2021SOL     OW 6961   7.011   6.918   4.907
 2021SOL    HW1 6962   0.053   6.989   4.885
 2021SOL    HW2 6963   6.919   6.950   4.884
 2022SOL     OW 6964   1.271   5.175   3.566
 2022SOL    HW1 6965   1.193   5.183   3.504
 2022SOL    HW2 6966   1.247   5.216   3.654
 2023SOL     OW 6967   0.261   0.578   6.445
 2023SOL    HW1 6968   0.232   0.489   6.411
 2023SOL    HW2 6969   0.268   0.643   6.369
 2024SOL     OW 6970   6.991   5.962   3.222
 2024SOL    HW1 6971   6.897   5.990   3.240
 2024SOL    HW2 6972   0.021   6.041   3.196
 2025SOL     OW 6973   3.685   0.999   3.731
 2025SOL    HW1 6974   3.613   0.934   3.711
 2025SOL    HW2 6975   3.680   1.026   3.828
 2026SOL     OW 6976   6.262   3.263   5.450
 2026SOL    HW1 6977   6.253   3.329   5.524
 2026SOL    HW2 6978   6.358   3.237   5.440
 2027SOL     OW 6979   1.122   0.125   0.050
 2027SOL    HW1 6980   1.025   0.140   0.031
 2027SOL    HW2 6981   1.152   0.189   0.121
 2028SOL     OW 6982   2.668   5.482   4.285
 2028SOL    HW1 6983   2.732   5.428   4.340
 2028SOL    HW2 6984   2.575   5.463   4.315
 2029SOL     OW 6985   6.174   1.898   0.213
 2029SOL    HW1 6986   6.244   1.828   0.219
 2029SOL    HW2 6987   6.211   1.985   0.246
 2030SOL     OW 6988   3.053   0.736   3.578
 2030SOL    HW1 6989   3.101   0.803   3.634
 2030SOL    HW2 6990   3.076   0.644   3.610
 2031SOL     OW 6991   6.897   5.855   1.497
 2031SOL    HW1 6992   6.935   5.947   1.508
 2031SOL    HW2 6993   6.911   5.803   1.581
 2032SOL     OW 6994   4.185   0.692   1.807
 2032SOL    HW1 6995   4.169   0.698   1.709
 2032SOL    HW2 6996   4.229   0.776   1.839
 2033SOL     OW 6997   3.004   2.781   0.212
 2033SOL    HW1 6998   3.047   2.733   0.136
 2033SOL    HW2 6999   2.923   2.830   0.180
 2034SOL     OW 7000   2.241   4.978   5.017
 2034SOL    HW1 7001   2.182   4.956   4.939
 2034SOL    HW2 7002   2.228   5.074   5.042
 2035SOL     OW 7003   6.186   6.487   3.540
 2035SOL    HW1 7004   6.214   6.550   3.612
 2035SOL    HW2 7005   6.210   6.393   3.566
 2036SOL     OW 7006   0.835   3.545   2.786
 2036SOL    HW1 7007   0.792   3.596   2.861
 2036SOL    HW2 7008   0.926   3.583   2.768
 2037SOL     OW 7009   6.515   3.149   5.441
 2037SOL    HW1 7010   6.586   3.147   5.370
 2037SOL    HW2 7011   6.516   3.062   5.491
 2038SOL     OW 7012   2.041   1.406   0.327
 2038SOL    HW1 7013   2.038   1.428   0.424
 2038SOL    HW2 7014   1.948   1.393   0.293
 2039SOL     OW 7015   6.867   5.585   3.522
 2039SOL    HW1 7016   6.833   5.580   3.616
 2039SOL    HW2 7017   6.871   5.493   3.483
 2040SOL     OW 7018   1.693   2.951   6.312
 2040SOL    HW1 7019   1.787   2.983   6.322
 2040SOL    HW2 7020   1.693   2.852   6.296
 2041SOL     OW 7021   0.794   6.236   5.624
 2041SOL    HW1 7022   0.839   6.173   5.561
 2041SOL    HW2 7023   0.748   6.308   5.573
 2042SOL     OW 7024   4.578   6.165   7.005
 2042SOL    HW1 7025   4.631   6.113   6.938
 2042SOL    HW2 7026   4.483   6.170   6.975
 2043SOL     OW 7027   6.411   3.768   3.409
 2043SOL    HW1 7028   6.438   3.734   3.499
 2043SOL    HW2 7029   6.492   3.771   3.349
 2044SOL     OW 7030   7.004   0.905   1.537
 2044SOL    HW1 7031   0.072   0.907   1.499
 2044SOL    HW2 7032   6.941   0.950   1.474
 2045SOL     OW 7033   1.561   5.530   4.611
 2045SOL    HW1 7034   1.623   5.600   4.575
 2045SOL    HW2 7035   1.469   5.546   4.577
 2046SOL     OW 7036   6.938   1.942   4.042
 2046SOL    HW1 7037   7.024   1.893   4.031
 2046SOL    HW2 7038   6.886   1.902   4.118
 2047SOL     OW 7039   6.776   3.257   0.380
 2047SOL    HW1 7040   6.767   3.348   0.339
 2047SOL    HW2 7041   6.700   3.242   0.444
 2048SOL     OW 7042   1.047   6.681   5.526
 2048SOL    HW1 7043   1.098   6.740   5.589
 2048SOL    HW2 7044   1.036   6.728   5.439
 2049SOL     OW 7045   5.985   1.605   4.044
 2049SOL    HW1 7046   5.907   1.564   4.092
 2049SOL    HW2 7047   6.030   1.670   4.104
 2050SOL     OW 7048   6.071   2.733   3.684
 2050SOL    HW1 7049   6.131   2.794   3.632
 2050SOL    HW2 7050   6.074   2.757   3.781
 2051SOL     OW 7051   1.441   6.076   6.714
 2051SOL    HW1 7052   1.433   5.977   6.727
 2051SOL    HW2 7053   1.530   6.106   6.749
 2052SOL     OW 7054   2.012   3.023   1.333
 2052SOL    HW1 7055   2.093   2.975   1.367
 2052SOL    HW2 7056   2.034   3.069   1.248
 2053SOL     OW 7057   6.583   5.999   4.620
 2053SOL    HW1 7058   6.550   5.915   4.577
 2053SOL    HW2 7059   6.523   6.024   4.696
 2054SOL     OW 7060   3.730   4.117   3.626
 2054SOL    HW1 7061   3.823   4.153   3.639
 2054SOL    HW2 7062   3.681   4.120   3.712
 2055SOL     OW 7063   5.668   3.699   3.963
 2055SOL    HW1 7064   5.681   3.611   4.009
 2055SOL    HW2 7065   5.741   3.761   3.990
 2056SOL     OW 7066   4.381   5.231   0.942
 2056SOL    HW1 7067   4.447   5.173   0.989
 2056SOL    HW2 7068   4.300   5.177   0.918
 2057SOL     OW 7069   5.130   4.352   5.767
 2057SOL    HW1 7070   5.187   4.270   5.778
 2057SOL    HW2 7071   5.178   4.431   5.803
 2058SOL     OW 7072   0.525   6.782   2.809
 2058SOL    HW1 7073   0.464   6.708   2.836
 2058SOL    HW2 7074   0.474   6.867   2.803
 2059SOL     OW 7075   1.811   6.238   6.078
 2059SOL    HW1 7076   1.717   6.231   6.047
 2059SOL    HW2 7077   1.872   6.257   6.001
 2060SOL     OW 7078   0.669   3.700   1.150
 2060SOL    HW1 7079   0.666   3.760   1.231
 2060SOL    HW2 7080   0.716   3.615   1.173
 2061SOL     OW 7081   1.639   1.836   1.920
 2061SOL    HW1 7082   1.681   1.753   1.882
 2061SOL    HW2 7083   1.683   1.916   1.880
 2062SOL     OW 7084   0.236   5.422   5.555
 2062SOL    HW1 7085   0.190   5.448   5.471
 2062SOL    HW2 7086   0.168   5.385   5.619
 2063SOL     OW 7087   1.169   6.646   5.104
 2063SOL    HW1 7088   1.093   6.581   5.111
 2063SOL    HW2 7089   1.143   6.733   5.147
 2064SOL     OW 7090   0.115   2.459   4.762
 2064SOL    HW1 7091   0.017   2.479   4.754
 2064SOL    HW2 7092   0.166   2.520   4.702
 2065SOL     OW 7093   6.172   2.471   6.043
 2065SOL    HW1 7094   6.268   2.475   6.017
 2065SOL    HW2 7095   6.114   2.480   5.962
 2066SOL     OW 7096   6.972   4.210   5.211
 2066SOL    HW1 7097   0.015   4.174   5.147
 2066SOL    HW2 7098   6.999   4.188   5.304
 2067SOL     OW 7099   0.000   4.924   0.600
 2067SOL    HW1 7100   0.039   5.001   0.651
 2067SOL    HW2 7101   0.072   4.878   0.548
 2068SOL     OW 7102   2.479   0.218   4.173
 2068SOL    HW1 7103   2.424   0.145   4.133
 2068SOL    HW2 7104   2.425   0.268   4.241
 2069SOL     OW 7105   6.110   2.751   4.000
 2069SOL    HW1 7106   6.111   2.666   4.054
 2069SOL    HW2 7107   6.204   2.782   3.987
 2070SOL     OW 7108   1.272   1.614   1.032
 2070SOL    HW1 7109   1.346   1.572   0.981
 2070SOL    HW2 7110   1.305   1.643   1.122
 2071SOL     OW 7111   5.875   0.605   5.815
 2071SOL    HW1 7112   5.877   0.590   5.717
 2071SOL    HW2 7113   5.789   0.651   5.840
 2072SOL     OW 7114   4.553   5.200   4.425
 2072SOL    HW1 7115   4.474   5.253   4.392
 2072SOL    HW2 7116   4.524   5.106   4.443
 2073SOL     OW 7117   4.532   6.726   4.992
 2073SOL    HW1 7118   4.438   6.702   5.016
 2073SOL    HW2 7119   4.531   6.800   4.924
 2074SOL     OW 7120   2.326   2.827   6.105
 2074SOL    HW1 7121   2.382   2.751   6.137
 2074SOL    HW2 7122   2.294   2.880   6.183
 2075SOL     OW 7123   6.674   2.494   2.878
 2075SOL    HW1 7124   6.636   2.412   2.922
 2075SOL    HW2 7125   6.711   2.469   2.788
 2076SOL     OW 7126   5.161   6.490   6.422
 2076SOL    HW1 7127   5.162   6.575   6.474
 2076SOL    HW2 7128   5.256   6.461   6.405
 2077SOL     OW 7129   6.782   1.994   2.026
 2077SOL    HW1 7130   6.850   2.057   2.065
 2077SOL    HW2 7131   6.820   1.950   1.946
 2078SOL     OW 7132   2.143   5.508   6.425
 2078SOL    HW1 7133   2.123   5.530   6.521
 2078SOL    HW2 7134   2.078   5.556   6.366
 2079SOL     OW 7135   0.058   1.413   2.898
 2079SOL    HW1 7136   0.031   1.416   2.995
 2079SOL    HW2 7137   7.003   1.432   2.841
 2080SOL     OW 7138   2.529   0.693   5.043
 2080SOL    HW1 7139   2.603   0.625   5.043
 2080SOL    HW2 7140   2.459   0.664   4.977
 2081SOL     OW 7141   1.015   6.610   4.442
 2081SOL    HW1 7142   0.994   6.704   4.415
 2081SOL    HW2 7143   0.946   6.576   4.505
 2082SOL     OW 7144   0.685   6.417   3.126
 2082SOL    HW1 7145   0.733   6.342   3.173
 2082SOL    HW2 7146   0.714   6.419   3.030
 2083SOL     OW 7147   1.307   5.892   5.355
 2083SOL    HW1 7148   1.323   5.809   5.302
 2083SOL    HW2 7149   1.378   5.902   5.424
 2084SOL     OW 7150   0.421   3.819   2.842
 2084SOL    HW1 7151   0.454   3.855   2.755
 2084SOL    HW2 7152   0.403   3.721   2.832
 2085SOL     OW 7153   5.167   0.178   1.196
 2085SOL    HW1 7154   5.168   0.278   1.184
 2085SOL    HW2 7155   5.260   0.147   1.218
 2086SOL     OW 7156   3.301   6.344   6.741
 2086SOL    HW1 7157   3.343   6.433   6.723
 2086SOL    HW2 7158   3.360   6.272   6.704
 2087SOL     OW 7159   4.834   1.216   1.723
 2087SOL    HW1 7160   4.754   1.159   1.707
 2087SOL    HW2 7161   4.820   1.306   1.681
 2088SOL     OW 7162   0.962   6.046   6.712
 2088SOL    HW1 7163   1.037   5.980   6.715
 2088SOL    HW2 7164   0.906   6.037   6.794
 2089SOL     OW 7165   4.773   2.733   6.094
 2089SOL    HW1 7166   4.864   2.699   6.072
 2089SOL    HW2 7167   4.735   2.681   6.171
 2090SOL     OW 7168   4.557   3.185   5.655
 2090SOL    HW1 7169   4.540   3.283   5.667
 2090SOL    HW2 7170   4.639   3.159   5.705
 2091SOL     OW 7171   7.002   4.907   0.898
 2091SOL    HW1 7172   6.966   4.861   0.979
 2091SOL    HW2 7173   6.974   4.857   0.816
 2092SOL     OW 7174   5.144   3.681   0.524
 2092SOL    HW1 7175   5.209   3.605   0.535
 2092SOL    HW2 7176   5.184   3.765   0.560
 2093SOL     OW 7177   3.207   2.280   1.773
 2093SOL    HW1 7178   3.230   2.188   1.742
 2093SOL    HW2 7179   3.115   2.280   1.811
 2094SOL     OW 7180   5.534   1.607   1.554
 2094SOL    HW1 7181   5.569   1.659   1.476
 2094SOL    HW2 7182   5.442   1.639   1.576
 2095SOL     OW 7183   5.969   6.482   4.526
 2095SOL    HW1 7184   6.000   6.544   4.598
 2095SOL    HW2 7185   5.870   6.467   4.535
 2096SOL     OW 7186   4.782   5.431   3.304
 2096SOL    HW1 7187   4.722   5.467   3.376
 2096SOL    HW2 7188   4.876   5.459   3.322
 2097SOL     OW 7189   2.965   3.001   6.847
 2097SOL    HW1 7190   3.064   2.992   6.839
 2097SOL    HW2 7191   2.930   3.055   6.771
 2098SOL     OW 7192   4.382   6.109   2.144
 2098SOL    HW1 7193   4.309   6.081   2.082
 2098SOL    HW2 7194   4.404   6.206   2.129
 2099SOL     OW 7195   3.601   1.725   0.253
 2099SOL    HW1 7196   3.564   1.797   0.311
 2099SOL    HW2 7197   3.528   1.662   0.227
 2100SOL     OW 7198   5.898   1.499   0.818
 2100SOL    HW1 7199   5.904   1.547   0.905
 2100SOL    HW2 7200   5.883   1.565   0.744
 2101SOL     OW 7201   0.267   6.646   1.036
 2101SOL    HW1 7202   0.211   6.663   1.116
 2101SOL    HW2 7203   0.226   6.572   0.981
 2102SOL     OW 7204   5.245   3.689   2.033
 2102SOL    HW1 7205   5.264   3.641   1.947
 2102SOL    HW2 7206   5.161   3.743   2.023
 2103SOL     OW 7207   3.480   3.255   6.974
 2103SOL    HW1 7208   3.505   3.332   6.916
 2103SOL    HW2 7209   3.444   3.289   0.037
 2104SOL     OW 7210   1.548   4.477   2.374
 2104SOL    HW1 7211   1.458   4.442   2.347
 2104SOL    HW2 7212   1.568   4.560   2.322
 2105SOL     OW 7213   4.612   5.100   6.278
 2105SOL    HW1 7214   4.590   5.028   6.344
 2105SOL    HW2 7215   4.711   5.102   6.262
 2106SOL     OW 7216   5.071   3.819   1.804
 2106SOL    HW1 7217   5.132   3.832   1.726
 2106SOL    HW2 7218   4.979   3.847   1.780
 2107SOL     OW 7219   5.955   2.226   5.534
 2107SOL    HW1 7220   5.974   2.232   5.436
 2107SOL    HW2 7221   5.914   2.311   5.566
 2108SOL     OW 7222   6.494   5.466   5.264
 2108SOL    HW1 7223   6.525   5.508   5.178
 2108SOL    HW2 7224   6.570   5.461   5.328
 2109SOL     OW 7225   3.756   5.992   2.551
 2109SOL    HW1 7226   3.675   5.988   2.493
 2109SOL    HW2 7227   3.837   5.972   2.495
 2110SOL     OW 7228   3.229   0.802   0.455
 2110SOL    HW1 7229   3.138   0.841   0.462
 2110SOL    HW2 7230   3.228   0.708   0.490
 2111SOL     OW 7231   2.317   3.653   6.373
 2111SOL    HW1 7232   2.245   3.673   6.308
 2111SOL    HW2 7233   2.314   3.719   6.448
 2112SOL     OW 7234   4.970   1.876   0.619
 2112SOL    HW1 7235   5.029   1.804   0.655
 2112SOL    HW2 7236   4.942   1.854   0.526
 2113SOL     OW 7237   2.566   1.058   4.942
 2113SOL    HW1 7238   2.473   1.027   4.927
 2113SOL    HW2 7239   2.620   0.983   4.980
 2114SOL     OW 7240   2.662   2.122   6.695
 2114SOL    HW1 7241   2.651   2.030   6.658
 2114SOL    HW2 7242   2.584   2.178   6.668
 2115SOL     OW 7243   0.869   4.059   2.021
 2115SOL    HW1 7244   0.778   4.102   2.018
 2115SOL    HW2 7245   0.859   3.960   2.032
 2116SOL     OW 7246   1.271   3.135   2.297
 2116SOL    HW1 7247   1.248   3.087   2.212
 2116SOL    HW2 7248   1.367   3.163   2.294
 2117SOL     OW 7249   5.917   3.783   1.390
 2117SOL    HW1 7250   5.918   3.721   1.469
 2117SOL    HW2 7251   5.831   3.773   1.340
 2118SOL     OW 7252   6.836   3.259   3.621
 2118SOL    HW1 7253   6.748   3.227   3.585
 2118SOL    HW2 7254   6.906   3.189   3.605
 2119SOL     OW 7255   1.956   0.917   0.940
 2119SOL    HW1 7256   2.049   0.950   0.960
 2119SOL    HW2 7257   1.907   0.987   0.888
 2120SOL     OW 7258   0.350   3.555   2.841
 2120SOL    HW1 7259   0.436   3.509   2.820
 2120SOL    HW2 7260   0.275   3.510   2.792
 2121SOL     OW 7261   1.580   2.592   5.908
 2121SOL    HW1 7262   1.508   2.593   5.977
 2121SOL    HW2 7263   1.544   2.557   5.821
 2122SOL     OW 7264   5.358   6.069   6.760
 2122SOL    HW1 7265   5.359   6.055   6.661
 2122SOL    HW2 7266   5.275   6.030   6.799
 2123SOL     OW 7267   6.601   5.896   1.248
 2123SOL    HW1 7268   6.645   5.845   1.174
 2123SOL    HW2 7269   6.502   5.895   1.235
 2124SOL     OW 7270   2.652   1.567   0.076
 2124SOL    HW1 7271   2.596   1.538   0.153
 2124SOL    HW2 7272   2.686   1.487   0.026
 2125SOL     OW 7273   0.738   5.964   1.928
 2125SOL    HW1 7274   0.709   5.895   1.994
 2125SOL    HW2 7275   0.814   6.016   1.965
 2126SOL     OW 7276   3.383   2.659   6.769
 2126SOL    HW1 7277   3.398   2.694   6.862
 2126SOL    HW2 7278   3.351   2.734   6.711
 2127SOL     OW 7279   0.656   1.632   5.397
 2127SOL    HW1 7280   0.585   1.586   5.344
 2127SOL    HW2 7281   0.684   1.574   5.473
 2128SOL     OW 7282   6.229   2.215   2.232
 2128SOL    HW1 7283   6.225   2.308   2.268
 2128SOL    HW2 7284   6.136   2.184   2.211
 2129SOL     OW 7285   4.667   4.787   5.014
 2129SOL    HW1 7286   4.676   4.813   4.918
 2129SOL    HW2 7287   4.579   4.819   5.049
 2130SOL     OW 7288   2.751   0.682   2.197
 2130SOL    HW1 7289   2.805   0.655   2.117
 2130SOL    HW2 7290   2.800   0.656   2.280
 2131SOL     OW 7291   5.305   0.937   0.809
 2131SOL    HW1 7292   5.378   0.868   0.811
 2131SOL    HW2 7293   5.232   0.906   0.749
 2132SOL     OW 7294   3.158   1.794   6.705
 2132SOL    HW1 7295   3.118   1.786   6.797
 2132SOL    HW2 7296   3.114   1.729   6.643
 2133SOL     OW 7297   3.440   2.579   1.252
 2133SOL    HW1 7298   3.470   2.534   1.336
 2133SOL    HW2 7299   3.459   2.677   1.257
 2134SOL     OW 7300   0.953   0.850   4.863
 2134SOL    HW1 7301   0.999   0.939   4.862
 2134SOL    HW2 7302   1.018   0.778   4.840
 2135SOL     OW 7303   0.791   1.382   4.372
 2135SOL    HW1 7304   0.802   1.471   4.328
 2135SOL    HW2 7305   0.862   1.319   4.339
 2136SOL     OW 7306   1.443   3.988   4.893
 2136SOL    HW1 7307   1.364   3.958   4.839
 2136SOL    HW2 7308   1.447   4.088   4.892
 2137SOL     OW 7309   0.019   6.688   4.031
 2137SOL    HW1 7310   6.980   6.758   4.062
 2137SOL    HW2 7311   0.109   6.703   4.074
 2138SOL     OW 7312   6.524   1.801   2.055
 2138SOL    HW1 7313   6.537   1.777   1.959
 2138SOL    HW2 7314   6.583   1.744   2.112
 2139SOL     OW 7315   4.223   0.767   2.511
 2139SOL    HW1 7316   4.168   0.769   2.428
 2139SOL    HW2 7317   4.268   0.856   2.523
 2140SOL     OW 7318   3.161   5.923   3.216
 2140SOL    HW1 7319   3.244   5.898   3.165
 2140SOL    HW2 7320   3.097   5.969   3.154
 2141SOL     OW 7321   0.214   3.468   1.395
 2141SOL    HW1 7322   0.313   3.454   1.386
 2141SOL    HW2 7323   0.191   3.561   1.366
 2142SOL     OW 7324   1.379   2.107   2.839
 2142SOL    HW1 7325   1.327   2.105   2.754
 2142SOL    HW2 7326   1.340   2.041   2.904
 2143SOL     OW 7327   3.352   4.607   0.597
 2143SOL    HW1 7328   3.336   4.661   0.680
 2143SOL    HW2 7329   3.348   4.509   0.620
 2144SOL     OW 7330   1.137   0.132   2.741
 2144SOL    HW1 7331   1.129   0.221   2.786
 2144SOL    HW2 7332   1.056   0.116   2.684
 2145SOL     OW 7333   3.991   5.683   3.770
 2145SOL    HW1 7334   3.965   5.641   3.858
 2145SOL    HW2 7335   3.939   5.767   3.757
 2146SOL     OW 7336   2.930   3.620   2.150
 2146SOL    HW1 7337   2.978   3.618   2.062
 2146SOL    HW2 7338   2.847   3.674   2.141
 2147SOL     OW 7339   6.856   0.314   6.867
 2147SOL    HW1 7340   6.804   0.397   6.846
 2147SOL    HW2 7341   6.802   0.234   6.841
 2148SOL     OW 7342   4.858   3.003   4.344
 2148SOL    HW1 7343   4.807   2.918   4.333
 2148SOL    HW2 7344   4.954   2.987   4.320
 2149SOL     OW 7345   3.812   0.927   1.338
 2149SOL    HW1 7346   3.750   0.974   1.275
 2149SOL    HW2 7347   3.764   0.849   1.380
 2150SOL     OW 7348   2.083   2.390   2.388
 2150SOL    HW1 7349   2.127   2.480   2.396
 2150SOL    HW2 7350   2.004   2.387   2.449
 2151SOL     OW 7351   2.081   1.291   4.038
 2151SOL    HW1 7352   2.052   1.375   3.991
 2151SOL    HW2 7353   2.000   1.236   4.060
 2152SOL     OW 7354   3.716   5.921   0.976
 2152SOL    HW1 7355   3.659   6.001   0.997
 2152SOL    HW2 7356   3.684   5.842   1.029
 2153SOL     OW 7357   3.574   0.031   3.344
 2153SOL    HW1 7358   3.484   7.018   3.324
 2153SOL    HW2 7359   3.569   0.092   3.423
 2154SOL     OW 7360   4.578   0.181   4.806
 2154SOL    HW1 7361   4.522   0.256   4.771
 2154SOL    HW2 7362   4.633   0.213   4.882
 2155SOL     OW 7363   1.579   5.390   7.020
 2155SOL    HW1 7364   1.518   5.366   6.944
 2155SOL    HW2 7365   1.571   5.488   0.015
 2156SOL     OW 7366   2.502   0.475   2.259
 2156SOL    HW1 7367   2.548   0.549   2.210
 2156SOL    HW2 7368   2.503   0.494   2.357
 2157SOL     OW 7369   6.256   1.473   3.244
 2157SOL    HW1 7370   6.338   1.531   3.246
 2157SOL    HW2 7371   6.181   1.520   3.291
 2158SOL     OW 7372   4.533   6.320   0.777
 2158SOL    HW1 7373   4.529   6.283   0.684
 2158SOL    HW2 7374   4.458   6.281   0.831
 2159SOL     OW 7375   1.723   5.975   5.730
 2159SOL    HW1 7376   1.821   5.957   5.735
 2159SOL    HW2 7377   1.676   5.927   5.804
 2160SOL     OW 7378   4.480   3.043   1.451
 2160SOL    HW1 7379   4.475   3.074   1.546
 2160SOL    HW2 7380   4.459   2.945   1.446
 2161SOL     OW 7381   5.335   2.470   3.470
 2161SOL    HW1 7382   5.368   2.413   3.395
 2161SOL    HW2 7383   5.314   2.561   3.436
 2162SOL     OW 7384   3.189   0.389   0.042
 2162SOL    HW1 7385   3.209   0.387   0.140
 2162SOL    HW2 7386   3.261   0.339   7.018
 2163SOL     OW 7387   0.076   5.341   6.255
 2163SOL    HW1 7388   0.150   5.300   6.308
 2163SOL    HW2 7389   0.103   5.347   6.159
 2164SOL     OW 7390   1.604   2.291   6.972
 2164SOL    HW1 7391   1.601   2.338   6.884
 2164SOL    HW2 7392   1.651   2.203   6.962
 2165SOL     OW 7393   0.732   1.365   2.789
 2165SOL    HW1 7394   0.797   1.416   2.733
 2165SOL    HW2 7395   0.706   1.420   2.869
 2166SOL     OW 7396   2.236   2.185   5.420
 2166SOL    HW1 7397   2.312   2.236   5.460
 2166SOL    HW2 7398   2.235   2.092   5.455
 2167SOL     OW 7399   1.924   1.166   3.446
 2167SOL    HW1 7400   1.839   1.216   3.427
 2167SOL    HW2 7401   1.997   1.231   3.464
 2168SOL     OW 7402   6.771   2.375   3.661
 2168SOL    HW1 7403   6.742   2.396   3.567
 2168SOL    HW2 7404   6.707   2.309   3.701
 2169SOL     OW 7405   5.623   2.259   6.006
 2169SOL    HW1 7406   5.649   2.331   6.070
 2169SOL    HW2 7407   5.545   2.290   5.952
 2170SOL     OW 7408   6.176   4.810   5.900
 2170SOL    HW1 7409   6.190   4.712   5.917
 2170SOL    HW2 7410   6.261   4.850   5.866
 2171SOL     OW 7411   5.962   3.317   0.708
 2171SOL    HW1 7412   5.949   3.296   0.805
 2171SOL    HW2 7413   5.961   3.232   0.655
 2172SOL     OW 7414   2.508   1.995   0.473
 2172SOL    HW1 7415   2.425   2.002   0.528
 2172SOL    HW2 7416   2.484   1.972   0.378
 2173SOL     OW 7417   3.660   0.148   5.805
 2173SOL    HW1 7418   3.691   0.060   5.768
 2173SOL    HW2 7419   3.726   0.182   5.871
 2174SOL     OW 7420   5.975   5.041   5.940
 2174SOL    HW1 7421   5.892   5.041   5.995
 2174SOL    HW2 7422   6.028   4.958   5.960
 2175SOL     OW 7423   3.140   2.149   3.180
 2175SOL    HW1 7424   3.181   2.088   3.112
 2175SOL    HW2 7425   3.208   2.173   3.249
 2176SOL     OW 7426   0.979   2.593   1.121
 2176SOL    HW1 7427   1.000   2.570   1.216
 2176SOL    HW2 7428   0.973   2.508   1.067
 2177SOL     OW 7429   6.172   0.570   2.778
 2177SOL    HW1 7430   6.218   0.658   2.779
 2177SOL    HW2 7431   6.081   0.579   2.739
 2178SOL     OW 7432   2.223   4.410   0.617
 2178SOL    HW1 7433   2.272   4.413   0.529
 2178SOL    HW2 7434   2.146   4.347   0.610
 2179SOL     OW 7435   2.105   5.277   4.755
 2179SOL    HW1 7436   2.032   5.225   4.798
 2179SOL    HW2 7437   2.154   5.219   4.690
 2180SOL     OW 7438   2.847   3.447   1.815
 2180SOL    HW1 7439   2.885   3.534   1.847
 2180SOL    HW2 7440   2.922   3.383   1.797
 2181SOL     OW 7441   5.165   4.607   5.542
 2181SOL    HW1 7442   5.254   4.561   5.538
 2181SOL    HW2 7443   5.104   4.556   5.602
 2182SOL     OW 7444   6.343   3.522   4.923
 2182SOL    HW1 7445   6.326   3.467   5.005
 2182SOL    HW2 7446   6.431   3.496   4.884
 2183SOL     OW 7447   3.805   3.727   6.537
 2183SOL    HW1 7448   3.850   3.640   6.559
 2183SOL    HW2 7449   3.839   3.761   6.449
 2184SOL     OW 7450   3.597   1.254   5.163
 2184SOL    HW1 7451   3.681   1.308   5.167
 2184SOL    HW2 7452   3.525   1.307   5.118
 2185SOL     OW 7453   1.637   2.190   0.786
 2185SOL    HW1 7454   1.551   2.227   0.753
 2185SOL    HW2 7455   1.699   2.266   0.809
 2186SOL     OW 7456   6.831   4.798   2.402
 2186SOL    HW1 7457   6.923   4.827   2.425
 2186SOL    HW2 7458   6.790   4.751   2.480
 2187SOL     OW 7459   0.852   1.907   1.781
 2187SOL    HW1 7460   0.818   1.900   1.875
 2187SOL    HW2 7461   0.830   1.822   1.731
 2188SOL     OW 7462   5.522   5.888   3.731
 2188SOL    HW1 7463   5.466   5.841   3.663
 2188SOL    HW2 7464   5.501   5.852   3.822
 2189SOL     OW 7465   1.790   6.405   6.529
 2189SOL    HW1 7466   1.878   6.438   6.496
 2189SOL    HW2 7467   1.764   6.322   6.479
 2190SOL     OW 7468   6.961   2.441   1.973
 2190SOL    HW1 7469   6.863   2.455   1.965
 2190SOL    HW2 7470   6.990   2.369   1.910
 2191SOL     OW 7471   3.130   1.745   5.950
 2191SOL    HW1 7472   3.164   1.690   6.027
 2191SOL    HW2 7473   3.039   1.713   5.924
 2192SOL     OW 7474   3.617   0.149   4.151
 2192SOL    HW1 7475   3.558   0.145   4.232
 2192SOL    HW2 7476   3.700   0.199   4.173
 2193SOL     OW 7477   6.825   6.469   6.142
 2193SOL    HW1 7478   6.733   6.445   6.111
 2193SOL    HW2 7479   6.865   6.392   6.191
 2194SOL     OW 7480   2.262   4.432   0.087
 2194SOL    HW1 7481   2.228   4.486   0.010
 2194SOL    HW2 7482   2.348   4.387   0.062
 2195SOL     OW 7483   0.496   6.550   2.262
 2195SOL    HW1 7484   0.442   6.476   2.303
 2195SOL    HW2 7485   0.553   6.592   2.333
 2196SOL     OW 7486   2.897   0.377   5.922
 2196SOL    HW1 7487   2.980   0.344   5.877
 2196SOL    HW2 7488   2.883   0.473   5.900
 2197SOL     OW 7489   4.669   3.639   1.562
 2197SOL    HW1 7490   4.636   3.558   1.513
 2197SOL    HW2 7491   4.592   3.701   1.580
 2198SOL     OW 7492   6.608   1.893   0.222
 2198SOL    HW1 7493   6.553   1.973   0.246
 2198SOL    HW2 7494   6.675   1.876   0.294
 2199SOL     OW 7495   5.464   0.900   1.678
 2199SOL    HW1 7496   5.426   0.922   1.767
 2199SOL    HW2 7497   5.506   0.809   1.681
 2200SOL     OW 7498   4.102   0.566   4.734
 2200SOL    HW1 7499   4.126   0.475   4.699
 2200SOL    HW2 7500   4.089   0.561   4.833
 2201SOL     OW 7501   6.626   2.997   2.150
 2201SOL    HW1 7502   6.684   2.964   2.224
 2201SOL    HW2 7503   6.544   3.040   2.188
 2202SOL     OW 7504   3.536   4.983   4.373
 2202SOL    HW1 7505   3.610   5.010   4.312
 2202SOL    HW2 7506   3.574   4.945   4.458
 2203SOL     OW 7507   2.337   2.467   2.117
 2203SOL    HW1 7508   2.423   2.438   2.074
 2203SOL    HW2 7509   2.263   2.408   2.085
 2204SOL     OW 7510   3.281   1.319   6.933
 2204SOL    HW1 7511   3.288   1.247   7.001
 2204SOL    HW2 7512   3.325   1.402   6.967
 2205SOL     OW 7513   1.460   0.219   6.618
 2205SOL    HW1 7514   1.429   0.303   6.664
 2205SOL    HW2 7515   1.470   0.237   6.521
 2206SOL     OW 7516   3.039   4.315   5.298
 2206SOL    HW1 7517   2.991   4.397   5.266
 2206SOL    HW2 7518   3.041   4.247   5.225
 2207SOL     OW 7519   1.973   4.134   6.172
 2207SOL    HW1 7520   1.975   4.074   6.251
 2207SOL    HW2 7521   2.039   4.102   6.104
 2208SOL     OW 7522   1.663   4.668   2.183
 2208SOL    HW1 7523   1.597   4.742   2.174
 2208SOL    HW2 7524   1.749   4.703   2.219
 2209SOL     OW 7525   1.317   5.975   5.786
 2209SOL    HW1 7526   1.394   6.029   5.753
 2209SOL    HW2 7527   1.243   6.037   5.814
 2210SOL     OW 7528   0.145   5.132   3.664
 2210SOL    HW1 7529   0.219   5.064   3.662
 2210SOL    HW2 7530   0.169   5.209   3.604
 2211SOL     OW 7531   5.710   1.582   7.015
 2211SOL    HW1 7532   5.627   1.634   6.995
 2211SOL    HW2 7533   5.790   1.631   6.979
 2212SOL     OW 7534   1.812   6.082   0.601
 2212SOL    HW1 7535   1.791   6.116   0.693
 2212SOL    HW2 7536   1.727   6.061   0.553
 2213SOL     OW 7537   4.424   2.811   5.482
 2213SOL    HW1 7538   4.435   2.713   5.464
 2213SOL    HW2 7539   4.488   2.863   5.425
 2214SOL     OW 7540   4.838   1.207   5.233
 2214SOL    HW1 7541   4.816   1.192   5.329
 2214SOL    HW2 7542   4.937   1.207   5.220
 2215SOL     OW 7543   7.005   1.505   6.016
 2215SOL    HW1 7544   7.007   1.500   6.115
 2215SOL    HW2 7545   0.066   1.547   5.983
 2216SOL     OW 7546   1.749   0.382   6.962
 2216SOL    HW1 7547   1.658   0.359   6.997
 2216SOL    HW2 7548   1.818   0.333   7.016
 2217SOL     OW 7549   2.964   0.174   1.471
 2217SOL    HW1 7550   2.978   0.258   1.522
 2217SOL    HW2 7551   2.892   0.119   1.515
 2218SOL     OW 7552   1.396   6.376   0.473
 2218SOL    HW1 7553   1.305   6.411   0.494
 2218SOL    HW2 7554   1.465   6.445   0.498
 2219SOL     OW 7555   1.141   4.278   3.416
 2219SOL    HW1 7556   1.232   4.318   3.433
 2219SOL    HW2 7557   1.080   4.348   3.381
 2220SOL     OW 7558   0.392   1.067   4.351
 2220SOL    HW1 7559   0.433   1.098   4.437
 2220SOL    HW2 7560   0.362   0.972   4.360
 2221SOL     OW 7561   6.509   0.741   6.800
 2221SOL    HW1 7562   6.536   0.756   6.895
 2221SOL    HW2 7563   6.420   0.696   6.797
 2222SOL     OW 7564   3.889   0.489   0.695
 2222SOL    HW1 7565   3.913   0.402   0.652
 2222SOL    HW2 7566   3.792   0.509   0.679
 2223SOL     OW 7567   5.631   6.475   3.740
 2223SOL    HW1 7568   5.668   6.562   3.771
 2223SOL    HW2 7569   5.696   6.430   3.678
 2224SOL     OW 7570   2.473   4.660   1.658
 2224SOL    HW1 7571   2.532   4.605   1.718
 2224SOL    HW2 7572   2.529   4.700   1.585
 2225SOL     OW 7573   6.145   5.566   3.138
 2225SOL    HW1 7574   6.178   5.491   3.081
 2225SOL    HW2 7575   6.151   5.652   3.087
 2226SOL     OW 7576   4.250   3.263   0.481
 2226SOL    HW1 7577   4.203   3.178   0.507
 2226SOL    HW2 7578   4.345   3.242   0.458
 2227SOL     OW 7579   5.954   4.351   0.344
 2227SOL    HW1 7580   5.952   4.417   0.419
 2227SOL    HW2 7581   5.929   4.396   0.258
 2228SOL     OW 7582   3.184   5.841   0.662
 2228SOL    HW1 7583   3.177   5.835   0.761
 2228SOL    HW2 7584   3.164   5.935   0.633
 2229SOL     OW 7585   4.203   1.390   4.264
 2229SOL    HW1 7586   4.261   1.308   4.272
 2229SOL    HW2 7587   4.255   1.470   4.294
 2230SOL     OW 7588   0.634   6.615   4.380
 2230SOL    HW1 7589   0.695   6.593   4.456
 2230SOL    HW2 7590   0.616   6.533   4.326
 2231SOL     OW 7591   1.990   1.883   1.564
 2231SOL    HW1 7592   1.926   1.806   1.561
 2231SOL    HW2 7593   1.972   1.938   1.645
 2232SOL     OW 7594   0.903   2.733   3.873
 2232SOL    HW1 7595   0.985   2.678   3.863
 2232SOL    HW2 7596   0.877   2.771   3.784
 2233SOL     OW 7597   3.093   4.593   0.477
 2233SOL    HW1 7598   3.186   4.624   0.496
 2233SOL    HW2 7599   3.033   4.618   0.553
 2234SOL     OW 7600   4.757   2.250   1.252
 2234SOL    HW1 7601   4.781   2.169   1.305
 2234SOL    HW2 7602   4.807   2.248   1.165
 2235SOL     OW 7603   1.439   0.302   0.330
 2235SOL    HW1 7604   1.433   0.370   0.403
 2235SOL    HW2 7605   1.531   0.305   0.290
 2236SOL     OW 7606   0.964   4.758   0.558
 2236SOL    HW1 7607   0.871   4.794   0.550
 2236SOL    HW2 7608   0.964   4.676   0.616
 2237SOL     OW 7609   5.923   3.854   4.438
 2237SOL    HW1 7610   5.851   3.910   4.481
 2237SOL    HW2 7611   5.960   3.790   4.505
 2238SOL     OW 7612   6.745   5.458   2.549
 2238SOL    HW1 7613   6.657   5.428   2.513
 2238SOL    HW2 7614   6.731   5.513   2.631
 2239SOL     OW 7615   3.920   5.141   3.477
 2239SOL    HW1 7616   3.884   5.230   3.449
 2239SOL    HW2 7617   4.016   5.135   3.450
 2240SOL     OW 7618   5.514   5.439   3.862
 2240SOL    HW1 7619   5.611   5.449   3.883
 2240SOL    HW2 7620   5.478   5.359   3.910
 2241SOL     OW 7621   6.990   6.725   2.424
 2241SOL    HW1 7622   6.946   6.761   2.341
 2241SOL    HW2 7623   0.064   6.718   2.409
 2242SOL     OW 7624   5.240   2.155   3.291
 2242SOL    HW1 7625   5.239   2.238   3.236
 2242SOL    HW2 7626   5.316   2.097   3.261
 2243SOL     OW 7627   2.953   6.186   5.361
 2243SOL    HW1 7628   2.885   6.218   5.427
 2243SOL    HW2 7629   2.921   6.102   5.318
 2244SOL     OW 7630   3.736   0.249   2.751
 2244SOL    HW1 7631   3.786   0.197   2.682
 2244SOL    HW2 7632   3.719   0.192   2.831
 2245SOL     OW 7633   0.437   2.134   1.436
 2245SOL    HW1 7634   0.489   2.064   1.484
 2245SOL    HW2 7635   0.420   2.105   1.342
 2246SOL     OW 7636   1.556   1.570   5.373
 2246SOL    HW1 7637   1.544   1.516   5.457
 2246SOL    HW2 7638   1.632   1.532   5.320
 2247SOL     OW 7639   2.064   2.619   6.665
 2247SOL    HW1 7640   1.980   2.672   6.681
 2247SOL    HW2 7641   2.115   2.659   6.589
 2248SOL     OW 7642   4.804   3.799   5.752
 2248SOL    HW1 7643   4.871   3.863   5.788
 2248SOL    HW2 7644   4.822   3.708   5.787
 2249SOL     OW 7645   5.545   6.483   2.829
 2249SOL    HW1 7646   5.495   6.565   2.801
 2249SOL    HW2 7647   5.485   6.425   2.884
 2250SOL     OW 7648   5.408   3.655   1.298
 2250SOL    HW1 7649   5.405   3.749   1.264
 2250SOL    HW2 7650   5.332   3.640   1.361
 2251SOL     OW 7651   6.065   1.500   0.268
 2251SOL    HW1 7652   6.052   1.599   0.265
 2251SOL    HW2 7653   6.135   1.478   0.336
 2252SOL     OW 7654   6.398   2.513   4.439
 2252SOL    HW1 7655   6.382   2.608   4.464
 2252SOL    HW2 7656   6.319   2.458   4.467
 2253SOL     OW 7657   1.232   3.121   6.553
 2253SOL    HW1 7658   1.163   3.066   6.599
 2253SOL    HW2 7659   1.224   3.109   6.454
 2254SOL     OW 7660   2.485   3.029   6.051
 2254SOL    HW1 7661   2.420   2.953   6.042
 2254SOL    HW2 7662   2.570   3.005   6.005
 2255SOL     OW 7663   6.554   2.365   0.791
 2255SOL    HW1 7664   6.510   2.403   0.709
 2255SOL    HW2 7665   6.572   2.439   0.856
 2256SOL     OW 7666   4.180   5.774   1.544
 2256SOL    HW1 7667   4.274   5.787   1.510
 2256SOL    HW2 7668   4.125   5.729   1.474
 2257SOL     OW 7669   1.017   2.864   4.781
 2257SOL    HW1 7670   1.104   2.912   4.769
 2257SOL    HW2 7671   1.026   2.770   4.748
 2258SOL     OW 7672   1.033   5.781   4.725
 2258SOL    HW1 7673   0.984   5.707   4.770
 2258SOL    HW2 7674   1.106   5.744   4.668
 2259SOL     OW 7675   4.852   3.531   5.930
 2259SOL    HW1 7676   4.909   3.610   5.952
 2259SOL    HW2 7677   4.909   3.457   5.893
 2260SOL     OW 7678   4.395   4.575   2.810
 2260SOL    HW1 7679   4.436   4.666   2.803
 2260SOL    HW2 7680   4.437   4.524   2.885
 2261SOL     OW 7681   6.110   6.886   0.982
 2261SOL    HW1 7682   6.093   6.787   0.984
 2261SOL    HW2 7683   6.193   6.906   1.034
 2262SOL     OW 7684   5.629   2.665   2.504
 2262SOL    HW1 7685   5.615   2.632   2.598
 2262SOL    HW2 7686   5.642   2.587   2.443
 2263SOL     OW 7687   2.663   5.733   6.294
 2263SOL    HW1 7688   2.592   5.681   6.342
 2263SOL    HW2 7689   2.640   5.739   6.197
 2264SOL     OW 7690   3.573   3.868   2.540
 2264SOL    HW1 7691   3.496   3.913   2.496
 2264SOL    HW2 7692   3.570   3.770   2.520
 2265SOL     OW 7693   0.109   0.485   3.398
 2265SOL    HW1 7694   0.161   0.522   3.321
 2265SOL    HW2 7695   0.019   0.528   3.401
 2266SOL     OW 7696   6.783   1.536   1.256
 2266SOL    HW1 7697   6.867   1.589   1.240
 2266SOL    HW2 7698   6.731   1.531   1.171
 2267SOL     OW 7699   5.683   2.851   4.815
 2267SOL    HW1 7700   5.717   2.910   4.741
 2267SOL    HW2 7701   5.597   2.887   4.850
 2268SOL     OW 7702   6.880   4.891   0.194
 2268SOL    HW1 7703   6.782   4.873   0.208
 2268SOL    HW2 7704   6.908   4.970   0.249
 2269SOL     OW 7705   6.297   5.824   5.319
 2269SOL    HW1 7706   6.208   5.803   5.360
 2269SOL    HW2 7707   6.289   5.907   5.264
 2270SOL     OW 7708   4.081   3.746   0.410
 2270SOL    HW1 7709   4.092   3.844   0.390
 2270SOL    HW2 7710   4.171   3.701   0.407
 2271SOL     OW 7711   6.326   4.091   1.279
 2271SOL    HW1 7712   6.320   4.145   1.362
 2271SOL    HW2 7713   6.397   4.129   1.219
 2272SOL     OW 7714   6.459   1.945   4.515
 2272SOL    HW1 7715   6.425   2.023   4.568
 2272SOL    HW2 7716   6.416   1.861   4.547
 2273SOL     OW 7717   1.390   1.593   1.977
 2273SOL    HW1 7718   1.464   1.550   2.030
 2273SOL    HW2 7719   1.398   1.692   1.983
 2274SOL     OW 7720   1.029   3.187   5.729
 2274SOL    HW1 7721   1.080   3.250   5.789
 2274SOL    HW2 7722   0.951   3.236   5.689
 2275SOL     OW 7723   4.820   6.939   5.071
 2275SOL    HW1 7724   4.892   7.009   5.081
 2275SOL    HW2 7725   4.819   6.905   4.977
 2276SOL     OW 7726   3.272   5.061   1.332
 2276SOL    HW1 7727   3.210   5.075   1.255
 2276SOL    HW2 7728   3.273   4.964   1.358
 2277SOL     OW 7729   2.982   3.621   4.629
 2277SOL    HW1 7730   2.919   3.588   4.558
 2277SOL    HW2 7731   2.948   3.594   4.719
 2278SOL     OW 7732   4.981   6.664   3.764
 2278SOL    HW1 7733   5.011   6.694   3.674
 2278SOL    HW2 7734   4.996   6.565   3.774
 2279SOL     OW 7735   5.559   5.251   4.539
 2279SOL    HW1 7736   5.544   5.154   4.520
 2279SOL    HW2 7737   5.485   5.305   4.500
 2280SOL     OW 7738   5.813   6.217   4.939
 2280SOL    HW1 7739   5.798   6.205   4.841
 2280SOL    HW2 7740   5.905   6.253   4.954
 2281SOL     OW 7741   3.666   1.080   2.036
 2281SOL    HW1 7742   3.672   1.148   1.963
 2281SOL    HW2 7743   3.615   1.000   2.003
 2282SOL     OW 7744   5.467   6.474   5.180
 2282SOL    HW1 7745   5.449   6.447   5.275
 2282SOL    HW2 7746   5.399   6.431   5.120
 2283SOL     OW 7747   6.815   4.023   1.643
 2283SOL    HW1 7748   6.814   3.924   1.655
 2283SOL    HW2 7749   6.900   4.060   1.683
 2284SOL     OW 7750   2.103   1.764   0.844
 2284SOL    HW1 7751   2.174   1.781   0.912
 2284SOL    HW2 7752   2.037   1.839   0.845
 2285SOL     OW 7753   2.274   3.535   6.754
 2285SOL    HW1 7754   2.247   3.610   6.692
 2285SOL    HW2 7755   2.195   3.507   6.808
 2286SOL     OW 7756   6.380   6.433   4.869
 2286SOL    HW1 7757   6.387   6.400   4.774
 2286SOL    HW2 7758   6.472   6.436   4.909
 2287SOL     OW 7759   2.363   2.618   1.825
 2287SOL    HW1 7760   2.330   2.609   1.919
 2287SOL    HW2 7761   2.346   2.532   1.776
 2288SOL     OW 7762   6.830   5.649   4.401
 2288SOL    HW1 7763   6.791   5.742   4.403
 2288SOL    HW2 7764   6.861   5.629   4.308
 2289SOL     OW 7765   6.015   3.496   2.625
 2289SOL    HW1 7766   5.924   3.455   2.619
 2289SOL    HW2 7767   6.007   3.595   2.632
 2290SOL     OW 7768   2.201   3.896   1.901
 2290SOL    HW1 7769   2.190   3.973   1.838
 2290SOL    HW2 7770   2.193   3.928   1.995
 2291SOL     OW 7771   2.227   2.278   0.758
 2291SOL    HW1 7772   2.300   2.302   0.695
 2291SOL    HW2 7773   2.234   2.334   0.840
 2292SOL     OW 7774   5.010   2.929   4.053
 2292SOL    HW1 7775   4.988   3.025   4.034
 2292SOL    HW2 7776   5.061   2.922   4.138
 2293SOL     OW 7777   6.425   1.023   0.705
 2293SOL    HW1 7778   6.440   1.119   0.729
 2293SOL    HW2 7779   6.464   0.965   0.776
 2294SOL     OW 7780   3.218   2.018   5.990
 2294SOL    HW1 7781   3.302   2.009   5.937
 2294SOL    HW2 7782   3.154   1.946   5.964
 2295SOL     OW 7783   6.968   1.044   2.945
 2295SOL    HW1 7784   7.014   0.971   2.995
 2295SOL    HW2 7785   6.911   1.097   3.007
 2296SOL     OW 7786   2.313   5.321   3.099
 2296SOL    HW1 7787   2.363   5.325   3.186
 2296SOL    HW2 7788   2.322   5.409   3.052
 2297SOL     OW 7789   4.751   4.866   6.125
 2297SOL    HW1 7790   4.739   4.796   6.054
 2297SOL    HW2 7791   4.663   4.909   6.145
 2298SOL     OW 7792   3.581   3.437   3.641
 2298SOL    HW1 7793   3.592   3.396   3.551
 2298SOL    HW2 7794   3.529   3.375   3.700
 2299SOL     OW 7795   4.919   4.105   5.291
 2299SOL    HW1 7796   4.829   4.145   5.272
 2299SOL    HW2 7797   4.991   4.162   5.251
 2300SOL     OW 7798   3.399   6.952   3.601
 2300SOL    HW1 7799   3.470   7.021   3.583
 2300SOL    HW2 7800   3.309   6.991   3.583
 2301SOL     OW 7801   3.733   2.875   3.888
 2301SOL    HW1 7802   3.683   2.788   3.890
 2301SOL    HW2 7803   3.747   2.907   3.981
 2302SOL     OW 7804   3.377   0.189   1.242
 2302SOL    HW1 7805   3.376   0.261   1.311
 2302SOL    HW2 7806   3.389   0.230   1.151
 2303SOL     OW 7807   2.415   2.898   1.268
 2303SOL    HW1 7808   2.499   2.928   1.314
 2303SOL    HW2 7809   2.405   2.948   1.182
 2304SOL     OW 7810   5.419   5.689   3.927
 2304SOL    HW1 7811   5.330   5.701   3.881
 2304SOL    HW2 7812   5.459   5.602   3.898
 2305SOL     OW 7813   1.958   0.525   3.837
 2305SOL    HW1 7814   1.958   0.473   3.922
 2305SOL    HW2 7815   2.042   0.508   3.787
 2306SOL     OW 7816   1.431   5.207   2.186
 2306SOL    HW1 7817   1.443   5.179   2.281
 2306SOL    HW2 7818   1.492   5.155   2.127
 2307SOL     OW 7819   0.553   3.234   5.328
 2307SOL    HW1 7820   0.480   3.302   5.331
 2307SOL    HW2 7821   0.524   3.156   5.272
 2308SOL     OW 7822   2.893   4.588   0.899
 2308SOL    HW1 7823   2.863   4.671   0.946
 2308SOL    HW2 7824   2.817   4.523   0.893
 2309SOL     OW 7825   1.623   0.836   4.610
 2309SOL    HW1 7826   1.707   0.884   4.587
 2309SOL    HW2 7827   1.643   0.758   4.668
 2310SOL     OW 7828   5.760   5.943   2.490
 2310SOL    HW1 7829   5.767   6.043   2.491
 2310SOL    HW2 7830   5.811   5.906   2.568
 2311SOL     OW 7831   2.315   5.702   0.113
 2311SOL    HW1 7832   2.312   5.709   0.014
 2311SOL    HW2 7833   2.402   5.737   0.147
 2312SOL     OW 7834   4.400   5.601   3.293
 2312SOL    HW1 7835   4.446   5.617   3.380
 2312SOL    HW2 7836   4.455   5.639   3.218
 2313SOL     OW 7837   5.082   4.948   1.877
 2313SOL    HW1 7838   5.030   4.992   1.804
 2313SOL    HW2 7839   5.080   4.849   1.865
 2314SOL     OW 7840   3.787   0.054   2.957
 2314SOL    HW1 7841   3.779   7.004   3.023
 2314SOL    HW2 7842   3.883   0.077   2.944
 2315SOL     OW 7843   5.618   3.575   5.696
 2315SOL    HW1 7844   5.674   3.497   5.725
 2315SOL    HW2 7845   5.609   3.639   5.772
 2316SOL     OW 7846   5.071   2.256   3.476
 2316SOL    HW1 7847   5.144   2.217   3.419
 2316SOL    HW2 7848   5.112   2.312   3.548
 2317SOL     OW 7849   6.998   5.426   3.324
 2317SOL    HW1 7850   0.059   5.477   3.312
 2317SOL    HW2 7851   7.005   5.368   3.405
 2318SOL     OW 7852   0.561   2.774   3.669
 2318SOL    HW1 7853   0.653   2.795   3.635
 2318SOL    HW2 7854   0.532   2.845   3.733
 2319SOL     OW 7855   1.317   4.651   4.500
 2319SOL    HW1 7856   1.369   4.727   4.538
 2319SOL    HW2 7857   1.362   4.565   4.524
 2320SOL     OW 7858   0.454   2.820   4.290
 2320SOL    HW1 7859   0.514   2.756   4.338
 2320SOL    HW2 7860   0.417   2.886   4.355
 2321SOL     OW 7861   3.470   0.768   5.386
 2321SOL    HW1 7862   3.521   0.693   5.428
 2321SOL    HW2 7863   3.524   0.809   5.313
 2322SOL     OW 7864   2.141   1.926   5.477
 2322SOL    HW1 7865   2.159   1.829   5.460
 2322SOL    HW2 7866   2.045   1.946   5.460
 2323SOL     OW 7867   2.755   4.768   2.428
 2323SOL    HW1 7868   2.825   4.741   2.362
 2323SOL    HW2 7869   2.673   4.713   2.412
 2324SOL     OW 7870   0.215   5.926   2.755
 2324SOL    HW1 7871   0.279   5.997   2.785
 2324SOL    HW2 7872   0.162   5.894   2.833
 2325SOL     OW 7873   1.462   3.826   1.726
 2325SOL    HW1 7874   1.546   3.776   1.705
 2325SOL    HW2 7875   1.387   3.789   1.671
 2326SOL     OW 7876   2.488   3.730   6.157
 2326SOL    HW1 7877   2.407   3.698   6.206
 2326SOL    HW2 7878   2.480   3.827   6.137
 2327SOL     OW 7879   4.870   2.589   4.885
 2327SOL    HW1 7880   4.850   2.567   4.790
 2327SOL    HW2 7881   4.946   2.655   4.889
 2328SOL     OW 7882   5.094   1.302   3.806
 2328SOL    HW1 7883   5.191   1.285   3.818
 2328SOL    HW2 7884   5.081   1.385   3.752
 2329SOL     OW 7885   1.297   5.612   4.581
 2329SOL    HW1 7886   1.243   5.528   4.572
 2329SOL    HW2 7887   1.276   5.673   4.505
 2330SOL     OW 7888   0.409   4.454   2.042
 2330SOL    HW1 7889   0.468   4.377   2.018
 2330SOL    HW2 7890   0.416   4.524   1.970
 2331SOL     OW 7891   6.124   4.863   6.721
 2331SOL    HW1 7892   6.126   4.963   6.719
 2331SOL    HW2 7893   6.151   4.829   6.631
 2332SOL     OW 7894   5.271   2.147   5.269
 2332SOL    HW1 7895   5.331   2.225   5.247
 2332SOL    HW2 7896   5.323   2.079   5.320
 2333SOL     OW 7897   0.230   4.761   2.546
 2333SOL    HW1 7898   0.216   4.714   2.459
 2333SOL    HW2 7899   0.323   4.796   2.551
 2334SOL     OW 7900   2.898   6.695   7.009
 2334SOL    HW1 7901   2.851   6.754   6.944
 2334SOL    HW2 7902   2.830   6.647   0.041
 2335SOL     OW 7903   6.508   1.562   3.401
 2335SOL    HW1 7904   6.529   1.468   3.430
 2335SOL    HW2 7905   6.584   1.622   3.425
 2336SOL     OW 7906   4.641   1.404   5.147
 2336SOL    HW1 7907   4.703   1.325   5.145
 2336SOL    HW2 7908   4.618   1.426   5.242
 2337SOL     OW 7909   4.802   0.558   3.980
 2337SOL    HW1 7910   4.802   0.507   3.894
 2337SOL    HW2 7911   4.728   0.625   3.979
 2338SOL     OW 7912   1.103   0.203   6.505
 2338SOL    HW1 7913   1.181   0.265   6.506
 2338SOL    HW2 7914   1.131   0.115   6.544
 2339SOL     OW 7915   3.274   3.698   5.560
 2339SOL    HW1 7916   3.245   3.792   5.544
 2339SOL    HW2 7917   3.300   3.655   5.473
 2340SOL     OW 7918   4.454   6.658   5.651
 2340SOL    HW1 7919   4.426   6.753   5.670
 2340SOL    HW2 7920   4.508   6.655   5.567
 2341SOL     OW 7921   5.295   4.069   0.142
 2341SOL    HW1 7922   5.317   4.153   0.192
 2341SOL    HW2 7923   5.246   4.006   0.202
 2342SOL     OW 7924   0.227   6.149   5.195
 2342SOL    HW1 7925   0.242   6.247   5.179
 2342SOL    HW2 7926   0.205   6.105   5.108
 2343SOL     OW 7927   1.644   0.046   1.050
 2343SOL    HW1 7928   1.738   0.075   1.066
 2343SOL    HW2 7929   1.586   0.126   1.035
 2344SOL     OW 7930   2.387   1.908   1.808
 2344SOL    HW1 7931   2.407   2.005   1.822
 2344SOL    HW2 7932   2.377   1.891   1.710
 2345SOL     OW 7933   1.647   6.800   5.289
 2345SOL    HW1 7934   1.697   6.796   5.202
 2345SOL    HW2 7935   1.703   6.763   5.362
 2346SOL     OW 7936   4.932   2.823   5.591
 2346SOL    HW1 7937   5.015   2.806   5.538
 2346SOL    HW2 7938   4.875   2.741   5.591
 2347SOL     OW 7939   1.789   4.376   2.306
 2347SOL    HW1 7940   1.709   4.433   2.326
 2347SOL    HW2 7941   1.781   4.338   2.214
 2348SOL     OW 7942   2.075   6.024   3.626
 2348SOL    HW1 7943   2.157   5.997   3.575
 2348SOL    HW2 7944   1.995   5.982   3.583
 2349SOL     OW 7945   1.040   6.484   6.402
 2349SOL    HW1 7946   1.013   6.449   6.492
 2349SOL    HW2 7947   1.125   6.536   6.410
 2350SOL     OW 7948   3.429   0.038   5.880
 2350SOL    HW1 7949   3.377   0.003   5.802
 2350SOL    HW2 7950   3.503   0.097   5.847
 2351SOL     OW 7951   3.460   5.238   3.329
 2351SOL    HW1 7952   3.429   5.327   3.296
 2351SOL    HW2 7953   3.556   5.226   3.306
 2352SOL     OW 7954   0.496   4.444   3.018
 2352SOL    HW1 7955   0.513   4.347   3.038
 2352SOL    HW2 7956   0.534   4.467   2.928
 2353SOL     OW 7957   2.238   4.293   4.884
 2353SOL    HW1 7958   2.273   4.199   4.887
 2353SOL    HW2 7959   2.259   4.339   4.970
 2354SOL     OW 7960   3.814   2.071   6.611
 2354SOL    HW1 7961   3.734   2.086   6.553
 2354SOL    HW2 7962   3.850   1.979   6.595
 2355SOL     OW 7963   0.372   6.555   0.151
 2355SOL    HW1 7964   0.358   6.564   0.250
 2355SOL    HW2 7965   0.379   6.458   0.127
 2356SOL     OW 7966   2.469   4.210   1.683
 2356SOL    HW1 7967   2.531   4.223   1.761
 2356SOL    HW2 7968   2.521   4.179   1.604
 2357SOL     OW 7969   4.816   4.990   3.896
 2357SOL    HW1 7970   4.864   4.944   3.820
 2357SOL    HW2 7971   4.763   4.923   3.947
 2358SOL     OW 7972   3.434   6.598   4.010
 2358SOL    HW1 7973   3.377   6.541   3.952
 2358SOL    HW2 7974   3.393   6.605   4.101
 2359SOL     OW 7975   2.477   1.374   6.076
 2359SOL    HW1 7976   2.465   1.318   6.159
 2359SOL    HW2 7977   2.405   1.444   6.073
 2360SOL     OW 7978   4.504   5.093   6.683
 2360SOL    HW1 7979   4.423   5.123   6.734
 2360SOL    HW2 7980   4.565   5.171   6.668
 2361SOL     OW 7981   2.791   6.870   3.754
 2361SOL    HW1 7982   2.855   6.855   3.678
 2361SOL    HW2 7983   2.811   6.805   3.827
 2362SOL     OW 7984   4.576   6.358   5.393
 2362SOL    HW1 7985   4.479   6.337   5.405
 2362SOL    HW2 7986   4.604   6.334   5.300
 2363SOL     OW 7987   4.781   2.360   5.390
 2363SOL    HW1 7988   4.784   2.358   5.291
 2363SOL    HW2 7989   4.857   2.306   5.427
 2364SOL     OW 7990   5.458   1.825   1.983
 2364SOL    HW1 7991   5.530   1.758   2.000
 2364SOL    HW2 7992   5.429   1.820   1.887
 2365SOL     OW 7993   6.122   4.840   5.479
 2365SOL    HW1 7994   6.159   4.880   5.396
 2365SOL    HW2 7995   6.088   4.913   5.539
 2366SOL     OW 7996   0.612   3.687   6.045
 2366SOL    HW1 7997   0.690   3.628   6.063
 2366SOL    HW2 7998   0.528   3.642   6.074
 2367SOL     OW 7999   0.541   2.625   5.905
 2367SOL    HW1 8000   0.509   2.691   5.973
 2367SOL    HW2 8001   0.465   2.599   5.845
 2368SOL     OW 8002   4.318   1.221   5.345
 2368SOL    HW1 8003   4.330   1.153   5.273
 2368SOL    HW2 8004   4.259   1.184   5.417
 2369SOL     OW 8005   2.632   1.769   3.778
 2369SOL    HW1 8006   2.538   1.762   3.812
 2369SOL    HW2 8007   2.631   1.769   3.678
 2370SOL     OW 8008   4.663   2.896   0.657
 2370SOL    HW1 8009   4.690   2.933   0.568
 2370SOL    HW2 8010   4.581   2.840   0.646
 2371SOL     OW 8011   1.099   5.888   2.591
 2371SOL    HW1 8012   1.178   5.938   2.625
 2371SOL    HW2 8013   1.130   5.807   2.541
 2372SOL     OW 8014   7.014   0.708   6.759
 2372SOL    HW1 8015   6.991   0.800   6.727
 2372SOL    HW2 8016   7.012   0.645   6.682
 2373SOL     OW 8017   6.506   1.078   6.348
 2373SOL    HW1 8018   6.562   0.995   6.343
 2373SOL    HW2 8019   6.547   1.142   6.413
 2374SOL     OW 8020   6.153   5.777   2.945
 2374SOL    HW1 8021   6.101   5.821   2.871
 2374SOL    HW2 8022   6.202   5.847   2.997
 2375SOL     OW 8023   0.338   0.800   4.339
 2375SOL    HW1 8024   0.303   0.800   4.433
 2375SOL    HW2 8025   0.315   0.714   4.294
 2376SOL     OW 8026   6.324   2.635   3.138
 2376SOL    HW1 8027   6.282   2.565   3.080
 2376SOL    HW2 8028   6.422   2.638   3.119
 2377SOL     OW 8029   3.396   3.566   4.914
 2377SOL    HW1 8030   3.369   3.574   4.818
 2377SOL    HW2 8031   3.337   3.625   4.970
 2378SOL     OW 8032   5.501   1.992   0.178
 2378SOL    HW1 8033   5.443   2.031   0.249
 2378SOL    HW2 8034   5.573   1.936   0.220
 2379SOL     OW 8035   6.391   4.145   0.139
 2379SOL    HW1 8036   6.417   4.051   0.162
 2379SOL    HW2 8037   6.473   4.200   0.126
 2380SOL     OW 8038   6.031   1.206   5.582
 2380SOL    HW1 8039   6.055   1.293   5.624
 2380SOL    HW2 8040   5.933   1.203   5.562
 2381SOL     OW 8041   1.249   4.741   5.285
 2381SOL    HW1 8042   1.257   4.661   5.226
 2381SOL    HW2 8043   1.161   4.785   5.270
 2382SOL     OW 8044   2.079   5.733   2.520
 2382SOL    HW1 8045   2.018   5.658   2.546
 2382SOL    HW2 8046   2.070   5.808   2.585
 2383SOL     OW 8047   5.175   5.953   6.509
 2383SOL    HW1 8048   5.233   6.034   6.497
 2383SOL    HW2 8049   5.119   5.964   6.591
 2384SOL     OW 8050   1.256   2.637   1.023
 2384SOL    HW1 8051   1.234   2.630   0.925
 2384SOL    HW2 8052   1.173   2.623   1.077
 2385SOL     OW 8053   0.980   0.938   0.235
 2385SOL    HW1 8054   0.945   0.915   0.144
 2385SOL    HW2 8055   0.924   0.893   0.305
 2386SOL     OW 8056   3.518   5.287   4.259
 2386SOL    HW1 8057   3.571   5.239   4.329
 2386SOL    HW2 8058   3.498   5.225   4.183
 2387SOL     OW 8059   6.953   3.476   4.501
 2387SOL    HW1 8060   7.015   3.548   4.470
 2387SOL    HW2 8061   6.991   3.432   4.583
 2388SOL     OW 8062   0.720   1.468   5.599
 2388SOL    HW1 8063   0.715   1.377   5.641
 2388SOL    HW2 8064   0.737   1.537   5.670
 2389SOL     OW 8065   4.405   4.560   3.651
 2389SOL    HW1 8066   4.374   4.564   3.556
 2389SOL    HW2 8067   4.365   4.480   3.695
 2390SOL     OW 8068   3.690   3.880   4.741
 2390SOL    HW1 8069   3.744   3.955   4.703
 2390SOL    HW2 8070   3.621   3.851   4.674
 2391SOL     OW 8071   3.819   3.933   5.861
 2391SOL    HW1 8072   3.776   3.987   5.788
 2391SOL    HW2 8073   3.750   3.877   5.907
 2392SOL     OW 8074   2.739   3.796   6.465
 2392SOL    HW1 8075   2.685   3.819   6.384
 2392SOL    HW2 8076   2.678   3.763   6.538
 2393SOL     OW 8077   4.053   5.259   1.217
 2393SOL    HW1 8078   3.989   5.276   1.293
 2393SOL    HW2 8079   4.146   5.275   1.248
 2394SOL     OW 8080   0.477   3.715   4.211
 2394SOL    HW1 8081   0.422   3.655   4.268
 2394SOL    HW2 8082   0.450   3.810   4.226
 2395SOL     OW 8083   0.284   3.165   6.989
 2395SOL    HW1 8084   0.260   3.077   6.948
 2395SOL    HW2 8085   0.384   3.176   6.988
 2396SOL     OW 8086   5.829   6.609   0.878
 2396SOL    HW1 8087   5.780   6.539   0.826
 2396SOL    HW2 8088   5.767   6.656   0.940
 2397SOL     OW 8089   6.841   4.558   0.537
 2397SOL    HW1 8090   6.847   4.476   0.594
 2397SOL    HW2 8091   6.902   4.548   0.458
 2398SOL     OW 8092   2.698   4.873   4.900
 2398SOL    HW1 8093   2.763   4.892   4.826
 2398SOL    HW2 8094   2.732   4.797   4.956
 2399SOL     OW 8095   3.345   2.103   3.382
 2399SOL    HW1 8096   3.311   2.095   3.475
 2399SOL    HW2 8097   3.445   2.111   3.383
 2400SOL     OW 8098   2.545   3.821   0.247
 2400SOL    HW1 8099   2.490   3.815   0.163
 2400SOL    HW2 8100   2.495   3.779   0.322
 2401SOL     OW 8101   3.443   0.321   4.523
 2401SOL    HW1 8102   3.379   0.369   4.463
 2401SOL    HW2 8103   3.537   0.344   4.496
 2402SOL     OW 8104   6.829   1.511   3.932
 2402SOL    HW1 8105   6.922   1.518   3.968
 2402SOL    HW2 8106   6.813   1.586   3.868
 2403SOL     OW 8107   3.424   3.255   0.848
 2403SOL    HW1 8108   3.394   3.166   0.884
 2403SOL    HW2 8109   3.514   3.276   0.885
 2404SOL     OW 8110   5.918   1.965   1.681
 2404SOL    HW1 8111   6.000   1.968   1.738
 2404SOL    HW2 8112   5.838   1.988   1.737
 2405SOL     OW 8113   3.271   4.155   5.805
 2405SOL    HW1 8114   3.173   4.146   5.822
 2405SOL    HW2 8115   3.293   4.112   5.717
 2406SOL     OW 8116   2.264   6.642   4.209
 2406SOL    HW1 8117   2.183   6.701   4.211
 2406SOL    HW2 8118   2.278   6.600   4.299
 2407SOL     OW 8119   4.240   2.237   2.893
 2407SOL    HW1 8120   4.257   2.270   2.800
 2407SOL    HW2 8121   4.306   2.277   2.955
 2408SOL     OW 8122   2.724   4.623   3.354
 2408SOL    HW1 8123   2.659   4.555   3.389
 2408SOL    HW2 8124   2.688   4.662   3.268
 2409SOL     OW 8125   2.663   3.345   0.796
 2409SOL    HW1 8126   2.648   3.321   0.892
 2409SOL    HW2 8127   2.637   3.267   0.739
 2410SOL     OW 8128   6.070   3.546   5.648
 2410SOL    HW1 8129   6.069   3.625   5.710
 2410SOL    HW2 8130   6.053   3.576   5.555
 2411SOL     OW 8131   2.929   3.454   5.794
 2411SOL    HW1 8132   2.932   3.515   5.873
 2411SOL    HW2 8133   2.840   3.407   5.791
 2412SOL     OW 8134   3.093   2.837   0.815
 2412SOL    HW1 8135   3.069   2.787   0.898
 2412SOL    HW2 8136   3.044   2.924   0.813
 2413SOL     OW 8137   5.579   4.034   6.122
 2413SOL    HW1 8138   5.512   3.960   6.122
 2413SOL    HW2 8139   5.597   4.062   6.217
 2414SOL     OW 8140   5.638   3.472   3.598
 2414SOL    HW1 8141   5.707   3.425   3.544
 2414SOL    HW2 8142   5.564   3.408   3.621
 2415SOL     OW 8143   1.846   0.107   1.437
 2415SOL    HW1 8144   1.858   0.121   1.339
 2415SOL    HW2 8145   1.854   0.010   1.459
 2416SOL     OW 8146   1.531   2.207   4.492
 2416SOL    HW1 8147   1.588   2.254   4.560
 2416SOL    HW2 8148   1.523   2.264   4.410
 2417SOL     OW 8149   5.134   2.109   0.634
 2417SOL    HW1 8150   5.098   2.200   0.612
 2417SOL    HW2 8151   5.059   2.046   0.650
 2418SOL     OW 8152   3.230   3.318   4.879
 2418SOL    HW1 8153   3.241   3.336   4.977
 2418SOL    HW2 8154   3.248   3.402   4.827
 2419SOL     OW 8155   1.591   6.995   4.361
 2419SOL    HW1 8156   1.570   6.939   4.441
 2419SOL    HW2 8157   1.635   6.939   4.291
 2420SOL     OW 8158   3.845   5.792   1.578
 2420SOL    HW1 8159   3.811   5.838   1.660
 2420SOL    HW2 8160   3.943   5.806   1.569
 2421SOL     OW 8161   3.830   6.561   3.735
 2421SOL    HW1 8162   3.766   6.638   3.746
 2421SOL    HW2 8163   3.898   6.564   3.808
 2422SOL     OW 8164   4.598   6.967   0.715
 2422SOL    HW1 8165   4.638   6.973   0.807
 2422SOL    HW2 8166   4.498   6.960   0.724
 2423SOL     OW 8167   1.767   5.119   1.169
 2423SOL    HW1 8168   1.718   5.166   1.243
 2423SOL    HW2 8169   1.748   5.165   1.082
 2424SOL     OW 8170   5.389   6.591   6.824
 2424SOL    HW1 8171   5.474   6.632   6.790
 2424SOL    HW2 8172   5.398   6.491   6.824
 2425SOL     OW 8173   5.656   6.864   5.705
 2425SOL    HW1 8174   5.558   6.871   5.721
 2425SOL    HW2 8175   5.696   6.955   5.697
 2426SOL     OW 8176   1.023   5.739   3.966
 2426SOL    HW1 8177   1.062   5.670   4.027
 2426SOL    HW2 8178   0.948   5.786   4.012
 2427SOL     OW 8179   4.834   6.049   0.567
 2427SOL    HW1 8180   4.777   6.095   0.500
 2427SOL    HW2 8181   4.914   6.010   0.522
 2428SOL     OW 8182   0.651   0.255   3.224
 2428SOL    HW1 8183   0.580   0.204   3.176
 2428SOL    HW2 8184   0.684   0.201   3.301
 2429SOL     OW 8185   5.826   4.726   3.190
 2429SOL    HW1 8186   5.840   4.810   3.242
 2429SOL    HW2 8187   5.795   4.653   3.251
 2430SOL     OW 8188   5.509   3.041   0.161
 2430SOL    HW1 8189   5.472   2.971   0.222
 2430SOL    HW2 8190   5.435   3.093   0.120
 2431SOL     OW 8191   4.831   1.027   0.930
 2431SOL    HW1 8192   4.829   0.976   0.844
 2431SOL    HW2 8193   4.749   1.007   0.983
 2432SOL     OW 8194   3.032   6.609   1.993
 2432SOL    HW1 8195   2.940   6.648   1.992
 2432SOL    HW2 8196   3.099   6.682   1.984
 2433SOL     OW 8197   1.407   0.038   0.389
 2433SOL    HW1 8198   1.360   0.038   0.477
 2433SOL    HW2 8199   1.401   0.129   0.348
 2434SOL     OW 8200   5.854   1.956   2.920
 2434SOL    HW1 8201   5.823   1.867   2.884
 2434SOL    HW2 8202   5.911   1.941   3.001
 2435SOL     OW 8203   5.468   5.093   0.160
 2435SOL    HW1 8204   5.553   5.121   0.203
 2435SOL    HW2 8205   5.399   5.165   0.171
 2436SOL     OW 8206   1.851   0.309   0.971
 2436SOL    HW1 8207   1.925   0.373   0.949
 2436SOL    HW2 8208   1.793   0.296   0.891
 2437SOL     OW 8209   5.002   6.705   1.315
 2437SOL    HW1 8210   5.008   6.615   1.273
 2437SOL    HW2 8211   5.011   6.776   1.245
 2438SOL     OW 8212   3.804   1.230   4.248
 2438SOL    HW1 8213   3.789   1.231   4.149
 2438SOL    HW2 8214   3.878   1.168   4.271
 2439SOL     OW 8215   0.905   4.479   0.655
 2439SOL    HW1 8216   0.977   4.440   0.598
 2439SOL    HW2 8217   0.898   4.427   0.741
 2440SOL     OW 8218   4.104   0.260   6.174
 2440SOL    HW1 8219   4.115   0.163   6.194
 2440SOL    HW2 8220   4.063   0.271   6.083
 2441SOL     OW 8221   6.032   1.324   6.998
 2441SOL    HW1 8222   6.015   1.357   0.066
 2441SOL    HW2 8223   6.103   1.253   7.000
 2442SOL     OW 8224   5.372   5.059   2.881
 2442SOL    HW1 8225   5.292   5.000   2.866
 2442SOL    HW2 8226   5.351   5.152   2.851
 2443SOL     OW 8227   3.394   0.214   6.715
 2443SOL    HW1 8228   3.459   0.270   6.665
 2443SOL    HW2 8229   3.392   0.242   6.811
 2444SOL     OW 8230   3.917   3.578   0.574
 2444SOL    HW1 8231   3.854   3.531   0.512
 2444SOL    HW2 8232   3.978   3.637   0.521
 2445SOL     OW 8233   5.951   1.656   1.935
 2445SOL    HW1 8234   5.940   1.660   2.035
 2445SOL    HW2 8235   5.869   1.693   1.892
 2446SOL     OW 8236   1.423   2.612   4.944
 2446SOL    HW1 8237   1.467   2.700   4.958
 2446SOL    HW2 8238   1.440   2.581   4.850
 2447SOL     OW 8239   2.449   0.786   1.051
 2447SOL    HW1 8240   2.433   0.727   0.971
 2447SOL    HW2 8241   2.450   0.730   1.134
 2448SOL     OW 8242   6.068   0.687   3.982
 2448SOL    HW1 8243   5.992   0.683   4.047
 2448SOL    HW2 8244   6.151   0.653   4.026
 2449SOL     OW 8245   1.058   3.627   1.615
 2449SOL    HW1 8246   1.155   3.650   1.621
 2449SOL    HW2 8247   1.045   3.531   1.640
 2450SOL     OW 8248   3.498   4.409   6.162
 2450SOL    HW1 8249   3.425   4.344   6.136
 2450SOL    HW2 8250   3.458   4.500   6.174
 2451SOL     OW 8251   1.628   0.321   3.648
 2451SOL    HW1 8252   1.628   0.221   3.660
 2451SOL    HW2 8253   1.547   0.347   3.594
 2452SOL     OW 8254   2.970   2.109   4.143
 2452SOL    HW1 8255   2.912   2.189   4.127
 2452SOL    HW2 8256   2.914   2.027   4.145
 2453SOL     OW 8257   0.820   3.483   0.639
 2453SOL    HW1 8258   0.867   3.566   0.612
 2453SOL    HW2 8259   0.853   3.406   0.584
 2454SOL     OW 8260   3.099   0.042   6.903
 2454SOL    HW1 8261   3.049   0.127   6.922
 2454SOL    HW2 8262   3.129   0.041   6.808
 2455SOL     OW 8263   3.871   0.589   0.395
 2455SOL    HW1 8264   3.809   0.551   0.463
 2455SOL    HW2 8265   3.886   0.686   0.414
 2456SOL     OW 8266   6.856   2.455   6.786
 2456SOL    HW1 8267   6.829   2.453   6.690
 2456SOL    HW2 8268   6.924   2.384   6.803
 2457SOL     OW 8269   6.840   0.666   6.251
 2457SOL    HW1 8270   6.932   0.650   6.215
 2457SOL    HW2 8271   6.783   0.587   6.233
 2458SOL     OW 8272   1.600   6.516   3.648
 2458SOL    HW1 8273   1.588   6.611   3.677
 2458SOL    HW2 8274   1.634   6.462   3.725
 2459SOL     OW 8275   2.995   6.433   5.549
 2459SOL    HW1 8276   2.915   6.377   5.527
 2459SOL    HW2 8277   3.034   6.404   5.636
 2460SOL     OW 8278   1.404   1.286   1.276
 2460SOL    HW1 8279   1.332   1.227   1.312
 2460SOL    HW2 8280   1.418   1.266   1.179
 2461SOL     OW 8281   5.302   0.371   4.056
 2461SOL    HW1 8282   5.288   0.344   4.152
 2461SOL    HW2 8283   5.226   0.339   4.001
 2462SOL     OW 8284   2.249   5.181   6.841
 2462SOL    HW1 8285   2.172   5.137   6.889
 2462SOL    HW2 8286   2.281   5.259   6.895
 2463SOL     OW 8287   5.913   2.143   6.481
 2463SOL    HW1 8288   5.828   2.091   6.472
 2463SOL    HW2 8289   5.989   2.080   6.500
 2464SOL     OW 8290   2.137   3.816   2.916
 2464SOL    HW1 8291   2.084   3.762   2.982
 2464SOL    HW2 8292   2.229   3.831   2.952
 2465SOL     OW 8293   0.974   6.299   6.603
 2465SOL    HW1 8294   0.877   6.314   6.584
 2465SOL    HW2 8295   0.984   6.216   6.659
 2466SOL     OW 8296   2.296   2.220   2.920
 2466SOL    HW1 8297   2.378   2.221   2.864
 2466SOL    HW2 8298   2.318   2.254   3.012
 2467SOL     OW 8299   5.180   1.985   4.586
 2467SOL    HW1 8300   5.180   1.901   4.639
 2467SOL    HW2 8301   5.264   2.036   4.602
 2468SOL     OW 8302   4.189   6.789   1.075
 2468SOL    HW1 8303   4.141   6.738   1.146
 2468SOL    HW2 8304   4.124   6.845   1.024
 2469SOL     OW 8305   3.928   3.754   4.827
 2469SOL    HW1 8306   3.910   3.657   4.813
 2469SOL    HW2 8307   3.841   3.802   4.842
 2470SOL     OW 8308   4.474   4.454   6.107
 2470SOL    HW1 8309   4.548   4.436   6.042
 2470SOL    HW2 8310   4.423   4.369   6.123
 2471SOL     OW 8311   3.293   6.122   0.299
 2471SOL    HW1 8312   3.300   6.125   0.398
 2471SOL    HW2 8313   3.376   6.161   0.258
 2472SOL     OW 8314   4.409   2.038   3.221
 2472SOL    HW1 8315   4.509   2.044   3.211
 2472SOL    HW2 8316   4.386   1.959   3.279
 2473SOL     OW 8317   1.612   3.762   4.898
 2473SOL    HW1 8318   1.671   3.740   4.976
 2473SOL    HW2 8319   1.588   3.859   4.900
 2474SOL     OW 8320   0.257   5.967   1.529
 2474SOL    HW1 8321   0.230   5.888   1.474
 2474SOL    HW2 8322   0.313   5.936   1.606
 2475SOL     OW 8323   3.814   0.438   2.300
 2475SOL    HW1 8324   3.873   0.509   2.341
 2475SOL    HW2 8325   3.723   0.443   2.341
 2476SOL     OW 8326   6.579   1.436   2.741
 2476SOL    HW1 8327   6.627   1.349   2.747
 2476SOL    HW2 8328   6.575   1.466   2.646
 2477SOL     OW 8329   3.991   1.155   2.607
 2477SOL    HW1 8330   3.963   1.131   2.514
 2477SOL    HW2 8331   4.063   1.224   2.604
 2478SOL     OW 8332   5.726   1.405   1.883
 2478SOL    HW1 8333   5.795   1.337   1.859
 2478SOL    HW2 8334   5.697   1.391   1.978
 2479SOL     OW 8335   0.784   3.147   1.799
 2479SOL    HW1 8336   0.781   3.112   1.893
 2479SOL    HW2 8337   0.878   3.167   1.774
 2480SOL     OW 8338   4.946   3.938   0.187
 2480SOL    HW1 8339   5.031   3.915   0.236
 2480SOL    HW2 8340   4.883   3.861   0.192
 2481SOL     OW 8341   3.731   6.461   0.032
 2481SOL    HW1 8342   3.756   6.495   6.966
 2481SOL    HW2 8343   3.658   6.518   0.070
 2482SOL     OW 8344   5.611   3.688   5.930
 2482SOL    HW1 8345   5.604   3.649   6.022
 2482SOL    HW2 8346   5.666   3.771   5.933
 2483SOL     OW 8347   1.531   1.140   0.412
 2483SOL    HW1 8348   1.597   1.179   0.477
 2483SOL    HW2 8349   1.574   1.062   0.365
 2484SOL     OW 8350   3.076   0.981   6.939
 2484SOL    HW1 8351   3.133   1.033   7.003
 2484SOL    HW2 8352   3.015   0.921   6.990
 2485SOL     OW 8353   6.444   3.437   1.227
 2485SOL    HW1 8354   6.469   3.522   1.272
 2485SOL    HW2 8355   6.413   3.371   1.295
 2486SOL     OW 8356   2.239   4.648   4.340
 2486SOL    HW1 8357   2.258   4.710   4.416
 2486SOL    HW2 8358   2.250   4.554   4.370
 2487SOL     OW 8359   4.004   6.002   0.545
 2487SOL    HW1 8360   3.918   5.974   0.587
 2487SOL    HW2 8361   4.073   5.930   0.557
 2488SOL     OW 8362   1.652   4.525   2.729
 2488SOL    HW1 8363   1.624   4.588   2.802
 2488SOL    HW2 8364   1.661   4.574   2.643
 2489SOL     OW 8365   1.467   6.349   3.423
 2489SOL    HW1 8366   1.510   6.406   3.493
 2489SOL    HW2 8367   1.423   6.408   3.356
 2490SOL     OW 8368   6.910   4.774   1.120
 2490SOL    HW1 8369   6.963   4.804   1.199
 2490SOL    HW2 8370   6.839   4.711   1.150
 2491SOL     OW 8371   2.353   5.177   0.511
 2491SOL    HW1 8372   2.345   5.276   0.512
 2491SOL    HW2 8373   2.364   5.143   0.604
 2492SOL     OW 8374   4.757   3.041   0.925
 2492SOL    HW1 8375   4.737   3.139   0.924
 2492SOL    HW2 8376   4.734   3.002   0.836
 2493SOL     OW 8377   5.810   0.708   2.110
 2493SOL    HW1 8378   5.904   0.675   2.123
 2493SOL    HW2 8379   5.747   0.651   2.162
 2494SOL     OW 8380   5.339   4.457   2.771
 2494SOL    HW1 8381   5.256   4.400   2.773
 2494SOL    HW2 8382   5.419   4.398   2.760
 2495SOL     OW 8383   5.011   7.005   4.762
 2495SOL    HW1 8384   4.919   6.979   4.793
 2495SOL    HW2 8385   5.034   6.953   4.680
 2496SOL     OW 8386   6.702   3.386   5.849
 2496SOL    HW1 8387   6.669   3.424   5.935
 2496SOL    HW2 8388   6.798   3.411   5.835
 2497SOL     OW 8389   0.356   0.283   0.667
 2497SOL    HW1 8390   0.408   0.337   0.601
 2497SOL    HW2 8391   0.296   0.344   0.719
 2498SOL     OW 8392   2.826   1.375   4.100
 2498SOL    HW1 8393   2.920   1.344   4.095
 2498SOL    HW2 8394   2.801   1.394   4.195
 2499SOL     OW 8395   6.280   2.483   1.832
 2499SOL    HW1 8396   6.292   2.392   1.874
 2499SOL    HW2 8397   6.297   2.477   1.734
 2500SOL     OW 8398   4.501   3.155   6.692
 2500SOL    HW1 8399   4.433   3.084   6.709
 2500SOL    HW2 8400   4.551   3.173   6.777
 2501SOL     OW 8401   6.023   5.023   0.875
 2501SOL    HW1 8402   5.927   5.021   0.847
 2501SOL    HW2 8403   6.082   5.029   0.795
 2502SOL     OW 8404   1.228   6.470   3.019
 2502SOL    HW1 8405   1.325   6.490   3.026
 2502SOL    HW2 8406   1.215   6.377   2.986
 2503SOL     OW 8407   2.604   6.137   4.203
 2503SOL    HW1 8408   2.579   6.124   4.299
 2503SOL    HW2 8409   2.678   6.074   4.179
 2504SOL     OW 8410   3.559   5.337   4.617
 2504SOL    HW1 8411   3.552   5.240   4.639
 2504SOL    HW2 8412   3.479   5.366   4.565
 2505SOL     OW 8413   0.890   6.265   2.821
 2505SOL    HW1 8414   0.930   6.353   2.846
 2505SOL    HW2 8415   0.953   6.191   2.846
 2506SOL     OW 8416   6.099   4.261   5.229
 2506SOL    HW1 8417   6.174   4.321   5.199
 2506SOL    HW2 8418   6.063   4.293   5.316
 2507SOL     OW 8419   1.148   4.076   0.503
 2507SOL    HW1 8420   1.182   4.144   0.569
 2507SOL    HW2 8421   1.133   4.120   0.415
 2508SOL     OW 8422   2.001   1.451   2.881
 2508SOL    HW1 8423   1.950   1.429   2.798
 2508SOL    HW2 8424   1.953   1.521   2.933
 2509SOL     OW 8425   6.883   2.681   1.145
 2509SOL    HW1 8426   6.918   2.707   1.235
 2509SOL    HW2 8427   6.783   2.679   1.147
 2510SOL     OW 8428   2.864   4.134   1.372
 2510SOL    HW1 8429   2.912   4.108   1.289
 2510SOL    HW2 8430   2.885   4.230   1.394
 2511SOL     OW 8431   3.646   2.118   4.815
 2511SOL    HW1 8432   3.595   2.151   4.736
 2511SOL    HW2 8433   3.737   2.158   4.816
 2512SOL     OW 8434   5.638   4.374   5.462
 2512SOL    HW1 8435   5.676   4.281   5.466
 2512SOL    HW2 8436   5.640   4.407   5.368
 2513SOL     OW 8437   1.185   4.265   5.224
 2513SOL    HW1 8438   1.227   4.283   5.313
 2513SOL    HW2 8439   1.205   4.171   5.197
 2514SOL     OW 8440   6.191   3.398   4.731
 2514SOL    HW1 8441   6.138   3.445   4.659
 2514SOL    HW2 8442   6.233   3.466   4.791
 2515SOL     OW 8443   2.106   6.776   0.384
 2515SOL    HW1 8444   2.144   6.804   0.472
 2515SOL    HW2 8445   2.032   6.711   0.399
 2516SOL     OW 8446   6.029   1.355   3.133
 2516SOL    HW1 8447   5.993   1.322   3.220
 2516SOL    HW2 8448   6.126   1.377   3.142
 2517SOL     OW 8449   1.029   6.015   5.664
 2517SOL    HW1 8450   1.047   5.924   5.702
 2517SOL    HW2 8451   0.987   6.073   5.735
 2518SOL     OW 8452   1.188   4.578   6.996
 2518SOL    HW1 8453   1.113   4.643   6.984
 2518SOL    HW2 8454   1.166   4.492   6.950
 2519SOL     OW 8455   4.401   6.481   3.057
 2519SOL    HW1 8456   4.366   6.539   3.130
 2519SOL    HW2 8457   4.479   6.526   3.012
 2520SOL     OW 8458   2.486   1.901   0.863
 2520SOL    HW1 8459   2.517   1.967   0.931
 2520SOL    HW2 8460   2.564   1.869   0.809
 2521SOL     OW 8461   1.379   0.457   5.301
 2521SOL    HW1 8462   1.449   0.421   5.363
 2521SOL    HW2 8463   1.360   0.553   5.324
 2522SOL     OW 8464   0.463   3.675   5.146
 2522SOL    HW1 8465   0.482   3.685   5.244
 2522SOL    HW2 8466   0.544   3.702   5.093
 2523SOL     OW 8467   0.181   3.137   1.168
 2523SOL    HW1 8468   0.250   3.072   1.202
 2523SOL    HW2 8469   0.223   3.226   1.155
 2524SOL     OW 8470   0.891   6.478   4.983
 2524SOL    HW1 8471   0.875   6.572   4.953
 2524SOL    HW2 8472   0.803   6.431   4.996
 2525SOL     OW 8473   1.401   1.996   5.683
 2525SOL    HW1 8474   1.397   2.087   5.724
 2525SOL    HW2 8475   1.445   2.002   5.593
 2526SOL     OW 8476   1.374   4.069   5.806
 2526SOL    HW1 8477   1.380   3.974   5.836
 2526SOL    HW2 8478   1.313   4.075   5.727
 2527SOL     OW 8479   4.842   5.858   5.157
 2527SOL    HW1 8480   4.798   5.942   5.188
 2527SOL    HW2 8481   4.929   5.880   5.114
 2528SOL     OW 8482   5.524   4.871   0.724
 2528SOL    HW1 8483   5.612   4.851   0.768
 2528SOL    HW2 8484   5.521   4.824   0.635
 2529SOL     OW 8485   6.521   0.010   6.183
 2529SOL    HW1 8486   6.447   0.054   6.235
 2529SOL    HW2 8487   6.532   6.940   6.215
 2530SOL     OW 8488   2.245   0.008   5.547
 2530SOL    HW1 8489   2.302   0.029   5.626
 2530SOL    HW2 8490   2.191   6.951   5.565
 2531SOL     OW 8491   5.105   6.017   4.411
 2531SOL    HW1 8492   5.171   5.969   4.468
 2531SOL    HW2 8493   5.047   5.950   4.365
 2532SOL     OW 8494   0.482   6.591   1.219
 2532SOL    HW1 8495   0.433   6.536   1.286
 2532SOL    HW2 8496   0.429   6.597   1.135
 2533SOL     OW 8497   3.637   6.475   3.510
 2533SOL    HW1 8498   3.728   6.509   3.534
 2533SOL    HW2 8499   3.578   6.552   3.486
 2534SOL     OW 8500   3.424   0.577   3.209
 2534SOL    HW1 8501   3.366   0.560   3.288
 2534SOL    HW2 8502   3.454   0.490   3.170
 2535SOL     OW 8503   3.694   2.020   5.277
 2535SOL    HW1 8504   3.771   1.965   5.311
 2535SOL    HW2 8505   3.718   2.117   5.283
 2536SOL     OW 8506   0.850   2.086   4.991
 2536SOL    HW1 8507   0.841   2.050   4.898
 2536SOL    HW2 8508   0.878   2.182   4.986
 2537SOL     OW 8509   3.700   0.574   6.725
 2537SOL    HW1 8510   3.677   0.622   6.640
 2537SOL    HW2 8511   3.676   0.631   6.803
 2538SOL     OW 8512   1.270   4.738   4.885
 2538SOL    HW1 8513   1.318   4.822   4.860
 2538SOL    HW2 8514   1.334   4.675   4.930
 2539SOL     OW 8515   4.965   1.568   5.564
 2539SOL    HW1 8516   5.051   1.593   5.520
 2539SOL    HW2 8517   4.889   1.612   5.516
 2540SOL     OW 8518   4.040   1.318   2.893
 2540SOL    HW1 8519   4.049   1.221   2.868
 2540SOL    HW2 8520   3.946   1.348   2.873
 2541SOL     OW 8521   2.157   6.758   5.397
 2541SOL    HW1 8522   2.070   6.796   5.428
 2541SOL    HW2 8523   2.206   6.827   5.343
 2542SOL     OW 8524   4.461   1.799   6.277
 2542SOL    HW1 8525   4.515   1.818   6.359
 2542SOL    HW2 8526   4.377   1.854   6.279
 2543SOL     OW 8527   0.920   1.257   3.063
 2543SOL    HW1 8528   1.017   1.243   3.083
 2543SOL    HW2 8529   0.902   1.354   3.048
 2544SOL     OW 8530   0.255   5.918   0.997
 2544SOL    HW1 8531   0.256   5.842   1.062
 2544SOL    HW2 8532   0.168   5.967   1.004
 2545SOL     OW 8533   1.694   0.633   1.271
 2545SOL    HW1 8534   1.670   0.685   1.353
 2545SOL    HW2 8535   1.793   0.629   1.262
 2546SOL     OW 8536   0.283   1.496   1.141
 2546SOL    HW1 8537   0.310   1.510   1.236
 2546SOL    HW2 8538   0.183   1.491   1.135
 2547SOL     OW 8539   6.362   4.695   0.385
 2547SOL    HW1 8540   6.307   4.664   0.307
 2547SOL    HW2 8541   6.389   4.790   0.371
 2548SOL     OW 8542   2.356   6.593   5.896
 2548SOL    HW1 8543   2.349   6.676   5.840
 2548SOL    HW2 8544   2.277   6.586   5.957
 2549SOL     OW 8545   2.215   1.079   0.911
 2549SOL    HW1 8546   2.273   1.124   0.979
 2549SOL    HW2 8547   2.273   1.028   0.848
 2550SOL     OW 8548   6.893   0.070   5.923
 2550SOL    HW1 8549   6.858   0.162   5.904
 2550SOL    HW2 8550   6.947   0.073   6.007
 2551SOL     OW 8551   3.696   4.806   0.528
 2551SOL    HW1 8552   3.733   4.882   0.581
 2551SOL    HW2 8553   3.711   4.720   0.577
 2552SOL     OW 8554   2.293   5.957   5.724
 2552SOL    HW1 8555   2.343   5.952   5.811
 2552SOL    HW2 8556   2.301   5.870   5.676
 2553SOL     OW 8557   4.270   3.009   5.934
 2553SOL    HW1 8558   4.294   2.938   5.867
 2553SOL    HW2 8559   4.253   2.966   6.023
 2554SOL     OW 8560   2.221   6.214   0.860
 2554SOL    HW1 8561   2.132   6.246   0.892
 2554SOL    HW2 8562   2.209   6.155   0.780
 2555SOL     OW 8563   5.920   6.852   6.315
 2555SOL    HW1 8564   5.838   6.885   6.269
 2555SOL    HW2 8565   5.993   6.838   6.247
 2556SOL     OW 8566   4.443   5.910   0.377
 2556SOL    HW1 8567   4.463   5.903   0.475
 2556SOL    HW2 8568   4.528   5.905   0.324
 2557SOL     OW 8569   2.658   3.364   6.343
 2557SOL    HW1 8570   2.597   3.375   6.265
 2557SOL    HW2 8571   2.743   3.413   6.325
 2558SOL     OW 8572   5.012   2.229   5.436
 2558SOL    HW1 8573   5.069   2.200   5.359
 2558SOL    HW2 8574   5.066   2.228   5.520
 2559SOL     OW 8575   6.733   3.823   3.949
 2559SOL    HW1 8576   6.729   3.827   4.049
 2559SOL    HW2 8577   6.648   3.859   3.910
 2560SOL     OW 8578   6.052   3.303   4.193
 2560SOL    HW1 8579   6.078   3.377   4.130
 2560SOL    HW2 8580   6.090   3.216   4.159
 2561SOL     OW 8581   3.006   6.284   4.552
 2561SOL    HW1 8582   2.988   6.378   4.524
 2561SOL    HW2 8583   2.954   6.221   4.494
 2562SOL     OW 8584   1.073   5.476   1.846
 2562SOL    HW1 8585   1.126   5.447   1.925
 2562SOL    HW2 8586   1.039   5.396   1.797
 2563SOL     OW 8587   3.978   1.950   0.956
 2563SOL    HW1 8588   4.015   1.897   1.032
 2563SOL    HW2 8589   3.973   1.893   0.874
 2564SOL     OW 8590   1.988   6.340   5.911
 2564SOL    HW1 8591   2.073   6.297   5.882
 2564SOL    HW2 8592   1.963   6.412   5.847
 2565SOL     OW 8593   0.215   7.001   6.901
 2565SOL    HW1 8594   0.171   6.992   6.812
 2565SOL    HW2 8595   0.145   7.006   6.972
 2566SOL     OW 8596   2.180   0.133   0.555
 2566SOL    HW1 8597   2.268   0.118   0.512
 2566SOL    HW2 8598   2.107   0.112   0.490
 2567SOL     OW 8599   0.771   1.327   1.062
 2567SOL    HW1 8600   0.731   1.252   1.009
 2567SOL    HW2 8601   0.742   1.414   1.023
 2568SOL     OW 8602   3.663   6.834   0.200
 2568SOL    HW1 8603   3.637   6.888   0.120
 2568SOL    HW2 8604   3.629   6.878   0.283
 2569SOL     OW 8605   3.196   1.522   1.802
 2569SOL    HW1 8606   3.105   1.480   1.796
 2569SOL    HW2 8607   3.263   1.463   1.758
 2570SOL     OW 8608   5.436   0.128   5.989
 2570SOL    HW1 8609   5.443   0.034   5.956
 2570SOL    HW2 8610   5.514   0.149   6.048
 2571SOL     OW 8611   2.308   4.453   5.108
 2571SOL    HW1 8612   2.338   4.486   5.198
 2571SOL    HW2 8613   2.365   4.494   5.037
 2572SOL     OW 8614   2.118   5.877   6.873
 2572SOL    HW1 8615   2.210   5.842   6.893
 2572SOL    HW2 8616   2.069   5.809   6.818
 2573SOL     OW 8617   6.551   2.271   1.786
 2573SOL    HW1 8618   6.479   2.322   1.834
 2573SOL    HW2 8619   6.515   2.182   1.758
 2574SOL     OW 8620   5.965   3.819   6.967
 2574SOL    HW1 8621   5.907   3.791   0.020
 2574SOL    HW2 8622   6.044   3.758   6.961
 2575SOL     OW 8623   5.364   5.327   0.559
 2575SOL    HW1 8624   5.341   5.239   0.599
 2575SOL    HW2 8625   5.290   5.392   0.576
 2576SOL     OW 8626   3.770   6.850   4.287
 2576SOL    HW1 8627   3.691   6.853   4.225
 2576SOL    HW2 8628   3.838   6.916   4.258
 2577SOL     OW 8629   3.382   0.104   1.598
 2577SOL    HW1 8630   3.411   0.176   1.535
 2577SOL    HW2 8631   3.320   0.143   1.666
 2578SOL     OW 8632   4.619   1.515   3.579
 2578SOL    HW1 8633   4.690   1.488   3.514
 2578SOL    HW2 8634   4.622   1.614   3.593
 2579SOL     OW 8635   1.221   6.208   2.364
 2579SOL    HW1 8636   1.292   6.150   2.405
 2579SOL    HW2 8637   1.182   6.267   2.434
 2580SOL     OW 8638   2.378   2.901   6.540
 2580SOL    HW1 8639   2.438   2.905   6.619
 2580SOL    HW2 8640   2.432   2.908   6.456
 2581SOL     OW 8641   0.738   4.855   0.815
 2581SOL    HW1 8642   0.747   4.954   0.800
 2581SOL    HW2 8643   0.828   4.816   0.836
 2582SOL     OW 8644   0.709   4.693   2.272
 2582SOL    HW1 8645   0.759   4.615   2.235
 2582SOL    HW2 8646   0.657   4.737   2.200
 2583SOL     OW 8647   1.007   1.115   0.497
 2583SOL    HW1 8648   1.106   1.117   0.510
 2583SOL    HW2 8649   0.977   1.020   0.488
 2584SOL     OW 8650   4.032   5.795   0.083
 2584SOL    HW1 8651   3.979   5.729   0.136
 2584SOL    HW2 8652   4.002   5.793   7.012
 2585SOL     OW 8653   4.999   2.337   0.636
 2585SOL    HW1 8654   5.013   2.397   0.714
 2585SOL    HW2 8655   4.901   2.331   0.616
 2586SOL     OW 8656   3.367   1.186   3.504
 2586SOL    HW1 8657   3.425   1.117   3.460
 2586SOL    HW2 8658   3.403   1.277   3.484
 2587SOL     OW 8659   0.402   0.771   3.628
 2587SOL    HW1 8660   0.409   0.717   3.712
 2587SOL    HW2 8661   0.312   0.813   3.623
 2588SOL     OW 8662   4.312   0.832   6.789
 2588SOL    HW1 8663   4.369   0.884   6.726
 2588SOL    HW2 8664   4.278   0.750   6.743
 2589SOL     OW 8665   0.495   5.615   6.534
 2589SOL    HW1 8666   0.514   5.699   6.483
 2589SOL    HW2 8667   0.561   5.606   6.609
 2590SOL     OW 8668   3.581   5.713   0.715
 2590SOL    HW1 8669   3.535   5.754   0.794
 2590SOL    HW2 8670   3.647   5.779   0.678
 2591SOL     OW 8671   6.952   5.212   2.826
 2591SOL    HW1 8672   6.974   5.259   2.741
 2591SOL    HW2 8673   6.887   5.266   2.879
 2592SOL     OW 8674   3.500   5.002   0.177
 2592SOL    HW1 8675   3.420   4.991   0.235
 2592SOL    HW2 8676   3.573   4.941   0.209
 2593SOL     OW 8677   3.346   5.307   0.474
 2593SOL    HW1 8678   3.433   5.298   0.523
 2593SOL    HW2 8679   3.341   5.397   0.431
 2594SOL     OW 8680   1.307   5.007   6.353
 2594SOL    HW1 8681   1.297   4.928   6.292
 2594SOL    HW2 8682   1.326   4.974   6.446
 2595SOL     OW 8683   6.190   0.973   4.038
 2595SOL    HW1 8684   6.190   0.984   4.138
 2595SOL    HW2 8685   6.140   0.890   4.014
 2596SOL     OW 8686   3.155   1.782   1.758
 2596SOL    HW1 8687   3.174   1.690   1.791
 2596SOL    HW2 8688   3.074   1.780   1.698
 2597SOL     OW 8689   1.504   5.176   5.580
 2597SOL    HW1 8690   1.589   5.125   5.586
 2597SOL    HW2 8691   1.439   5.126   5.523
 2598SOL     OW 8692   0.006   1.437   3.178
 2598SOL    HW1 8693   6.935   1.412   3.190
 2598SOL    HW2 8694   0.062   1.390   3.246
 2599SOL     OW 8695   1.991   6.374   0.929
 2599SOL    HW1 8696   1.924   6.408   0.994
 2599SOL    HW2 8697   1.985   6.427   0.844
 2600SOL     OW 8698   5.470   3.110   4.837
 2600SOL    HW1 8699   5.451   3.190   4.894
 2600SOL    HW2 8700   5.491   3.140   4.744
 2601SOL     OW 8701   2.308   1.213   1.660
 2601SOL    HW1 8702   2.273   1.255   1.576
 2601SOL    HW2 8703   2.389   1.158   1.639
 2602SOL     OW 8704   1.534   4.283   4.661
 2602SOL    HW1 8705   1.471   4.210   4.635
 2602SOL    HW2 8706   1.540   4.350   4.588
 2603SOL     OW 8707   2.419   0.976   3.943
 2603SOL    HW1 8708   2.449   0.980   4.038
 2603SOL    HW2 8709   2.475   1.038   3.887
 2604SOL     OW 8710   4.483   1.567   2.708
 2604SOL    HW1 8711   4.471   1.665   2.719
 2604SOL    HW2 8712   4.429   1.518   2.776
 2605SOL     OW 8713   2.303   2.760   3.456
 2605SOL    HW1 8714   2.208   2.736   3.478
 2605SOL    HW2 8715   2.364   2.688   3.487
 2606SOL     OW 8716   5.394   4.566   1.861
 2606SOL    HW1 8717   5.439   4.476   1.863
 2606SOL    HW2 8718   5.297   4.554   1.839
 2607SOL     OW 8719   1.339   1.536   1.343
 2607SOL    HW1 8720   1.339   1.587   1.429
 2607SOL    HW2 8721   1.368   1.442   1.360
 2608SOL     OW 8722   4.711   5.092   1.239
 2608SOL    HW1 8723   4.779   5.114   1.169
 2608SOL    HW2 8724   4.628   5.057   1.196
 2609SOL     OW 8725   6.216   1.229   1.379
 2609SOL    HW1 8726   6.226   1.327   1.361
 2609SOL    HW2 8727   6.199   1.182   1.292
 2610SOL     OW 8728   1.040   4.565   4.831
 2610SOL    HW1 8729   1.091   4.651   4.836
 2610SOL    HW2 8730   0.943   4.585   4.816
 2611SOL     OW 8731   4.224   6.872   0.788
 2611SOL    HW1 8732   4.207   6.966   0.818
 2611SOL    HW2 8733   4.206   6.809   0.863
 2612SOL     OW 8734   6.451   0.090   5.681
 2612SOL    HW1 8735   6.473   0.186   5.659
 2612SOL    HW2 8736   6.528   0.032   5.656
 2613SOL     OW 8737   2.863   5.548   6.255
 2613SOL    HW1 8738   2.800   5.622   6.279
 2613SOL    HW2 8739   2.941   5.549   6.318
 2614SOL     OW 8740   6.168   1.573   6.319
 2614SOL    HW1 8741   6.130   1.490   6.360
 2614SOL    HW2 8742   6.247   1.603   6.372
 2615SOL     OW 8743   0.264   3.149   2.541
 2615SOL    HW1 8744   0.295   3.054   2.529
 2615SOL    HW2 8745   0.195   3.152   2.613
 2616SOL     OW 8746   3.210   2.863   5.985
 2616SOL    HW1 8747   3.170   2.835   6.073
 2616SOL    HW2 8748   3.186   2.958   5.967
 2617SOL     OW 8749   4.015   6.949   0.295
 2617SOL    HW1 8750   4.077   6.895   0.351
 2617SOL    HW2 8751   3.929   6.900   0.282
 2618SOL     OW 8752   6.903   0.597   3.617
 2618SOL    HW1 8753   6.813   0.636   3.635
 2618SOL    HW2 8754   6.933   0.623   3.525
 2619SOL     OW 8755   3.900   2.076   2.818
 2619SOL    HW1 8756   3.919   2.148   2.884
 2619SOL    HW2 8757   3.897   1.988   2.865
 2620SOL     OW 8758   6.772   6.631   3.441
 2620SOL    HW1 8759   6.686   6.579   3.441
 2620SOL    HW2 8760   6.826   6.606   3.360
 2621SOL     OW 8761   0.561   5.205   2.302
 2621SOL    HW1 8762   0.563   5.301   2.273
 2621SOL    HW2 8763   0.647   5.161   2.278
 2622SOL     OW 8764   1.828   3.810   5.064
 2622SOL    HW1 8765   1.817   3.810   5.164
 2622SOL    HW2 8766   1.901   3.746   5.039
 2623SOL     OW 8767   0.791   1.091   5.715
 2623SOL    HW1 8768   0.759   1.119   5.625
 2623SOL    HW2 8769   0.890   1.108   5.722
 2624SOL     OW 8770   6.583   1.082   4.913
 2624SOL    HW1 8771   6.666   1.090   4.859
 2624SOL    HW2 8772   6.525   1.010   4.875
 2625SOL     OW 8773   2.219   3.731   5.621
 2625SOL    HW1 8774   2.306   3.687   5.598
 2625SOL    HW2 8775   2.211   3.739   5.721
 2626SOL     OW 8776   0.539   0.629   5.896
 2626SOL    HW1 8777   0.507   0.574   5.819
 2626SOL    HW2 8778   0.626   0.592   5.930
 2627SOL     OW 8779   0.726   1.084   6.257
 2627SOL    HW1 8780   0.679   1.164   6.296
 2627SOL    HW2 8781   0.805   1.114   6.204
 2628SOL     OW 8782   1.892   4.635   5.729
 2628SOL    HW1 8783   1.954   4.591   5.794
 2628SOL    HW2 8784   1.927   4.622   5.636
 2629SOL     OW 8785   3.439   3.209   2.559
 2629SOL    HW1 8786   3.444   3.136   2.491
 2629SOL    HW2 8787   3.405   3.171   2.646
 2630SOL     OW 8788   2.839   1.992   2.548
 2630SOL    HW1 8789   2.871   2.083   2.522
 2630SOL    HW2 8790   2.883   1.923   2.491
 2631SOL     OW 8791   5.294   0.665   6.256
 2631SOL    HW1 8792   5.202   0.699   6.277
 2631SOL    HW2 8793   5.302   0.571   6.288
 2632SOL     OW 8794   5.417   3.188   6.472
 2632SOL    HW1 8795   5.385   3.093   6.465
 2632SOL    HW2 8796   5.341   3.246   6.502
 2633SOL     OW 8797   0.932   1.937   4.280
 2633SOL    HW1 8798   0.903   2.020   4.328
 2633SOL    HW2 8799   0.887   1.933   4.191
 2634SOL     OW 8800   0.669   4.455   3.378
 2634SOL    HW1 8801   0.650   4.536   3.433
 2634SOL    HW2 8802   0.590   4.435   3.320
 2635SOL     OW 8803   6.783   6.121   5.227
 2635SOL    HW1 8804   6.875   6.159   5.237
 2635SOL    HW2 8805   6.770   6.091   5.132
 2636SOL     OW 8806   3.889   0.987   5.485
 2636SOL    HW1 8807   3.803   0.994   5.435
 2636SOL    HW2 8808   3.964   0.971   5.420
 2637SOL     OW 8809   5.578   1.913   3.422
 2637SOL    HW1 8810   5.645   1.849   3.460
 2637SOL    HW2 8811   5.489   1.899   3.467
 2638SOL     OW 8812   6.967   0.018   3.703
 2638SOL    HW1 8813   6.875   0.042   3.673
 2638SOL    HW2 8814   0.008   0.043   3.632
 2639SOL     OW 8815   0.776   5.976   0.297
 2639SOL    HW1 8816   0.819   5.902   0.245
 2639SOL    HW2 8817   0.831   6.059   0.288
 2640SOL     OW 8818   6.944   6.001   5.629
 2640SOL    HW1 8819   0.013   6.035   5.640
 2640SOL    HW2 8820   6.881   6.078   5.625
 2641SOL     OW 8821   5.721   3.099   2.061
 2641SOL    HW1 8822   5.821   3.093   2.058
 2641SOL    HW2 8823   5.691   3.181   2.013
 2642SOL     OW 8824   5.527   0.996   3.639
 2642SOL    HW1 8825   5.458   0.952   3.582
 2642SOL    HW2 8826   5.611   1.008   3.587
 2643SOL     OW 8827   0.742   3.787   3.305
 2643SOL    HW1 8828   0.785   3.714   3.359
 2643SOL    HW2 8829   0.690   3.847   3.365
 2644SOL     OW 8830   5.314   5.766   5.362
 2644SOL    HW1 8831   5.362   5.732   5.281
 2644SOL    HW2 8832   5.353   5.724   5.444
 2645SOL     OW 8833   4.150   5.988   3.954
 2645SOL    HW1 8834   4.189   5.909   4.001
 2645SOL    HW2 8835   4.050   5.984   3.961
 2646SOL     OW 8836   6.353   1.613   6.932
 2646SOL    HW1 8837   6.358   1.525   6.978
 2646SOL    HW2 8838   6.261   1.651   6.943
 2647SOL     OW 8839   6.550   0.264   1.869
 2647SOL    HW1 8840   6.481   0.194   1.888
 2647SOL    HW2 8841   6.540   0.295   1.774
 2648SOL     OW 8842   1.082   6.636   3.265
 2648SOL    HW1 8843   1.166   6.609   3.218
 2648SOL    HW2 8844   1.059   6.569   3.335
 2649SOL     OW 8845   6.865   3.748   0.224
 2649SOL    HW1 8846   6.845   3.763   0.127
 2649SOL    HW2 8847   6.876   3.650   0.241
 2650SOL     OW 8848   1.061   5.044   3.878
 2650SOL    HW1 8849   1.038   5.012   3.786
 2650SOL    HW2 8850   1.114   4.974   3.926
 2651SOL     OW 8851   2.312   1.458   0.891
 2651SOL    HW1 8852   2.298   1.494   0.983
 2651SOL    HW2 8853   2.264   1.514   0.824
 2652SOL     OW 8854   4.183   3.189   5.313
 2652SOL    HW1 8855   4.098   3.235   5.340
 2652SOL    HW2 8856   4.245   3.186   5.391
 2653SOL     OW 8857   4.905   6.657   5.616
 2653SOL    HW1 8858   4.994   6.619   5.640
 2653SOL    HW2 8859   4.889   6.742   5.667
 2654SOL     OW 8860   4.335   0.254   1.849
 2654SOL    HW1 8861   4.237   0.264   1.836
 2654SOL    HW2 8862   4.383   0.301   1.775
 2655SOL     OW 8863   5.688   6.979   4.199
 2655SOL    HW1 8864   5.687   6.901   4.136
 2655SOL    HW2 8865   5.683   0.039   4.147
 2656SOL     OW 8866   3.261   5.091   4.413
 2656SOL    HW1 8867   3.357   5.086   4.385
 2656SOL    HW2 8868   3.229   5.185   4.403
 2657SOL     OW 8869   0.865   4.033   0.004
 2657SOL    HW1 8870   0.811   3.960   0.046
 2657SOL    HW2 8871   0.962   4.010   0.010
 2658SOL     OW 8872   4.976   4.723   0.700
 2658SOL    HW1 8873   5.017   4.775   0.775
 2658SOL    HW2 8874   5.031   4.737   0.617
 2659SOL     OW 8875   5.152   3.049   5.030
 2659SOL    HW1 8876   5.209   3.129   5.018
 2659SOL    HW2 8877   5.060   3.077   5.056
 2660SOL     OW 8878   1.821   6.830   1.764
 2660SOL    HW1 8879   1.880   6.908   1.740
 2660SOL    HW2 8880   1.789   6.840   1.858
 2661SOL     OW 8881   2.302   0.005   1.583
 2661SOL    HW1 8882   2.340   7.012   1.674
 2661SOL    HW2 8883   2.261   6.946   1.547
 2662SOL     OW 8884   4.127   6.561   5.343
 2662SOL    HW1 8885   4.198   6.492   5.353
 2662SOL    HW2 8886   4.080   6.547   5.255
 2663SOL     OW 8887   3.539   4.262   6.558
 2663SOL    HW1 8888   3.525   4.171   6.521
 2663SOL    HW2 8889   3.583   4.320   6.490
 2664SOL     OW 8890   4.608   3.376   5.375
 2664SOL    HW1 8891   4.594   3.446   5.305
 2664SOL    HW2 8892   4.575   3.288   5.341
 2665SOL     OW 8893   2.690   2.723   5.506
 2665SOL    HW1 8894   2.784   2.747   5.481
 2665SOL    HW2 8895   2.632   2.728   5.425
 2666SOL     OW 8896   0.412   5.094   1.870
 2666SOL    HW1 8897   0.427   5.193   1.865
 2666SOL    HW2 8898   0.381   5.060   1.780
 2667SOL     OW 8899   0.826   5.875   4.216
 2667SOL    HW1 8900   0.793   5.961   4.178
 2667SOL    HW2 8901   0.849   5.888   4.312
 2668SOL     OW 8902   0.318   3.025   4.800
 2668SOL    HW1 8903   0.331   3.105   4.857
 2668SOL    HW2 8904   0.394   3.019   4.734
 2669SOL     OW 8905   2.881   4.877   6.024
 2669SOL    HW1 8906   2.949   4.811   6.055
 2669SOL    HW2 8907   2.867   4.865   5.925
 2670SOL     OW 8908   6.009   4.047   5.713
 2670SOL    HW1 8909   6.105   4.054   5.686
 2670SOL    HW2 8910   5.987   4.122   5.775
 2671SOL     OW 8911   4.195   5.512   6.931
 2671SOL    HW1 8912   4.132   5.481   6.860
 2671SOL    HW2 8913   4.235   5.600   6.904
 2672SOL     OW 8914   2.525   5.134   1.011
 2672SOL    HW1 8915   2.551   5.138   0.915
 2672SOL    HW2 8916   2.434   5.094   1.019
 2673SOL     OW 8917   6.517   1.666   1.810
 2673SOL    HW1 8918   6.590   1.706   1.754
 2673SOL    HW2 8919   6.428   1.702   1.780
 2674SOL     OW 8920   1.533   4.855   3.604
 2674SOL    HW1 8921   1.614   4.902   3.570
 2674SOL    HW2 8922   1.545   4.833   3.701
 2675SOL     OW 8923   5.998   5.708   4.032
 2675SOL    HW1 8924   5.914   5.671   4.072
 2675SOL    HW2 8925   6.054   5.750   4.104
 2676SOL     OW 8926   3.721   2.669   1.411
 2676SOL    HW1 8927   3.698   2.729   1.335
 2676SOL    HW2 8928   3.638   2.643   1.460
 2677SOL     OW 8929   2.656   4.234   6.835
 2677SOL    HW1 8930   2.702   4.319   6.862
 2677SOL    HW2 8931   2.569   4.257   6.791
 2678SOL     OW 8932   7.012   2.680   2.107
 2678SOL    HW1 8933   6.979   2.613   2.040
 2678SOL    HW2 8934   0.078   2.714   2.079
 2679SOL     OW 8935   1.856   4.861   1.793
 2679SOL    HW1 8936   1.895   4.950   1.818
 2679SOL    HW2 8937   1.771   4.846   1.844
 2680SOL     OW 8938   0.856   1.910   1.215
 2680SOL    HW1 8939   0.912   1.992   1.227
 2680SOL    HW2 8940   0.830   1.901   1.119
 2681SOL     OW 8941   1.503   2.124   5.420
 2681SOL    HW1 8942   1.583   2.145   5.476
 2681SOL    HW2 8943   1.436   2.198   5.429
 2682SOL     OW 8944   4.792   4.390   3.118
 2682SOL    HW1 8945   4.789   4.299   3.161
 2682SOL    HW2 8946   4.876   4.437   3.146
 2683SOL     OW 8947   2.893   5.770   1.789
 2683SOL    HW1 8948   2.834   5.699   1.752
 2683SOL    HW2 8949   2.963   5.794   1.722
 2684SOL     OW 8950   4.513   6.437   1.564
 2684SOL    HW1 8951   4.444   6.376   1.523
 2684SOL    HW2 8952   4.528   6.411   1.659
 2685SOL     OW 8953   6.274   5.969   6.178
 2685SOL    HW1 8954   6.218   6.044   6.213
 2685SOL    HW2 8955   6.361   5.967   6.228
 2686SOL     OW 8956   1.887   1.357   6.112
 2686SOL    HW1 8957   1.856   1.344   6.018
 2686SOL    HW2 8958   1.959   1.427   6.114
 2687SOL     OW 8959   5.078   5.364   1.089
 2687SOL    HW1 8960   5.168   5.344   1.127
 2687SOL    HW2 8961   5.020   5.283   1.096
 2688SOL     OW 8962   3.253   3.553   0.436
 2688SOL    HW1 8963   3.222   3.648   0.432
 2688SOL    HW2 8964   3.175   3.492   0.423
 2689SOL     OW 8965   0.898   3.990   2.531
 2689SOL    HW1 8966   0.995   3.970   2.519
 2689SOL    HW2 8967   0.876   3.989   2.629
 2690SOL     OW 8968   3.738   3.340   5.214
 2690SOL    HW1 8969   3.733   3.245   5.185
 2690SOL    HW2 8970   3.646   3.381   5.211
 2691SOL     OW 8971   0.679   5.255   3.679
 2691SOL    HW1 8972   0.774   5.250   3.711
 2691SOL    HW2 8973   0.646   5.349   3.687
 2692SOL     OW 8974   2.876   6.178   3.542
 2692SOL    HW1 8975   2.814   6.240   3.591
 2692SOL    HW2 8976   2.847   6.084   3.556
 2693SOL     OW 8977   2.165   5.229   3.484
 2693SOL    HW1 8978   2.149   5.327   3.470
 2693SOL    HW2 8979   2.264   5.211   3.483
 2694SOL     OW 8980   4.164   6.339   2.992
 2694SOL    HW1 8981   4.099   6.350   3.067
 2694SOL    HW2 8982   4.236   6.407   3.000
 2695SOL     OW 8983   5.760   1.281   2.435
 2695SOL    HW1 8984   5.676   1.233   2.411
 2695SOL    HW2 8985   5.820   1.219   2.486
 2696SOL     OW 8986   3.573   3.251   5.884
 2696SOL    HW1 8987   3.566   3.340   5.838
 2696SOL    HW2 8988   3.484   3.228   5.923
 2697SOL     OW 8989   3.324   0.819   3.105
 2697SOL    HW1 8990   3.303   0.892   3.170
 2697SOL    HW2 8991   3.372   0.745   3.151
 2698SOL     OW 8992   2.269   4.976   0.979
 2698SOL    HW1 8993   2.191   5.037   0.990
 2698SOL    HW2 8994   2.238   4.881   0.989
 2699SOL     OW 8995   2.500   5.698   1.031
 2699SOL    HW1 8996   2.454   5.785   1.010
 2699SOL    HW2 8997   2.447   5.649   1.100
 2700SOL     OW 8998   2.615   2.746   0.331
 2700SOL    HW1 8999   2.619   2.824   0.268
 2700SOL    HW2 9000   2.520   2.731   0.358
 2701SOL     OW 9001   5.431   1.606   6.420
 2701SOL    HW1 9002   5.519   1.563   6.401
 2701SOL    HW2 9003   5.442   1.706   6.423
 2702SOL     OW 9004   0.547   2.615   3.443
 2702SOL    HW1 9005   0.545   2.693   3.505
 2702SOL    HW2 9006   0.618   2.550   3.473
 2703SOL     OW 9007   0.760   6.848   0.701
 2703SOL    HW1 9008   0.670   6.890   0.688
 2703SOL    HW2 9009   0.828   6.920   0.717
 2704SOL     OW 9010   6.484   5.948   1.902
 2704SOL    HW1 9011   6.577   5.971   1.875
 2704SOL    HW2 9012   6.467   5.851   1.882
 2705SOL     OW 9013   6.778   6.718   4.749
 2705SOL    HW1 9014   6.725   6.757   4.674
 2705SOL    HW2 9015   6.872   6.703   4.718
 2706SOL     OW 9016   6.422   4.978   2.856
 2706SOL    HW1 9017   6.497   4.950   2.796
 2706SOL    HW2 9018   6.447   5.061   2.905
 2707SOL     OW 9019   4.226   0.825   4.649
 2707SOL    HW1 9020   4.167   0.753   4.611
 2707SOL    HW2 9021   4.170   0.892   4.697
 2708SOL     OW 9022   6.886   2.515   0.898
 2708SOL    HW1 9023   6.827   2.535   0.819
 2708SOL    HW2 9024   6.871   2.584   0.969
 2709SOL     OW 9025   5.025   0.293   0.485
 2709SOL    HW1 9026   5.021   0.369   0.421
 2709SOL    HW2 9027   5.012   0.207   0.435
 2710SOL     OW 9028   1.237   3.141   4.250
 2710SOL    HW1 9029   1.293   3.059   4.265
 2710SOL    HW2 9030   1.200   3.172   4.337
 2711SOL     OW 9031   2.784   0.761   3.773
 2711SOL    HW1 9032   2.761   0.701   3.697
 2711SOL    HW2 9033   2.824   0.846   3.738
 2712SOL     OW 9034   2.520   4.587   1.118
 2712SOL    HW1 9035   2.461   4.514   1.085
 2712SOL    HW2 9036   2.576   4.553   1.193
 2713SOL     OW 9037   2.298   2.980   5.706
 2713SOL    HW1 9038   2.323   3.042   5.631
 2713SOL    HW2 9039   2.375   2.920   5.727
 2714SOL     OW 9040   4.223   2.356   0.259
 2714SOL    HW1 9041   4.321   2.357   0.278
 2714SOL    HW2 9042   4.172   2.352   0.345
 2715SOL     OW 9043   5.378   2.516   1.285
 2715SOL    HW1 9044   5.446   2.455   1.325
 2715SOL    HW2 9045   5.346   2.480   1.198
 2716SOL     OW 9046   5.095   3.296   3.285
 2716SOL    HW1 9047   5.146   3.370   3.328
 2716SOL    HW2 9048   5.156   3.218   3.269
 2717SOL     OW 9049   6.969   0.279   2.786
 2717SOL    HW1 9050   6.941   0.353   2.725
 2717SOL    HW2 9051   0.043   0.283   2.801
 2718SOL     OW 9052   1.296   1.172   5.030
 2718SOL    HW1 9053   1.374   1.138   4.978
 2718SOL    HW2 9054   1.329   1.233   5.103
 2719SOL     OW 9055   0.646   5.057   1.447
 2719SOL    HW1 9056   0.639   5.058   1.347
 2719SOL    HW2 9057   0.658   5.151   1.481
 2720SOL     OW 9058   1.884   6.139   2.150
 2720SOL    HW1 9059   1.974   6.131   2.193
 2720SOL    HW2 9060   1.861   6.236   2.140
 2721SOL     OW 9061   3.559   6.445   3.269
 2721SOL    HW1 9062   3.597   6.424   3.359
 2721SOL    HW2 9063   3.634   6.455   3.203
 2722SOL     OW 9064   6.409   4.764   0.839
 2722SOL    HW1 9065   6.370   4.818   0.765
 2722SOL    HW2 9066   6.383   4.668   0.828
 2723SOL     OW 9067   1.013   5.988   6.219
 2723SOL    HW1 9068   0.918   6.010   6.241
 2723SOL    HW2 9069   1.072   6.064   6.246
 2724SOL     OW 9070   1.978   5.445   6.914
 2724SOL    HW1 9071   1.972   5.377   6.987
 2724SOL    HW2 9072   1.924   5.526   6.939
 2725SOL     OW 9073   4.846   4.552   5.050
 2725SOL    HW1 9074   4.919   4.590   5.107
 2725SOL    HW2 9075   4.793   4.627   5.009
 2726SOL     OW 9076   0.242   1.804   1.296
 2726SOL    HW1 9077   0.317   1.750   1.335
 2726SOL    HW2 9078   0.280   1.880   1.243
 2727SOL     OW 9079   0.785   4.683   3.827
 2727SOL    HW1 9080   0.848   4.761   3.823
 2727SOL    HW2 9081   0.698   4.708   3.785
 2728SOL     OW 9082   4.509   6.802   5.270
 2728SOL    HW1 9083   4.565   6.755   5.339
 2728SOL    HW2 9084   4.530   6.764   5.180
 2729SOL     OW 9085   0.166   6.272   0.324
 2729SOL    HW1 9086   0.067   6.288   0.319
 2729SOL    HW2 9087   0.190   6.247   0.417
 2730SOL     OW 9088   2.022   5.277   1.591
 2730SOL    HW1 9089   1.996   5.373   1.578
 2730SOL    HW2 9090   1.947   5.218   1.561
 2731SOL     OW 9091   2.981   3.651   3.483
 2731SOL    HW1 9092   2.999   3.671   3.579
 2731SOL    HW2 9093   3.034   3.715   3.426
 2732SOL     OW 9094   5.484   2.545   1.764
 2732SOL    HW1 9095   5.418   2.470   1.769
 2732SOL    HW2 9096   5.452   2.620   1.822
 2733SOL     OW 9097   6.593   2.005   5.159
 2733SOL    HW1 9098   6.516   2.032   5.216
 2733SOL    HW2 9099   6.570   1.921   5.110
 2734SOL     OW 9100   3.501   5.333   0.866
 2734SOL    HW1 9101   3.421   5.361   0.814
 2734SOL    HW2 9102   3.584   5.370   0.824
 2735SOL     OW 9103   1.733   3.279   1.653
 2735SOL    HW1 9104   1.796   3.356   1.657
 2735SOL    HW2 9105   1.761   3.215   1.582
 2736SOL     OW 9106   5.737   6.071   4.698
 2736SOL    HW1 9107   5.682   5.988   4.693
 2736SOL    HW2 9108   5.832   6.049   4.675
 2737SOL     OW 9109   2.739   4.395   5.387
 2737SOL    HW1 9110   2.643   4.422   5.390
 2737SOL    HW2 9111   2.791   4.460   5.332
 2738SOL     OW 9112   5.242   6.455   1.877
 2738SOL    HW1 9113   5.265   6.492   1.967
 2738SOL    HW2 9114   5.326   6.426   1.831
 2739SOL     OW 9115   1.256   4.552   1.217
 2739SOL    HW1 9116   1.342   4.526   1.262
 2739SOL    HW2 9117   1.262   4.647   1.186
 2740SOL     OW 9118   6.379   4.082   2.387
 2740SOL    HW1 9119   6.448   4.126   2.329
 2740SOL    HW2 9120   6.424   4.025   2.456
 2741SOL     OW 9121   6.282   0.027   4.704
 2741SOL    HW1 9122   6.381   0.024   4.717
 2741SOL    HW2 9123   6.249   0.119   4.723
 2742SOL     OW 9124   1.742   5.089   0.341
 2742SOL    HW1 9125   1.666   5.075   0.277
 2742SOL    HW2 9126   1.756   5.187   0.355
 2743SOL     OW 9127   6.659   4.439   2.487
 2743SOL    HW1 9128   6.725   4.488   2.543
 2743SOL    HW2 9129   6.645   4.487   2.401
 2744SOL     OW 9130   4.717   2.286   0.652
 2744SOL    HW1 9131   4.709   2.187   0.655
 2744SOL    HW2 9132   4.670   2.326   0.731
 2745SOL     OW 9133   6.816   0.741   5.138
 2745SOL    HW1 9134   6.908   0.721   5.104
 2745SOL    HW2 9135   6.750   0.726   5.065
 2746SOL     OW 9136   1.201   2.456   4.991
 2746SOL    HW1 9137   1.133   2.511   5.038
 2746SOL    HW2 9138   1.272   2.515   4.953
 2747SOL     OW 9139   4.559   4.911   6.497
 2747SOL    HW1 9140   4.528   4.983   6.558
 2747SOL    HW2 9141   4.491   4.838   6.495
 2748SOL     OW 9142   4.499   1.266   2.226
 2748SOL    HW1 9143   4.527   1.269   2.322
 2748SOL    HW2 9144   4.525   1.352   2.181
 2749SOL     OW 9145   0.257   4.056   1.039
 2749SOL    HW1 9146   0.312   3.984   1.082
 2749SOL    HW2 9147   0.170   4.065   1.087
 2750SOL     OW 9148   1.402   3.716   0.773
 2750SOL    HW1 9149   1.432   3.725   0.868
 2750SOL    HW2 9150   1.397   3.806   0.730
 2751SOL     OW 9151   1.223   3.324   1.451
 2751SOL    HW1 9152   1.209   3.413   1.407
 2751SOL    HW2 9153   1.135   3.276   1.456
 2752SOL     OW 9154   3.853   5.085   5.425
 2752SOL    HW1 9155   3.788   5.036   5.482
 2752SOL    HW2 9156   3.906   5.148   5.481
 2753SOL     OW 9157   6.865   6.454   4.933
 2753SOL    HW1 9158   6.791   6.467   4.998
 2753SOL    HW2 9159   6.932   6.528   4.943
 2754SOL     OW 9160   0.792   0.499   1.387
 2754SOL    HW1 9161   0.797   0.538   1.295
 2754SOL    HW2 9162   0.699   0.505   1.421
 2755SOL     OW 9163   2.199   0.265   2.722
 2755SOL    HW1 9164   2.204   0.313   2.809
 2755SOL    HW2 9165   2.213   0.330   2.647
 2756SOL     OW 9166   5.818   5.168   6.689
 2756SOL    HW1 9167   5.764   5.115   6.753
 2756SOL    HW2 9168   5.915   5.156   6.708
 2757SOL     OW 9169   2.573   7.005   6.816
 2757SOL    HW1 9170   2.592   0.079   6.810
 2757SOL    HW2 9171   2.654   6.958   6.852
 2758SOL     OW 9172   3.768   6.073   4.236
 2758SOL    HW1 9173   3.675   6.035   4.237
 2758SOL    HW2 9174   3.778   6.138   4.311
 2759SOL     OW 9175   5.129   0.029   5.793
 2759SOL    HW1 9176   5.106   0.059   5.885
 2759SOL    HW2 9177   5.131   0.108   5.731
 2760SOL     OW 9178   0.560   6.257   1.908
 2760SOL    HW1 9179   0.501   6.237   1.829
 2760SOL    HW2 9180   0.598   6.349   1.898
 2761SOL     OW 9181   2.322   5.514   4.694
 2761SOL    HW1 9182   2.278   5.500   4.782
 2761SOL    HW2 9183   2.259   5.491   4.620
 2762SOL     OW 9184   1.128   1.440   5.142
 2762SOL    HW1 9185   1.083   1.527   5.161
 2762SOL    HW2 9186   1.190   1.417   5.217
 2763SOL     OW 9187   5.108   1.350   3.179
 2763SOL    HW1 9188   5.030   1.331   3.238
 2763SOL    HW2 9189   5.192   1.326   3.226
 2764SOL     OW 9190   5.853   1.237   1.090
 2764SOL    HW1 9191   5.802   1.278   1.015
 2764SOL    HW2 9192   5.812   1.266   1.177
 2765SOL     OW 9193   5.666   0.057   1.314
 2765SOL    HW1 9194   5.696   0.153   1.311
 2765SOL    HW2 9195   5.743   7.024   1.342
 2766SOL     OW 9196   5.311   1.929   0.583
 2766SOL    HW1 9197   5.287   1.849   0.639
 2766SOL    HW2 9198   5.251   2.005   0.606
 2767SOL     OW 9199   6.888   5.482   0.250
 2767SOL    HW1 9200   6.958   5.445   0.312
 2767SOL    HW2 9201   6.849   5.565   0.290
 2768SOL     OW 9202   4.624   0.933   1.088
 2768SOL    HW1 9203   4.568   0.879   1.025
 2768SOL    HW2 9204   4.660   0.874   1.160
 2769SOL     OW 9205   1.987   4.099   4.447
 2769SOL    HW1 9206   2.058   4.047   4.494
 2769SOL    HW2 9207   1.912   4.118   4.510
 2770SOL     OW 9208   4.349   6.100   5.755
 2770SOL    HW1 9209   4.393   6.061   5.836
 2770SOL    HW2 9210   4.250   6.096   5.766
 2771SOL     OW 9211   6.844   0.900   3.664
 2771SOL    HW1 9212   6.856   0.984   3.715
 2771SOL    HW2 9213   6.759   0.855   3.692
 2772SOL     OW 9214   4.049   1.205   0.758
 2772SOL    HW1 9215   4.030   1.154   0.842
 2772SOL    HW2 9216   4.115   1.154   0.703
 2773SOL     OW 9217   5.702   2.277   5.128
 2773SOL    HW1 9218   5.724   2.303   5.034
 2773SOL    HW2 9219   5.603   2.269   5.139
 2774SOL     OW 9220   5.596   3.197   3.232
 2774SOL    HW1 9221   5.555   3.288   3.227
 2774SOL    HW2 9222   5.667   3.196   3.302
 2775SOL     OW 9223   6.845   5.917   6.301
 2775SOL    HW1 9224   6.877   5.890   6.391
 2775SOL    HW2 9225   6.785   5.846   6.264
 2776SOL     OW 9226   4.128   4.913   5.628
 2776SOL    HW1 9227   4.131   4.973   5.708
 2776SOL    HW2 9228   4.203   4.846   5.634
 2777SOL     OW 9229   2.939   1.072   2.081
 2777SOL    HW1 9230   2.931   1.119   2.168
 2777SOL    HW2 9231   3.036   1.059   2.059
 2778SOL     OW 9232   1.471   6.983   5.525
 2778SOL    HW1 9233   1.452   0.015   5.445
 2778SOL    HW2 9234   1.560   6.938   5.515
 2779SOL     OW 9235   5.023   6.453   1.193
 2779SOL    HW1 9236   5.056   6.406   1.275
 2779SOL    HW2 9237   5.061   6.410   1.112
 2780SOL     OW 9238   6.165   6.861   0.032
 2780SOL    HW1 9239   6.208   6.912   6.982
 2780SOL    HW2 9240   6.118   6.924   0.093
 2781SOL     OW 9241   5.475   6.398   2.107
 2781SOL    HW1 9242   5.408   6.391   2.181
 2781SOL    HW2 9243   5.564   6.424   2.144
 2782SOL     OW 9244   4.582   2.254   6.332
 2782SOL    HW1 9245   4.522   2.333   6.342
 2782SOL    HW2 9246   4.531   2.179   6.291
 2783SOL     OW 9247   5.256   4.218   3.619
 2783SOL    HW1 9248   5.311   4.196   3.539
 2783SOL    HW2 9249   5.246   4.136   3.676
 2784SOL     OW 9250   3.353   1.246   2.321
 2784SOL    HW1 9251   3.303   1.245   2.234
 2784SOL    HW2 9252   3.447   1.276   2.306
 2785SOL     OW 9253   5.005   1.452   0.866
 2785SOL    HW1 9254   4.916   1.489   0.892
 2785SOL    HW2 9255   5.061   1.438   0.948
 2786SOL     OW 9256   4.840   0.051   1.992
 2786SOL    HW1 9257   4.818   7.019   2.071
 2786SOL    HW2 9258   4.765   0.114   1.974
 2787SOL     OW 9259   4.567   1.801   6.528
 2787SOL    HW1 9260   4.627   1.736   6.482
 2787SOL    HW2 9261   4.621   1.878   6.563
 2788SOL     OW 9262   1.908   5.099   5.779
 2788SOL    HW1 9263   1.918   5.199   5.787
 2788SOL    HW2 9264   1.857   5.065   5.857
 2789SOL     OW 9265   1.728   1.860   3.777
 2789SOL    HW1 9266   1.716   1.828   3.683
 2789SOL    HW2 9267   1.639   1.874   3.820
 2790SOL     OW 9268   3.241   5.907   1.820
 2790SOL    HW1 9269   3.230   5.997   1.864
 2790SOL    HW2 9270   3.239   5.836   1.890
 2791SOL     OW 9271   0.721   2.986   3.212
 2791SOL    HW1 9272   0.663   3.033   3.278
 2791SOL    HW2 9273   0.804   3.039   3.197
 2792SOL     OW 9274   2.297   6.760   3.746
 2792SOL    HW1 9275   2.217   6.819   3.759
 2792SOL    HW2 9276   2.268   6.665   3.738
 2793SOL     OW 9277   5.672   3.949   2.837
 2793SOL    HW1 9278   5.733   3.936   2.760
 2793SOL    HW2 9279   5.696   4.034   2.885
 2794SOL     OW 9280   0.232   2.452   6.697
 2794SOL    HW1 9281   0.237   2.538   6.747
 2794SOL    HW2 9282   0.151   2.401   6.725
 2795SOL     OW 9283   1.166   3.098   0.534
 2795SOL    HW1 9284   1.197   3.098   0.439
 2795SOL    HW2 9285   1.191   3.012   0.578
 2796SOL     OW 9286   6.960   6.105   2.867
 2796SOL    HW1 9287   6.973   6.008   2.886
 2796SOL    HW2 9288   0.024   6.151   2.867
 2797SOL     OW 9289   5.124   5.325   4.358
 2797SOL    HW1 9290   5.098   5.281   4.444
 2797SOL    HW2 9291   5.152   5.256   4.291
 2798SOL     OW 9292   0.173   5.122   2.290
 2798SOL    HW1 9293   0.183   5.070   2.206
 2798SOL    HW2 9294   0.251   5.184   2.300
 2799SOL     OW 9295   5.991   5.581   6.647
 2799SOL    HW1 9296   6.082   5.541   6.652
 2799SOL    HW2 9297   5.925   5.521   6.691
 2800SOL     OW 9298   4.723   6.290   0.417
 2800SOL    HW1 9299   4.716   6.388   0.434
 2800SOL    HW2 9300   4.757   6.275   0.324
 2801SOL     OW 9301   6.482   5.937   6.346
 2801SOL    HW1 9302   6.523   5.862   6.294
 2801SOL    HW2 9303   6.450   5.903   6.434
 2802SOL     OW 9304   5.324   1.696   5.122
 2802SOL    HW1 9305   5.241   1.646   5.097
 2802SOL    HW2 9306   5.389   1.692   5.045
 2803SOL     OW 9307   3.788   5.737   6.631
 2803SOL    HW1 9308   3.814   5.657   6.684
 2803SOL    HW2 9309   3.869   5.792   6.612
 2804SOL     OW 9310   0.328   5.128   5.136
 2804SOL    HW1 9311   0.267   5.121   5.057
 2804SOL    HW2 9312   0.360   5.222   5.145
 2805SOL     OW 9313   5.592   3.336   1.637
 2805SOL    HW1 9314   5.506   3.387   1.633
 2805SOL    HW2 9315   5.665   3.389   1.593
 2806SOL     OW 9316   7.009   4.973   5.824
 2806SOL    HW1 9317   6.973   4.936   5.909
 2806SOL    HW2 9318   6.941   5.033   5.782
 2807SOL     OW 9319   4.953   6.474   4.461
 2807SOL    HW1 9320   5.016   6.546   4.432
 2807SOL    HW2 9321   4.941   6.478   4.560
 2808SOL     OW 9322   5.750   4.366   1.962
 2808SOL    HW1 9323   5.739   4.463   1.983
 2808SOL    HW2 9324   5.817   4.326   2.024
 2809SOL     OW 9325   5.831   3.219   0.939
 2809SOL    HW1 9326   5.770   3.149   0.974
 2809SOL    HW2 9327   5.788   3.309   0.949
 2810SOL     OW 9328   3.814   5.023   3.722
 2810SOL    HW1 9329   3.720   4.989   3.731
 2810SOL    HW2 9330   3.827   5.059   3.629
 2811SOL     OW 9331   1.227   1.808   3.250
 2811SOL    HW1 9332   1.134   1.824   3.218
 2811SOL    HW2 9333   1.273   1.897   3.264
 2812SOL     OW 9334   5.123   4.102   6.249
 2812SOL    HW1 9335   5.101   4.004   6.243
 2812SOL    HW2 9336   5.059   4.147   6.311
 2813SOL     OW 9337   6.930   6.869   6.505
 2813SOL    HW1 9338   6.974   6.782   6.524
 2813SOL    HW2 9339   6.906   6.875   6.408
 2814SOL     OW 9340   4.101   3.679   5.034
 2814SOL    HW1 9341   4.048   3.716   4.958
 2814SOL    HW2 9342   4.062   3.710   5.120
 2815SOL     OW 9343   6.303   0.122   5.444
 2815SOL    HW1 9344   6.293   0.213   5.403
 2815SOL    HW2 9345   6.362   0.128   5.525
 2816SOL     OW 9346   6.494   5.506   3.089
 2816SOL    HW1 9347   6.431   5.575   3.125
 2816SOL    HW2 9348   6.583   5.516   3.135
 2817SOL     OW 9349   2.655   6.951   1.400
 2817SOL    HW1 9350   2.594   0.006   1.402
 2817SOL    HW2 9351   2.611   6.877   1.349
 2818SOL     OW 9352   0.477   0.670   0.730
 2818SOL    HW1 9353   0.430   0.718   0.804
 2818SOL    HW2 9354   0.450   0.709   0.642
 2819SOL     OW 9355   0.921   1.323   1.581
 2819SOL    HW1 9356   0.950   1.247   1.640
 2819SOL    HW2 9357   0.870   1.389   1.635
 2820SOL     OW 9358   0.609   2.728   3.165
 2820SOL    HW1 9359   0.580   2.657   3.229
 2820SOL    HW2 9360   0.580   2.818   3.199
 2821SOL     OW 9361   4.144   3.119   6.896
 2821SOL    HW1 9362   4.095   3.110   6.983
 2821SOL    HW2 9363   4.186   3.210   6.891
 2822SOL     OW 9364   4.096   1.495   0.173
 2822SOL    HW1 9365   4.151   1.570   0.210
 2822SOL    HW2 9366   3.999   1.512   0.189
 2823SOL     OW 9367   4.648   0.646   0.310
 2823SOL    HW1 9368   4.653   0.579   0.385
 2823SOL    HW2 9369   4.641   0.598   0.223
 2824SOL     OW 9370   2.591   1.493   3.550
 2824SOL    HW1 9371   2.690   1.505   3.551
 2824SOL    HW2 9372   2.565   1.421   3.614
 2825SOL     OW 9373   6.116   0.517   6.364
 2825SOL    HW1 9374   6.051   0.537   6.291
 2825SOL    HW2 9375   6.144   0.602   6.408
 2826SOL     OW 9376   4.962   1.070   6.565
 2826SOL    HW1 9377   4.883   1.093   6.622
 2826SOL    HW2 9378   4.963   1.128   6.484
 2827SOL     OW 9379   6.874   0.985   5.227
 2827SOL    HW1 9380   6.852   0.891   5.199
 2827SOL    HW2 9381   6.923   0.983   5.314
 2828SOL     OW 9382   2.445   1.335   0.421
 2828SOL    HW1 9383   2.468   1.239   0.441
 2828SOL    HW2 9384   2.387   1.371   0.494
 2829SOL     OW 9385   2.932   3.508   4.858
 2829SOL    HW1 9386   2.866   3.536   4.928
 2829SOL    HW2 9387   2.938   3.408   4.856
 2830SOL     OW 9388   1.631   3.306   5.847
 2830SOL    HW1 9389   1.703   3.273   5.908
 2830SOL    HW2 9390   1.664   3.307   5.753
 2831SOL     OW 9391   0.642   4.719   3.513
 2831SOL    HW1 9392   0.594   4.739   3.598
 2831SOL    HW2 9393   0.698   4.798   3.487
 2832SOL     OW 9394   0.716   2.677   1.730
 2832SOL    HW1 9395   0.781   2.694   1.803
 2832SOL    HW2 9396   0.631   2.726   1.749
 2833SOL     OW 9397   3.153   2.033   2.447
 2833SOL    HW1 9398   3.188   2.059   2.357
 2833SOL    HW2 9399   3.079   1.967   2.436
 2834SOL     OW 9400   3.923   5.154   5.958
 2834SOL    HW1 9401   3.910   5.252   5.939
 2834SOL    HW2 9402   3.834   5.110   5.969
 2835SOL     OW 9403   0.248   0.231   2.074
 2835SOL    HW1 9404   0.347   0.236   2.060
 2835SOL    HW2 9405   0.216   0.138   2.055
 2836SOL     OW 9406   6.542   6.678   2.619
 2836SOL    HW1 9407   6.559   6.697   2.522
 2836SOL    HW2 9408   6.622   6.635   2.659
 2837SOL     OW 9409   5.536   4.606   2.342
 2837SOL    HW1 9410   5.458   4.600   2.404
 2837SOL    HW2 9411   5.602   4.671   2.378
 2838SOL     OW 9412   2.567   3.907   0.927
 2838SOL    HW1 9413   2.488   3.967   0.911
 2838SOL    HW2 9414   2.616   3.894   0.841
 2839SOL     OW 9415   6.966   1.896   2.527
 2839SOL    HW1 9416   6.934   1.868   2.436
 2839SOL    HW2 9417   6.946   1.993   2.541
 2840SOL     OW 9418   1.804   0.526   3.053
 2840SOL    HW1 9419   1.808   0.492   2.959
 2840SOL    HW2 9420   1.861   0.469   3.112
 2841SOL     OW 9421   0.580   0.860   6.319
 2841SOL    HW1 9422   0.631   0.934   6.275
 2841SOL    HW2 9423   0.485   0.888   6.333
 2842SOL     OW 9424   0.222   4.214   4.099
 2842SOL    HW1 9425   0.199   4.309   4.078
 2842SOL    HW2 9426   0.187   4.191   4.189
 2843SOL     OW 9427   2.228   2.491   2.758
 2843SOL    HW1 9428   2.177   2.406   2.744
 2843SOL    HW2 9429   2.285   2.508   2.677
 2844SOL     OW 9430   6.762   4.832   0.624
 2844SOL    HW1 9431   6.768   4.736   0.599
 2844SOL    HW2 9432   6.854   4.871   0.631
 2845SOL     OW 9433   6.088   3.124   1.036
 2845SOL    HW1 9434   6.084   3.044   1.096
 2845SOL    HW2 9435   5.996   3.149   1.009
 2846SOL     OW 9436   3.869   1.147   6.942
 2846SOL    HW1 9437   3.940   1.076   6.935
 2846SOL    HW2 9438   3.784   1.105   6.975
 2847SOL     OW 9439   4.855   3.191   3.695
 2847SOL    HW1 9440   4.798   3.115   3.726
 2847SOL    HW2 9441   4.857   3.194   3.595
 2848SOL     OW 9442   1.635   2.191   4.881
 2848SOL    HW1 9443   1.542   2.155   4.892
 2848SOL    HW2 9444   1.650   2.214   4.785
 2849SOL     OW 9445   4.021   6.194   0.873
 2849SOL    HW1 9446   4.025   6.152   0.782
 2849SOL    HW2 9447   4.028   6.122   0.942
 2850SOL     OW 9448   1.615   0.111   2.462
 2850SOL    HW1 9449   1.587   0.107   2.366
 2850SOL    HW2 9450   1.544   0.069   2.520
 2851SOL     OW 9451   6.211   1.299   6.207
 2851SOL    HW1 9452   6.155   1.319   6.288
 2851SOL    HW2 9453   6.307   1.298   6.234
 2852SOL     OW 9454   5.577   4.385   6.658
 2852SOL    HW1 9455   5.590   4.412   6.562
 2852SOL    HW2 9456   5.651   4.324   6.686
 2853SOL     OW 9457   1.585   1.863   6.659
 2853SOL    HW1 9458   1.656   1.852   6.589
 2853SOL    HW2 9459   1.603   1.799   6.734
 2854SOL     OW 9460   4.165   1.452   4.889
 2854SOL    HW1 9461   4.100   1.464   4.964
 2854SOL    HW2 9462   4.168   1.536   4.834
 2855SOL     OW 9463   2.250   1.222   0.210
 2855SOL    HW1 9464   2.179   1.279   0.251
 2855SOL    HW2 9465   2.245   1.228   0.111
 2856SOL     OW 9466   0.844   2.521   5.908
 2856SOL    HW1 9467   0.912   2.552   5.975
 2856SOL    HW2 9468   0.761   2.577   5.918
 2857SOL     OW 9469   2.342   2.242   2.327
 2857SOL    HW1 9470   2.353   2.203   2.419
 2857SOL    HW2 9471   2.256   2.293   2.322
 2858SOL     OW 9472   4.723   4.249   2.251
 2858SOL    HW1 9473   4.653   4.218   2.186
 2858SOL    HW2 9474   4.797   4.294   2.202
 2859SOL     OW 9475   5.652   1.248   6.711
 2859SOL    HW1 9476   5.621   1.342   6.695
 2859SOL    HW2 9477   5.589   1.202   6.773
 2860SOL     OW 9478   3.401   1.280   1.757
 2860SOL    HW1 9479   3.428   1.210   1.690
 2860SOL    HW2 9480   3.480   1.305   1.813
 2861SOL     OW 9481   3.673   3.784   5.488
 2861SOL    HW1 9482   3.651   3.797   5.391
 2861SOL    HW2 9483   3.767   3.815   5.505
 2862SOL     OW 9484   5.946   1.647   2.563
 2862SOL    HW1 9485   6.010   1.714   2.525
 2862SOL    HW2 9486   5.888   1.611   2.491
 2863SOL     OW 9487   5.018   1.315   6.723
 2863SOL    HW1 9488   5.002   1.304   6.625
 2863SOL    HW2 9489   5.001   1.228   6.770
 2864SOL     OW 9490   4.588   1.720   1.966
 2864SOL    HW1 9491   4.535   1.748   1.886
 2864SOL    HW2 9492   4.577   1.788   2.038
 2865SOL     OW 9493   3.970   4.208   6.481
 2865SOL    HW1 9494   3.951   4.126   6.534
 2865SOL    HW2 9495   3.921   4.286   6.520
 2866SOL     OW 9496   6.764   5.543   0.610
 2866SOL    HW1 9497   6.851   5.494   0.608
 2866SOL    HW2 9498   6.701   5.503   0.543
 2867SOL     OW 9499   6.655   5.637   2.794
 2867SOL    HW1 9500   6.558   5.620   2.810
 2867SOL    HW2 9501   6.689   5.703   2.861
 2868SOL     OW 9502   0.721   1.907   5.551
 2868SOL    HW1 9503   0.687   1.892   5.643
 2868SOL    HW2 9504   0.667   1.853   5.486
 2869SOL     OW 9505   6.751   1.296   3.758
 2869SOL    HW1 9506   6.782   1.344   3.841
 2869SOL    HW2 9507   6.671   1.342   3.721
 2870SOL     OW 9508   0.422   1.654   4.854
 2870SOL    HW1 9509   0.398   1.665   4.757
 2870SOL    HW2 9510   0.491   1.583   4.863
 2871SOL     OW 9511   0.135   2.053   0.011
 2871SOL    HW1 9512   0.221   2.006   7.018
 2871SOL    HW2 9513   0.076   2.047   6.955
 2872SOL     OW 9514   2.367   2.087   2.583
 2872SOL    HW1 9515   2.426   2.012   2.554
 2872SOL    HW2 9516   2.421   2.153   2.636
 2873SOL     OW 9517   0.108   5.131   2.995
 2873SOL    HW1 9518   0.043   5.139   2.920
 2873SOL    HW2 9519   0.142   5.037   3.000
 2874SOL     OW 9520   4.301   6.599   3.285
 2874SOL    HW1 9521   4.371   6.653   3.331
 2874SOL    HW2 9522   4.233   6.569   3.352
 2875SOL     OW 9523   4.380   6.904   0.549
 2875SOL    HW1 9524   4.403   6.996   0.518
 2875SOL    HW2 9525   4.311   6.909   0.621
 2876SOL     OW 9526   1.665   0.357   1.787
 2876SOL    HW1 9527   1.723   0.283   1.822
 2876SOL    HW2 9528   1.628   0.410   1.863
 2877SOL     OW 9529   3.283   2.662   5.274
 2877SOL    HW1 9530   3.238   2.580   5.237
 2877SOL    HW2 9531   3.382   2.648   5.276
 2878SOL     OW 9532   3.676   4.927   4.840
 2878SOL    HW1 9533   3.719   4.997   4.897
 2878SOL    HW2 9534   3.703   4.836   4.872
 2879SOL     OW 9535   5.696   5.193   0.270
 2879SOL    HW1 9536   5.655   5.267   0.324
 2879SOL    HW2 9537   5.795   5.194   0.283
 2880SOL     OW 9538   6.704   0.596   2.067
 2880SOL    HW1 9539   6.620   0.605   2.122
 2880SOL    HW2 9540   6.783   0.619   2.124
 2881SOL     OW 9541   5.235   5.896   6.973
 2881SOL    HW1 9542   5.243   5.899   0.048
 2881SOL    HW2 9543   5.150   5.850   6.949
 2882SOL     OW 9544   0.838   4.682   2.515
 2882SOL    HW1 9545   0.834   4.587   2.546
 2882SOL    HW2 9546   0.780   4.694   2.434
 2883SOL     OW 9547   5.618   0.363   3.200
 2883SOL    HW1 9548   5.658   0.343   3.289
 2883SOL    HW2 9549   5.660   0.445   3.162
 2884SOL     OW 9550   0.927   0.066   2.560
 2884SOL    HW1 9551   0.934   0.113   2.472
 2884SOL    HW2 9552   0.841   0.093   2.605
 2885SOL     OW 9553   0.850   3.470   3.178
 2885SOL    HW1 9554   0.779   3.489   3.111
 2885SOL    HW2 9555   0.844   3.537   3.252
 2886SOL     OW 9556   1.535   4.292   5.892
 2886SOL    HW1 9557   1.491   4.382   5.897
 2886SOL    HW2 9558   1.472   4.226   5.851
 2887SOL     OW 9559   0.224   0.696   5.150
 2887SOL    HW1 9560   0.291   0.758   5.108
 2887SOL    HW2 9561   0.145   0.686   5.089
 2888SOL     OW 9562   0.592   4.242   0.328
 2888SOL    HW1 9563   0.499   4.239   0.365
 2888SOL    HW2 9564   0.655   4.201   0.393
 2889SOL     OW 9565   1.994   6.606   2.089
 2889SOL    HW1 9566   1.933   6.610   2.168
 2889SOL    HW2 9567   2.070   6.544   2.109
 2890SOL     OW 9568   2.236   6.016   0.275
 2890SOL    HW1 9569   2.300   5.961   0.328
 2890SOL    HW2 9570   2.194   5.959   0.204
 2891SOL     OW 9571   0.879   4.049   3.854
 2891SOL    HW1 9572   0.890   4.089   3.763
 2891SOL    HW2 9573   0.839   4.116   3.916
 2892SOL     OW 9574   5.182   3.303   6.854
 2892SOL    HW1 9575   5.119   3.356   6.910
 2892SOL    HW2 9576   5.253   3.363   6.818
 2893SOL     OW 9577   0.048   6.306   4.803
 2893SOL    HW1 9578   6.977   6.335   4.813
 2893SOL    HW2 9579   0.092   6.359   4.732
 2894SOL     OW 9580   1.211   2.993   2.029
 2894SOL    HW1 9581   1.304   3.028   2.017
 2894SOL    HW2 9582   1.195   2.920   1.963
 2895SOL     OW 9583   4.688   2.475   5.966
 2895SOL    HW1 9584   4.774   2.526   5.976
 2895SOL    HW2 9585   4.611   2.537   5.982
 2896SOL     OW 9586   4.707   5.953   6.331
 2896SOL    HW1 9587   4.743   5.888   6.264
 2896SOL    HW2 9588   4.614   5.928   6.355
 2897SOL     OW 9589   3.812   5.132   2.955
 2897SOL    HW1 9590   3.907   5.151   2.978
 2897SOL    HW2 9591   3.789   5.174   2.867
 2898SOL     OW 9592   4.546   4.873   4.510
 2898SOL    HW1 9593   4.516   4.843   4.419
 2898SOL    HW2 9594   4.467   4.890   4.567
 2899SOL     OW 9595   1.177   1.680   0.594
 2899SOL    HW1 9596   1.267   1.720   0.612
 2899SOL    HW2 9597   1.126   1.674   0.680
 2900SOL     OW 9598   1.630   4.386   5.446
 2900SOL    HW1 9599   1.594   4.477   5.465
 2900SOL    HW2 9600   1.709   4.368   5.505
 2901SOL     OW 9601   2.926   5.576   3.788
 2901SOL    HW1 9602   2.835   5.571   3.829
 2901SOL    HW2 9603   2.942   5.494   3.732
 2902SOL     OW 9604   4.882   6.730   2.408
 2902SOL    HW1 9605   4.848   6.678   2.329
 2902SOL    HW2 9606   4.852   6.825   2.401
 2903SOL     OW 9607   3.226   0.584   0.630
 2903SOL    HW1 9608   3.164   0.631   0.693
 2903SOL    HW2 9609   3.316   0.575   0.673
 2904SOL     OW 9610   2.133   3.885   4.896
 2904SOL    HW1 9611   2.139   3.806   4.957
 2904SOL    HW2 9612   2.177   3.964   4.939
 2905SOL     OW 9613   1.524   2.606   4.654
 2905SOL    HW1 9614   1.591   2.557   4.710
 2905SOL    HW2 9615   1.546   2.591   4.557
 2906SOL     OW 9616   4.309   5.371   1.614
 2906SOL    HW1 9617   4.234   5.406   1.669
 2906SOL    HW2 9618   4.296   5.396   1.518
 2907SOL     OW 9619   0.812   1.424   3.569
 2907SOL    HW1 9620   0.754   1.406   3.490
 2907SOL    HW2 9621   0.775   1.500   3.623
 2908SOL     OW 9622   5.018   6.268   3.998
 2908SOL    HW1 9623   5.010   6.168   4.008
 2908SOL    HW2 9624   5.023   6.310   4.089
 2909SOL     OW 9625   1.623   5.864   3.523
 2909SOL    HW1 9626   1.650   5.888   3.616
 2909SOL    HW2 9627   1.524   5.852   3.519
 2910SOL     OW 9628   4.609   6.971   4.254
 2910SOL    HW1 9629   4.599   0.034   4.301
 2910SOL    HW2 9630   4.519   6.932   4.236
 2911SOL     OW 9631   0.799   5.485   3.389
 2911SOL    HW1 9632   0.746   5.568   3.401
 2911SOL    HW2 9633   0.752   5.424   3.324
 2912SOL     OW 9634   5.123   0.598   0.147
 2912SOL    HW1 9635   5.198   0.563   0.203
 2912SOL    HW2 9636   5.044   0.618   0.206
 2913SOL     OW 9637   2.817   4.796   2.925
 2913SOL    HW1 9638   2.905   4.828   2.889
 2913SOL    HW2 9639   2.746   4.811   2.856
 2914SOL     OW 9640   6.233   6.353   0.075
 2914SOL    HW1 9641   6.181   6.432   0.108
 2914SOL    HW2 9642   6.273   6.305   0.153
 2915SOL     OW 9643   5.630   1.801   3.727
 2915SOL    HW1 9644   5.585   1.761   3.647
 2915SOL    HW2 9645   5.562   1.850   3.782
 2916SOL     OW 9646   1.085   6.552   0.024
 2916SOL    HW1 9647   1.044   6.536   6.959
 2916SOL    HW2 9648   1.169   6.606   0.014
 2917SOL     OW 9649   2.616   0.159   3.051
 2917SOL    HW1 9650   2.687   0.112   3.104
 2917SOL    HW2 9651   2.560   0.092   3.003
 2918SOL     OW 9652   6.324   5.519   4.927
 2918SOL    HW1 9653   6.357   5.590   4.989
 2918SOL    HW2 9654   6.225   5.529   4.915
 2919SOL     OW 9655   6.724   1.190   1.875
 2919SOL    HW1 9656   6.677   1.220   1.792
 2919SOL    HW2 9657   6.810   1.145   1.851
 2920SOL     OW 9658   2.517   1.398   1.444
 2920SOL    HW1 9659   2.482   1.447   1.364
 2920SOL    HW2 9660   2.578   1.458   1.495
 2921SOL     OW 9661   0.951   0.164   3.605
 2921SOL    HW1 9662   1.000   0.083   3.638
 2921SOL    HW2 9663   1.011   0.244   3.613
 2922SOL     OW 9664   4.921   0.625   0.338
 2922SOL    HW1 9665   4.953   0.655   0.428
 2922SOL    HW2 9666   4.826   0.655   0.326
 2923SOL     OW 9667   6.528   5.322   2.041
 2923SOL    HW1 9668   6.576   5.260   1.979
 2923SOL    HW2 9669   6.594   5.388   2.079
 2924SOL     OW 9670   6.543   2.353   5.549
 2924SOL    HW1 9671   6.447   2.348   5.576
 2924SOL    HW2 9672   6.601   2.351   5.630
 2925SOL     OW 9673   4.613   0.704   2.112
 2925SOL    HW1 9674   4.546   0.651   2.060
 2925SOL    HW2 9675   4.571   0.790   2.142
 2926SOL     OW 9676   6.706   1.697   4.477
 2926SOL    HW1 9677   6.703   1.797   4.476
 2926SOL    HW2 9678   6.786   1.666   4.426
 2927SOL     OW 9679   1.063   2.968   1.609
 2927SOL    HW1 9680   1.041   3.063   1.588
 2927SOL    HW2 9681   1.030   2.909   1.536
 2928SOL     OW 9682   0.176   1.231   6.434
 2928SOL    HW1 9683   0.250   1.200   6.374
 2928SOL    HW2 9684   0.155   1.159   6.500
 2929SOL     OW 9685   0.036   2.293   6.809
 2929SOL    HW1 9686   0.031   2.195   6.789
 2929SOL    HW2 9687   0.096   2.308   6.887
 2930SOL     OW 9688   4.639   0.558   5.119
 2930SOL    HW1 9689   4.549   0.567   5.076
 2930SOL    HW2 9690   4.695   0.493   5.068
 2931SOL     OW 9691   5.525   4.749   0.492
 2931SOL    HW1 9692   5.578   4.724   0.411
 2931SOL    HW2 9693   5.440   4.794   0.463
 2932SOL     OW 9694   0.746   5.200   1.027
 2932SOL    HW1 9695   0.660   5.249   1.035
 2932SOL    HW2 9696   0.777   5.202   0.932
 2933SOL     OW 9697   6.682   4.863   3.423
 2933SOL    HW1 9698   6.671   4.941   3.485
 2933SOL    HW2 9699   6.777   4.831   3.426
 2934SOL     OW 9700   4.377   1.233   0.244
 2934SOL    HW1 9701   4.316   1.292   0.192
 2934SOL    HW2 9702   4.444   1.290   0.293
 2935SOL     OW 9703   5.947   3.037   0.177
 2935SOL    HW1 9704   5.891   3.115   0.150
 2935SOL    HW2 9705   5.889   2.956   0.188
 2936SOL     OW 9706   4.175   5.847   1.188
 2936SOL    HW1 9707   4.258   5.883   1.231
 2936SOL    HW2 9708   4.105   5.918   1.187
 2937SOL     OW 9709   4.485   4.786   0.443
 2937SOL    HW1 9710   4.574   4.826   0.423
 2937SOL    HW2 9711   4.415   4.832   0.388
 2938SOL     OW 9712   4.596   5.225   0.105
 2938SOL    HW1 9713   4.506   5.264   0.083
 2938SOL    HW2 9714   4.604   5.134   0.063
 2939SOL     OW 9715   1.133   0.896   3.254
 2939SOL    HW1 9716   1.158   0.921   3.161
 2939SOL    HW2 9717   1.211   0.912   3.315
 2940SOL     OW 9718   5.661   5.144   6.069
 2940SOL    HW1 9719   5.601   5.159   5.991
 2940SOL    HW2 9720   5.699   5.231   6.100
 2941SOL     OW 9721   1.885   2.810   4.653
 2941SOL    HW1 9722   1.958   2.786   4.718
 2941SOL    HW2 9723   1.896   2.756   4.570
 2942SOL     OW 9724   3.361   2.423   1.028
 2942SOL    HW1 9725   3.405   2.435   0.939
 2942SOL    HW2 9726   3.405   2.483   1.095
 2943SOL     OW 9727   4.591   4.759   2.816
 2943SOL    HW1 9728   4.643   4.838   2.782
 2943SOL    HW2 9729   4.654   4.684   2.835
 2944SOL     OW 9730   3.087   6.033   4.717
 2944SOL    HW1 9731   3.163   5.972   4.694
 2944SOL    HW2 9732   3.058   6.082   4.635
 2945SOL     OW 9733   3.553   4.167   4.102
 2945SOL    HW1 9734   3.527   4.189   4.196
 2945SOL    HW2 9735   3.647   4.194   4.086
 2946SOL     OW 9736   0.775   5.087   5.998
 2946SOL    HW1 9737   0.717   5.092   6.080
 2946SOL    HW2 9738   0.805   5.179   5.973
 2947SOL     OW 9739   0.272   3.201   0.864
 2947SOL    HW1 9740   0.200   3.135   0.886
 2947SOL    HW2 9741   0.294   3.195   0.767
 2948SOL     OW 9742   0.721   4.565   5.587
 2948SOL    HW1 9743   0.661   4.644   5.572
 2948SOL    HW2 9744   0.797   4.566   5.522
 2949SOL     OW 9745   2.871   5.177   0.714
 2949SOL    HW1 9746   2.946   5.192   0.649
 2949SOL    HW2 9747   2.875   5.246   0.785
 2950SOL     OW 9748   5.297   4.136   4.208
 2950SOL    HW1 9749   5.281   4.080   4.289
 2950SOL    HW2 9750   5.367   4.091   4.151
 2951SOL     OW 9751   5.969   1.675   1.074
 2951SOL    HW1 9752   6.006   1.764   1.049
 2951SOL    HW2 9753   5.982   1.660   1.172
 2952SOL     OW 9754   0.996   5.493   5.399
 2952SOL    HW1 9755   0.920   5.477   5.462
 2952SOL    HW2 9756   0.969   5.561   5.331
 2953SOL     OW 9757   5.377   3.053   2.871
 2953SOL    HW1 9758   5.322   3.115   2.927
 2953SOL    HW2 9759   5.319   3.010   2.802
 2954SOL     OW 9760   0.115   5.607   1.676
 2954SOL    HW1 9761   0.167   5.677   1.726
 2954SOL    HW2 9762   0.134   5.615   1.578
 2955SOL     OW 9763   1.013   3.717   1.875
 2955SOL    HW1 9764   0.999   3.621   1.852
 2955SOL    HW2 9765   1.003   3.773   1.792
 2956SOL     OW 9766   5.731   6.228   3.229
 2956SOL    HW1 9767   5.729   6.276   3.141
 2956SOL    HW2 9768   5.708   6.292   3.302
 2957SOL     OW 9769   6.051   3.030   1.873
 2957SOL    HW1 9770   6.088   2.944   1.838
 2957SOL    HW2 9771   5.953   3.035   1.851
 2958SOL     OW 9772   2.321   4.953   4.006
 2958SOL    HW1 9773   2.322   5.051   4.028
 2958SOL    HW2 9774   2.392   4.906   4.059
 2959SOL     OW 9775   4.203   4.262   0.394
 2959SOL    HW1 9776   4.184   4.358   0.377
 2959SOL    HW2 9777   4.201   4.243   0.492
 2960SOL     OW 9778   3.573   0.797   6.563
 2960SOL    HW1 9779   3.556   0.887   6.522
 2960SOL    HW2 9780   3.593   0.809   6.660
 2961SOL     OW 9781   4.866   3.074   2.988
 2961SOL    HW1 9782   4.906   3.162   2.961
 2961SOL    HW2 9783   4.850   3.019   2.906
 2962SOL     OW 9784   3.860   0.657   3.479
 2962SOL    HW1 9785   3.817   0.649   3.569
 2962SOL    HW2 9786   3.955   0.626   3.485
 2963SOL     OW 9787   2.136   0.173   6.428
 2963SOL    HW1 9788   2.116   0.270   6.416
 2963SOL    HW2 9789   2.053   0.127   6.461
 2964SOL     OW 9790   0.886   0.577   3.007
 2964SOL    HW1 9791   0.879   0.664   3.057
 2964SOL    HW2 9792   0.980   0.565   2.975
 2965SOL     OW 9793   6.727   1.967   4.502
 2965SOL    HW1 9794   6.769   2.026   4.570
 2965SOL    HW2 9795   6.627   1.968   4.513
 2966SOL     OW 9796   5.749   5.947   3.894
 2966SOL    HW1 9797   5.684   5.920   3.823
 2966SOL    HW2 9798   5.711   6.022   3.947
 2967SOL     OW 9799   5.746   1.025   4.776
 2967SOL    HW1 9800   5.651   1.008   4.799
 2967SOL    HW2 9801   5.792   0.939   4.757
 2968SOL     OW 9802   0.940   3.341   6.337
 2968SOL    HW1 9803   0.985   3.263   6.380
 2968SOL    HW2 9804   1.003   3.383   6.272
 2969SOL     OW 9805   5.492   1.475   4.009
 2969SOL    HW1 9806   5.546   1.494   4.091
 2969SOL    HW2 9807   5.553   1.446   3.935
 2970SOL     OW 9808   1.788   4.877   5.939
 2970SOL    HW1 9809   1.727   4.809   5.898
 2970SOL    HW2 9810   1.869   4.831   5.976
 2971SOL     OW 9811   4.953   4.104   6.980
 2971SOL    HW1 9812   4.855   4.116   6.998
 2971SOL    HW2 9813   4.995   4.057   0.033
 2972SOL     OW 9814   6.313   4.511   6.481
 2972SOL    HW1 9815   6.276   4.456   6.556
 2972SOL    HW2 9816   6.365   4.452   6.419
 2973SOL     OW 9817   5.323   0.123   3.200
 2973SOL    HW1 9818   5.251   0.055   3.211
 2973SOL    HW2 9819   5.367   0.111   3.111
 2974SOL     OW 9820   0.704   4.818   2.741
 2974SOL    HW1 9821   0.750   4.794   2.655
 2974SOL    HW2 9822   0.615   4.858   2.722
 2975SOL     OW 9823   6.252   3.135   4.565
 2975SOL    HW1 9824   6.223   3.223   4.601
 2975SOL    HW2 9825   6.221   3.062   4.625
 2976SOL     OW 9826   3.547   2.019   3.734
 2976SOL    HW1 9827   3.463   2.001   3.784
 2976SOL    HW2 9828   3.534   2.098   3.674
 2977SOL     OW 9829   2.726   0.093   3.338
 2977SOL    HW1 9830   2.738   0.190   3.359
 2977SOL    HW2 9831   2.701   0.044   3.421
 2978SOL     OW 9832   4.715   4.471   0.238
 2978SOL    HW1 9833   4.649   4.417   0.186
 2978SOL    HW2 9834   4.673   4.501   0.324
 2979SOL     OW 9835   4.721   0.941   4.450
 2979SOL    HW1 9836   4.722   1.026   4.503
 2979SOL    HW2 9837   4.628   0.903   4.451
 2980SOL     OW 9838   1.567   6.274   4.165
 2980SOL    HW1 9839   1.562   6.374   4.168
 2980SOL    HW2 9840   1.503   6.240   4.095
 2981SOL     OW 9841   2.272   1.010   6.051
 2981SOL    HW1 9842   2.223   1.008   6.138
 2981SOL    HW2 9843   2.369   0.993   6.067
 2982SOL     OW 9844   4.056   5.266   2.958
 2982SOL    HW1 9845   4.039   5.351   3.008
 2982SOL    HW2 9846   4.106   5.286   2.873
 2983SOL     OW 9847   0.998   1.642   3.237
 2983SOL    HW1 9848   1.021   1.578   3.310
 2983SOL    HW2 9849   0.935   1.599   3.173
 2984SOL     OW 9850   5.351   5.748   1.327
 2984SOL    HW1 9851   5.313   5.829   1.372
 2984SOL    HW2 9852   5.288   5.717   1.256
 2985SOL     OW 9853   1.183   2.885   5.904
 2985SOL    HW1 9854   1.129   2.829   5.841
 2985SOL    HW2 9855   1.231   2.957   5.853
 2986SOL     OW 9856   3.223   3.734   5.048
 2986SOL    HW1 9857   3.125   3.752   5.052
 2986SOL    HW2 9858   3.274   3.818   5.066
 2987SOL     OW 9859   6.085   1.040   4.364
 2987SOL    HW1 9860   6.039   1.042   4.453
 2987SOL    HW2 9861   6.135   1.126   4.351
 2988SOL     OW 9862   0.844   5.977   2.547
 2988SOL    HW1 9863   0.936   5.945   2.571
 2988SOL    HW2 9864   0.829   5.965   2.449
 2989SOL     OW 9865   6.328   6.074   6.948
 2989SOL    HW1 9866   6.362   6.165   6.923
 2989SOL    HW2 9867   6.303   6.023   6.866
 2990SOL     OW 9868   4.355   2.057   4.619
 2990SOL    HW1 9869   4.398   2.014   4.540
 2990SOL    HW2 9870   4.299   2.134   4.589
 2991SOL     OW 9871   6.560   4.243   5.911
 2991SOL    HW1 9872   6.569   4.207   6.004
 2991SOL    HW2 9873   6.488   4.313   5.910
 2992SOL     OW 9874   2.937   5.948   4.946
 2992SOL    HW1 9875   2.981   5.872   4.993
 2992SOL    HW2 9876   2.999   5.982   4.875
 2993SOL     OW 9877   0.430   5.529   0.862
 2993SOL    HW1 9878   0.350   5.563   0.813
 2993SOL    HW2 9879   0.441   5.580   0.947
 2994SOL     OW 9880   4.206   6.773   0.081
 2994SOL    HW1 9881   4.117   6.732   0.097
 2994SOL    HW2 9882   4.261   6.713   0.022
 2995SOL     OW 9883   3.119   2.561   6.539
 2995SOL    HW1 9884   3.106   2.619   6.619
 2995SOL    HW2 9885   3.090   2.467   6.560
 2996SOL     OW 9886   2.134   0.773   3.122
 2996SOL    HW1 9887   2.217   0.716   3.121
 2996SOL    HW2 9888   2.137   0.832   3.203
 2997SOL     OW 9889   5.449   0.921   2.517
 2997SOL    HW1 9890   5.368   0.979   2.520
 2997SOL    HW2 9891   5.435   0.847   2.450
 2998SOL     OW 9892   4.090   0.419   4.313
 2998SOL    HW1 9893   4.168   0.394   4.255
 2998SOL    HW2 9894   4.104   0.511   4.349
 2999SOL     OW 9895   2.978   4.944   4.756
 2999SOL    HW1 9896   3.064   4.911   4.717
 2999SOL    HW2 9897   2.979   5.044   4.759
 3000SOL     OW 9898   2.572   3.202   6.808
 3000SOL    HW1 9899   2.638   3.237   6.874
 3000SOL    HW2 9900   2.543   3.111   6.835
 3001SOL     OW 9901   5.457   6.947   6.251
 3001SOL    HW1 9902   5.360   6.937   6.229
 3001SOL    HW2 9903   5.468   7.005   6.332
 3002SOL     OW 9904   3.594   0.836   6.830
 3002SOL    HW1 9905   3.653   0.862   6.906
 3002SOL    HW2 9906   3.524   0.906   6.817
 3003SOL     OW 9907   1.563   6.300   0.220
 3003SOL    HW1 9908   1.523   6.270   0.133
 3003SOL    HW2 9909   1.497   6.355   0.270
 3004SOL     OW 9910   0.985   4.541   3.349
 3004SOL    HW1 9911   0.908   4.565   3.407
 3004SOL    HW2 9912   1.067   4.588   3.382
 3005SOL     OW 9913   3.596   2.124   6.939
 3005SOL    HW1 9914   3.557   2.063   6.871
 3005SOL    HW2 9915   3.650   2.195   6.894
 3006SOL     OW 9916   5.538   1.796   5.866
 3006SOL    HW1 9917   5.490   1.772   5.781
 3006SOL    HW2 9918   5.497   1.879   5.905
 3007SOL     OW 9919   5.761   5.532   1.171
 3007SOL    HW1 9920   5.727   5.597   1.239
 3007SOL    HW2 9921   5.716   5.444   1.182
 3008SOL     OW 9922   3.648   1.813   6.377
 3008SOL    HW1 9923   3.636   1.910   6.396
 3008SOL    HW2 9924   3.583   1.784   6.307
 3009SOL     OW 9925   0.316   1.086   2.615
 3009SOL    HW1 9926   0.310   1.173   2.664
 3009SOL    HW2 9927   0.397   1.036   2.646
 3010SOL     OW 9928   3.479   5.828   2.823
 3010SOL    HW1 9929   3.546   5.901   2.810
 3010SOL    HW2 9930   3.507   5.747   2.771
 3011SOL     OW 9931   5.746   1.297   1.334
 3011SOL    HW1 9932   5.692   1.253   1.406
 3011SOL    HW2 9933   5.829   1.336   1.375
 3012SOL     OW 9934   0.894   3.764   5.861
 3012SOL    HW1 9935   0.930   3.855   5.838
 3012SOL    HW2 9936   0.826   3.737   5.793
 3013SOL     OW 9937   5.542   6.033   5.523
 3013SOL    HW1 9938   5.469   6.056   5.460
 3013SOL    HW2 9939   5.570   6.115   5.574
 3014SOL     OW 9940   4.827   2.497   4.590
 3014SOL    HW1 9941   4.848   2.595   4.593
 3014SOL    HW2 9942   4.882   2.453   4.519
 3015SOL     OW 9943   3.560   1.927   0.432
 3015SOL    HW1 9944   3.651   1.962   0.410
 3015SOL    HW2 9945   3.524   1.974   0.513
 3016SOL     OW 9946   2.334   6.152   4.110
 3016SOL    HW1 9947   2.428   6.125   4.134
 3016SOL    HW2 9948   2.336   6.233   4.052
 3017SOL     OW 9949   6.591   5.109   1.834
 3017SOL    HW1 9950   6.632   5.064   1.755
 3017SOL    HW2 9951   6.493   5.087   1.838
 3018SOL     OW 9952   3.213   6.191   5.898
 3018SOL    HW1 9953   3.229   6.092   5.900
 3018SOL    HW2 9954   3.118   6.209   5.876
 3019SOL     OW 9955   0.537   0.044   6.605
 3019SOL    HW1 9956   0.528   6.976   6.643
 3019SOL    HW2 9957   0.559   0.108   6.679
 3020SOL     OW 9958   4.150   3.131   1.755
 3020SOL    HW1 9959   4.125   3.046   1.709
 3020SOL    HW2 9960   4.250   3.139   1.757
 3021SOL     OW 9961   3.134   6.839   0.026
 3021SOL    HW1 9962   3.149   6.915   6.987
 3021SOL    HW2 9963   3.045   6.797   0.007
 3022SOL     OW 9964   3.771   5.380   4.104
 3022SOL    HW1 9965   3.810   5.314   4.040
 3022SOL    HW2 9966   3.675   5.358   4.120
 3023SOL     OW 9967   4.327   0.270   2.753
 3023SOL    HW1 9968   4.401   0.337   2.752
 3023SOL    HW2 9969   4.336   0.212   2.834
 3024SOL     OW 9970   4.077   6.860   5.392
 3024SOL    HW1 9971   4.160   6.914   5.374
 3024SOL    HW2 9972   4.094   6.765   5.368
 3025SOL     OW 9973   3.285   1.075   0.607
 3025SOL    HW1 9974   3.277   1.172   0.626
 3025SOL    HW2 9975   3.204   1.044   0.557
 3026SOL     OW 9976   1.180   0.508   0.711
 3026SOL    HW1 9977   1.244   0.498   0.634
 3026SOL    HW2 9978   1.232   0.529   0.794
 3027SOL     OW 9979   3.816   0.357   3.048
 3027SOL    HW1 9980   3.854   0.352   2.955
 3027SOL    HW2 9981   3.843   0.443   3.090
 3028SOL     OW 9982   0.903   4.254   5.261
 3028SOL    HW1 9983   0.848   4.308   5.198
 3028SOL    HW2 9984   0.994   4.240   5.222
 3029SOL     OW 9985   0.335   2.685   4.666
 3029SOL    HW1 9986   0.424   2.723   4.690
 3029SOL    HW2 9987   0.286   2.750   4.608
 3030SOL     OW 9988   0.722   3.179   5.929
 3030SOL    HW1 9989   0.733   3.209   6.023
 3030SOL    HW2 9990   0.662   3.099   5.926
 3031SOL     OW 9991   0.830   3.698   0.475
 3031SOL    HW1 9992   0.774   3.779   0.459
 3031SOL    HW2 9993   0.776   3.616   0.457
 3032SOL     OW 9994   3.618   6.846   1.200
 3032SOL    HW1 9995   3.525   6.846   1.238
 3032SOL    HW2 9996   3.680   6.891   1.264
 3033SOL     OW 9997   6.387   2.019   1.936
 3033SOL    HW1 9998   6.408   1.937   1.990
 3033SOL    HW2 9999   6.462   2.084   1.944
 3034SOL     OW10000   1.575   5.603   3.030
 3034SOL    HW110001   1.479   5.579   3.046
 3034SOL    HW210002   1.624   5.604   3.118
 3035SOL     OW10003   0.501   2.964   6.866
 3035SOL    HW110004   0.542   3.055   6.872
 3035SOL    HW210005   0.521   2.913   6.950
 3036SOL     OW10006   1.849   1.763   6.516
 3036SOL    HW110007   1.851   1.671   6.555
 3036SOL    HW210008   1.933   1.812   6.543
 3037SOL     OW10009   6.681   5.563   5.451
 3037SOL    HW110010   6.661   5.661   5.459
 3037SOL    HW210011   6.778   5.548   5.471
 3038SOL     OW10012   5.807   6.437   6.282
 3038SOL    HW110013   5.779   6.524   6.321
 3038SOL    HW210014   5.752   6.418   6.200
 3039SOL     OW10015   0.021   3.671   0.958
 3039SOL    HW110016   0.028   3.578   0.920
 3039SOL    HW210017   6.953   3.685   0.994
 3040SOL     OW10018   3.800   3.515   6.252
 3040SOL    HW110019   3.827   3.588   6.190
 3040SOL    HW210020   3.880   3.483   6.303
 3041SOL     OW10021   2.223   2.573   4.154
 3041SOL    HW110022   2.192   2.656   4.107
 3041SOL    HW210023   2.151   2.539   4.214
 3042SOL     OW10024   4.068   6.245   2.228
 3042SOL    HW110025   4.158   6.255   2.272
 3042SOL    HW210026   4.069   6.165   2.168
 3043SOL     OW10027   2.253   5.342   1.163
 3043SOL    HW110028   2.238   5.292   1.249
 3043SOL    HW210029   2.351   5.358   1.152
 3044SOL     OW10030   3.420   3.803   5.912
 3044SOL    HW110031   3.437   3.790   5.814
 3044SOL    HW210032   3.508   3.809   5.960
 3045SOL     OW10033   4.684   0.653   2.899
 3045SOL    HW110034   4.694   0.716   2.976
 3045SOL    HW210035   4.738   0.571   2.916
 3046SOL     OW10036   2.166   0.923   6.355
 3046SOL    HW110037   2.232   0.856   6.390
 3046SOL    HW210038   2.102   0.877   6.293
 3047SOL     OW10039   5.584   0.462   2.196
 3047SOL    HW110040   5.533   0.514   2.127
 3047SOL    HW210041   5.640   0.393   2.151
 3048SOL     OW10042   3.850   2.254   1.682
 3048SOL    HW110043   3.785   2.297   1.743
 3048SOL    HW210044   3.885   2.323   1.618
 3049SOL     OW10045   0.768   6.905   2.316
 3049SOL    HW110046   0.705   6.975   2.350
 3049SOL    HW210047   0.801   6.849   2.392
 3050SOL     OW10048   3.232   1.001   2.109
 3050SOL    HW110049   3.190   0.925   2.059
 3050SOL    HW210050   3.285   0.965   2.186
 3051SOL     OW10051   2.306   4.162   0.177
 3051SOL    HW110052   2.255   4.248   0.170
 3051SOL    HW210053   2.261   4.102   0.243
 3052SOL     OW10054   5.697   6.986   1.971
 3052SOL    HW110055   5.637   6.956   1.897
 3052SOL    HW210056   5.658   6.961   2.059
 3053SOL     OW10057   6.844   1.410   6.845
 3053SOL    HW110058   6.858   1.507   6.866
 3053SOL    HW210059   6.897   1.355   6.910
 3054SOL     OW10060   6.529   2.017   0.731
 3054SOL    HW110061   6.439   2.053   0.759
 3054SOL    HW210062   6.517   1.927   0.689
 3055SOL     OW10063   5.030   7.010   4.226
 3055SOL    HW110064   4.981   6.940   4.173
 3055SOL    HW210065   4.970   0.063   4.241
 3056SOL     OW10066   5.846   0.711   5.020
 3056SOL    HW110067   5.875   0.626   5.064
 3056SOL    HW210068   5.756   0.738   5.056
 3057SOL     OW10069   3.936   6.133   2.936
 3057SOL    HW110070   3.987   6.133   3.022
 3057SOL    HW210071   3.998   6.155   2.861
 3058SOL     OW10072   0.144   5.385   0.844
 3058SOL    HW110073   0.144   5.485   0.841
 3058SOL    HW210074   0.052   5.351   0.858
 3059SOL     OW10075   2.659   2.434   4.417
 3059SOL    HW110076   2.585   2.392   4.468
 3059SOL    HW210077   2.625   2.513   4.366
 3060SOL     OW10078   0.524   5.452   0.273
 3060SOL    HW110079   0.471   5.392   0.213
 3060SOL    HW210080   0.611   5.407   0.296
 3061SOL     OW10081   6.858   0.138   5.355
 3061SOL    HW110082   6.844   0.068   5.285
 3061SOL    HW210083   6.882   0.095   5.441
 3062SOL     OW10084   1.484   0.260   7.007
 3062SOL    HW110085   1.422   0.247   6.930
 3062SOL    HW210086   1.482   0.180   0.042
 3063SOL     OW10087   2.714   5.333   1.729
 3063SOL    HW110088   2.709   5.342   1.828
 3063SOL    HW210089   2.704   5.236   1.704
 3064SOL     OW10090   5.773   4.359   3.107
 3064SOL    HW110091   5.724   4.443   3.086
 3064SOL    HW210092   5.833   4.373   3.185
 3065SOL     OW10093   2.258   0.376   0.710
 3065SOL    HW110094   2.211   0.294   0.680
 3065SOL    HW210095   2.299   0.422   0.632
 3066SOL     OW10096   5.318   5.069   0.691
 3066SOL    HW110097   5.372   4.986   0.682
 3066SOL    HW210098   5.221   5.046   0.688
 3067SOL     OW10099   3.976   2.055   5.348
 3067SOL    HW110100   4.046   1.987   5.371
 3067SOL    HW210101   3.948   2.103   5.431
 3068SOL     OW10102   6.359   6.779   1.892
 3068SOL    HW110103   6.368   6.869   1.935
 3068SOL    HW210104   6.264   6.766   1.862
 3069SOL     OW10105   6.698   6.229   1.837
 3069SOL    HW110106   6.607   6.228   1.794
 3069SOL    HW210107   6.760   6.285   1.782
 3070SOL     OW10108   1.941   1.548   0.875
 3070SOL    HW110109   1.882   1.573   0.951
 3070SOL    HW210110   2.007   1.621   0.859
 3071SOL     OW10111   6.095   6.531   3.164
 3071SOL    HW110112   6.084   6.456   3.098
 3071SOL    HW210113   6.160   6.598   3.129
 3072SOL     OW10114   1.746   6.657   0.224
 3072SOL    HW110115   1.703   6.606   0.150
 3072SOL    HW210116   1.716   6.753   0.220
 3073SOL     OW10117   6.374   3.132   4.322
 3073SOL    HW110118   6.467   3.101   4.342
 3073SOL    HW210119   6.322   3.140   4.407
 3074SOL     OW10120   6.099   3.580   0.968
 3074SOL    HW110121   6.090   3.494   1.018
 3074SOL    HW210122   6.012   3.629   0.969
 3075SOL     OW10123   2.494   6.216   1.842
 3075SOL    HW110124   2.575   6.267   1.871
 3075SOL    HW210125   2.499   6.198   1.744
 3076SOL     OW10126   6.569   0.036   4.688
 3076SOL    HW110127   6.586   6.974   4.642
 3076SOL    HW210128   6.612   0.035   4.778
 3077SOL     OW10129   5.034   5.794   1.908
 3077SOL    HW110130   4.972   5.736   1.960
 3077SOL    HW210131   5.111   5.739   1.874
 3078SOL     OW10132   0.562   2.795   2.069
 3078SOL    HW110133   0.521   2.773   1.981
 3078SOL    HW210134   0.501   2.854   2.122
 3079SOL     OW10135   2.603   2.093   3.796
 3079SOL    HW110136   2.550   2.123   3.717
 3079SOL    HW210137   2.675   2.160   3.815
 3080SOL     OW10138   4.855   3.819   3.438
 3080SOL    HW110139   4.825   3.855   3.350
 3080SOL    HW210140   4.903   3.890   3.489
 3081SOL     OW10141   0.277   2.226   6.041
 3081SOL    HW110142   0.183   2.215   6.009
 3081SOL    HW210143   0.312   2.315   6.012
 3082SOL     OW10144   2.893   6.403   3.950
 3082SOL    HW110145   2.909   6.330   4.016
 3082SOL    HW210146   2.947   6.387   3.868
 3083SOL     OW10147   4.327   6.215   3.732
 3083SOL    HW110148   4.242   6.191   3.780
 3083SOL    HW210149   4.403   6.164   3.773
 3084SOL     OW10150   6.188   4.131   4.832
 3084SOL    HW110151   6.191   4.053   4.894
 3084SOL    HW210152   6.196   4.100   4.737
 3085SOL     OW10153   6.499   4.388   1.351
 3085SOL    HW110154   6.498   4.338   1.264
 3085SOL    HW210155   6.542   4.331   1.421
 3086SOL     OW10156   4.443   1.604   1.554
 3086SOL    HW110157   4.419   1.529   1.492
 3086SOL    HW210158   4.442   1.571   1.648
 3087SOL     OW10159   0.123   5.583   3.684
 3087SOL    HW110160   0.099   5.525   3.762
 3087SOL    HW210161   0.189   5.535   3.626
 3088SOL     OW10162   1.504   4.610   5.120
 3088SOL    HW110163   1.558   4.529   5.096
 3088SOL    HW210164   1.407   4.587   5.120
 3089SOL     OW10165   1.545   3.430   6.713
 3089SOL    HW110166   1.597   3.508   6.679
 3089SOL    HW210167   1.573   3.347   6.665
 3090SOL     OW10168   1.744   2.284   1.830
 3090SOL    HW110169   1.694   2.349   1.887
 3090SOL    HW210170   1.834   2.321   1.807
 3091SOL     OW10171   1.717   1.180   1.027
 3091SOL    HW110172   1.742   1.097   1.078
 3091SOL    HW210173   1.795   1.208   0.971
 3092SOL     OW10174   4.667   0.481   0.524
 3092SOL    HW110175   4.573   0.471   0.557
 3092SOL    HW210176   4.720   0.401   0.552
 3093SOL     OW10177   5.812   6.733   5.521
 3093SOL    HW110178   5.764   6.804   5.571
 3093SOL    HW210179   5.761   6.709   5.439
 3094SOL     OW10180   2.378   6.820   4.019
 3094SOL    HW110181   2.342   6.757   4.088
 3094SOL    HW210182   2.345   6.793   3.929
 3095SOL     OW10183   1.984   5.216   5.291
 3095SOL    HW110184   2.039   5.139   5.324
 3095SOL    HW210185   1.890   5.208   5.325
 3096SOL     OW10186   1.750   6.124   5.294
 3096SOL    HW110187   1.675   6.091   5.237
 3096SOL    HW210188   1.757   6.223   5.286
 3097SOL     OW10189   6.154   2.407   0.173
 3097SOL    HW110190   6.070   2.423   0.121
 3097SOL    HW210191   6.213   2.487   0.164
 3098SOL     OW10192   3.185   3.419   0.891
 3098SOL    HW110193   3.095   3.382   0.918
 3098SOL    HW210194   3.251   3.344   0.887
 3099SOL     OW10195   0.371   6.552   2.880
 3099SOL    HW110196   0.433   6.516   2.810
 3099SOL    HW210197   0.391   6.507   2.968
 3100SOL     OW10198   6.587   6.409   4.346
 3100SOL    HW110199   6.585   6.426   4.445
 3100SOL    HW210200   6.493   6.400   4.312
 3101SOL     OW10201   5.433   6.835   5.986
 3101SOL    HW110202   5.459   6.739   5.983
 3101SOL    HW210203   5.362   6.848   6.055
 3102SOL     OW10204   0.034   5.214   1.766
 3102SOL    HW110205   0.023   5.170   1.855
 3102SOL    HW210206   0.049   5.145   1.696
 3103SOL     OW10207   3.984   0.273   2.164
 3103SOL    HW110208   3.912   0.334   2.198
 3103SOL    HW210209   4.046   0.325   2.104
 3104SOL     OW10210   4.998   0.110   5.046
 3104SOL    HW110211   5.087   0.089   5.004
 3104SOL    HW210212   4.990   0.209   5.059
 3105SOL     OW10213   6.088   4.823   2.138
 3105SOL    HW110214   6.117   4.919   2.148
 3105SOL    HW210215   6.123   4.786   2.052
 3106SOL     OW10216   6.707   1.883   3.199
 3106SOL    HW110217   6.752   1.915   3.283
 3106SOL    HW210218   6.773   1.836   3.141
 3107SOL     OW10219   4.302   1.022   5.039
 3107SOL    HW110220   4.246   1.084   4.983
 3107SOL    HW210221   4.346   0.955   4.979
 3108SOL     OW10222   1.242   6.632   4.284
 3108SOL    HW110223   1.159   6.644   4.337
 3108SOL    HW210224   1.321   6.626   4.345
 3109SOL     OW10225   5.821   6.147   2.834
 3109SOL    HW110226   5.869   6.122   2.918
 3109SOL    HW210227   5.728   6.111   2.837
 3110SOL     OW10228   1.567   1.903   3.111
 3110SOL    HW110229   1.576   1.803   3.114
 3110SOL    HW210230   1.644   1.942   3.060
 3111SOL     OW10231   6.239   5.574   3.886
 3111SOL    HW110232   6.163   5.580   3.951
 3111SOL    HW210233   6.290   5.489   3.902
 3112SOL     OW10234   5.206   2.420   6.396
 3112SOL    HW110235   5.269   2.447   6.469
 3112SOL    HW210236   5.208   2.320   6.386
 3113SOL     OW10237   2.334   5.893   3.497
 3113SOL    HW110238   2.427   5.925   3.516
 3113SOL    HW210239   2.328   5.795   3.515
 3114SOL     OW10240   4.441   1.508   1.162
 3114SOL    HW110241   4.428   1.605   1.141
 3114SOL    HW210242   4.394   1.452   1.094
 3115SOL     OW10243   4.085   3.416   6.269
 3115SOL    HW110244   4.047   3.381   6.183
 3115SOL    HW210245   4.118   3.339   6.324
 3116SOL     OW10246   0.691   2.862   6.613
 3116SOL    HW110247   0.753   2.813   6.552
 3116SOL    HW210248   0.717   2.846   6.708
 3117SOL     OW10249   4.313   3.560   5.244
 3117SOL    HW110250   4.240   3.550   5.176
 3117SOL    HW210251   4.401   3.546   5.200
 3118SOL     OW10252   0.670   5.327   1.562
 3118SOL    HW110253   0.668   5.395   1.636
 3118SOL    HW210254   0.589   5.338   1.505
 3119SOL     OW10255   1.655   3.621   5.566
 3119SOL    HW110256   1.727   3.621   5.496
 3119SOL    HW210257   1.697   3.614   5.656
 3120SOL     OW10258   3.375   6.536   5.253
 3120SOL    HW110259   3.330   6.624   5.240
 3120SOL    HW210260   3.351   6.475   5.178
 3121SOL     OW10261   0.016   1.010   3.919
 3121SOL    HW110262   6.984   1.042   3.994
 3121SOL    HW210263   0.008   1.072   3.841
 3122SOL     OW10264   3.509   6.902   6.083
 3122SOL    HW110265   3.458   6.966   6.025
 3122SOL    HW210266   3.538   6.823   6.028
 3123SOL     OW10267   3.770   1.356   3.894
 3123SOL    HW110268   3.846   1.338   3.956
 3123SOL    HW210269   3.805   1.396   3.809
 3124SOL     OW10270   3.757   0.193   4.676
 3124SOL    HW110271   3.761   0.237   4.586
 3124SOL    HW210272   3.718   0.101   4.667
 3125SOL     OW10273   6.696   2.163   4.932
 3125SOL    HW110274   6.688   2.262   4.926
 3125SOL    HW210275   6.641   2.130   5.009
 3126SOL     OW10276   4.936   5.061   5.939
 3126SOL    HW110277   4.890   4.972   5.930
 3126SOL    HW210278   4.912   5.119   5.862
 3127SOL     OW10279   1.364   3.375   4.146
 3127SOL    HW110280   1.423   3.420   4.213
 3127SOL    HW210281   1.317   3.298   4.188
 3128SOL     OW10282   2.757   0.590   6.803
 3128SOL    HW110283   2.856   0.604   6.802
 3128SOL    HW210284   2.711   0.673   6.835
 3129SOL     OW10285   0.046   3.601   6.359
 3129SOL    HW110286   0.126   3.543   6.373
 3129SOL    HW210287   0.012   3.634   6.448
 3130SOL     OW10288   2.038   4.209   1.570
 3130SOL    HW110289   1.965   4.143   1.555
 3130SOL    HW210290   2.010   4.274   1.641
 3131SOL     OW10291   0.049   2.195   1.276
 3131SOL    HW110292   7.001   2.229   1.216
 3131SOL    HW210293   0.068   2.262   1.347
 3132SOL     OW10294   4.279   5.870   6.188
 3132SOL    HW110295   4.231   5.958   6.188
 3132SOL    HW210296   4.345   5.869   6.263
 3133SOL     OW10297   3.518   1.681   4.180
 3133SOL    HW110298   3.513   1.617   4.256
 3133SOL    HW210299   3.544   1.633   4.096
 3134SOL     OW10300   5.063   3.924   1.230
 3134SOL    HW110301   5.074   4.016   1.268
 3134SOL    HW210302   4.991   3.925   1.161
 3135SOL     OW10303   5.071   0.779   5.710
 3135SOL    HW110304   5.114   0.691   5.730
 3135SOL    HW210305   4.974   0.766   5.691
 3136SOL     OW10306   5.575   0.833   0.823
 3136SOL    HW110307   5.636   0.877   0.757
 3136SOL    HW210308   5.610   0.848   0.915
 3137SOL     OW10309   6.309   0.865   3.363
 3137SOL    HW110310   6.364   0.920   3.299
 3137SOL    HW210311   6.260   0.794   3.312
 3138SOL     OW10312   6.242   3.842   4.180
 3138SOL    HW110313   6.290   3.884   4.103
 3138SOL    HW210314   6.235   3.907   4.255
 3139SOL     OW10315   5.398   6.583   0.306
 3139SOL    HW110316   5.376   6.489   0.279
 3139SOL    HW210317   5.313   6.634   0.320
 3140SOL     OW10318   6.053   0.162   6.646
 3140SOL    HW110319   6.046   0.261   6.659
 3140SOL    HW210320   6.131   0.127   6.697
 3141SOL     OW10321   0.104   6.143   6.408
 3141SOL    HW110322   0.098   6.051   6.447
 3141SOL    HW210323   0.183   6.148   6.347
 3142SOL     OW10324   3.550   6.749   1.509
 3142SOL    HW110325   3.544   6.681   1.436
 3142SOL    HW210326   3.458   6.781   1.532
 3143SOL     OW10327   6.520   1.556   6.692
 3143SOL    HW110328   6.620   1.557   6.692
 3143SOL    HW210329   6.487   1.545   6.786
 3144SOL     OW10330   4.488   3.904   1.642
 3144SOL    HW110331   4.398   3.936   1.672
 3144SOL    HW210332   4.551   3.981   1.639
 3145SOL     OW10333   2.109   5.762   1.222
 3145SOL    HW110334   2.092   5.859   1.242
 3145SOL    HW210335   2.022   5.718   1.197
 3146SOL     OW10336   1.425   6.838   2.883
 3146SOL    HW110337   1.373   6.782   2.818
 3146SOL    HW210338   1.366   6.910   2.920
 3147SOL     OW10339   3.352   4.932   0.646
 3147SOL    HW110340   3.337   4.961   0.741
 3147SOL    HW210341   3.430   4.870   0.642
 3148SOL     OW10342   5.113   5.866   5.064
 3148SOL    HW110343   5.172   5.935   5.106
 3148SOL    HW210344   5.166   5.812   4.998
 3149SOL     OW10345   2.611   1.489   6.412
 3149SOL    HW110346   2.611   1.389   6.404
 3149SOL    HW210347   2.525   1.519   6.452
 3150SOL     OW10348   6.265   6.009   4.111
 3150SOL    HW110349   6.336   6.052   4.167
 3150SOL    HW210350   6.307   5.949   4.044
 3151SOL     OW10351   4.980   1.423   6.178
 3151SOL    HW110352   5.078   1.446   6.177
 3151SOL    HW210353   4.935   1.468   6.101
 3152SOL     OW10354   1.582   5.685   0.044
 3152SOL    HW110355   1.540   5.736   0.119
 3152SOL    HW210356   1.529   5.699   6.985
 3153SOL     OW10357   6.520   4.851   1.946
 3153SOL    HW110358   6.561   4.901   2.022
 3153SOL    HW210359   6.592   4.799   1.899
 3154SOL     OW10360   5.865   1.212   6.544
 3154SOL    HW110361   5.839   1.139   6.481
 3154SOL    HW210362   5.794   1.222   6.614
 3155SOL     OW10363   6.200   4.443   1.634
 3155SOL    HW110364   6.157   4.508   1.571
 3155SOL    HW210365   6.130   4.388   1.678
 3156SOL     OW10366   3.182   3.190   3.547
 3156SOL    HW110367   3.113   3.136   3.597
 3156SOL    HW210368   3.212   3.139   3.466
 3157SOL     OW10369   2.393   2.755   4.694
 3157SOL    HW110370   2.317   2.772   4.756
 3157SOL    HW210371   2.461   2.697   4.739
 3158SOL     OW10372   4.319   0.110   2.987
 3158SOL    HW110373   4.242   0.054   2.957
 3158SOL    HW210374   4.310   0.131   3.084
 3159SOL     OW10375   5.383   1.600   0.112
 3159SOL    HW110376   5.358   1.507   0.084
 3159SOL    HW210377   5.438   1.596   0.195
 3160SOL     OW10378   0.567   5.954   5.390
 3160SOL    HW110379   0.537   5.921   5.479
 3160SOL    HW210380   0.658   5.995   5.399
 3161SOL     OW10381   1.571   1.641   3.162
 3161SOL    HW110382   1.490   1.595   3.198
 3161SOL    HW210383   1.653   1.596   3.196
 3162SOL     OW10384   1.300   6.629   2.116
 3162SOL    HW110385   1.306   6.711   2.173
 3162SOL    HW210386   1.341   6.648   2.027
 3163SOL     OW10387   4.279   2.179   6.134
 3163SOL    HW110388   4.225   2.145   6.056
 3163SOL    HW210389   4.371   2.202   6.103
 3164SOL     OW10390   4.748   4.071   1.447
 3164SOL    HW110391   4.753   3.972   1.433
 3164SOL    HW210392   4.677   4.091   1.515
 3165SOL     OW10393   0.924   5.923   0.583
 3165SOL    HW110394   0.843   5.916   0.641
 3165SOL    HW210395   0.899   5.960   0.494
 3166SOL     OW10396   4.797   1.989   5.366
 3166SOL    HW110397   4.834   2.079   5.390
 3166SOL    HW210398   4.698   1.989   5.380
 3167SOL     OW10399   6.748   3.757   1.669
 3167SOL    HW110400   6.752   3.699   1.750
 3167SOL    HW210401   6.653   3.768   1.640
 3168SOL     OW10402   4.489   2.386   0.269
 3168SOL    HW110403   4.552   2.318   0.308
 3168SOL    HW210404   4.523   2.478   0.288
 3169SOL     OW10405   1.339   3.699   4.972
 3169SOL    HW110406   1.417   3.749   4.935
 3169SOL    HW210407   1.363   3.662   5.062
 3170SOL     OW10408   4.097   0.893   1.211
 3170SOL    HW110409   4.025   0.907   1.280
 3170SOL    HW210410   4.062   0.922   1.121
 3171SOL     OW10411   0.199   6.710   1.489
 3171SOL    HW110412   0.146   6.794   1.499
 3171SOL    HW210413   0.287   6.731   1.447
 3172SOL     OW10414   0.446   5.314   6.815
 3172SOL    HW110415   0.399   5.403   6.808
 3172SOL    HW210416   0.379   5.242   6.832
 3173SOL     OW10417   3.283   2.166   0.415
 3173SOL    HW110418   3.377   2.144   0.391
 3173SOL    HW210419   3.263   2.261   0.391
 3174SOL     OW10420   3.032   2.712   6.770
 3174SOL    HW110421   3.111   2.766   6.739
 3174SOL    HW210422   3.003   2.744   6.860
 3175SOL     OW10423   6.618   0.178   0.633
 3175SOL    HW110424   6.556   0.135   0.699
 3175SOL    HW210425   6.590   0.273   0.618
 3176SOL     OW10426   1.516   4.856   4.569
 3176SOL    HW110427   1.544   4.946   4.535
 3176SOL    HW210428   1.598   4.801   4.587
 3177SOL     OW10429   4.662   4.267   4.419
 3177SOL    HW110430   4.569   4.234   4.433
 3177SOL    HW210431   4.661   4.366   4.404
 3178SOL     OW10432   6.471   2.107   0.428
 3178SOL    HW110433   6.420   2.162   0.361
 3178SOL    HW210434   6.407   2.051   0.480
 3179SOL     OW10435   1.744   3.100   2.433
 3179SOL    HW110436   1.814   3.172   2.425
 3179SOL    HW210437   1.750   3.059   2.524
 3180SOL     OW10438   4.361   1.203   6.915
 3180SOL    HW110439   4.305   1.194   6.998
 3180SOL    HW210440   4.416   1.286   6.922
 3181SOL     OW10441   0.773   1.085   2.715
 3181SOL    HW110442   0.764   1.184   2.724
 3181SOL    HW210443   0.802   1.046   2.802
 3182SOL     OW10444   2.557   1.734   5.383
 3182SOL    HW110445   2.605   1.701   5.301
 3182SOL    HW210446   2.522   1.826   5.366
 3183SOL     OW10447   4.258   4.006   1.738
 3183SOL    HW110448   4.179   4.063   1.716
 3183SOL    HW210449   4.329   4.062   1.782
 3184SOL     OW10450   1.201   2.643   2.593
 3184SOL    HW110451   1.155   2.636   2.681
 3184SOL    HW210452   1.276   2.708   2.599
 3185SOL     OW10453   5.835   5.895   0.011
 3185SOL    HW110454   5.911   5.959   0.010
 3185SOL    HW210455   5.768   5.922   6.966
 3186SOL     OW10456   3.828   2.071   2.340
 3186SOL    HW110457   3.738   2.078   2.298
 3186SOL    HW210458   3.825   2.008   2.417
 3187SOL     OW10459   4.772   3.857   0.778
 3187SOL    HW110460   4.794   3.940   0.727
 3187SOL    HW210461   4.755   3.781   0.715
 3188SOL     OW10462   3.941   6.271   5.059
 3188SOL    HW110463   3.894   6.273   5.147
 3188SOL    HW210464   3.902   6.200   5.002
 3189SOL     OW10465   1.697   1.451   1.988
 3189SOL    HW110466   1.683   1.365   1.940
 3189SOL    HW210467   1.743   1.516   1.927
 3190SOL     OW10468   6.993   6.391   0.564
 3190SOL    HW110469   6.980   6.292   0.571
 3190SOL    HW210470   6.914   6.432   0.520
 3191SOL     OW10471   4.101   6.793   0.531
 3191SOL    HW110472   4.144   6.834   0.612
 3191SOL    HW210473   4.118   6.694   0.532
 3192SOL     OW10474   0.281   2.696   0.761
 3192SOL    HW110475   0.217   2.659   0.828
 3192SOL    HW210476   0.233   2.714   0.675
 3193SOL     OW10477   4.415   1.607   5.960
 3193SOL    HW110478   4.398   1.561   6.047
 3193SOL    HW210479   4.492   1.671   5.972
 3194SOL     OW10480   0.337   3.178   5.781
 3194SOL    HW110481   0.287   3.218   5.704
 3194SOL    HW210482   0.346   3.079   5.767
 3195SOL     OW10483   2.629   2.410   3.113
 3195SOL    HW110484   2.677   2.411   3.025
 3195SOL    HW210485   2.678   2.352   3.177
 3196SOL     OW10486   0.169   0.755   5.578
 3196SOL    HW110487   0.237   0.825   5.555
 3196SOL    HW210488   0.142   0.706   5.495
 3197SOL     OW10489   1.509   6.123   3.669
 3197SOL    HW110490   1.568   6.056   3.713
 3197SOL    HW210491   1.457   6.173   3.738
 3198SOL     OW10492   6.287   2.292   5.601
 3198SOL    HW110493   6.193   2.277   5.571
 3198SOL    HW210494   6.310   2.228   5.674
 3199SOL     OW10495   4.861   2.798   1.918
 3199SOL    HW110496   4.825   2.728   1.856
 3199SOL    HW210497   4.797   2.874   1.924
 3200SOL     OW10498   6.699   2.494   1.914
 3200SOL    HW110499   6.615   2.544   1.930
 3200SOL    HW210500   6.699   2.458   1.820
 3201SOL     OW10501   4.937   4.237   4.495
 3201SOL    HW110502   4.851   4.275   4.460
 3201SOL    HW210503   4.917   4.165   4.561
 3202SOL     OW10504   1.068   4.615   1.559
 3202SOL    HW110505   1.005   4.550   1.516
 3202SOL    HW210506   1.147   4.566   1.594
 3203SOL     OW10507   6.164   2.709   6.635
 3203SOL    HW110508   6.188   2.806   6.633
 3203SOL    HW210509   6.209   2.663   6.558
 3204SOL     OW10510   4.641   6.601   1.792
 3204SOL    HW110511   4.708   6.675   1.778
 3204SOL    HW210512   4.558   6.639   1.832
 3205SOL     OW10513   0.148   3.770   0.107
 3205SOL    HW110514   0.087   3.692   0.122
 3205SOL    HW210515   0.093   3.850   0.082
 3206SOL     OW10516   0.231   0.064   6.176
 3206SOL    HW110517   0.234   7.004   6.123
 3206SOL    HW210518   0.323   0.100   6.186
 3207SOL     OW10519   0.645   1.290   5.946
 3207SOL    HW110520   0.626   1.211   5.888
 3207SOL    HW210521   0.558   1.330   5.978
 3208SOL     OW10522   4.878   6.371   5.249
 3208SOL    HW110523   4.869   6.421   5.335
 3208SOL    HW210524   4.906   6.434   5.177
 3209SOL     OW10525   3.722   5.496   2.925
 3209SOL    HW110526   3.786   5.517   2.998
 3209SOL    HW210527   3.674   5.410   2.945
 3210SOL     OW10528   0.387   4.301   1.445
 3210SOL    HW110529   0.292   4.321   1.420
 3210SOL    HW210530   0.391   4.220   1.503
 3211SOL     OW10531   2.573   3.026   1.035
 3211SOL    HW110532   2.577   2.996   0.940
 3211SOL    HW210533   2.560   3.125   1.038
 3212SOL     OW10534   2.826   1.364   0.310
 3212SOL    HW110535   2.784   1.306   0.240
 3212SOL    HW210536   2.759   1.430   0.343
 3213SOL     OW10537   6.450   5.409   2.456
 3213SOL    HW110538   6.516   5.374   2.389
 3213SOL    HW210539   6.382   5.339   2.475
 3214SOL     OW10540   4.805   5.632   0.720
 3214SOL    HW110541   4.801   5.578   0.804
 3214SOL    HW210542   4.899   5.634   0.687
 3215SOL     OW10543   0.455   3.247   1.046
 3215SOL    HW110544   0.489   3.183   1.115
 3215SOL    HW210545   0.385   3.202   0.990
 3216SOL     OW10546   5.551   5.439   1.663
 3216SOL    HW110547   5.502   5.374   1.721
 3216SOL    HW210548   5.489   5.477   1.595
 3217SOL     OW10549   0.361   5.259   2.895
 3217SOL    HW110550   0.267   5.231   2.912
 3217SOL    HW210551   0.381   5.342   2.947
 3218SOL     OW10552   3.946   6.909   3.853
 3218SOL    HW110553   3.878   6.975   3.883
 3218SOL    HW210554   3.949   6.832   3.916
 3219SOL     OW10555   0.041   1.948   3.733
 3219SOL    HW110556   0.139   1.955   3.753
 3219SOL    HW210557   7.023   2.038   3.744
 3220SOL     OW10558   6.613   5.815   5.883
 3220SOL    HW110559   6.540   5.790   5.818
 3220SOL    HW210560   6.644   5.908   5.864
 3221SOL     OW10561   2.798   7.023   1.628
 3221SOL    HW110562   2.851   6.944   1.659
 3221SOL    HW210563   2.730   6.993   1.562
 3222SOL     OW10564   3.960   1.551   3.079
 3222SOL    HW110565   3.997   1.638   3.046
 3222SOL    HW210566   3.963   1.484   3.006
 3223SOL     OW10567   1.956   5.268   6.694
 3223SOL    HW110568   1.961   5.338   6.765
 3223SOL    HW210569   1.990   5.181   6.731
 3224SOL     OW10570   4.392   3.745   6.377
 3224SOL    HW110571   4.357   3.666   6.327
 3224SOL    HW210572   4.490   3.754   6.362
 3225SOL     OW10573   4.484   3.086   5.411
 3225SOL    HW110574   4.570   3.043   5.381
 3225SOL    HW210575   4.495   3.122   5.503
 3226SOL     OW10576   1.452   1.483   4.511
 3226SOL    HW110577   1.479   1.574   4.542
 3226SOL    HW210578   1.442   1.484   4.411
 3227SOL     OW10579   3.250   2.557   6.292
 3227SOL    HW110580   3.206   2.571   6.381
 3227SOL    HW210581   3.293   2.642   6.262
 3228SOL     OW10582   5.674   3.678   3.108
 3228SOL    HW110583   5.685   3.756   3.170
 3228SOL    HW210584   5.762   3.656   3.066
 3229SOL     OW10585   3.474   1.977   5.408
 3229SOL    HW110586   3.566   2.017   5.410
 3229SOL    HW210587   3.466   1.915   5.330
 3230SOL     OW10588   1.425   2.966   4.012
 3230SOL    HW110589   1.346   2.997   3.958
 3230SOL    HW210590   1.397   2.890   4.070
 3231SOL     OW10591   2.370   0.455   2.004
 3231SOL    HW110592   2.419   0.456   2.090
 3231SOL    HW210593   2.317   0.370   1.996
 3232SOL     OW10594   3.973   5.232   4.249
 3232SOL    HW110595   3.943   5.320   4.213
 3232SOL    HW210596   3.894   5.172   4.258
 3233SOL     OW10597   1.415   3.206   1.086
 3233SOL    HW110598   1.409   3.118   1.133
 3233SOL    HW210599   1.323   3.245   1.077
 3234SOL     OW10600   6.963   1.813   0.722
 3234SOL    HW110601   6.881   1.756   0.721
 3234SOL    HW210602   0.017   1.759   0.692
 3235SOL     OW10603   4.789   0.296   1.602
 3235SOL    HW110604   4.757   0.348   1.682
 3235SOL    HW210605   4.753   0.337   1.519
 3236SOL     OW10606   1.495   3.152   0.295
 3236SOL    HW110607   1.491   3.251   0.300
 3236SOL    HW210608   1.590   3.122   0.294
 3237SOL     OW10609   5.739   1.324   3.455
 3237SOL    HW110610   5.685   1.342   3.537
 3237SOL    HW210611   5.681   1.331   3.374
 3238SOL     OW10612   0.403   4.668   0.531
 3238SOL    HW110613   0.426   4.760   0.564
 3238SOL    HW210614   0.370   4.674   0.437
 3239SOL     OW10615   6.013   1.753   0.386
 3239SOL    HW110616   6.058   1.815   0.322
 3239SOL    HW210617   5.965   1.806   0.456
 3240SOL     OW10618   1.103   6.084   5.404
 3240SOL    HW110619   1.182   6.026   5.382
 3240SOL    HW210620   1.075   6.068   5.498
 3241SOL     OW10621   4.726   1.126   4.100
 3241SOL    HW110622   4.725   1.218   4.060
 3241SOL    HW210623   4.820   1.093   4.105
 3242SOL     OW10624   3.151   4.575   1.328
 3242SOL    HW110625   3.091   4.654   1.314
 3242SOL    HW210626   3.205   4.559   1.245
 3243SOL     OW10627   5.537   4.854   0.045
 3243SOL    HW110628   5.614   4.890   7.016
 3243SOL    HW210629   5.490   4.931   0.090
 3244SOL     OW10630   4.745   6.009   0.833
 3244SOL    HW110631   4.773   6.080   0.898
 3244SOL    HW210632   4.800   6.016   0.750
 3245SOL     OW10633   5.328   2.391   5.489
 3245SOL    HW110634   5.330   2.293   5.509
 3245SOL    HW210635   5.234   2.425   5.496
 3246SOL     OW10636   5.924   0.976   3.285
 3246SOL    HW110637   5.956   1.071   3.286
 3246SOL    HW210638   5.940   0.937   3.194
 3247SOL     OW10639   6.848   4.968   3.648
 3247SOL    HW110640   6.842   4.989   3.746
 3247SOL    HW210641   6.834   4.870   3.634
 3248SOL     OW10642   6.487   3.121   1.916
 3248SOL    HW110643   6.545   3.202   1.908
 3248SOL    HW210644   6.538   3.047   1.959
 3249SOL     OW10645   3.464   3.420   5.151
 3249SOL    HW110646   3.462   3.480   5.071
 3249SOL    HW210647   3.391   3.352   5.143
 3250SOL     OW10648   5.146   0.177   2.584
 3250SOL    HW110649   5.197   0.229   2.515
 3250SOL    HW210650   5.124   0.237   2.661
 3251SOL     OW10651   3.869   1.121   2.290
 3251SOL    HW110652   3.836   1.033   2.322
 3251SOL    HW210653   3.791   1.182   2.274
 3252SOL     OW10654   2.627   1.742   2.144
 3252SOL    HW110655   2.605   1.836   2.169
 3252SOL    HW210656   2.589   1.721   2.054
 3253SOL     OW10657   5.821   2.892   2.586
 3253SOL    HW110658   5.765   2.814   2.557
 3253SOL    HW210659   5.915   2.878   2.555
 3254SOL     OW10660   4.421   5.745   5.754
 3254SOL    HW110661   4.397   5.750   5.851
 3254SOL    HW210662   4.340   5.764   5.699
 3255SOL     OW10663   4.761   6.714   1.433
 3255SOL    HW110664   4.849   6.699   1.388
 3255SOL    HW210665   4.741   6.636   1.494
 3256SOL     OW10666   5.279   0.447   0.346
 3256SOL    HW110667   5.349   0.386   0.308
 3256SOL    HW210668   5.323   0.525   0.391
 3257SOL     OW10669   1.504   2.513   1.111
 3257SOL    HW110670   1.505   2.573   1.191
 3257SOL    HW210671   1.428   2.538   1.051
 3258SOL     OW10672   3.845   4.938   2.024
 3258SOL    HW110673   3.768   4.875   2.019
 3258SOL    HW210674   3.920   4.895   2.075
 3259SOL     OW10675   4.612   6.045   3.846
 3259SOL    HW110676   4.590   6.063   3.941
 3259SOL    HW210677   4.562   5.965   3.814
 3260SOL     OW10678   2.029   1.829   1.231
 3260SOL    HW110679   2.006   1.868   1.320
 3260SOL    HW210680   1.996   1.735   1.227
 3261SOL     OW10681   4.496   6.185   0.546
 3261SOL    HW110682   4.501   6.092   0.583
 3261SOL    HW210683   4.564   6.195   0.473
 3262SOL     OW10684   3.511   1.819   2.393
 3262SOL    HW110685   3.515   1.866   2.481
 3262SOL    HW210686   3.530   1.884   2.320
 3263SOL     OW10687   3.681   1.123   4.011
 3263SOL    HW110688   3.680   1.211   3.963
 3263SOL    HW210689   3.588   1.099   4.038
 3264SOL     OW10690   1.561   4.742   0.575
 3264SOL    HW110691   1.644   4.793   0.552
 3264SOL    HW210692   1.542   4.752   0.672
 3265SOL     OW10693   4.680   2.078   5.742
 3265SOL    HW110694   4.610   2.008   5.756
 3265SOL    HW210695   4.645   2.148   5.680
 3266SOL     OW10696   0.836   2.792   0.366
 3266SOL    HW110697   0.872   2.763   0.455
 3266SOL    HW210698   0.805   2.712   0.315
 3267SOL     OW10699   4.008   1.631   0.498
 3267SOL    HW110700   3.989   1.647   0.595
 3267SOL    HW210701   4.106   1.619   0.484
 3268SOL     OW10702   1.739   4.298   0.039
 3268SOL    HW110703   1.696   4.387   0.024
 3268SOL    HW210704   1.678   4.241   0.095
 3269SOL     OW10705   4.373   5.085   1.801
 3269SOL    HW110706   4.375   5.154   1.728
 3269SOL    HW210707   4.442   5.108   1.869
 3270SOL     OW10708   1.537   4.672   5.451
 3270SOL    HW110709   1.449   4.700   5.489
 3270SOL    HW210710   1.527   4.654   5.353
 3271SOL     OW10711   5.546   3.478   2.957
 3271SOL    HW110712   5.610   3.536   3.008
 3271SOL    HW210713   5.470   3.452   3.016
 3272SOL     OW10714   3.902   3.887   0.114
 3272SOL    HW110715   3.945   3.848   0.033
 3272SOL    HW210716   3.827   3.828   0.144
 3273SOL     OW10717   0.378   6.282   2.340
 3273SOL    HW110718   0.295   6.235   2.372
 3273SOL    HW210719   0.424   6.225   2.272
 3274SOL     OW10720   3.877   1.499   1.055
 3274SOL    HW110721   3.822   1.546   0.986
 3274SOL    HW210722   3.824   1.490   1.139
 3275SOL     OW10723   1.200   0.818   6.712
 3275SOL    HW110724   1.269   0.859   6.771
 3275SOL    HW210725   1.139   0.761   6.767
 3276SOL     OW10726   3.502   5.128   6.609
 3276SOL    HW110727   3.474   5.223   6.623
 3276SOL    HW210728   3.438   5.067   6.655
 3277SOL     OW10729   5.172   6.972   6.816
 3277SOL    HW110730   5.184   6.875   6.796
 3277SOL    HW210731   5.238   7.000   6.886
 3278SOL     OW10732   6.768   0.848   5.837
 3278SOL    HW110733   6.738   0.757   5.868
 3278SOL    HW210734   6.819   0.839   5.752
 3279SOL     OW10735   6.906   0.536   0.824
 3279SOL    HW110736   6.931   0.525   0.728
 3279SOL    HW210737   6.891   0.633   0.844
 3280SOL     OW10738   3.317   4.720   5.743
 3280SOL    HW110739   3.340   4.734   5.646
 3280SOL    HW210740   3.316   4.622   5.764
 3281SOL     OW10741   2.280   5.775   0.756
 3281SOL    HW110742   2.284   5.871   0.728
 3281SOL    HW210743   2.300   5.716   0.678
 3282SOL     OW10744   2.160   5.475   4.458
 3282SOL    HW110745   2.080   5.415   4.452
 3282SOL    HW210746   2.168   5.529   4.375
 3283SOL     OW10747   3.371   1.155   1.253
 3283SOL    HW110748   3.397   1.068   1.294
 3283SOL    HW210749   3.302   1.140   1.182
 3284SOL     OW10750   5.907   6.299   0.161
 3284SOL    HW110751   5.957   6.229   0.108
 3284SOL    HW210752   5.851   6.354   0.098
 3285SOL     OW10753   5.671   2.730   3.229
 3285SOL    HW110754   5.615   2.804   3.266
 3285SOL    HW210755   5.658   2.647   3.283
 3286SOL     OW10756   4.098   3.598   3.232
 3286SOL    HW110757   4.077   3.688   3.269
 3286SOL    HW210758   4.130   3.538   3.306
 3287SOL     OW10759   1.516   5.849   0.291
 3287SOL    HW110760   1.534   5.942   0.323
 3287SOL    HW210761   1.417   5.833   0.290
 3288SOL     OW10762   1.041   4.974   6.664
 3288SOL    HW110763   0.970   5.040   6.641
 3288SOL    HW210764   1.129   5.021   6.672
 3289SOL     OW10765   2.321   6.666   5.596
 3289SOL    HW110766   2.264   6.669   5.514
 3289SOL    HW210767   2.328   6.572   5.630
 3290SOL     OW10768   0.315   6.703   2.081
 3290SOL    HW110769   0.334   6.801   2.087
 3290SOL    HW210770   0.374   6.654   2.145
 3291SOL     OW10771   1.018   5.698   6.957
 3291SOL    HW110772   1.076   5.773   6.925
 3291SOL    HW210773   0.964   5.663   6.881
 3292SOL     OW10774   0.318   0.713   6.669
 3292SOL    HW110775   0.320   0.649   6.746
 3292SOL    HW210776   0.289   0.665   6.586
 3293SOL     OW10777   6.626   3.577   3.144
 3293SOL    HW110778   6.568   3.644   3.096
 3293SOL    HW210779   6.717   3.576   3.103
 3294SOL     OW10780   0.308   0.866   6.380
 3294SOL    HW110781   0.286   0.963   6.366
 3294SOL    HW210782   0.277   0.838   6.471
 3295SOL     OW10783   1.538   3.284   1.869
 3295SOL    HW110784   1.614   3.274   1.805
 3295SOL    HW210785   1.457   3.317   1.820
 3296SOL     OW10786   1.889   6.194   1.257
 3296SOL    HW110787   1.841   6.277   1.229
 3296SOL    HW210788   1.826   6.116   1.251
 3297SOL     OW10789   2.628   0.362   5.214
 3297SOL    HW110790   2.691   0.284   5.213
 3297SOL    HW210791   2.665   0.435   5.156
 3298SOL     OW10792   6.482   1.834   3.878
 3298SOL    HW110793   6.506   1.761   3.814
 3298SOL    HW210794   6.383   1.846   3.879
 3299SOL     OW10795   2.232   6.477   3.726
 3299SOL    HW110796   2.146   6.501   3.680
 3299SOL    HW210797   2.298   6.447   3.658
 3300SOL     OW10798   0.657   0.782   5.690
 3300SOL    HW110799   0.617   0.847   5.755
 3300SOL    HW210800   0.626   0.689   5.712
 3301SOL     OW10801   2.120   3.197   3.863
 3301SOL    HW110802   2.120   3.203   3.963
 3301SOL    HW210803   2.158   3.281   3.825
 3302SOL     OW10804   1.137   5.677   5.124
 3302SOL    HW110805   1.135   5.733   5.041
 3302SOL    HW210806   1.065   5.709   5.187
 3303SOL     OW10807   3.764   3.060   1.604
 3303SOL    HW110808   3.811   2.975   1.629
 3303SOL    HW210809   3.747   3.114   1.686
 3304SOL     OW10810   1.506   5.123   3.959
 3304SOL    HW110811   1.501   5.023   3.967
 3304SOL    HW210812   1.574   5.159   4.023
 3305SOL     OW10813   2.627   1.078   2.841
 3305SOL    HW110814   2.710   1.118   2.879
 3305SOL    HW210815   2.561   1.063   2.915
 3306SOL     OW10816   1.935   5.561   3.915
 3306SOL    HW110817   1.941   5.532   4.011
 3306SOL    HW210818   2.018   5.534   3.867
 3307SOL     OW10819   0.104   5.880   6.471
 3307SOL    HW110820   0.046   5.886   6.553
 3307SOL    HW210821   0.090   5.791   6.427
 3308SOL     OW10822   4.798   6.271   0.137
 3308SOL    HW110823   4.727   6.260   0.068
 3308SOL    HW210824   4.863   6.195   0.131
 3309SOL     OW10825   0.703   5.516   1.727
 3309SOL    HW110826   0.753   5.591   1.683
 3309SOL    HW210827   0.721   5.517   1.825
 3310SOL     OW10828   6.542   4.246   4.494
 3310SOL    HW110829   6.601   4.234   4.414
 3310SOL    HW210830   6.549   4.165   4.553
 3311SOL     OW10831   2.087   4.558   1.946
 3311SOL    HW110832   2.109   4.473   1.899
 3311SOL    HW210833   2.000   4.593   1.913
 3312SOL     OW10834   3.784   4.268   6.163
 3312SOL    HW110835   3.760   4.359   6.129
 3312SOL    HW210836   3.870   4.240   6.121
 3313SOL     OW10837   6.963   5.329   2.570
 3313SOL    HW110838   6.874   5.375   2.574
 3313SOL    HW210839   6.990   5.316   2.475
 3314SOL     OW10840   1.480   1.898   4.797
 3314SOL    HW110841   1.516   1.918   4.888
 3314SOL    HW210842   1.507   1.806   4.770
 3315SOL     OW10843   6.643   3.584   3.834
 3315SOL    HW110844   6.678   3.674   3.859
 3315SOL    HW210845   6.624   3.531   3.917
 3316SOL     OW10846   3.731   1.688   5.997
 3316SOL    HW110847   3.724   1.614   5.930
 3316SOL    HW210848   3.639   1.714   6.028
 3317SOL     OW10849   5.057   2.977   1.880
 3317SOL    HW110850   5.104   3.029   1.950
 3317SOL    HW210851   4.979   2.930   1.920
 3318SOL     OW10852   2.814   6.989   0.564
 3318SOL    HW110853   2.912   6.967   0.559
 3318SOL    HW210854   2.773   6.978   0.474
 3319SOL     OW10855   6.308   6.746   4.551
 3319SOL    HW110856   6.229   6.688   4.531
 3319SOL    HW210857   6.290   6.800   4.633
 3320SOL     OW10858   5.500   1.197   5.896
 3320SOL    HW110859   5.573   1.260   5.870
 3320SOL    HW210860   5.528   1.103   5.874
 3321SOL     OW10861   3.506   2.285   1.665
 3321SOL    HW110862   3.425   2.319   1.714
 3321SOL    HW210863   3.584   2.283   1.728
 3322SOL     OW10864   5.110   3.314   1.874
 3322SOL    HW110865   5.073   3.336   1.784
 3322SOL    HW210866   5.036   3.314   1.941
 3323SOL     OW10867   2.079   4.320   6.604
 3323SOL    HW110868   1.988   4.357   6.621
 3323SOL    HW210869   2.100   4.251   6.673
 3324SOL     OW10870   0.670   3.847   6.657
 3324SOL    HW110871   0.677   3.865   6.559
 3324SOL    HW210872   0.681   3.933   6.707
 3325SOL     OW10873   2.128   2.990   6.611
 3325SOL    HW110874   2.198   2.929   6.574
 3325SOL    HW210875   2.166   3.041   6.689
 3326SOL     OW10876   5.244   1.546   2.071
 3326SOL    HW110877   5.255   1.578   1.977
 3326SOL    HW210878   5.334   1.529   2.112
 3327SOL     OW10879   3.236   6.134   1.503
 3327SOL    HW110880   3.296   6.089   1.570
 3327SOL    HW210881   3.266   6.112   1.411
 3328SOL     OW10882   4.264   1.972   2.534
 3328SOL    HW110883   4.196   2.042   2.554
 3328SOL    HW210884   4.273   1.961   2.435
 3329SOL     OW10885   4.958   0.845   5.207
 3329SOL    HW110886   4.871   0.874   5.166
 3329SOL    HW210887   4.966   0.884   5.298
 3330SOL     OW10888   5.940   6.383   1.384
 3330SOL    HW110889   5.945   6.332   1.470
 3330SOL    HW210890   5.998   6.465   1.392
 3331SOL     OW10891   0.739   3.465   2.031
 3331SOL    HW110892   0.795   3.399   2.081
 3331SOL    HW210893   0.708   3.536   2.094
 3332SOL     OW10894   6.246   4.295   6.990
 3332SOL    HW110895   6.173   4.326   0.026
 3332SOL    HW210896   6.297   4.220   0.009
 3333SOL     OW10897   3.217   3.512   6.911
 3333SOL    HW110898   3.129   3.471   6.934
 3333SOL    HW210899   3.218   3.608   6.940
 3334SOL     OW10900   1.899   3.454   2.314
 3334SOL    HW110901   1.944   3.473   2.227
 3334SOL    HW210902   1.936   3.371   2.354
 3335SOL     OW10903   4.850   6.323   6.596
 3335SOL    HW110904   4.802   6.342   6.682
 3335SOL    HW210905   4.948   6.318   6.613
 3336SOL     OW10906   2.217   6.528   4.473
 3336SOL    HW110907   2.237   6.605   4.533
 3336SOL    HW210908   2.121   6.533   4.443
 3337SOL     OW10909   2.524   4.216   1.320
 3337SOL    HW110910   2.460   4.143   1.339
 3337SOL    HW210911   2.571   4.198   1.233
 3338SOL     OW10912   6.885   2.901   1.515
 3338SOL    HW110913   6.923   2.925   1.604
 3338SOL    HW210914   6.882   2.983   1.457
 3339SOL     OW10915   1.423   7.023   6.759
 3339SOL    HW110916   1.443   0.084   6.711
 3339SOL    HW210917   1.436   6.946   6.696
 3340SOL     OW10918   3.827   0.865   4.038
 3340SOL    HW110919   3.773   0.791   4.077
 3340SOL    HW210920   3.768   0.945   4.024
 3341SOL     OW10921   2.091   4.587   3.880
 3341SOL    HW110922   2.127   4.598   3.787
 3341SOL    HW210923   2.149   4.638   3.944
 3342SOL     OW10924   1.272   0.603   3.388
 3342SOL    HW110925   1.291   0.701   3.383
 3342SOL    HW210926   1.227   0.582   3.475
 3343SOL     OW10927   5.404   4.674   6.635
 3343SOL    HW110928   5.455   4.610   6.578
 3343SOL    HW210929   5.313   4.689   6.597
 3344SOL     OW10930   6.033   3.638   4.158
 3344SOL    HW110931   6.104   3.696   4.197
 3344SOL    HW210932   6.070   3.587   4.080
 3345SOL     OW10933   1.103   4.518   6.398
 3345SOL    HW110934   1.029   4.456   6.372
 3345SOL    HW210935   1.077   4.567   6.482
 3346SOL     OW10936   0.838   0.830   0.018
 3346SOL    HW110937   0.773   0.762   7.009
 3346SOL    HW210938   0.845   0.905   6.976
 3347SOL     OW10939   0.793   3.339   5.700
 3347SOL    HW110940   0.748   3.428   5.705
 3347SOL    HW210941   0.775   3.288   5.784
 3348SOL     OW10942   4.061   3.351   5.037
 3348SOL    HW110943   4.105   3.314   5.119
 3348SOL    HW210944   4.059   3.451   5.042
 3349SOL     OW10945   2.106   5.236   2.815
 3349SOL    HW110946   2.024   5.221   2.871
 3349SOL    HW210947   2.126   5.334   2.812
 3350SOL     OW10948   0.213   2.694   6.125
 3350SOL    HW110949   0.144   2.655   6.187
 3350SOL    HW210950   0.206   2.794   6.126
 3351SOL     OW10951   4.510   1.431   1.801
 3351SOL    HW110952   4.495   1.372   1.721
 3351SOL    HW210953   4.599   1.475   1.794
 3352SOL     OW10954   6.179   2.749   0.838
 3352SOL    HW110955   6.097   2.708   0.877
 3352SOL    HW210956   6.171   2.848   0.842
 3353SOL     OW10957   2.980   5.995   1.451
 3353SOL    HW110958   3.057   6.058   1.447
 3353SOL    HW210959   3.011   5.908   1.490
 3354SOL     OW10960   4.610   2.568   5.256
 3354SOL    HW110961   4.684   2.524   5.205
 3354SOL    HW210962   4.642   2.591   5.348
 3355SOL     OW10963   2.046   1.628   5.799
 3355SOL    HW110964   2.132   1.577   5.789
 3355SOL    HW210965   1.989   1.584   5.868
 3356SOL     OW10966   1.198   5.830   6.076
 3356SOL    HW110967   1.264   5.801   6.146
 3356SOL    HW210968   1.124   5.881   6.119
 3357SOL     OW10969   3.420   3.841   2.155
 3357SOL    HW110970   3.436   3.933   2.191
 3357SOL    HW210971   3.468   3.774   2.212
 3358SOL     OW10972   4.407   1.253   2.677
 3358SOL    HW110973   4.341   1.297   2.616
 3358SOL    HW210974   4.362   1.232   2.764
 3359SOL     OW10975   0.062   5.832   2.963
 3359SOL    HW110976   0.016   5.756   2.918
 3359SOL    HW210977   0.073   5.812   3.061
 3360SOL     OW10978   0.448   1.964   6.505
 3360SOL    HW110979   0.388   2.006   6.573
 3360SOL    HW210980   0.414   1.873   6.482
 3361SOL     OW10981   0.332   5.826   4.791
 3361SOL    HW110982   0.424   5.833   4.752
 3361SOL    HW210983   0.338   5.793   4.885
 3362SOL     OW10984   3.265   1.792   2.588
 3362SOL    HW110985   3.235   1.883   2.558
 3362SOL    HW210986   3.287   1.737   2.508
 3363SOL     OW10987   6.851   2.102   1.413
 3363SOL    HW110988   6.929   2.144   1.367
 3363SOL    HW210989   6.816   2.164   1.483
 3364SOL     OW10990   2.476   4.576   3.506
 3364SOL    HW110991   2.443   4.524   3.427
 3364SOL    HW210992   2.499   4.669   3.478
 3365SOL     OW10993   0.106   3.174   5.060
 3365SOL    HW110994   0.052   3.158   4.977
 3365SOL    HW210995   0.116   3.088   5.110
 3366SOL     OW10996   5.371   4.784   3.987
 3366SOL    HW110997   5.442   4.728   4.029
 3366SOL    HW210998   5.321   4.833   4.058
 3367SOL     OW10999   3.610   3.799   2.892
 3367SOL    HW111000   3.605   3.844   2.803
 3367SOL    HW211001   3.702   3.760   2.903
 3368SOL     OW11002   0.807   5.580   6.261
 3368SOL    HW111003   0.847   5.502   6.213
 3368SOL    HW211004   0.877   5.625   6.316
 3369SOL     OW11005   4.380   1.784   1.140
 3369SOL    HW111006   4.407   1.798   1.044
 3369SOL    HW211007   4.420   1.856   1.197
 3370SOL     OW11008   6.846   6.406   1.224
 3370SOL    HW111009   6.805   6.360   1.303
 3370SOL    HW211010   6.920   6.465   1.254
 3371SOL     OW11011   2.138   3.239   1.852
 3371SOL    HW111012   2.133   3.314   1.918
 3371SOL    HW211013   2.219   3.250   1.794
 3372SOL     OW11014   0.003   1.730   0.183
 3372SOL    HW111015   7.009   1.775   0.271
 3372SOL    HW211016   0.098   1.747   0.157
 3373SOL     OW11017   0.339   2.238   4.008
 3373SOL    HW111018   0.267   2.305   3.991
 3373SOL    HW211019   0.424   2.269   3.966
 3374SOL     OW11020   1.124   6.987   3.745
 3374SOL    HW111021   1.194   7.002   3.814
 3374SOL    HW211022   1.047   6.937   3.786
 3375SOL     OW11023   6.822   4.288   0.651
 3375SOL    HW111024   6.791   4.194   0.636
 3375SOL    HW211025   6.815   4.311   0.748
 3376SOL     OW11026   3.472   2.870   4.806
 3376SOL    HW111027   3.399   2.809   4.836
 3376SOL    HW211028   3.436   2.963   4.796
 3377SOL     OW11029   0.170   5.389   6.020
 3377SOL    HW111030   0.231   5.444   6.077
 3377SOL    HW211031   0.185   5.412   5.924
 3378SOL     OW11032   1.592   6.077   0.450
 3378SOL    HW111033   1.497   6.055   0.471
 3378SOL    HW211034   1.596   6.162   0.397
 3379SOL     OW11035   0.997   1.701   4.602
 3379SOL    HW111036   1.018   1.785   4.652
 3379SOL    HW211037   1.037   1.623   4.650
 3380SOL     OW11038   4.855   6.111   5.335
 3380SOL    HW111039   4.836   6.125   5.432
 3380SOL    HW211040   4.872   6.200   5.292
 3381SOL     OW11041   6.631   2.654   1.093
 3381SOL    HW111042   6.574   2.697   1.024
 3381SOL    HW211043   6.578   2.639   1.176
 3382SOL     OW11044   0.409   2.807   6.551
 3382SOL    HW111045   0.501   2.835   6.581
 3382SOL    HW211046   0.357   2.888   6.523
 3383SOL     OW11047   3.254   5.119   1.019
 3383SOL    HW111048   3.261   5.173   0.935
 3383SOL    HW211049   3.323   5.046   1.017
 3384SOL     OW11050   2.125   3.657   1.218
 3384SOL    HW111051   2.102   3.584   1.283
 3384SOL    HW211052   2.172   3.618   1.139
 3385SOL     OW11053   6.722   3.621   4.458
 3385SOL    HW111054   6.781   3.547   4.489
 3385SOL    HW211055   6.627   3.592   4.462
 3386SOL     OW11056   5.132   4.312   6.838
 3386SOL    HW111057   5.206   4.322   6.904
 3386SOL    HW211058   5.060   4.254   6.876
 3387SOL     OW11059   4.888   0.192   3.055
 3387SOL    HW111060   4.816   0.195   3.123
 3387SOL    HW211061   4.875   0.112   2.996
 3388SOL     OW11062   5.502   3.263   2.656
 3388SOL    HW111063   5.567   3.198   2.694
 3388SOL    HW211064   5.424   3.273   2.719
 3389SOL     OW11065   6.579   5.789   6.129
 3389SOL    HW111066   6.591   5.805   6.031
 3389SOL    HW211067   6.627   5.705   6.155
 3390SOL     OW11068   5.089   6.761   5.922
 3390SOL    HW111069   4.999   6.746   5.962
 3390SOL    HW211070   5.088   6.845   5.868
 3391SOL     OW11071   4.660   2.542   3.367
 3391SOL    HW111072   4.757   2.519   3.357
 3391SOL    HW211073   4.650   2.641   3.375
 3392SOL     OW11074   3.410   6.716   4.629
 3392SOL    HW111075   3.449   6.685   4.542
 3392SOL    HW211076   3.333   6.658   4.653
 3393SOL     OW11077   5.981   6.024   0.715
 3393SOL    HW111078   6.040   5.999   0.792
 3393SOL    HW211079   6.038   6.055   0.638
 3394SOL     OW11080   5.009   3.687   0.879
 3394SOL    HW111081   4.938   3.749   0.844
 3394SOL    HW211082   5.088   3.740   0.908
 3395SOL     OW11083   5.233   2.169   2.918
 3395SOL    HW111084   5.201   2.079   2.948
 3395SOL    HW211085   5.320   2.190   2.962
 3396SOL     OW11086   5.636   1.164   3.814
 3396SOL    HW111087   5.653   1.251   3.768
 3396SOL    HW211088   5.562   1.115   3.767
 3397SOL     OW11089   3.358   4.665   6.240
 3397SOL    HW111090   3.289   4.594   6.256
 3397SOL    HW211091   3.336   4.714   6.156
 3398SOL     OW11092   1.565   0.057   5.268
 3398SOL    HW111093   1.586   6.994   5.225
 3398SOL    HW211094   1.613   0.063   5.356
 3399SOL     OW11095   5.977   5.231   3.292
 3399SOL    HW111096   6.053   5.182   3.249
 3399SOL    HW211097   5.943   5.179   3.370
 3400SOL     OW11098   5.423   4.110   6.645
 3400SOL    HW111099   5.442   4.078   6.738
 3400SOL    HW211100   5.376   4.198   6.650
 3401SOL     OW11101   5.727   4.071   6.789
 3401SOL    HW111102   5.771   4.121   6.714
 3401SOL    HW211103   5.672   4.134   6.844
 3402SOL     OW11104   5.726   5.633   6.280
 3402SOL    HW111105   5.737   5.563   6.350
 3402SOL    HW211106   5.631   5.666   6.280
 3403SOL     OW11107   5.008   5.477   7.015
 3403SOL    HW111108   5.032   5.472   6.918
 3403SOL    HW211109   4.915   5.512   7.024
 3404SOL     OW11110   5.126   2.471   0.456
 3404SOL    HW111111   5.061   2.431   0.521
 3404SOL    HW211112   5.131   2.570   0.472
 3405SOL     OW11113   5.631   4.575   6.469
 3405SOL    HW111114   5.730   4.560   6.460
 3405SOL    HW211115   5.595   4.606   6.381
 3406SOL     OW11116   1.081   3.280   2.649
 3406SOL    HW111117   1.073   3.240   2.741
 3406SOL    HW211118   1.091   3.379   2.656
 3407SOL     OW11119   1.973   4.554   0.180
 3407SOL    HW111120   2.070   4.557   0.204
 3407SOL    HW211121   1.930   4.641   0.207
 3408SOL     OW11122   4.835   3.017   4.874
 3408SOL    HW111123   4.817   3.061   4.787
 3408SOL    HW211124   4.856   3.086   4.943
 3409SOL     OW11125   3.802   6.193   0.053
 3409SOL    HW111126   3.899   6.173   0.062
 3409SOL    HW211127   3.788   6.292   0.050
 3410SOL     OW11128   6.444   6.439   2.097
 3410SOL    HW111129   6.379   6.506   2.133
 3410SOL    HW211130   6.499   6.403   2.171
 3411SOL     OW11131   0.357   2.990   0.353
 3411SOL    HW111132   0.351   2.925   0.278
 3411SOL    HW211133   0.437   3.049   0.340
 3412SOL     OW11134   4.970   3.632   1.565
 3412SOL    HW111135   5.027   3.664   1.640
 3412SOL    HW211136   4.874   3.636   1.591
 3413SOL     OW11137   6.431   1.377   0.018
 3413SOL    HW111138   6.382   1.321   0.085
 3413SOL    HW211139   6.514   1.413   0.059
 3414SOL     OW11140   3.354   2.299   5.876
 3414SOL    HW111141   3.401   2.214   5.852
 3414SOL    HW211142   3.368   2.319   5.973
 3415SOL     OW11143   2.434   1.993   4.450
 3415SOL    HW111144   2.351   1.967   4.500
 3415SOL    HW211145   2.483   1.910   4.422
 3416SOL     OW11146   5.261   0.617   0.691
 3416SOL    HW111147   5.246   0.519   0.703
 3416SOL    HW211148   5.331   0.632   0.622
 3417SOL     OW11149   0.279   6.720   4.112
 3417SOL    HW111150   0.334   6.637   4.118
 3417SOL    HW211151   0.317   6.780   4.041
 3418SOL     OW11152   3.873   6.003   3.322
 3418SOL    HW111153   3.797   6.021   3.259
 3418SOL    HW211154   3.901   6.088   3.365
 3419SOL     OW11155   3.371   4.816   5.984
 3419SOL    HW111156   3.313   4.897   5.985
 3419SOL    HW211157   3.369   4.775   5.893
 3420SOL     OW11158   5.305   3.812   3.996
 3420SOL    HW111159   5.336   3.752   3.923
 3420SOL    HW211160   5.381   3.870   4.026
 3421SOL     OW11161   5.336   1.864   3.509
 3421SOL    HW111162   5.287   1.811   3.440
 3421SOL    HW211163   5.272   1.894   3.580
 3422SOL     OW11164   2.501   0.515   0.154
 3422SOL    HW111165   2.435   0.568   0.101
 3422SOL    HW211166   2.454   0.441   0.201
 3423SOL     OW11167   0.257   4.721   6.359
 3423SOL    HW111168   0.302   4.810   6.370
 3423SOL    HW211169   0.232   4.708   6.263
 3424SOL     OW11170   3.029   6.700   1.175
 3424SOL    HW111171   2.961   6.774   1.175
 3424SOL    HW211172   3.079   6.701   1.262
 3425SOL     OW11173   4.932   4.360   2.143
 3425SOL    HW111174   4.931   4.458   2.159
 3425SOL    HW211175   4.994   4.316   2.208
 3426SOL     OW11176   5.351   2.800   1.309
 3426SOL    HW111177   5.380   2.705   1.310
 3426SOL    HW211178   5.276   2.812   1.244
 3427SOL     OW11179   0.727   2.257   1.887
 3427SOL    HW111180   0.638   2.213   1.876
 3427SOL    HW211181   0.792   2.218   1.821
 3428SOL     OW11182   4.035   4.567   6.941
 3428SOL    HW111183   3.945   4.536   6.909
 3428SOL    HW211184   4.106   4.532   6.879
 3429SOL     OW11185   0.671   1.685   1.233
 3429SOL    HW111186   0.719   1.772   1.218
 3429SOL    HW211187   0.689   1.623   1.156
 3430SOL     OW11188   2.330   5.280   5.000
 3430SOL    HW111189   2.303   5.361   4.948
 3430SOL    HW211190   2.429   5.268   4.993
 3431SOL     OW11191   1.386   6.022   1.449
 3431SOL    HW111192   1.393   5.970   1.534
 3431SOL    HW211193   1.291   6.025   1.419
 3432SOL     OW11194   2.580   4.571   6.372
 3432SOL    HW111195   2.496   4.595   6.420
 3432SOL    HW211196   2.631   4.653   6.349
 3433SOL     OW11197   1.252   0.939   5.263
 3433SOL    HW111198   1.328   0.885   5.297
 3433SOL    HW211199   1.278   0.986   5.179
 3434SOL     OW11200   3.900   1.681   1.930
 3434SOL    HW111201   3.915   1.776   1.903
 3434SOL    HW211202   3.833   1.639   1.869
 3435SOL     OW11203   1.971   1.228   0.936
 3435SOL    HW111204   1.969   1.326   0.915
 3435SOL    HW211205   2.055   1.188   0.899
 3436SOL     OW11206   3.461   5.737   7.017
 3436SOL    HW111207   3.492   5.749   6.923
 3436SOL    HW211208   3.389   5.668   7.019
 3437SOL     OW11209   2.662   6.106   5.684
 3437SOL    HW111210   2.741   6.046   5.692
 3437SOL    HW211211   2.581   6.060   5.723
 3438SOL     OW11212   0.614   4.096   1.270
 3438SOL    HW111213   0.602   4.090   1.171
 3438SOL    HW211214   0.592   4.189   1.300
 3439SOL     OW11215   3.279   5.919   4.088
 3439SOL    HW111216   3.193   5.870   4.102
 3439SOL    HW211217   3.271   6.013   4.121
 3440SOL     OW11218   3.824   3.054   2.667
 3440SOL    HW111219   3.727   3.036   2.680
 3440SOL    HW211220   3.845   3.056   2.569
 3441SOL     OW11221   6.883   5.887   6.597
 3441SOL    HW111222   6.799   5.941   6.587
 3441SOL    HW211223   6.873   5.825   6.675
 3442SOL     OW11224   2.585   3.818   1.619
 3442SOL    HW111225   2.625   3.726   1.609
 3442SOL    HW211226   2.659   3.885   1.626
 3443SOL     OW11227   3.347   6.316   2.283
 3443SOL    HW111228   3.354   6.361   2.194
 3443SOL    HW211229   3.331   6.385   2.354
 3444SOL     OW11230   4.744   5.681   0.449
 3444SOL    HW111231   4.778   5.666   0.541
 3444SOL    HW211232   4.807   5.640   0.383
 3445SOL     OW11233   6.226   5.174   3.389
 3445SOL    HW111234   6.309   5.177   3.445
 3445SOL    HW211235   6.192   5.266   3.375
 3446SOL     OW11236   5.890   0.561   1.253
 3446SOL    HW111237   5.961   0.611   1.203
 3446SOL    HW211238   5.800   0.587   1.218
 3447SOL     OW11239   5.420   6.812   0.655
 3447SOL    HW111240   5.476   6.866   0.593
 3447SOL    HW211241   5.334   6.861   0.673
 3448SOL     OW11242   3.345   6.582   6.249
 3448SOL    HW111243   3.318   6.630   6.166
 3448SOL    HW211244   3.432   6.619   6.282
 3449SOL     OW11245   5.852   5.281   4.882
 3449SOL    HW111246   5.882   5.317   4.971
 3449SOL    HW211247   5.868   5.349   4.811
 3450SOL     OW11248   1.042   1.452   6.725
 3450SOL    HW111249   1.115   1.496   6.777
 3450SOL    HW211250   0.954   1.492   6.751
 3451SOL     OW11251   2.384   6.083   6.795
 3451SOL    HW111252   2.432   6.125   6.872
 3451SOL    HW211253   2.375   5.985   6.812
 3452SOL     OW11254   5.800   0.203   6.444
 3452SOL    HW111255   5.884   0.177   6.491
 3452SOL    HW211256   5.820   0.234   6.352
 3453SOL     OW11257   5.787   5.433   6.451
 3453SOL    HW111258   5.761   5.362   6.516
 3453SOL    HW211259   5.865   5.401   6.397
 3454SOL     OW11260   0.767   4.229   4.510
 3454SOL    HW111261   0.797   4.237   4.605
 3454SOL    HW211262   0.672   4.197   4.507
 3455SOL     OW11263   3.018   1.597   3.815
 3455SOL    HW111264   3.063   1.659   3.879
 3455SOL    HW211265   2.921   1.591   3.836
 3456SOL     OW11266   5.033   4.886   2.126
 3456SOL    HW111267   5.051   4.926   2.036
 3456SOL    HW211268   5.108   4.908   2.188
 3457SOL     OW11269   4.494   5.813   4.364
 3457SOL    HW111270   4.417   5.838   4.424
 3457SOL    HW211271   4.578   5.808   4.418
 3458SOL     OW11272   4.211   1.325   2.506
 3458SOL    HW111273   4.202   1.307   2.408
 3458SOL    HW211274   4.225   1.423   2.520
 3459SOL     OW11275   4.681   2.101   3.256
 3459SOL    HW111276   4.632   2.185   3.230
 3459SOL    HW211277   4.766   2.095   3.203
 3460SOL     OW11278   2.941   1.713   6.328
 3460SOL    HW111279   3.034   1.680   6.343
 3460SOL    HW211280   2.938   1.812   6.342
 3461SOL     OW11281   4.809   3.810   6.572
 3461SOL    HW111282   4.853   3.876   6.633
 3461SOL    HW211283   4.738   3.760   6.622
 3462SOL     OW11284   0.758   4.367   5.072
 3462SOL    HW111285   0.672   4.320   5.052
 3462SOL    HW211286   0.755   4.459   5.033
 3463SOL     OW11287   0.615   4.060   1.019
 3463SOL    HW111288   0.614   4.134   0.951
 3463SOL    HW211289   0.668   3.983   0.985
 3464SOL     OW11290   0.482   4.499   6.630
 3464SOL    HW111291   0.404   4.562   6.623
 3464SOL    HW211292   0.567   4.551   6.629
 3465SOL     OW11293   1.785   2.679   1.966
 3465SOL    HW111294   1.740   2.754   2.015
 3465SOL    HW211295   1.872   2.711   1.928
 3466SOL     OW11296   6.873   5.176   6.242
 3466SOL    HW111297   6.948   5.242   6.254
 3466SOL    HW211298   6.911   5.084   6.233
 3467SOL     OW11299   1.541   2.923   6.529
 3467SOL    HW111300   1.589   2.941   6.443
 3467SOL    HW211301   1.568   2.833   6.564
 3468SOL     OW11302   3.846   6.254   2.644
 3468SOL    HW111303   3.891   6.176   2.599
 3468SOL    HW211304   3.909   6.295   2.710
 3469SOL     OW11305   6.087   1.649   2.900
 3469SOL    HW111306   5.988   1.661   2.905
 3469SOL    HW211307   6.112   1.560   2.938
 3470SOL     OW11308   6.701   4.586   0.845
 3470SOL    HW111309   6.655   4.549   0.765
 3470SOL    HW211310   6.700   4.686   0.842
 3471SOL     OW11311   3.981   5.145   4.793
 3471SOL    HW111312   4.000   5.056   4.752
 3471SOL    HW211313   3.938   5.205   4.726
 3472SOL     OW11314   2.161   0.806   2.727
 3472SOL    HW111315   2.168   0.906   2.724
 3472SOL    HW211316   2.094   0.779   2.796
 3473SOL     OW11317   6.488   1.385   6.437
 3473SOL    HW111318   6.484   1.469   6.491
 3473SOL    HW211319   6.543   1.401   6.354
 3474SOL     OW11320   2.971   5.208   2.348
 3474SOL    HW111321   3.038   5.134   2.344
 3474SOL    HW211322   2.907   5.191   2.423
 3475SOL     OW11323   1.267   6.281   4.272
 3475SOL    HW111324   1.246   6.365   4.221
 3475SOL    HW211325   1.223   6.203   4.227
 3476SOL     OW11326   3.251   1.091   3.175
 3476SOL    HW111327   3.345   1.123   3.179
 3476SOL    HW211328   3.189   1.170   3.175
 3477SOL     OW11329   3.117   5.799   1.608
 3477SOL    HW111330   3.161   5.860   1.674
 3477SOL    HW211331   3.174   5.718   1.594
 3478SOL     OW11332   2.791   5.526   5.950
 3478SOL    HW111333   2.776   5.485   5.860
 3478SOL    HW211334   2.829   5.457   6.012
 3479SOL     OW11335   0.800   0.429   3.438
 3479SOL    HW111336   0.762   0.340   3.412
 3479SOL    HW211337   0.900   0.422   3.445
 3480SOL     OW11338   6.625   0.268   4.557
 3480SOL    HW111339   6.688   0.256   4.481
 3480SOL    HW211340   6.605   0.179   4.598
 3481SOL     OW11341   4.659   0.340   6.851
 3481SOL    HW111342   4.566   0.304   6.847
 3481SOL    HW211343   4.717   0.279   6.904
 3482SOL     OW11344   5.795   1.289   0.632
 3482SOL    HW111345   5.751   1.377   0.616
 3482SOL    HW211346   5.867   1.299   0.700
 3483SOL     OW11347   3.574   0.782   1.510
 3483SOL    HW111348   3.659   0.760   1.559
 3483SOL    HW211349   3.500   0.727   1.547
 3484SOL     OW11350   3.018   3.638   1.890
 3484SOL    HW111351   3.090   3.590   1.841
 3484SOL    HW211352   2.993   3.721   1.841
 3485SOL     OW11353   1.141   0.653   4.784
 3485SOL    HW111354   1.169   0.560   4.760
 3485SOL    HW211355   1.152   0.667   4.883
 3486SOL     OW11356   3.056   1.536   2.447
 3486SOL    HW111357   3.110   1.522   2.364
 3486SOL    HW211358   2.958   1.537   2.423
 3487SOL     OW11359   6.401   2.009   6.060
 3487SOL    HW111360   6.410   1.913   6.084
 3487SOL    HW211361   6.435   2.066   6.135
 3488SOL     OW11362   5.802   3.155   3.998
 3488SOL    HW111363   5.761   3.142   3.908
 3488SOL    HW211364   5.900   3.135   3.993
 3489SOL     OW11365   2.433   6.559   0.845
 3489SOL    HW111366   2.448   6.606   0.758
 3489SOL    HW211367   2.452   6.461   0.834
 3490SOL     OW11368   4.335   4.090   6.726
 3490SOL    HW111369   4.377   4.159   6.785
 3490SOL    HW211370   4.241   4.073   6.757
 3491SOL     OW11371   5.942   3.156   4.396
 3491SOL    HW111372   6.023   3.122   4.445
 3491SOL    HW211373   5.972   3.216   4.321
 3492SOL     OW11374   1.175   5.800   0.539
 3492SOL    HW111375   1.095   5.859   0.539
 3492SOL    HW211376   1.215   5.796   0.631
 3493SOL     OW11377   6.618   5.444   6.920
 3493SOL    HW111378   6.532   5.493   6.916
 3493SOL    HW211379   6.619   5.373   6.850
 3494SOL     OW11380   4.058   0.163   1.438
 3494SOL    HW111381   4.008   0.118   1.364
 3494SOL    HW211382   4.097   0.093   1.499
 3495SOL     OW11383   4.222   4.873   2.388
 3495SOL    HW111384   4.209   4.803   2.458
 3495SOL    HW211385   4.161   4.855   2.311
 3496SOL     OW11386   0.539   2.930   1.483
 3496SOL    HW111387   0.616   2.868   1.491
 3496SOL    HW211388   0.534   2.987   1.566
 3497SOL     OW11389   4.062   0.065   2.884
 3497SOL    HW111390   4.034   0.031   2.795
 3497SOL    HW211391   4.071   0.164   2.881
 3498SOL     OW11392   2.443   2.337   0.599
 3498SOL    HW111393   2.445   2.319   0.501
 3498SOL    HW211394   2.501   2.271   0.646
 3499SOL     OW11395   5.372   2.770   4.537
 3499SOL    HW111396   5.433   2.726   4.471
 3499SOL    HW211397   5.343   2.704   4.606
 3500SOL     OW11398   0.281   4.255   5.425
 3500SOL    HW111399   0.332   4.252   5.338
 3500SOL    HW211400   0.335   4.305   5.493
 3501SOL     OW11401   0.431   5.035   4.095
 3501SOL    HW111402   0.385   5.117   4.063
 3501SOL    HW211403   0.401   4.957   4.041
 3502SOL     OW11404   6.871   2.468   2.289
 3502SOL    HW111405   6.916   2.545   2.244
 3502SOL    HW211406   6.776   2.462   2.259
 3503SOL     OW11407   5.466   5.736   5.596
 3503SOL    HW111408   5.448   5.734   5.695
 3503SOL    HW211409   5.503   5.825   5.571
 3504SOL     OW11410   2.902   3.113   1.547
 3504SOL    HW111411   3.000   3.131   1.545
 3504SOL    HW211412   2.882   3.030   1.494
 3505SOL     OW11413   5.927   5.336   5.127
 3505SOL    HW111414   5.857   5.324   5.197
 3505SOL    HW211415   6.011   5.288   5.155
 3506SOL     OW11416   4.193   5.668   5.243
 3506SOL    HW111417   4.132   5.623   5.177
 3506SOL    HW211418   4.287   5.638   5.227
 3507SOL     OW11419   1.808   0.668   6.972
 3507SOL    HW111420   1.711   0.686   6.952
 3507SOL    HW211421   1.823   0.570   6.976
 3508SOL     OW11422   4.085   2.603   5.987
 3508SOL    HW111423   3.996   2.619   5.945
 3508SOL    HW211424   4.085   2.514   6.033
 3509SOL     OW11425   5.383   6.133   6.485
 3509SOL    HW111426   5.481   6.121   6.471
 3509SOL    HW211427   5.342   6.172   6.403
 3510SOL     OW11428   1.785   3.139   1.448
 3510SOL    HW111429   1.873   3.103   1.416
 3510SOL    HW211430   1.724   3.152   1.370
 3511SOL     OW11431   1.984   4.304   6.960
 3511SOL    HW111432   2.025   4.348   0.015
 3511SOL    HW211433   1.894   4.268   6.985
 3512SOL     OW11434   0.726   4.516   0.432
 3512SOL    HW111435   0.759   4.564   0.513
 3512SOL    HW211436   0.804   4.489   0.375
 3513SOL     OW11437   6.074   4.661   0.905
 3513SOL    HW111438   6.121   4.728   0.961
 3513SOL    HW211439   6.064   4.575   0.956
 3514SOL     OW11440   0.742   0.893   1.936
 3514SOL    HW111441   0.689   0.901   2.020
 3514SOL    HW211442   0.680   0.874   1.859
 3515SOL     OW11443   3.900   6.483   2.457
 3515SOL    HW111444   3.877   6.421   2.532
 3515SOL    HW211445   3.994   6.516   2.468
 3516SOL     OW11446   4.260   0.820   1.423
 3516SOL    HW111447   4.227   0.859   1.336
 3516SOL    HW211448   4.296   0.894   1.480
 3517SOL     OW11449   0.380   1.974   6.955
 3517SOL    HW111450   0.394   1.881   6.919
 3517SOL    HW211451   0.452   1.995   7.021
 3518SOL     OW11452   5.045   3.990   5.515
 3518SOL    HW111453   4.993   3.995   5.600
 3518SOL    HW211454   4.983   3.989   5.437
 3519SOL     OW11455   1.841   0.573   6.632
 3519SOL    HW111456   1.742   0.576   6.648
 3519SOL    HW211457   1.882   0.505   6.693
 3520SOL     OW11458   3.700   4.442   1.051
 3520SOL    HW111459   3.795   4.439   1.085
 3520SOL    HW211460   3.653   4.357   1.075
 3521SOL     OW11461   5.560   2.928   1.803
 3521SOL    HW111462   5.555   2.852   1.869
 3521SOL    HW211463   5.475   2.980   1.806
 3522SOL     OW11464   3.430   5.831   2.094
 3522SOL    HW111465   3.524   5.798   2.091
 3522SOL    HW211466   3.429   5.931   2.097
 3523SOL     OW11467   3.117   4.387   5.607
 3523SOL    HW111468   3.127   4.466   5.546
 3523SOL    HW211469   3.197   4.382   5.667
 3524SOL     OW11470   2.417   0.244   1.175
 3524SOL    HW111471   2.367   0.297   1.243
 3524SOL    HW211472   2.514   0.239   1.200
 3525SOL     OW11473   0.688   3.613   1.768
 3525SOL    HW111474   0.712   3.608   1.865
 3525SOL    HW211475   0.588   3.608   1.759
 3526SOL     OW11476   1.354   0.266   3.758
 3526SOL    HW111477   1.371   0.339   3.824
 3526SOL    HW211478   1.343   0.179   3.806
 3527SOL     OW11479   5.671   2.735   5.503
 3527SOL    HW111480   5.684   2.742   5.404
 3527SOL    HW211481   5.636   2.645   5.527
 3528SOL     OW11482   1.119   5.841   3.354
 3528SOL    HW111483   1.091   5.749   3.327
 3528SOL    HW211484   1.192   5.836   3.421
 3529SOL     OW11485   3.864   0.025   5.971
 3529SOL    HW111486   3.912   0.113   5.964
 3529SOL    HW211487   3.858   7.007   5.880
 3530SOL     OW11488   1.702   5.064   2.664
 3530SOL    HW111489   1.621   5.025   2.708
 3530SOL    HW211490   1.750   5.123   2.729
 3531SOL     OW11491   5.119   4.264   0.933
 3531SOL    HW111492   5.181   4.191   0.904
 3531SOL    HW211493   5.172   4.341   0.969
 3532SOL     OW11494   3.272   0.392   0.324
 3532SOL    HW111495   3.236   0.357   0.410
 3532SOL    HW211496   3.327   0.321   0.279
 3533SOL     OW11497   1.206   2.143   3.582
 3533SOL    HW111498   1.152   2.118   3.501
 3533SOL    HW211499   1.256   2.063   3.615
 3534SOL     OW11500   5.586   1.328   5.331
 3534SOL    HW111501   5.635   1.412   5.351
 3534SOL    HW211502   5.623   1.253   5.387
 3535SOL     OW11503   6.985   5.775   0.676
 3535SOL    HW111504   6.916   5.712   0.641
 3535SOL    HW211505   7.022   5.829   0.600
 3536SOL     OW11506   2.236   2.991   3.712
 3536SOL    HW111507   2.278   2.911   3.754
 3536SOL    HW211508   2.185   3.042   3.781
 3537SOL     OW11509   2.676   4.351   0.715
 3537SOL    HW111510   2.672   4.420   0.642
 3537SOL    HW211511   2.588   4.305   0.722
 3538SOL     OW11512   3.002   0.643   3.994
 3538SOL    HW111513   2.951   0.610   4.073
 3538SOL    HW211514   2.940   0.689   3.931
 3539SOL     OW11515   5.905   3.363   5.815
 3539SOL    HW111516   5.975   3.434   5.814
 3539SOL    HW211517   5.865   3.354   5.724
 3540SOL     OW11518   2.279   1.890   6.208
 3540SOL    HW111519   2.241   1.908   6.117
 3540SOL    HW211520   2.378   1.891   6.203
 3541SOL     OW11521   2.515   2.942   6.895
 3541SOL    HW111522   2.553   2.887   6.821
 3541SOL    HW211523   2.442   2.891   6.940
 3542SOL     OW11524   5.693   2.723   0.542
 3542SOL    HW111525   5.789   2.751   0.533
 3542SOL    HW211526   5.652   2.716   0.451
 3543SOL     OW11527   1.711   3.170   3.753
 3543SOL    HW111528   1.677   3.237   3.688
 3543SOL    HW211529   1.681   3.078   3.726
 3544SOL     OW11530   2.247   4.531   6.488
 3544SOL    HW111531   2.196   4.458   6.534
 3544SOL    HW211532   2.195   4.563   6.409
 3545SOL     OW11533   4.006   4.611   0.477
 3545SOL    HW111534   4.048   4.634   0.390
 3545SOL    HW211535   3.911   4.586   0.463
 3546SOL     OW11536   6.745   4.938   2.935
 3546SOL    HW111537   6.665   4.995   2.950
 3546SOL    HW211538   6.782   4.954   2.844
 3547SOL     OW11539   6.841   4.485   5.252
 3547SOL    HW111540   6.825   4.440   5.340
 3547SOL    HW211541   6.847   4.416   5.180
 3548SOL     OW11542   5.596   0.604   5.110
 3548SOL    HW111543   5.520   0.558   5.064
 3548SOL    HW211544   5.565   0.693   5.145
 3549SOL     OW11545   2.000   4.654   5.452
 3549SOL    HW111546   2.099   4.635   5.453
 3549SOL    HW211547   1.974   4.682   5.359
 3550SOL     OW11548   5.599   3.006   4.246
 3550SOL    HW111549   5.532   3.055   4.190
 3550SOL    HW211550   5.686   3.002   4.198
 3551SOL     OW11551   3.343   1.918   5.152
 3551SOL    HW111552   3.344   2.010   5.189
 3551SOL    HW211553   3.375   1.919   5.057
 3552SOL     OW11554   5.775   5.400   2.060
 3552SOL    HW111555   5.727   5.486   2.077
 3552SOL    HW211556   5.725   5.347   1.991
 3553SOL     OW11557   3.642   4.929   5.965
 3553SOL    HW111558   3.548   4.902   5.990
 3553SOL    HW211559   3.697   4.848   5.949
 3554SOL     OW11560   4.785   3.313   0.268
 3554SOL    HW111561   4.813   3.268   0.183
 3554SOL    HW211562   4.866   3.343   0.319
 3555SOL     OW11563   1.882   1.686   4.469
 3555SOL    HW111564   1.925   1.774   4.451
 3555SOL    HW211565   1.819   1.663   4.394
 3556SOL     OW11566   3.873   1.036   3.535
 3556SOL    HW111567   3.805   1.010   3.603
 3556SOL    HW211568   3.835   1.105   3.474
 3557SOL     OW11569   1.310   0.123   3.500
 3557SOL    HW111570   1.337   0.160   3.588
 3557SOL    HW211571   1.253   0.189   3.451
 3558SOL     OW11572   2.962   4.769   1.293
 3558SOL    HW111573   2.952   4.802   1.199
 3558SOL    HW211574   2.875   4.778   1.341
 3559SOL     OW11575   1.592   6.132   4.441
 3559SOL    HW111576   1.691   6.148   4.450
 3559SOL    HW211577   1.563   6.157   4.349
 3560SOL     OW11578   2.131   4.999   3.355
 3560SOL    HW111579   2.186   5.029   3.277
 3560SOL    HW211580   2.107   5.078   3.411
 3561SOL     OW11581   5.166   4.826   5.713
 3561SOL    HW111582   5.143   4.738   5.672
 3561SOL    HW211583   5.145   4.900   5.649
 3562SOL     OW11584   3.369   1.892   4.285
 3562SOL    HW111585   3.436   1.828   4.246
 3562SOL    HW211586   3.354   1.871   4.381
 3563SOL     OW11587   6.156   1.866   6.024
 3563SOL    HW111588   6.249   1.852   6.058
 3563SOL    HW211589   6.117   1.948   6.067
 3564SOL     OW11590   0.641   4.743   3.151
 3564SOL    HW111591   0.575   4.818   3.146
 3564SOL    HW211592   0.649   4.713   3.246
 3565SOL     OW11593   3.499   5.324   2.943
 3565SOL    HW111594   3.504   5.226   2.967
 3565SOL    HW211595   3.431   5.337   2.871
 3566SOL     OW11596   6.075   0.849   5.776
 3566SOL    HW111597   6.122   0.936   5.793
 3566SOL    HW211598   5.996   0.840   5.837
 3567SOL     OW11599   0.555   2.185   6.112
 3567SOL    HW111600   0.576   2.178   6.209
 3567SOL    HW211601   0.457   2.203   6.101
 3568SOL     OW11602   6.434   3.823   4.822
 3568SOL    HW111603   6.372   3.858   4.892
 3568SOL    HW211604   6.380   3.789   4.744
 3569SOL     OW11605   3.188   2.007   5.513
 3569SOL    HW111606   3.203   2.089   5.568
 3569SOL    HW211607   3.276   1.969   5.484
 3570SOL     OW11608   4.733   0.469   5.882
 3570SOL    HW111609   4.764   0.389   5.831
 3570SOL    HW211610   4.799   0.490   5.955
 3571SOL     OW11611   0.339   5.271   0.140
 3571SOL    HW111612   0.332   5.269   0.040
 3571SOL    HW211613   0.398   5.197   0.171
 3572SOL     OW11614   5.442   4.081   3.436
 3572SOL    HW111615   5.415   3.996   3.390
 3572SOL    HW211616   5.489   4.140   3.370
 3573SOL     OW11617   0.360   4.500   3.822
 3573SOL    HW111618   0.311   4.477   3.738
 3573SOL    HW211619   0.441   4.441   3.830
 3574SOL     OW11620   0.138   4.761   0.394
 3574SOL    HW111621   0.060   4.722   0.344
 3574SOL    HW211622   0.220   4.757   0.337
 3575SOL     OW11623   5.684   4.558   2.744
 3575SOL    HW111624   5.673   4.588   2.839
 3575SOL    HW211625   5.645   4.466   2.734
 3576SOL     OW11626   2.325   1.521   5.852
 3576SOL    HW111627   2.344   1.513   5.754
 3576SOL    HW211628   2.395   1.579   5.895
 3577SOL     OW11629   1.036   3.555   5.948
 3577SOL    HW111630   0.966   3.530   6.015
 3577SOL    HW211631   0.999   3.624   5.885
 3578SOL     OW11632   3.927   2.700   0.701
 3578SOL    HW111633   3.895   2.635   0.769
 3578SOL    HW211634   3.866   2.699   0.622
 3579SOL     OW11635   6.587   3.957   4.607
 3579SOL    HW111636   6.634   4.032   4.653
 3579SOL    HW211637   6.534   3.904   4.673
 3580SOL     OW11638   5.541   2.294   0.657
 3580SOL    HW111639   5.626   2.337   0.625
 3580SOL    HW211640   5.563   2.206   0.699
 3581SOL     OW11641   6.653   0.073   4.054
 3581SOL    HW111642   6.600   0.025   4.124
 3581SOL    HW211643   6.611   0.057   3.965
 3582SOL     OW11644   0.790   1.657   5.820
 3582SOL    HW111645   0.879   1.686   5.854
 3582SOL    HW211646   0.741   1.735   5.781
 3583SOL     OW11647   1.328   3.900   6.579
 3583SOL    HW111648   1.313   3.915   6.481
 3583SOL    HW211649   1.278   3.819   6.608
 3584SOL     OW11650   6.064   5.601   0.273
 3584SOL    HW111651   5.979   5.609   0.221
 3584SOL    HW211652   6.094   5.506   0.273
 3585SOL     OW11653   3.890   5.512   5.348
 3585SOL    HW111654   3.895   5.610   5.331
 3585SOL    HW211655   3.797   5.480   5.329
 3586SOL     OW11656   0.251   2.308   5.123
 3586SOL    HW111657   0.342   2.311   5.163
 3586SOL    HW211658   0.245   2.231   5.060
 3587SOL     OW11659   2.838   4.904   6.501
 3587SOL    HW111660   2.752   4.902   6.553
 3587SOL    HW211661   2.904   4.843   6.544
 3588SOL     OW11662   1.022   2.661   4.569
 3588SOL    HW111663   0.976   2.675   4.481
 3588SOL    HW211664   0.985   2.579   4.613
 3589SOL     OW11665   4.239   1.664   4.310
 3589SOL    HW111666   4.275   1.715   4.231
 3589SOL    HW211667   4.140   1.669   4.310
 3590SOL     OW11668   0.339   3.642   5.850
 3590SOL    HW111669   0.350   3.566   5.915
 3590SOL    HW211670   0.314   3.725   5.900
 3591SOL     OW11671   5.241   3.393   5.946
 3591SOL    HW111672   5.314   3.366   5.883
 3591SOL    HW211673   5.281   3.428   6.031
 3592SOL     OW11674   6.383   4.302   2.779
 3592SOL    HW111675   6.286   4.282   2.794
 3592SOL    HW211676   6.393   4.362   2.699
 3593SOL     OW11677   2.102   5.883   4.164
 3593SOL    HW111678   2.019   5.865   4.217
 3593SOL    HW211679   2.080   5.940   4.086
 3594SOL     OW11680   4.164   0.771   2.790
 3594SOL    HW111681   4.251   0.737   2.754
 3594SOL    HW211682   4.096   0.772   2.717
 3595SOL     OW11683   2.496   5.449   6.151
 3595SOL    HW111684   2.468   5.415   6.241
 3595SOL    HW211685   2.583   5.409   6.126
 3596SOL     OW11686   6.261   2.441   2.955
 3596SOL    HW111687   6.312   2.356   2.969
 3596SOL    HW211688   6.263   2.466   2.858
 3597SOL     OW11689   2.033   6.869   5.065
 3597SOL    HW111690   2.120   6.873   5.114
 3597SOL    HW211691   1.978   6.950   5.089
 3598SOL     OW11692   1.400   6.305   6.146
 3598SOL    HW111693   1.452   6.247   6.084
 3598SOL    HW211694   1.459   6.336   6.221
 3599SOL     OW11695   0.597   1.865   5.788
 3599SOL    HW111696   0.634   1.923   5.861
 3599SOL    HW211697   0.497   1.872   5.788
 3600SOL     OW11698   1.343   3.635   0.113
 3600SOL    HW111699   1.355   3.639   0.014
 3600SOL    HW211700   1.248   3.654   0.137
 3601SOL     OW11701   6.257   4.314   0.322
 3601SOL    HW111702   6.305   4.250   0.262
 3601SOL    HW211703   6.169   4.275   0.349
 3602SOL     OW11704   1.487   1.991   0.573
 3602SOL    HW111705   1.421   2.019   0.643
 3602SOL    HW211706   1.523   1.900   0.595
 3603SOL     OW11707   3.462   6.322   3.854
 3603SOL    HW111708   3.419   6.317   3.944
 3603SOL    HW211709   3.560   6.340   3.864
 3604SOL     OW11710   0.075   5.135   3.934
 3604SOL    HW111711   0.111   5.141   3.841
 3604SOL    HW211712   0.072   5.039   3.963
 3605SOL     OW11713   5.351   4.312   5.342
 3605SOL    HW111714   5.346   4.370   5.261
 3605SOL    HW211715   5.380   4.366   5.420
 3606SOL     OW11716   6.866   5.700   5.855
 3606SOL    HW111717   6.769   5.723   5.852
 3606SOL    HW211718   6.920   5.782   5.876
 3607SOL     OW11719   5.247   6.381   0.985
 3607SOL    HW111720   5.213   6.452   0.924
 3607SOL    HW211721   5.184   6.303   0.984
 3608SOL     OW11722   6.784   1.842   2.739
 3608SOL    HW111723   6.815   1.846   2.644
 3608SOL    HW211724   6.853   1.886   2.798
 3609SOL     OW11725   0.325   0.490   4.232
 3609SOL    HW111726   0.230   0.480   4.263
 3609SOL    HW211727   0.387   0.470   4.307
 3610SOL     OW11728   1.195   0.198   5.647
 3610SOL    HW111729   1.269   0.136   5.675
 3610SOL    HW211730   1.228   0.292   5.651
 3611SOL     OW11731   4.070   6.234   5.987
 3611SOL    HW111732   4.072   6.184   5.900
 3611SOL    HW211733   4.128   6.315   5.979
 3612SOL     OW11734   5.978   0.404   5.957
 3612SOL    HW111735   5.917   0.329   5.935
 3612SOL    HW211736   5.949   0.487   5.909
 3613SOL     OW11737   4.535   5.206   1.979
 3613SOL    HW111738   4.543   5.237   2.074
 3613SOL    HW211739   4.610   5.243   1.925
 3614SOL     OW11740   3.451   3.599   2.682
 3614SOL    HW111741   3.542   3.571   2.714
 3614SOL    HW211742   3.435   3.563   2.590
 3615SOL     OW11743   5.176   6.122   0.242
 3615SOL    HW111744   5.108   6.122   0.168
 3615SOL    HW211745   5.243   6.050   0.226
 3616SOL     OW11746   6.946   2.563   6.092
 3616SOL    HW111747   6.936   2.468   6.123
 3616SOL    HW211748   6.990   2.564   6.003
 3617SOL     OW11749   4.936   0.613   6.963
 3617SOL    HW111750   5.001   0.577   0.006
 3617SOL    HW211751   4.984   0.630   6.877
 3618SOL     OW11752   2.119   1.875   4.843
 3618SOL    HW111753   2.028   1.866   4.805
 3618SOL    HW211754   2.169   1.789   4.831
 3619SOL     OW11755   6.450   3.412   4.228
 3619SOL    HW111756   6.543   3.436   4.201
 3619SOL    HW211757   6.441   3.312   4.231
 3620SOL     OW11758   6.309   6.229   6.508
 3620SOL    HW111759   6.313   6.326   6.533
 3620SOL    HW211760   6.370   6.213   6.429
 3621SOL     OW11761   3.123   2.547   5.583
 3621SOL    HW111762   3.177   2.534   5.666
 3621SOL    HW211763   3.164   2.621   5.529
 3622SOL     OW11764   2.009   2.485   4.249
 3622SOL    HW111765   1.976   2.495   4.155
 3622SOL    HW211766   1.983   2.395   4.284
 3623SOL     OW11767   6.483   5.669   4.160
 3623SOL    HW111768   6.565   5.707   4.117
 3623SOL    HW211769   6.402   5.714   4.123
 3624SOL     OW11770   1.008   6.591   2.362
 3624SOL    HW111771   1.067   6.662   2.325
 3624SOL    HW211772   0.922   6.588   2.311
 3625SOL     OW11773   5.166   3.841   6.811
 3625SOL    HW111774   5.137   3.879   6.723
 3625SOL    HW211775   5.176   3.742   6.803
 3626SOL     OW11776   1.224   3.720   5.422
 3626SOL    HW111777   1.291   3.763   5.483
 3626SOL    HW211778   1.156   3.671   5.476
 3627SOL     OW11779   3.326   2.880   3.572
 3627SOL    HW111780   3.416   2.922   3.561
 3627SOL    HW211781   3.306   2.824   3.492
 3628SOL     OW11782   1.217   0.206   1.823
 3628SOL    HW111783   1.286   0.141   1.857
 3628SOL    HW211784   1.238   0.297   1.857
 3629SOL     OW11785   6.719   2.235   4.250
 3629SOL    HW111786   6.818   2.235   4.266
 3629SOL    HW211787   6.697   2.172   4.176
 3630SOL     OW11788   5.067   2.676   3.141
 3630SOL    HW111789   5.005   2.752   3.118
 3630SOL    HW211790   5.018   2.611   3.200
 3631SOL     OW11791   2.080   0.204   3.711
 3631SOL    HW111792   2.008   0.252   3.662
 3631SOL    HW211793   2.155   0.267   3.730
 3632SOL     OW11794   4.720   6.753   0.986
 3632SOL    HW111795   4.656   6.686   0.947
 3632SOL    HW211796   4.710   6.840   0.939
 3633SOL     OW11797   3.234   1.662   5.693
 3633SOL    HW111798   3.290   1.723   5.637
 3633SOL    HW211799   3.209   1.709   5.778
 3634SOL     OW11800   0.696   5.509   4.530
 3634SOL    HW111801   0.656   5.453   4.602
 3634SOL    HW211802   0.648   5.492   4.444
 3635SOL     OW11803   2.726   6.223   6.351
 3635SOL    HW111804   2.712   6.201   6.448
 3635SOL    HW211805   2.762   6.316   6.343
 3636SOL     OW11806   0.268   5.513   6.611
 3636SOL    HW111807   0.352   5.560   6.585
 3636SOL    HW211808   0.191   5.552   6.561
 3637SOL     OW11809   5.906   1.733   1.519
 3637SOL    HW111810   5.950   1.651   1.555
 3637SOL    HW211811   5.936   1.812   1.572
 3638SOL     OW11812   0.196   4.789   4.533
 3638SOL    HW111813   0.226   4.695   4.548
 3638SOL    HW211814   0.271   4.851   4.556
 3639SOL     OW11815   3.457   4.441   1.492
 3639SOL    HW111816   3.516   4.388   1.553
 3639SOL    HW211817   3.414   4.379   1.426
 3640SOL     OW11818   3.227   0.877   0.151
 3640SOL    HW111819   3.182   0.810   0.211
 3640SOL    HW211820   3.316   0.843   0.123
 3641SOL     OW11821   4.858   3.243   4.205
 3641SOL    HW111822   4.827   3.155   4.242
 3641SOL    HW211823   4.910   3.228   4.121
 3642SOL     OW11824   4.779   0.901   0.655
 3642SOL    HW111825   4.852   0.842   0.619
 3642SOL    HW211826   4.692   0.852   0.652
 3643SOL     OW11827   3.388   5.905   4.657
 3643SOL    HW111828   3.351   5.908   4.565
 3643SOL    HW211829   3.342   5.834   4.710
 3644SOL     OW11830   6.233   1.537   1.566
 3644SOL    HW111831   6.254   1.616   1.623
 3644SOL    HW211832   6.141   1.503   1.587
 3645SOL     OW11833   6.949   2.725   4.142
 3645SOL    HW111834   6.953   2.664   4.221
 3645SOL    HW211835   6.910   2.675   4.064
 3646SOL     OW11836   6.032   4.040   6.769
 3646SOL    HW111837   6.007   3.966   6.831
 3646SOL    HW211838   6.101   4.007   6.704
 3647SOL     OW11839   2.098   3.272   0.185
 3647SOL    HW111840   2.190   3.310   0.177
 3647SOL    HW211841   2.044   3.301   0.106
 3648SOL     OW11842   3.055   4.918   2.852
 3648SOL    HW111843   2.975   4.978   2.858
 3648SOL    HW211844   3.063   4.881   2.760
 3649SOL     OW11845   5.152   3.278   2.209
 3649SOL    HW111846   5.231   3.286   2.149
 3649SOL    HW211847   5.068   3.277   2.154
 3650SOL     OW11848   0.159   4.729   0.999
 3650SOL    HW111849   0.094   4.795   0.965
 3650SOL    HW211850   0.250   4.750   0.964
 3651SOL     OW11851   0.690   0.002   3.968
 3651SOL    HW111852   0.694   0.100   3.987
 3651SOL    HW211853   0.740   6.977   4.039
 3652SOL     OW11854   5.934   6.053   3.126
 3652SOL    HW111855   5.956   5.992   3.202
 3652SOL    HW211856   5.876   6.128   3.159
 3653SOL     OW11857   0.530   1.342   4.446
 3653SOL    HW111858   0.478   1.354   4.362
 3653SOL    HW211859   0.628   1.346   4.427
 3654SOL     OW11860   2.555   5.533   0.424
 3654SOL    HW111861   2.625   5.604   0.426
 3654SOL    HW211862   2.545   5.499   0.330
 3655SOL     OW11863   2.325   6.890   3.401
 3655SOL    HW111864   2.315   6.828   3.479
 3655SOL    HW211865   2.405   6.864   3.347
 3656SOL     OW11866   0.958   3.444   1.856
 3656SOL    HW111867   0.869   3.440   1.903
 3656SOL    HW211868   1.030   3.418   1.919
 3657SOL     OW11869   4.906   5.151   6.245
 3657SOL    HW111870   4.976   5.104   6.299
 3657SOL    HW211871   4.911   5.119   6.150
 3658SOL     OW11872   1.573   5.934   4.656
 3658SOL    HW111873   1.578   6.001   4.582
 3658SOL    HW211874   1.624   5.969   4.735
 3659SOL     OW11875   2.023   3.183   5.387
 3659SOL    HW111876   1.942   3.190   5.329
 3659SOL    HW211877   2.090   3.122   5.344
 3660SOL     OW11878   4.582   0.201   2.918
 3660SOL    HW111879   4.498   0.152   2.941
 3660SOL    HW211880   4.637   0.145   2.856
 3661SOL     OW11881   5.352   1.096   6.118
 3661SOL    HW111882   5.392   1.131   6.034
 3661SOL    HW211883   5.254   1.083   6.106
 3662SOL     OW11884   4.212   0.590   3.810
 3662SOL    HW111885   4.143   0.657   3.836
 3662SOL    HW211886   4.296   0.606   3.863
 3663SOL     OW11887   1.416   2.605   0.654
 3663SOL    HW111888   1.476   2.569   0.725
 3663SOL    HW211889   1.321   2.579   0.674
 3664SOL     OW11890   4.928   1.774   2.289
 3664SOL    HW111891   4.922   1.859   2.341
 3664SOL    HW211892   5.015   1.771   2.239
 3665SOL     OW11893   1.828   5.867   5.404
 3665SOL    HW111894   1.777   5.939   5.358
 3665SOL    HW211895   1.765   5.810   5.457
 3666SOL     OW11896   1.198   4.003   3.358
 3666SOL    HW111897   1.171   4.077   3.419
 3666SOL    HW211898   1.120   3.976   3.302
 3667SOL     OW11899   0.086   1.288   1.841
 3667SOL    HW111900   0.032   1.208   1.813
 3667SOL    HW211901   0.175   1.286   1.796
 3668SOL     OW11902   1.491   1.466   2.216
 3668SOL    HW111903   1.574   1.468   2.160
 3668SOL    HW211904   1.499   1.532   2.291
 3669SOL     OW11905   5.493   1.562   3.245
 3669SOL    HW111906   5.486   1.463   3.235
 3669SOL    HW211907   5.584   1.592   3.215
 3670SOL     OW11908   2.432   4.617   0.480
 3670SOL    HW111909   2.525   4.596   0.450
 3670SOL    HW211910   2.434   4.692   0.546
 3671SOL     OW11911   5.938   0.258   4.109
 3671SOL    HW111912   5.936   0.284   4.013
 3671SOL    HW211913   5.974   0.165   4.117
 3672SOL     OW11914   5.694   2.327   1.486
 3672SOL    HW111915   5.597   2.304   1.484
 3672SOL    HW211916   5.705   2.426   1.476
 3673SOL     OW11917   4.205   6.682   6.686
 3673SOL    HW111918   4.302   6.701   6.702
 3673SOL    HW211919   4.171   6.619   6.756
 3674SOL     OW11920   0.895   7.007   5.081
 3674SOL    HW111921   0.828   7.015   5.007
 3674SOL    HW211922   0.975   0.039   5.060
 3675SOL     OW11923   1.723   3.423   4.879
 3675SOL    HW111924   1.644   3.457   4.827
 3675SOL    HW211925   1.737   3.326   4.858
 3676SOL     OW11926   5.258   4.709   4.512
 3676SOL    HW111927   5.178   4.669   4.468
 3676SOL    HW211928   5.238   4.728   4.608
 3677SOL     OW11929   1.881   6.121   2.889
 3677SOL    HW111930   1.973   6.158   2.901
 3677SOL    HW211931   1.815   6.196   2.894
 3678SOL     OW11932   0.095   2.480   5.028
 3678SOL    HW111933   0.121   2.491   4.931
 3678SOL    HW211934   0.148   2.405   5.068
 3679SOL     OW11935   1.402   0.784   2.692
 3679SOL    HW111936   1.342   0.724   2.639
 3679SOL    HW211937   1.474   0.820   2.632
 3680SOL     OW11938   5.386   2.156   3.704
 3680SOL    HW111939   5.312   2.219   3.678
 3680SOL    HW211940   5.361   2.063   3.679
 3681SOL     OW11941   0.189   0.333   5.586
 3681SOL    HW111942   0.155   0.241   5.566
 3681SOL    HW211943   0.125   0.380   5.646
 3682SOL     OW11944   5.941   2.377   6.959
 3682SOL    HW111945   6.012   2.436   6.920
 3682SOL    HW211946   5.870   2.362   6.890
 3683SOL     OW11947   0.239   6.965   3.157
 3683SOL    HW111948   0.186   0.015   3.198
 3683SOL    HW211949   0.209   6.951   3.063
 3684SOL     OW11950   1.767   4.917   6.951
 3684SOL    HW111951   1.787   4.893   0.021
 3684SOL    HW211952   1.679   4.963   6.946
 3685SOL     OW11953   6.602   6.421   6.446
 3685SOL    HW111954   6.577   6.332   6.409
 3685SOL    HW211955   6.528   6.455   6.505
 3686SOL     OW11956   5.867   6.096   3.583
 3686SOL    HW111957   5.774   6.110   3.617
 3686SOL    HW211958   5.869   6.015   3.525
 3687SOL     OW11959   3.749   5.942   5.002
 3687SOL    HW111960   3.682   5.902   5.064
 3687SOL    HW211961   3.704   5.970   4.917
 3688SOL     OW11962   6.366   3.685   6.855
 3688SOL    HW111963   6.293   3.679   6.922
 3688SOL    HW211964   6.352   3.766   6.797
 3689SOL     OW11965   2.171   0.611   6.650
 3689SOL    HW111966   2.082   0.643   6.683
 3689SOL    HW211967   2.174   0.511   6.653
 3690SOL     OW11968   5.014   6.291   0.618
 3690SOL    HW111969   5.026   6.321   0.524
 3690SOL    HW211970   4.941   6.222   0.622
 3691SOL     OW11971   3.258   2.957   0.142
 3691SOL    HW111972   3.347   2.916   0.163
 3691SOL    HW211973   3.186   2.894   0.172
 3692SOL     OW11974   0.471   5.714   4.999
 3692SOL    HW111975   0.559   5.735   4.956
 3692SOL    HW211976   0.484   5.701   5.097
 3693SOL     OW11977   1.923   2.853   2.847
 3693SOL    HW111978   1.924   2.814   2.939
 3693SOL    HW211979   1.997   2.812   2.793
 3694SOL     OW11980   1.284   5.523   3.060
 3694SOL    HW111981   1.270   5.511   3.158
 3694SOL    HW211982   1.301   5.434   3.018
 3695SOL     OW11983   6.878   3.251   1.733
 3695SOL    HW111984   6.952   3.316   1.717
 3695SOL    HW211985   6.916   3.158   1.735
 3696SOL     OW11986   3.534   5.344   5.387
 3696SOL    HW111987   3.544   5.382   5.479
 3696SOL    HW211988   3.558   5.415   5.320
 3697SOL     OW11989   0.165   6.237   2.910
 3697SOL    HW111990   0.252   6.197   2.882
 3697SOL    HW211991   0.147   6.319   2.855
 3698SOL     OW11992   2.351   0.632   4.843
 3698SOL    HW111993   2.307   0.703   4.788
 3698SOL    HW211994   2.289   0.555   4.854
 3699SOL     OW11995   0.742   3.107   3.768
 3699SOL    HW111996   0.684   3.054   3.830
 3699SOL    HW211997   0.787   3.180   3.819
 3700SOL     OW11998   0.410   0.038   5.031
 3700SOL    HW111999   0.333   0.053   5.092
 3700SOL    HW212000   0.479   0.110   5.047
 3701SOL     OW12001   1.560   0.462   4.073
 3701SOL    HW112002   1.543   0.546   4.021
 3701SOL    HW212003   1.474   0.414   4.090
 3702SOL     OW12004   5.461   6.425   2.535
 3702SOL    HW112005   5.511   6.464   2.613
 3702SOL    HW212006   5.425   6.499   2.478
 3703SOL     OW12007   4.983   1.409   6.450
 3703SOL    HW112008   4.977   1.432   6.353
 3703SOL    HW212009   5.078   1.414   6.480
 3704SOL     OW12010   3.682   1.342   1.909
 3704SOL    HW112011   3.723   1.403   1.841
 3704SOL    HW212012   3.650   1.396   1.988
 3705SOL     OW12013   4.646   5.578   3.516
 3705SOL    HW112014   4.677   5.518   3.590
 3705SOL    HW212015   4.597   5.657   3.554
 3706SOL     OW12016   1.447   3.784   5.553
 3706SOL    HW112017   1.514   3.712   5.573
 3706SOL    HW212018   1.495   3.868   5.527
 3707SOL     OW12019   5.244   4.045   5.337
 3707SOL    HW112020   5.257   4.144   5.343
 3707SOL    HW212021   5.167   4.018   5.395
 3708SOL     OW12022   6.821   0.989   6.095
 3708SOL    HW112023   6.796   0.956   6.004
 3708SOL    HW212024   6.797   0.921   6.164
 3709SOL     OW12025   3.385   0.696   0.873
 3709SOL    HW112026   3.456   0.627   0.868
 3709SOL    HW212027   3.418   0.781   0.832
 3710SOL     OW12028   6.721   5.461   6.578
 3710SOL    HW112029   6.718   5.368   6.613
 3710SOL    HW212030   6.655   5.470   6.503
 3711SOL     OW12031   0.712   0.221   3.723
 3711SOL    HW112032   0.804   0.199   3.690
 3711SOL    HW212033   0.649   0.148   3.696
 3712SOL     OW12034   7.017   6.106   6.904
 3712SOL    HW112035   6.970   6.174   6.849
 3712SOL    HW212036   0.036   6.039   6.845
 3713SOL     OW12037   1.385   6.492   5.087
 3713SOL    HW112038   1.305   6.551   5.086
 3713SOL    HW212039   1.359   6.402   5.122
 3714SOL     OW12040   4.692   5.798   5.692
 3714SOL    HW112041   4.706   5.892   5.660
 3714SOL    HW212042   4.594   5.780   5.700
 3715SOL     OW12043   6.050   4.104   2.773
 3715SOL    HW112044   6.010   4.073   2.687
 3715SOL    HW212045   6.104   4.031   2.814
 3716SOL     OW12046   6.537   6.737   5.387
 3716SOL    HW112047   6.469   6.806   5.363
 3716SOL    HW212048   6.558   6.744   5.485
 3717SOL     OW12049   5.567   5.930   6.889
 3717SOL    HW112050   5.481   5.966   6.852
 3717SOL    HW212051   5.637   5.933   6.818
 3718SOL     OW12052   1.639   0.618   0.311
 3718SOL    HW112053   1.588   0.587   0.230
 3718SOL    HW212054   1.726   0.570   0.317
 3719SOL     OW12055   5.338   4.633   0.730
 3719SOL    HW112056   5.261   4.694   0.710
 3719SOL    HW212057   5.404   4.638   0.655
 3720SOL     OW12058   6.651   2.311   6.066
 3720SOL    HW112059   6.729   2.251   6.085
 3720SOL    HW212060   6.569   2.272   6.107
 3721SOL     OW12061   5.340   4.295   1.959
 3721SOL    HW112062   5.395   4.211   1.952
 3721SOL    HW212063   5.260   4.286   1.900
 3722SOL     OW12064   6.647   6.208   1.064
 3722SOL    HW112065   6.558   6.164   1.050
 3722SOL    HW212066   6.670   6.204   1.161
 3723SOL     OW12067   6.814   6.324   2.073
 3723SOL    HW112068   6.770   6.299   1.987
 3723SOL    HW212069   6.831   6.423   2.075
 3724SOL     OW12070   1.811   4.027   4.864
 3724SOL    HW112071   1.883   4.088   4.896
 3724SOL    HW212072   1.830   3.934   4.895
 3725SOL     OW12073   6.168   5.205   1.039
 3725SOL    HW112074   6.176   5.156   1.125
 3725SOL    HW212075   6.105   5.157   0.978
 3726SOL     OW12076   6.303   4.205   0.924
 3726SOL    HW112077   6.227   4.260   0.958
 3726SOL    HW212078   6.353   4.257   0.855
 3727SOL     OW12079   6.685   2.050   5.538
 3727SOL    HW112080   6.612   2.105   5.498
 3727SOL    HW212081   6.663   2.029   5.633
 3728SOL     OW12082   0.703   4.094   6.784
 3728SOL    HW112083   0.737   4.152   6.858
 3728SOL    HW212084   0.728   4.134   6.696
 3729SOL     OW12085   1.058   1.817   3.979
 3729SOL    HW112086   1.077   1.773   3.891
 3729SOL    HW212087   0.969   1.861   3.976
 3730SOL     OW12088   2.723   4.801   6.275
 3730SOL    HW112089   2.782   4.830   6.351
 3730SOL    HW212090   2.768   4.821   6.188
 3731SOL     OW12091   5.831   0.301   1.061
 3731SOL    HW112092   5.817   0.203   1.047
 3731SOL    HW212093   5.809   0.325   1.156
 3732SOL     OW12094   2.854   2.051   6.003
 3732SOL    HW112095   2.831   2.112   6.079
 3732SOL    HW212096   2.873   2.106   5.922
 3733SOL     OW12097   1.416   3.492   2.040
 3733SOL    HW112098   1.410   3.537   1.951
 3733SOL    HW212099   1.511   3.471   2.061
 3734SOL     OW12100   4.793   1.154   2.018
 3734SOL    HW112101   4.836   1.208   1.945
 3734SOL    HW212102   4.841   1.171   2.104
 3735SOL     OW12103   2.683   0.848   3.435
 3735SOL    HW112104   2.667   0.863   3.337
 3735SOL    HW212105   2.658   0.754   3.459
 3736SOL     OW12106   6.982   2.431   0.620
 3736SOL    HW112107   6.902   2.490   0.617
 3736SOL    HW212108   6.989   2.380   0.534
 3737SOL     OW12109   4.578   0.149   3.503
 3737SOL    HW112110   4.571   0.154   3.603
 3737SOL    HW212111   4.528   0.225   3.463
 3738SOL     OW12112   0.244   6.090   1.829
 3738SOL    HW112113   0.156   6.132   1.848
 3738SOL    HW212114   0.299   6.150   1.772
 3739SOL     OW12115   2.582   4.448   1.430
 3739SOL    HW112116   2.553   4.357   1.402
 3739SOL    HW212117   2.656   4.441   1.497
 3740SOL     OW12118   6.092   0.834   0.374
 3740SOL    HW112119   6.083   0.793   0.464
 3740SOL    HW212120   6.153   0.913   0.378
 3741SOL     OW12121   5.624   3.083   1.538
 3741SOL    HW112122   5.616   2.999   1.591
 3741SOL    HW212123   5.604   3.162   1.597
 3742SOL     OW12124   2.419   2.236   6.668
 3742SOL    HW112125   2.403   2.241   6.569
 3742SOL    HW212126   2.345   2.186   6.712
 3743SOL     OW12127   5.172   2.829   1.105
 3743SOL    HW112128   5.088   2.796   1.148
 3743SOL    HW212129   5.157   2.838   1.006
 3744SOL     OW12130   0.763   6.000   3.068
 3744SOL    HW112131   0.785   5.907   3.095
 3744SOL    HW212132   0.700   5.999   2.991
 3745SOL     OW12133   3.627   5.007   1.813
 3745SOL    HW112134   3.628   4.917   1.856
 3745SOL    HW212135   3.599   4.998   1.717
 3746SOL     OW12136   5.623   0.943   2.888
 3746SOL    HW112137   5.713   0.921   2.925
 3746SOL    HW212138   5.629   1.027   2.834
 3747SOL     OW12139   2.774   6.875   5.366
 3747SOL    HW112140   2.827   6.842   5.288
 3747SOL    HW212141   2.762   6.800   5.432
 3748SOL     OW12142   6.040   0.440   1.445
 3748SOL    HW112143   6.007   0.476   1.532
 3748SOL    HW212144   5.994   0.486   1.370
 3749SOL     OW12145   1.716   6.074   4.037
 3749SOL    HW112146   1.816   6.076   4.044
 3749SOL    HW212147   1.677   6.135   4.106
 3750SOL     OW12148   1.613   4.138   0.410
 3750SOL    HW112149   1.696   4.088   0.383
 3750SOL    HW212150   1.559   4.081   0.472
 3751SOL     OW12151   0.025   3.806   1.824
 3751SOL    HW112152   0.020   3.753   1.909
 3751SOL    HW212153   0.068   3.750   1.753
 3752SOL     OW12154   5.432   0.639   6.637
 3752SOL    HW112155   5.349   0.585   6.652
 3752SOL    HW212156   5.407   0.729   6.601
 3753SOL     OW12157   6.655   0.613   6.000
 3753SOL    HW112158   6.578   0.634   6.060
 3753SOL    HW212159   6.621   0.594   5.908
 3754SOL     OW12160   1.927   0.479   1.360
 3754SOL    HW112161   1.872   0.503   1.440
 3754SOL    HW212162   1.925   0.380   1.346
 3755SOL     OW12163   4.665   5.138   5.072
 3755SOL    HW112164   4.578   5.096   5.100
 3755SOL    HW212165   4.717   5.164   5.153
 3756SOL     OW12166   3.304   5.231   6.361
 3756SOL    HW112167   3.298   5.272   6.452
 3756SOL    HW212168   3.316   5.132   6.370
 3757SOL     OW12169   6.277   4.989   1.822
 3757SOL    HW112170   6.341   4.925   1.863
 3757SOL    HW212171   6.183   4.958   1.838
 3758SOL     OW12172   2.375   1.300   4.967
 3758SOL    HW112173   2.424   1.233   5.023
 3758SOL    HW212174   2.434   1.378   4.949
 3759SOL     OW12175   4.306   0.461   6.034
 3759SOL    HW112176   4.224   0.436   6.086
 3759SOL    HW212177   4.351   0.538   6.080
 3760SOL     OW12178   1.255   1.642   4.069
 3760SOL    HW112179   1.201   1.723   4.044
 3760SOL    HW212180   1.259   1.579   3.991
 3761SOL     OW12181   6.838   1.284   5.415
 3761SOL    HW112182   6.805   1.231   5.337
 3761SOL    HW212183   6.802   1.377   5.410
 3762SOL     OW12184   1.727   4.434   0.787
 3762SOL    HW112185   1.753   4.403   0.696
 3762SOL    HW212186   1.782   4.514   0.811
 3763SOL     OW12187   0.492   3.447   0.084
 3763SOL    HW112188   0.433   3.430   0.163
 3763SOL    HW212189   0.451   3.517   0.025
 3764SOL     OW12190   1.107   6.898   2.495
 3764SOL    HW112191   1.048   6.978   2.498
 3764SOL    HW212192   1.200   6.926   2.471
 3765SOL     OW12193   5.699   1.659   1.014
 3765SOL    HW112194   5.668   1.754   1.014
 3765SOL    HW212195   5.799   1.657   1.019
 3766SOL     OW12196   1.999   1.984   4.391
 3766SOL    HW112197   2.083   1.957   4.343
 3766SOL    HW212198   2.023   2.025   4.479
 3767SOL     OW12199   3.306   4.192   6.705
 3767SOL    HW112200   3.390   4.208   6.652
 3767SOL    HW212201   3.312   4.241   6.792
 3768SOL     OW12202   0.753   0.121   4.631
 3768SOL    HW112203   0.786   0.034   4.596
 3768SOL    HW212204   0.810   0.195   4.596
 3769SOL     OW12205   6.229   5.262   4.926
 3769SOL    HW112206   6.196   5.221   5.011
 3769SOL    HW212207   6.278   5.347   4.947
 3770SOL     OW12208   0.710   0.454   0.071
 3770SOL    HW112209   0.769   0.491   0.143
 3770SOL    HW212210   0.649   0.526   0.038
 3771SOL     OW12211   5.373   4.135   0.451
 3771SOL    HW112212   5.313   4.173   0.381
 3771SOL    HW212213   5.378   4.198   0.529
 3772SOL     OW12214   0.363   0.430   0.218
 3772SOL    HW112215   0.439   0.401   0.159
 3772SOL    HW212216   0.320   0.350   0.259
 3773SOL     OW12217   5.758   3.925   5.336
 3773SOL    HW112218   5.779   3.950   5.242
 3773SOL    HW212219   5.659   3.933   5.352
 3774SOL     OW12220   5.757   5.496   1.490
 3774SOL    HW112221   5.700   5.474   1.569
 3774SOL    HW212222   5.726   5.583   1.450
 3775SOL     OW12223   4.895   5.271   2.753
 3775SOL    HW112224   4.981   5.242   2.711
 3775SOL    HW212225   4.827   5.199   2.742
 3776SOL     OW12226   3.893   2.274   6.445
 3776SOL    HW112227   3.874   2.206   6.515
 3776SOL    HW212228   3.976   2.325   6.470
 3777SOL     OW12229   3.211   4.976   3.428
 3777SOL    HW112230   3.216   5.035   3.508
 3777SOL    HW212231   3.300   4.972   3.383
 3778SOL     OW12232   2.590   5.178   2.931
 3778SOL    HW112233   2.491   5.162   2.920
 3778SOL    HW212234   2.620   5.139   3.018
 3779SOL     OW12235   0.479   4.792   0.918
 3779SOL    HW112236   0.570   4.812   0.880
 3779SOL    HW212237   0.476   4.698   0.950
 3780SOL     OW12238   6.320   4.542   4.674
 3780SOL    HW112239   6.319   4.495   4.586
 3780SOL    HW212240   6.238   4.599   4.682
 3781SOL     OW12241   0.128   6.651   3.504
 3781SOL    HW112242   0.131   6.551   3.505
 3781SOL    HW212243   0.076   6.684   3.582
 3782SOL     OW12244   2.375   0.656   2.966
 3782SOL    HW112245   2.475   0.657   2.970
 3782SOL    HW212246   2.343   0.728   2.904
 3783SOL     OW12247   5.816   5.311   4.463
 3783SOL    HW112248   5.721   5.319   4.493
 3783SOL    HW212249   5.833   5.218   4.430
 3784SOL     OW12250   5.141   2.946   2.731
 3784SOL    HW112251   5.050   2.957   2.772
 3784SOL    HW212252   5.150   3.009   2.654
 3785SOL     OW12253   1.433   3.605   5.225
 3785SOL    HW112254   1.519   3.569   5.260
 3785SOL    HW212255   1.382   3.648   5.299
 3786SOL     OW12256   2.324   4.194   3.064
 3786SOL    HW112257   2.393   4.266   3.057
 3786SOL    HW212258   2.275   4.186   2.978
 3787SOL     OW12259   5.709   0.918   2.345
 3787SOL    HW112260   5.633   0.981   2.329
 3787SOL    HW212261   5.674   0.824   2.351
 3788SOL     OW12262   0.270   4.549   4.918
 3788SOL    HW112263   0.203   4.601   4.865
 3788SOL    HW212264   0.229   4.520   5.004
 3789SOL     OW12265   0.085   3.921   4.188
 3789SOL    HW112266   0.161   3.983   4.209
 3789SOL    HW212267   0.122   3.833   4.158
 3790SOL     OW12268   1.203   4.722   6.020
 3790SOL    HW112269   1.281   4.777   5.989
 3790SOL    HW212270   1.120   4.776   6.017
 3791SOL     OW12271   5.307   1.630   6.810
 3791SOL    HW112272   5.273   1.543   6.846
 3791SOL    HW212273   5.333   1.690   6.885
 3792SOL     OW12274   1.322   1.895   3.630
 3792SOL    HW112275   1.258   1.845   3.572
 3792SOL    HW212276   1.416   1.867   3.609
 3793SOL     OW12277   4.497   6.802   2.157
 3793SOL    HW112278   4.418   6.851   2.193
 3793SOL    HW212279   4.491   6.798   2.057
 3794SOL     OW12280   2.608   2.653   1.712
 3794SOL    HW112281   2.633   2.724   1.647
 3794SOL    HW212282   2.517   2.673   1.749
 3795SOL     OW12283   4.937   6.133   1.212
 3795SOL    HW112284   4.861   6.122   1.276
 3795SOL    HW212285   4.981   6.222   1.228
 3796SOL     OW12286   4.357   1.801   2.734
 3796SOL    HW112287   4.360   1.828   2.830
 3796SOL    HW212288   4.323   1.877   2.679
 3797SOL     OW12289   0.689   3.284   2.909
 3797SOL    HW112290   0.727   3.320   2.823
 3797SOL    HW212291   0.699   3.184   2.910
 3798SOL     OW12292   2.316   5.926   2.902
 3798SOL    HW112293   2.405   5.933   2.856
 3798SOL    HW212294   2.330   5.903   2.998
 3799SOL     OW12295   6.222   2.904   3.546
 3799SOL    HW112296   6.297   2.857   3.499
 3799SOL    HW212297   6.194   2.983   3.493
 3800SOL     OW12298   5.217   1.551   3.681
 3800SOL    HW112299   5.142   1.594   3.630
 3800SOL    HW212300   5.215   1.582   3.776
 3801SOL     OW12301   5.772   6.685   2.035
 3801SOL    HW112302   5.710   6.722   2.104
 3801SOL    HW212303   5.723   6.678   1.948
 3802SOL     OW12304   1.186   2.180   1.527
 3802SOL    HW112305   1.191   2.080   1.526
 3802SOL    HW212306   1.208   2.216   1.437
 3803SOL     OW12307   4.071   3.200   2.708
 3803SOL    HW112308   3.997   3.157   2.657
 3803SOL    HW212309   4.117   3.268   2.651
 3804SOL     OW12310   4.143   1.098   3.251
 3804SOL    HW112311   4.098   1.188   3.252
 3804SOL    HW212312   4.236   1.107   3.288
 3805SOL     OW12313   1.847   3.012   1.884
 3805SOL    HW112314   1.887   3.104   1.890
 3805SOL    HW212315   1.915   2.949   1.846
 3806SOL     OW12316   3.923   3.650   6.029
 3806SOL    HW112317   4.010   3.641   6.076
 3806SOL    HW212318   3.938   3.646   5.930
 3807SOL     OW12319   1.852   5.640   2.655
 3807SOL    HW112320   1.841   5.721   2.713
 3807SOL    HW212321   1.773   5.580   2.667
 3808SOL     OW12322   3.978   0.857   0.424
 3808SOL    HW112323   4.019   0.824   0.509
 3808SOL    HW212324   4.050   0.887   0.362
 3809SOL     OW12325   5.736   2.638   1.215
 3809SOL    HW112326   5.699   2.635   1.308
 3809SOL    HW212327   5.836   2.628   1.219
 3810SOL     OW12328   5.526   2.776   3.652
 3810SOL    HW112329   5.480   2.696   3.692
 3810SOL    HW212330   5.473   2.808   3.574
 3811SOL     OW12331   6.826   5.953   4.471
 3811SOL    HW112332   6.740   5.969   4.519
 3811SOL    HW212333   6.901   5.996   4.523
 3812SOL     OW12334   4.390   5.117   5.101
 3812SOL    HW112335   4.349   5.149   5.016
 3812SOL    HW212336   4.344   5.033   5.131
 3813SOL     OW12337   5.370   3.995   6.917
 3813SOL    HW112338   5.340   4.019   7.009
 3813SOL    HW212339   5.291   3.961   6.864
 3814SOL     OW12340   6.510   0.338   5.575
 3814SOL    HW112341   6.428   0.387   5.544
 3814SOL    HW212342   6.567   0.315   5.496
 3815SOL     OW12343   3.446   1.617   1.155
 3815SOL    HW112344   3.486   1.659   1.073
 3815SOL    HW212345   3.359   1.662   1.176
 3816SOL     OW12346   1.233   5.196   6.629
 3816SOL    HW112347   1.184   5.248   6.560
 3816SOL    HW212348   1.299   5.135   6.584
 3817SOL     OW12349   4.960   3.524   2.280
 3817SOL    HW112350   5.037   3.463   2.296
 3817SOL    HW212351   4.950   3.540   2.182
 3818SOL     OW12352   6.714   0.981   0.242
 3818SOL    HW112353   6.739   1.076   0.263
 3818SOL    HW212354   6.667   0.940   0.320
 3819SOL     OW12355   5.920   5.590   2.698
 3819SOL    HW112356   5.927   5.685   2.665
 3819SOL    HW212357   5.867   5.588   2.783
 3820SOL     OW12358   5.070   0.293   4.389
 3820SOL    HW112359   5.010   0.243   4.451
 3820SOL    HW212360   5.015   0.355   4.333
 3821SOL     OW12361   2.069   1.250   1.897
 3821SOL    HW112362   2.130   1.329   1.907
 3821SOL    HW212363   2.122   1.166   1.908
 3822SOL     OW12364   2.288   6.795   0.593
 3822SOL    HW112365   2.346   6.717   0.571
 3822SOL    HW212366   2.338   6.880   0.576
 3823SOL     OW12367   2.758   3.769   6.141
 3823SOL    HW112368   2.664   3.739   6.126
 3823SOL    HW212369   2.758   3.866   6.166
 3824SOL     OW12370   0.929   2.983   0.221
 3824SOL    HW112371   0.877   3.066   0.243
 3824SOL    HW212372   0.895   2.907   0.276
 3825SOL     OW12373   0.414   5.046   0.341
 3825SOL    HW112374   0.429   4.963   0.287
 3825SOL    HW212375   0.318   5.050   0.370
 3826SOL     OW12376   1.053   3.814   0.421
 3826SOL    HW112377   1.085   3.847   0.509
 3826SOL    HW212378   0.975   3.753   0.434
 3827SOL     OW12379   1.691   0.739   1.868
 3827SOL    HW112380   1.752   0.670   1.827
 3827SOL    HW212381   1.598   0.702   1.871
 3828SOL     OW12382   3.462   3.038   3.883
 3828SOL    HW112383   3.530   3.105   3.912
 3828SOL    HW212384   3.506   2.969   3.825
 3829SOL     OW12385   1.009   4.980   2.297
 3829SOL    HW112386   0.936   5.040   2.264
 3829SOL    HW212387   1.067   4.953   2.221
 3830SOL     OW12388   1.004   0.376   5.394
 3830SOL    HW112389   1.002   0.472   5.367
 3830SOL    HW212390   0.940   0.324   5.337
 3831SOL     OW12391   4.768   2.061   2.769
 3831SOL    HW112392   4.676   2.099   2.776
 3831SOL    HW212393   4.805   2.049   2.861
 3832SOL     OW12394   0.373   0.847   3.255
 3832SOL    HW112395   0.307   0.884   3.320
 3832SOL    HW212396   0.358   0.749   3.243
 3833SOL     OW12397   0.160   5.928   6.755
 3833SOL    HW112398   0.190   5.879   6.837
 3833SOL    HW212399   0.176   5.871   6.675
 3834SOL     OW12400   3.843   3.974   1.109
 3834SOL    HW112401   3.752   3.978   1.067
 3834SOL    HW212402   3.882   3.883   1.096
 3835SOL     OW12403   3.832   5.872   4.513
 3835SOL    HW112404   3.842   5.812   4.433
 3835SOL    HW212405   3.791   5.819   4.588
 3836SOL     OW12406   0.380   4.811   5.842
 3836SOL    HW112407   0.468   4.814   5.795
 3836SOL    HW212408   0.311   4.774   5.780
 3837SOL     OW12409   4.191   3.928   6.461
 3837SOL    HW112410   4.226   4.011   6.417
 3837SOL    HW212411   4.252   3.851   6.441
 3838SOL     OW12412   1.020   3.353   3.801
 3838SOL    HW112413   1.089   3.342   3.729
 3838SOL    HW212414   1.007   3.451   3.820
 3839SOL     OW12415   5.698   1.720   3.124
 3839SOL    HW112416   5.752   1.776   3.186
 3839SOL    HW212417   5.640   1.778   3.067
 3840SOL     OW12418   3.082   1.572   6.543
 3840SOL    HW112419   2.985   1.588   6.563
 3840SOL    HW212420   3.096   1.474   6.528
 3841SOL     OW12421   0.580   3.057   4.679
 3841SOL    HW112422   0.665   3.077   4.631
 3841SOL    HW212423   0.575   3.113   4.762
 3842SOL     OW12424   2.072   2.561   1.982
 3842SOL    HW112425   2.036   2.640   2.030
 3842SOL    HW212426   2.068   2.481   2.041
 3843SOL     OW12427   5.388   4.733   2.916
 3843SOL    HW112428   5.382   4.734   3.015
 3843SOL    HW212429   5.382   4.639   2.882
 3844SOL     OW12430   1.310   2.331   5.449
 3844SOL    HW112431   1.265   2.298   5.367
 3844SOL    HW212432   1.242   2.375   5.509
 3845SOL     OW12433   3.481   4.199   5.536
 3845SOL    HW112434   3.509   4.152   5.453
 3845SOL    HW212435   3.415   4.271   5.514
 3846SOL     OW12436   6.876   5.105   3.160
 3846SOL    HW112437   6.816   5.066   3.089
 3846SOL    HW212438   6.956   5.146   3.116
 3847SOL     OW12439   5.129   2.947   4.285
 3847SOL    HW112440   5.195   3.001   4.336
 3847SOL    HW212441   5.137   2.851   4.310
 3848SOL     OW12442   4.210   5.027   2.629
 3848SOL    HW112443   4.130   4.968   2.642
 3848SOL    HW212444   4.286   4.993   2.685
 3849SOL     OW12445   1.077   1.274   6.055
 3849SOL    HW112446   1.037   1.330   5.982
 3849SOL    HW212447   1.093   1.331   6.135
 3850SOL     OW12448   2.343   3.665   1.642
 3850SOL    HW112449   2.343   3.600   1.719
 3850SOL    HW212450   2.430   3.713   1.639
 3851SOL     OW12451   0.807   4.357   2.505
 3851SOL    HW112452   0.905   4.356   2.484
 3851SOL    HW212453   0.782   4.274   2.555
 3852SOL     OW12454   4.019   6.198   4.154
 3852SOL    HW112455   4.119   6.196   4.158
 3852SOL    HW212456   3.984   6.107   4.177
 3853SOL     OW12457   0.583   4.336   3.803
 3853SOL    HW112458   0.638   4.321   3.886
 3853SOL    HW212459   0.642   4.329   3.722
 3854SOL     OW12460   1.877   2.218   2.969
 3854SOL    HW112461   1.880   2.164   3.054
 3854SOL    HW212462   1.869   2.156   2.891
 3855SOL     OW12463   5.488   6.453   6.487
 3855SOL    HW112464   5.458   6.414   6.574
 3855SOL    HW212465   5.493   6.380   6.418
 3856SOL     OW12466   6.766   0.393   6.335
 3856SOL    HW112467   6.830   0.338   6.390
 3856SOL    HW212468   6.732   0.338   6.259
 3857SOL     OW12469   0.690   6.345   0.168
 3857SOL    HW112470   0.703   6.441   0.193
 3857SOL    HW212471   0.610   6.309   0.216
 3858SOL     OW12472   2.631   0.814   5.830
 3858SOL    HW112473   2.541   0.856   5.838
 3858SOL    HW212474   2.697   0.882   5.799
 3859SOL     OW12475   5.530   1.132   2.315
 3859SOL    HW112476   5.454   1.068   2.318
 3859SOL    HW212477   5.495   1.226   2.314
 3860SOL     OW12478   2.427   1.103   5.223
 3860SOL    HW112479   2.397   1.017   5.181
 3860SOL    HW212480   2.526   1.103   5.232
 3861SOL     OW12481   4.429   5.322   3.116
 3861SOL    HW112482   4.398   5.359   3.028
 3861SOL    HW212483   4.459   5.397   3.175
 3862SOL     OW12484   0.705   0.540   5.188
 3862SOL    HW112485   0.650   0.564   5.268
 3862SOL    HW212486   0.788   0.597   5.187
 3863SOL     OW12487   5.679   2.891   6.574
 3863SOL    HW112488   5.675   2.983   6.535
 3863SOL    HW212489   5.742   2.890   6.652
 3864SOL     OW12490   2.667   0.785   5.447
 3864SOL    HW112491   2.608   0.769   5.368
 3864SOL    HW212492   2.618   0.841   5.514
 3865SOL     OW12493   3.491   0.563   0.398
 3865SOL    HW112494   3.512   0.661   0.393
 3865SOL    HW212495   3.407   0.544   0.347
 3866SOL     OW12496   3.035   0.275   1.023
 3866SOL    HW112497   3.079   0.221   1.094
 3866SOL    HW212498   2.979   0.215   0.965
 3867SOL     OW12499   0.478   5.083   3.807
 3867SOL    HW112500   0.420   5.143   3.861
 3867SOL    HW212501   0.553   5.136   3.766
 3868SOL     OW12502   2.638   6.972   0.334
 3868SOL    HW112503   2.557   7.006   0.286
 3868SOL    HW212504   2.660   6.880   0.303
 3869SOL     OW12505   5.891   4.094   4.777
 3869SOL    HW112506   5.840   4.180   4.766
 3869SOL    HW212507   5.988   4.115   4.790
 3870SOL     OW12508   5.686   5.865   0.257
 3870SOL    HW112509   5.733   5.846   0.171
 3870SOL    HW212510   5.752   5.898   0.324
 3871SOL     OW12511   3.201   0.215   2.886
 3871SOL    HW112512   3.244   0.126   2.872
 3871SOL    HW212513   3.105   0.211   2.859
 3872SOL     OW12514   3.799   3.000   4.140
 3872SOL    HW112515   3.718   3.024   4.194
 3872SOL    HW212516   3.882   3.018   4.193
 3873SOL     OW12517   6.487   2.756   0.897
 3873SOL    HW112518   6.527   2.755   0.806
 3873SOL    HW212519   6.496   2.847   0.937
 3874SOL     OW12520   4.062   6.144   6.834
 3874SOL    HW112521   4.064   6.229   6.781
 3874SOL    HW212522   3.976   6.137   6.885
 3875SOL     OW12523   2.001   3.209   2.387
 3875SOL    HW112524   2.050   3.131   2.425
 3875SOL    HW212525   2.044   3.237   2.302
 3876SOL     OW12526   3.874   5.597   1.104
 3876SOL    HW112527   3.780   5.625   1.081
 3876SOL    HW212528   3.887   5.501   1.082
 3877SOL     OW12529   5.938   3.062   0.646
 3877SOL    HW112530   5.899   2.976   0.616
 3877SOL    HW212531   5.921   3.075   0.743
 3878SOL     OW12532   3.441   6.981   4.346
 3878SOL    HW112533   3.489   6.969   4.259
 3878SOL    HW212534   3.384   6.901   4.364
 3879SOL     OW12535   5.344   5.242   1.191
 3879SOL    HW112536   5.381   5.253   1.283
 3879SOL    HW212537   5.261   5.187   1.195
 3880SOL     OW12538   5.524   5.007   4.454
 3880SOL    HW112539   5.545   5.025   4.358
 3880SOL    HW212540   5.598   4.954   4.494
 3881SOL     OW12541   1.348   3.420   1.692
 3881SOL    HW112542   1.337   3.519   1.687
 3881SOL    HW212543   1.300   3.377   1.616
 3882SOL     OW12544   1.387   0.999   5.732
 3882SOL    HW112545   1.364   0.912   5.776
 3882SOL    HW212546   1.311   1.029   5.675
 3883SOL     OW12547   3.879   0.568   3.170
 3883SOL    HW112548   3.899   0.649   3.114
 3883SOL    HW212549   3.946   0.562   3.244
 3884SOL     OW12550   0.321   5.315   3.491
 3884SOL    HW112551   0.300   5.400   3.442
 3884SOL    HW212552   0.303   5.237   3.432
 3885SOL     OW12553   6.507   0.214   2.805
 3885SOL    HW112554   6.501   0.139   2.738
 3885SOL    HW212555   6.468   0.184   2.892
 3886SOL     OW12556   6.200   6.274   4.964
 3886SOL    HW112557   6.148   6.250   4.882
 3886SOL    HW212558   6.277   6.333   4.938
 3887SOL     OW12559   0.042   0.593   6.104
 3887SOL    HW112560   0.122   0.537   6.084
 3887SOL    HW212561   0.039   0.671   6.042
 3888SOL     OW12562   6.903   0.554   5.498
 3888SOL    HW112563   6.829   0.569   5.432
 3888SOL    HW212564   6.991   0.569   5.453
 3889SOL     OW12565   0.244   3.798   6.080
 3889SOL    HW112566   0.271   3.767   6.171
 3889SOL    HW212567   0.197   3.886   6.088
 3890SOL     OW12568   5.566   5.463   2.747
 3890SOL    HW112569   5.642   5.427   2.802
 3890SOL    HW212570   5.480   5.443   2.793
 3891SOL     OW12571   5.698   4.504   4.812
 3891SOL    HW112572   5.686   4.405   4.824
 3891SOL    HW212573   5.775   4.535   4.868
 3892SOL     OW12574   0.467   1.615   1.403
 3892SOL    HW112575   0.541   1.647   1.343
 3892SOL    HW212576   0.491   1.634   1.498
 3893SOL     OW12577   4.456   3.821   1.238
 3893SOL    HW112578   4.522   3.784   1.303
 3893SOL    HW212579   4.500   3.833   1.149
 3894SOL     OW12580   3.267   2.147   1.301
 3894SOL    HW112581   3.282   2.244   1.282
 3894SOL    HW212582   3.323   2.120   1.380
 3895SOL     OW12583   1.801   0.630   5.894
 3895SOL    HW112584   1.718   0.658   5.942
 3895SOL    HW212585   1.880   0.637   5.956
 3896SOL     OW12586   0.180   0.575   5.804
 3896SOL    HW112587   0.179   0.641   5.729
 3896SOL    HW212588   0.108   0.507   5.790
 3897SOL     OW12589   3.670   5.733   2.193
 3897SOL    HW112590   3.678   5.678   2.277
 3897SOL    HW212591   3.745   5.799   2.189
 3898SOL     OW12592   3.244   3.536   4.683
 3898SOL    HW112593   3.262   3.458   4.624
 3898SOL    HW212594   3.149   3.565   4.673
 3899SOL     OW12595   5.802   0.531   4.623
 3899SOL    HW112596   5.764   0.510   4.533
 3899SOL    HW212597   5.762   0.470   4.691
 3900SOL     OW12598   5.357   2.756   4.146
 3900SOL    HW112599   5.399   2.669   4.122
 3900SOL    HW212600   5.264   2.741   4.179
 3901SOL     OW12601   3.055   0.491   5.267
 3901SOL    HW112602   3.104   0.574   5.292
 3901SOL    HW212603   3.067   0.422   5.338
 3902SOL     OW12604   5.776   3.362   2.611
 3902SOL    HW112605   5.676   3.365   2.601
 3902SOL    HW212606   5.799   3.313   2.696
 3903SOL     OW12607   4.591   5.613   0.242
 3903SOL    HW112608   4.493   5.635   0.243
 3903SOL    HW212609   4.635   5.655   0.321
 3904SOL     OW12610   1.771   0.026   4.791
 3904SOL    HW112611   1.673   0.034   4.814
 3904SOL    HW212612   1.825   0.068   4.864
 3905SOL     OW12613   6.748   0.004   5.657
 3905SOL    HW112614   6.764   0.103   5.663
 3905SOL    HW212615   6.759   6.987   5.747
 3906SOL     OW12616   3.795   5.347   5.042
 3906SOL    HW112617   3.771   5.363   4.946
 3906SOL    HW212618   3.817   5.251   5.056
 3907SOL     OW12619   6.776   6.513   5.466
 3907SOL    HW112620   6.762   6.575   5.543
 3907SOL    HW212621   6.874   6.497   5.455
 3908SOL     OW12622   0.863   0.871   0.515
 3908SOL    HW112623   0.884   0.781   0.553
 3908SOL    HW212624   0.799   0.918   0.575
 3909SOL     OW12625   0.343   5.636   5.389
 3909SOL    HW112626   0.434   5.665   5.361
 3909SOL    HW212627   0.278   5.710   5.373
 3910SOL     OW12628   3.556   3.767   1.773
 3910SOL    HW112629   3.482   3.735   1.832
 3910SOL    HW212630   3.578   3.862   1.796
 3911SOL     OW12631   4.127   1.250   0.070
 3911SOL    HW112632   4.043   1.214   0.029
 3911SOL    HW212633   4.114   1.346   0.094
 3912SOL     OW12634   3.009   0.931   6.423
 3912SOL    HW112635   2.962   0.956   6.508
 3912SOL    HW212636   3.046   1.013   6.380
 3913SOL     OW12637   1.946   6.034   6.518
 3913SOL    HW112638   1.945   6.095   6.439
 3913SOL    HW212639   2.032   6.045   6.568
 3914SOL     OW12640   3.964   1.076   0.994
 3914SOL    HW112641   3.868   1.057   0.973
 3914SOL    HW212642   3.970   1.161   1.047
 3915SOL     OW12643   3.766   6.367   1.896
 3915SOL    HW112644   3.850   6.336   1.850
 3915SOL    HW212645   3.757   6.466   1.885
 3916SOL     OW12646   1.513   6.175   2.812
 3916SOL    HW112647   1.555   6.189   2.902
 3916SOL    HW212648   1.573   6.214   2.742
 3917SOL     OW12649   1.713   4.698   6.775
 3917SOL    HW112650   1.713   4.629   6.847
 3917SOL    HW212651   1.764   4.778   6.806
 3918SOL     OW12652   5.319   6.667   2.517
 3918SOL    HW112653   5.269   6.752   2.501
 3918SOL    HW212654   5.311   6.641   2.613
 3919SOL     OW12655   3.114   6.235   6.447
 3919SOL    HW112656   3.165   6.159   6.488
 3919SOL    HW212657   3.058   6.200   6.372
 3920SOL     OW12658   3.178   2.315   6.637
 3920SOL    HW112659   3.230   2.270   6.565
 3920SOL    HW212660   3.236   2.328   6.718
 3921SOL     OW12661   6.866   3.070   0.786
 3921SOL    HW112662   6.920   3.105   0.709
 3921SOL    HW212663   6.926   3.054   0.864
 3922SOL     OW12664   5.765   4.511   1.071
 3922SOL    HW112665   5.756   4.527   1.169
 3922SOL    HW212666   5.787   4.596   1.025
 3923SOL     OW12667   6.695   1.955   0.466
 3923SOL    HW112668   6.722   1.946   0.562
 3923SOL    HW212669   6.621   2.023   0.459
 3924SOL     OW12670   0.213   5.553   3.118
 3924SOL    HW112671   0.276   5.613   3.069
 3924SOL    HW212672   0.125   5.549   3.070
 3925SOL     OW12673   3.694   4.057   0.761
 3925SOL    HW112674   3.762   3.987   0.737
 3925SOL    HW212675   3.664   4.044   0.855
 3926SOL     OW12676   6.485   5.880   2.665
 3926SOL    HW112677   6.576   5.877   2.624
 3926SOL    HW212678   6.444   5.789   2.663
 3927SOL     OW12679   0.159   3.666   4.099
 3927SOL    HW112680   0.086   3.689   4.035
 3927SOL    HW212681   0.243   3.647   4.048
 3928SOL     OW12682   3.170   5.227   4.978
 3928SOL    HW112683   3.189   5.129   4.981
 3928SOL    HW212684   3.249   5.277   5.013
 3929SOL     OW12685   0.311   2.111   6.710
 3929SOL    HW112686   0.309   2.209   6.729
 3929SOL    HW212687   0.329   2.061   6.796
 3930SOL     OW12688   2.011   1.704   3.824
 3930SOL    HW112689   2.034   1.718   3.728
 3930SOL    HW212690   1.999   1.793   3.869
 3931SOL     OW12691   2.198   1.397   2.581
 3931SOL    HW112692   2.267   1.325   2.572
 3931SOL    HW212693   2.243   1.485   2.593
 3932SOL     OW12694   1.725   4.465   3.058
 3932SOL    HW112695   1.729   4.486   3.156
 3932SOL    HW212696   1.758   4.372   3.042
 3933SOL     OW12697   2.433   6.934   6.587
 3933SOL    HW112698   2.339   6.922   6.618
 3933SOL    HW212699   2.495   6.928   6.665
 3934SOL     OW12700   0.485   1.198   1.281
 3934SOL    HW112701   0.462   1.101   1.291
 3934SOL    HW212702   0.580   1.212   1.309
 3935SOL     OW12703   1.757   0.212   5.471
 3935SOL    HW112704   1.730   0.291   5.417
 3935SOL    HW212705   1.752   0.234   5.569
 3936SOL     OW12706   0.326   5.626   5.735
 3936SOL    HW112707   0.286   5.569   5.663
 3936SOL    HW212708   0.426   5.620   5.731
 3937SOL     OW12709   0.334   0.371   2.516
 3937SOL    HW112710   0.272   0.444   2.543
 3937SOL    HW212711   0.428   0.406   2.512
 3938SOL     OW12712   6.842   2.470   4.178
 3938SOL    HW112713   6.840   2.371   4.159
 3938SOL    HW212714   6.759   2.496   4.227
 3939SOL     OW12715   3.186   1.509   2.674
 3939SOL    HW112716   3.142   1.440   2.731
 3939SOL    HW212717   3.154   1.500   2.580
 3940SOL     OW12718   4.115   4.746   2.140
 3940SOL    HW112719   4.213   4.727   2.147
 3940SOL    HW212720   4.084   4.724   2.047
 3941SOL     OW12721   5.362   1.282   6.312
 3941SOL    HW112722   5.387   1.205   6.254
 3941SOL    HW212723   5.306   1.347   6.260
 3942SOL     OW12724   0.727   6.841   5.518
 3942SOL    HW112725   0.757   6.746   5.516
 3942SOL    HW212726   0.732   6.879   5.425
 3943SOL     OW12727   1.165   3.558   2.705
 3943SOL    HW112728   1.120   3.648   2.707
 3943SOL    HW212729   1.256   3.566   2.747
 3944SOL     OW12730   5.853   4.155   5.485
 3944SOL    HW112731   5.894   4.100   5.558
 3944SOL    HW212732   5.818   4.095   5.414
 3945SOL     OW12733   0.963   2.510   2.156
 3945SOL    HW112734   0.989   2.414   2.156
 3945SOL    HW212735   0.868   2.519   2.186
 3946SOL     OW12736   6.517   4.522   6.216
 3946SOL    HW112737   6.432   4.538   6.166
 3946SOL    HW212738   6.519   4.428   6.250
 3947SOL     OW12739   5.965   5.263   1.700
 3947SOL    HW112740   5.985   5.273   1.798
 3947SOL    HW212741   5.926   5.172   1.684
 3948SOL     OW12742   0.915   4.781   1.210
 3948SOL    HW112743   0.967   4.824   1.283
 3948SOL    HW212744   0.943   4.819   1.122
 3949SOL     OW12745   5.440   0.565   2.973
 3949SOL    HW112746   5.418   0.656   2.939
 3949SOL    HW212747   5.372   0.500   2.938
 3950SOL     OW12748   3.255   3.685   1.534
 3950SOL    HW112749   3.274   3.778   1.566
 3950SOL    HW212750   3.340   3.641   1.506
 3951SOL     OW12751   0.089   6.663   0.006
 3951SOL    HW112752   0.102   6.758   0.034
 3951SOL    HW212753   0.154   6.605   0.055
 3952SOL     OW12754   6.866   4.028   4.255
 3952SOL    HW112755   6.956   3.984   4.251
 3952SOL    HW212756   6.794   3.958   4.249
 3953SOL     OW12757   3.259   4.337   0.422
 3953SOL    HW112758   3.212   4.286   0.351
 3953SOL    HW212759   3.265   4.281   0.505
 3954SOL     OW12760   5.843   5.591   5.889
 3954SOL    HW112761   5.863   5.493   5.883
 3954SOL    HW212762   5.822   5.627   5.798
 3955SOL     OW12763   3.982   6.637   0.116
 3955SOL    HW112764   3.909   6.599   0.059
 3955SOL    HW212765   4.025   6.563   0.168
 3956SOL     OW12766   0.657   2.358   3.387
 3956SOL    HW112767   0.678   2.407   3.303
 3956SOL    HW212768   0.740   2.344   3.440
 3957SOL     OW12769   4.857   6.788   3.269
 3957SOL    HW112770   4.826   6.859   3.333
 3957SOL    HW212771   4.796   6.709   3.275
 3958SOL     OW12772   5.677   0.165   6.107
 3958SOL    HW112773   5.724   0.177   6.019
 3958SOL    HW212774   5.720   0.090   6.157
 3959SOL     OW12775   3.409   6.629   0.961
 3959SOL    HW112776   3.381   6.538   0.927
 3959SOL    HW212777   3.330   6.690   0.961
 3960SOL     OW12778   5.169   1.836   6.475
 3960SOL    HW112779   5.137   1.930   6.492
 3960SOL    HW212780   5.246   1.815   6.535
 3961SOL     OW12781   5.589   2.659   2.188
 3961SOL    HW112782   5.680   2.699   2.175
 3961SOL    HW212783   5.542   2.706   2.262
 3962SOL     OW12784   1.689   5.167   6.659
 3962SOL    HW112785   1.676   5.086   6.603
 3962SOL    HW212786   1.785   5.196   6.655
 3963SOL     OW12787   4.465   4.733   3.856
 3963SOL    HW112788   4.390   4.799   3.856
 3963SOL    HW212789   4.438   4.652   3.803
 3964SOL     OW12790   4.703   4.722   4.009
 3964SOL    HW112791   4.609   4.715   3.977
 3964SOL    HW212792   4.761   4.662   3.953
 3965SOL     OW12793   3.839   3.246   5.943
 3965SOL    HW112794   3.744   3.226   5.919
 3965SOL    HW212795   3.850   3.344   5.957
 3966SOL     OW12796   6.347   5.426   0.498
 3966SOL    HW112797   6.290   5.344   0.497
 3966SOL    HW212798   6.306   5.495   0.558
 3967SOL     OW12799   1.577   4.040   2.507
 3967SOL    HW112800   1.552   4.000   2.419
 3967SOL    HW212801   1.644   4.113   2.493
 3968SOL     OW12802   6.801   0.088   1.354
 3968SOL    HW112803   6.794   0.101   1.453
 3968SOL    HW212804   6.765   7.022   1.329
 3969SOL     OW12805   1.349   3.760   2.425
 3969SOL    HW112806   1.419   3.765   2.497
 3969SOL    HW212807   1.339   3.665   2.395
 3970SOL     OW12808   4.741   5.248   3.927
 3970SOL    HW112809   4.742   5.276   4.023
 3970SOL    HW212810   4.772   5.153   3.920
 3971SOL     OW12811   2.438   4.943   2.186
 3971SOL    HW112812   2.496   4.866   2.214
 3971SOL    HW212813   2.452   4.960   2.088
 3972SOL     OW12814   1.364   5.411   1.097
 3972SOL    HW112815   1.377   5.508   1.077
 3972SOL    HW212816   1.374   5.358   1.013
 3973SOL     OW12817   2.049   4.281   5.352
 3973SOL    HW112818   1.997   4.311   5.272
 3973SOL    HW212819   2.133   4.236   5.323
 3974SOL     OW12820   1.160   0.101   5.046
 3974SOL    HW112821   1.200   0.151   5.123
 3974SOL    HW212822   1.118   0.166   4.983
 3975SOL     OW12823   5.229   0.297   6.098
 3975SOL    HW112824   5.242   0.352   6.181
 3975SOL    HW212825   5.316   0.254   6.073
 3976SOL     OW12826   1.368   5.190   1.794
 3976SOL    HW112827   1.451   5.243   1.776
 3976SOL    HW212828   1.299   5.212   1.725
 3977SOL     OW12829   2.928   4.701   5.416
 3977SOL    HW112830   2.914   4.646   5.333
 3977SOL    HW212831   2.890   4.654   5.495
 3978SOL     OW12832   5.463   0.265   4.817
 3978SOL    HW112833   5.455   0.260   4.717
 3978SOL    HW212834   5.418   0.187   4.858
 3979SOL     OW12835   2.592   5.849   1.805
 3979SOL    HW112836   2.586   5.774   1.738
 3979SOL    HW212837   2.619   5.933   1.759
 3980SOL     OW12838   0.497   4.987   0.045
 3980SOL    HW112839   0.581   5.033   0.018
 3980SOL    HW212840   0.498   4.893   0.011
 3981SOL     OW12841   1.619   1.318   6.207
 3981SOL    HW112842   1.547   1.274   6.154
 3981SOL    HW212843   1.702   1.323   6.153
 3982SOL     OW12844   1.953   0.911   4.304
 3982SOL    HW112845   2.029   0.877   4.249
 3982SOL    HW212846   1.888   0.961   4.246
 3983SOL     OW12847   4.123   5.194   4.019
 3983SOL    HW112848   4.192   5.265   4.032
 3983SOL    HW212849   4.080   5.173   4.107
 3984SOL     OW12850   1.500   0.869   2.960
 3984SOL    HW112851   1.467   0.833   2.873
 3984SOL    HW212852   1.517   0.794   3.023
 3985SOL     OW12853   3.860   4.703   6.193
 3985SOL    HW112854   3.938   4.648   6.221
 3985SOL    HW212855   3.890   4.773   6.129
 3986SOL     OW12856   6.952   2.172   2.410
 3986SOL    HW112857   7.008   2.251   2.434
 3986SOL    HW212858   6.855   2.197   2.411
 3987SOL     OW12859   2.987   5.540   4.610
 3987SOL    HW112860   2.926   5.475   4.565
 3987SOL    HW212861   2.933   5.609   4.658
 3988SOL     OW12862   3.824   3.185   0.000
 3988SOL    HW112863   3.818   3.284   7.012
 3988SOL    HW212864   3.767   3.139   6.956
 3989SOL     OW12865   6.677   1.474   0.067
 3989SOL    HW112866   6.772   1.458   0.040
 3989SOL    HW212867   6.653   1.569   0.050
 3990SOL     OW12868   5.522   2.199   3.023
 3990SOL    HW112869   5.609   2.232   2.988
 3990SOL    HW212870   5.537   2.144   3.105
 3991SOL     OW12871   5.734   1.372   2.160
 3991SOL    HW112872   5.723   1.383   2.259
 3991SOL    HW212873   5.819   1.323   2.141
 3992SOL     OW12874   3.882   2.209   6.851
 3992SOL    HW112875   3.828   2.161   6.782
 3992SOL    HW212876   3.964   2.248   6.808
 3993SOL     OW12877   0.429   2.422   2.986
 3993SOL    HW112878   0.500   2.483   3.021
 3993SOL    HW212879   0.357   2.412   3.055
 3994SOL     OW12880   0.795   1.981   6.468
 3994SOL    HW112881   0.855   1.918   6.518
 3994SOL    HW212882   0.785   1.950   6.373
 3995SOL     OW12883   1.848   3.912   3.846
 3995SOL    HW112884   1.779   3.847   3.879
 3995SOL    HW212885   1.939   3.875   3.864
 3996SOL     OW12886   0.670   1.239   4.795
 3996SOL    HW112887   0.620   1.221   4.711
 3996SOL    HW212888   0.686   1.153   4.844
 3997SOL     OW12889   4.553   2.342   3.245
 3997SOL    HW112890   4.602   2.422   3.280
 3997SOL    HW212891   4.478   2.372   3.186
 3998SOL     OW12892   4.362   0.994   2.488
 3998SOL    HW112893   4.326   1.044   2.410
 3998SOL    HW212894   4.409   1.058   2.549
 3999SOL     OW12895   5.430   3.337   3.925
 3999SOL    HW112896   5.389   3.251   3.956
 3999SOL    HW212897   5.502   3.365   3.988
 4000SOL     OW12898   2.943   5.133   3.124
 4000SOL    HW112899   2.944   5.084   3.211
 4000SOL    HW212900   2.876   5.090   3.063
 4001SOL     OW12901   2.291   2.121   4.160
 4001SOL    HW112902   2.285   2.059   4.082
 4001SOL    HW212903   2.316   2.070   4.242
 4002SOL     OW12904   2.848   2.577   0.344
 4002SOL    HW112905   2.929   2.620   0.305
 4002SOL    HW212906   2.772   2.642   0.344
 4003SOL     OW12907   2.649   6.396   5.278
 4003SOL    HW112908   2.594   6.359   5.203
 4003SOL    HW212909   2.622   6.490   5.296
 4004SOL     OW12910   6.049   1.929   3.850
 4004SOL    HW112911   6.018   1.900   3.941
 4004SOL    HW212912   5.986   1.998   3.815
 4005SOL     OW12913   5.476   5.476   0.761
 4005SOL    HW112914   5.563   5.523   0.773
 4005SOL    HW212915   5.479   5.388   0.807
 4006SOL     OW12916   3.695   5.161   2.299
 4006SOL    HW112917   3.776   5.162   2.358
 4006SOL    HW212918   3.668   5.067   2.280
 4007SOL     OW12919   0.675   3.214   1.374
 4007SOL    HW112920   0.742   3.246   1.307
 4007SOL    HW212921   0.603   3.163   1.328
 4008SOL     OW12922   3.769   2.141   4.120
 4008SOL    HW112923   3.778   2.062   4.059
 4008SOL    HW212924   3.674   2.171   4.122
 4009SOL     OW12925   5.164   2.881   0.050
 4009SOL    HW112926   5.251   2.866   0.004
 4009SOL    HW212927   5.092   2.892   7.006
 4010SOL     OW12928   2.549   3.298   1.052
 4010SOL    HW112929   2.471   3.281   0.991
 4010SOL    HW212930   2.537   3.385   1.099
 4011SOL     OW12931   0.440   0.932   1.332
 4011SOL    HW112932   0.401   0.957   1.421
 4011SOL    HW212933   0.402   0.844   1.302
 4012SOL     OW12934   4.305   5.221   2.153
 4012SOL    HW112935   4.392   5.217   2.105
 4012SOL    HW212936   4.316   5.187   2.246
 4013SOL     OW12937   2.536   0.251   0.624
 4013SOL    HW112938   2.622   0.269   0.672
 4013SOL    HW212939   2.459   0.271   0.685
 4014SOL     OW12940   4.115   5.984   3.162
 4014SOL    HW112941   4.069   5.957   3.246
 4014SOL    HW212942   4.205   6.022   3.184
 4015SOL     OW12943   4.407   5.857   6.435
 4015SOL    HW112944   4.352   5.912   6.497
 4015SOL    HW212945   4.413   5.763   6.469
 4016SOL     OW12946   1.835   5.869   6.299
 4016SOL    HW112947   1.748   5.823   6.283
 4016SOL    HW212948   1.846   5.887   6.397
 4017SOL     OW12949   0.007   6.553   0.250
 4017SOL    HW112950   6.984   6.465   0.249
 4017SOL    HW212951   0.038   6.573   0.343
 4018SOL     OW12952   5.583   6.676   2.456
 4018SOL    HW112953   5.496   6.688   2.504
 4018SOL    HW212954   5.643   6.753   2.477
 4019SOL     OW12955   5.834   3.366   3.362
 4019SOL    HW112956   5.882   3.339   3.278
 4019SOL    HW212957   5.894   3.423   3.418
 4020SOL     OW12958   5.891   2.490   5.189
 4020SOL    HW112959   5.895   2.577   5.139
 4020SOL    HW212960   5.798   2.453   5.184
 4021SOL     OW12961   2.766   3.148   5.710
 4021SOL    HW112962   2.783   3.049   5.711
 4021SOL    HW212963   2.825   3.191   5.641
 4022SOL     OW12964   4.668   0.542   0.075
 4022SOL    HW112965   4.583   0.570   0.030
 4022SOL    HW212966   4.743   0.544   0.008
 4023SOL     OW12967   6.457   1.764   5.050
 4023SOL    HW112968   6.523   1.714   4.994
 4023SOL    HW212969   6.406   1.827   4.993
 4024SOL     OW12970   2.968   5.107   4.156
 4024SOL    HW112971   2.888   5.155   4.192
 4024SOL    HW212972   2.999   5.039   4.222
 4025SOL     OW12973   0.775   6.530   4.598
 4025SOL    HW112974   0.781   6.431   4.615
 4025SOL    HW212975   0.716   6.572   4.666
 4026SOL     OW12976   6.373   5.820   3.957
 4026SOL    HW112977   6.332   5.746   3.903
 4026SOL    HW212978   6.441   5.867   3.901
 4027SOL     OW12979   3.348   4.098   2.263
 4027SOL    HW112980   3.280   4.152   2.213
 4027SOL    HW212981   3.312   4.073   2.353
 4028SOL     OW12982   1.847   2.200   4.056
 4028SOL    HW112983   1.754   2.201   4.020
 4028SOL    HW212984   1.903   2.266   4.006
 4029SOL     OW12985   2.657   4.322   6.441
 4029SOL    HW112986   2.629   4.416   6.421
 4029SOL    HW212987   2.576   4.265   6.457
 4030SOL     OW12988   1.594   1.601   6.845
 4030SOL    HW112989   1.629   1.587   6.753
 4030SOL    HW212990   1.496   1.623   6.840
 4031SOL     OW12991   4.559   5.958   2.970
 4031SOL    HW112992   4.654   5.944   2.945
 4031SOL    HW212993   4.532   6.052   2.948
 4032SOL     OW12994   5.872   0.366   2.963
 4032SOL    HW112995   5.832   0.344   2.874
 4032SOL    HW212996   5.834   0.304   3.033
 4033SOL     OW12997   3.237   3.448   2.801
 4033SOL    HW112998   3.156   3.489   2.759
 4033SOL    HW212999   3.319   3.489   2.762
 4034SOL     OW13000   6.260   1.954   4.876
 4034SOL    HW113001   6.303   2.009   4.804
 4034SOL    HW213002   6.225   2.014   4.948
 4035SOL     OW13003   0.128   2.571   0.945
 4035SOL    HW113004   0.032   2.542   0.946
 4035SOL    HW213005   0.183   2.505   0.996
 4036SOL     OW13006   5.431   6.907   2.597
 4036SOL    HW113007   5.445   6.815   2.633
 4036SOL    HW213008   5.339   6.914   2.558
 4037SOL     OW13009   1.970   2.388   0.284
 4037SOL    HW113010   2.016   2.303   0.307
 4037SOL    HW213011   1.877   2.369   0.252
 4038SOL     OW13012   4.785   4.645   1.872
 4038SOL    HW113013   4.819   4.617   1.961
 4038SOL    HW213014   4.715   4.581   1.840
 4039SOL     OW13015   5.042   4.720   1.379
 4039SOL    HW113016   5.013   4.633   1.418
 4039SOL    HW213017   5.142   4.726   1.379
 4040SOL     OW13018   3.351   0.208   6.322
 4040SOL    HW113019   3.324   0.117   6.353
 4040SOL    HW213020   3.334   0.216   6.224
 4041SOL     OW13021   1.901   5.547   1.628
 4041SOL    HW113022   1.845   5.582   1.553
 4041SOL    HW213023   1.853   5.562   1.714
 4042SOL     OW13024   6.164   4.899   2.777
 4042SOL    HW113025   6.097   4.872   2.846
 4042SOL    HW213026   6.239   4.949   2.821
 4043SOL     OW13027   5.187   2.455   4.463
 4043SOL    HW113028   5.242   2.466   4.546
 4043SOL    HW213029   5.216   2.373   4.414
 4044SOL     OW13030   4.888   0.479   4.251
 4044SOL    HW113031   4.880   0.538   4.332
 4044SOL    HW213032   4.908   0.536   4.171
 4045SOL     OW13033   2.893   4.210   6.480
 4045SOL    HW113034   2.798   4.238   6.462
 4045SOL    HW213035   2.944   4.211   6.394
 4046SOL     OW13036   0.941   1.214   3.640
 4046SOL    HW113037   0.887   1.293   3.612
 4046SOL    HW213038   0.941   1.146   3.567
 4047SOL     OW13039   2.864   2.488   0.961
 4047SOL    HW113040   2.903   2.574   0.993
 4047SOL    HW213041   2.767   2.485   0.984
 4048SOL     OW13042   5.474   1.468   2.190
 4048SOL    HW113043   5.573   1.477   2.177
 4048SOL    HW213044   5.446   1.523   2.269
 4049SOL     OW13045   6.021   6.113   6.997
 4049SOL    HW113046   6.009   6.143   6.902
 4049SOL    HW213047   6.118   6.096   7.015
 4050SOL     OW13048   1.916   6.579   0.419
 4050SOL    HW113049   1.846   6.602   0.351
 4050SOL    HW213050   1.904   6.485   0.450
 4051SOL     OW13051   4.216   2.928   0.364
 4051SOL    HW113052   4.184   2.972   0.447
 4051SOL    HW213053   4.144   2.870   0.326
 4052SOL     OW13054   0.618   0.980   1.638
 4052SOL    HW113055   0.683   0.983   1.562
 4052SOL    HW213056   0.558   0.901   1.626
 4053SOL     OW13057   3.551   4.966   3.769
 4053SOL    HW113058   3.546   4.870   3.743
 4053SOL    HW213059   3.504   5.022   3.700
 4054SOL     OW13060   1.369   2.914   1.153
 4054SOL    HW113061   1.353   2.883   1.059
 4054SOL    HW213062   1.376   2.835   1.214
 4055SOL     OW13063   3.036   3.752   5.729
 4055SOL    HW113064   3.039   3.707   5.818
 4055SOL    HW213065   3.129   3.773   5.699
 4056SOL     OW13066   4.580   2.663   6.971
 4056SOL    HW113067   4.506   2.626   0.003
 4056SOL    HW213068   4.642   2.590   6.945
 4057SOL     OW13069   5.358   2.535   6.845
 4057SOL    HW113070   5.267   2.523   6.885
 4057SOL    HW213071   5.357   2.507   6.749
 4058SOL     OW13072   1.705   1.573   4.955
 4058SOL    HW113073   1.794   1.584   4.999
 4058SOL    HW213074   1.653   1.658   4.964
 4059SOL     OW13075   1.890   2.211   3.341
 4059SOL    HW113076   1.872   2.136   3.278
 4059SOL    HW213077   1.946   2.178   3.417
 4060SOL     OW13078   4.355   5.338   5.248
 4060SOL    HW113079   4.256   5.346   5.255
 4060SOL    HW213080   4.379   5.251   5.204
 4061SOL     OW13081   3.348   4.893   1.851
 4061SOL    HW113082   3.360   4.804   1.808
 4061SOL    HW213083   3.426   4.952   1.830
 4062SOL     OW13084   3.115   1.342   3.142
 4062SOL    HW113085   3.184   1.387   3.085
 4062SOL    HW213086   3.025   1.351   3.098
 4063SOL     OW13087   4.807   0.149   5.409
 4063SOL    HW113088   4.863   0.068   5.426
 4063SOL    HW213089   4.730   0.124   5.350
 4064SOL     OW13090   1.629   0.228   3.304
 4064SOL    HW113091   1.704   0.197   3.244
 4064SOL    HW213092   1.543   0.224   3.253
 4065SOL     OW13093   1.375   6.626   0.260
 4065SOL    HW113094   1.342   6.674   0.341
 4065SOL    HW213095   1.330   6.537   0.252
 4066SOL     OW13096   5.056   4.874   2.531
 4066SOL    HW113097   5.144   4.905   2.494
 4066SOL    HW213098   4.985   4.939   2.505
 4067SOL     OW13099   5.974   3.045   2.212
 4067SOL    HW113100   6.037   3.040   2.135
 4067SOL    HW213101   5.993   3.128   2.265
 4068SOL     OW13102   4.183   0.295   4.634
 4068SOL    HW113103   4.163   0.198   4.650
 4068SOL    HW213104   4.185   0.313   4.536
 4069SOL     OW13105   4.353   3.490   6.689
 4069SOL    HW113106   4.335   3.586   6.666
 4069SOL    HW213107   4.405   3.447   6.616
 4070SOL     OW13108   1.215   3.444   3.119
 4070SOL    HW113109   1.244   3.418   3.211
 4070SOL    HW213110   1.174   3.535   3.122
 4071SOL     OW13111   1.600   0.730   5.129
 4071SOL    HW113112   1.580   0.817   5.083
 4071SOL    HW213113   1.561   0.655   5.077
 4072SOL     OW13114   0.874   6.471   3.667
 4072SOL    HW113115   0.799   6.529   3.636
 4072SOL    HW213116   0.893   6.400   3.599
 4073SOL     OW13117   2.316   5.148   5.559
 4073SOL    HW113118   2.412   5.128   5.580
 4073SOL    HW213119   2.262   5.065   5.568
 4074SOL     OW13120   0.940   2.425   2.463
 4074SOL    HW113121   0.971   2.520   2.460
 4074SOL    HW213122   0.892   2.408   2.549
 4075SOL     OW13123   4.782   2.632   2.743
 4075SOL    HW113124   4.790   2.651   2.840
 4075SOL    HW213125   4.820   2.541   2.724
 4076SOL     OW13126   2.104   3.965   5.986
 4076SOL    HW113127   2.029   3.915   5.943
 4076SOL    HW213128   2.169   3.995   5.915
 4077SOL     OW13129   3.078   6.568   0.397
 4077SOL    HW113130   3.077   6.474   0.362
 4077SOL    HW213131   3.032   6.572   0.485
 4078SOL     OW13132   6.681   5.370   1.746
 4078SOL    HW113133   6.743   5.411   1.813
 4078SOL    HW213134   6.623   5.302   1.791
 4079SOL     OW13135   1.235   1.233   3.431
 4079SOL    HW113136   1.330   1.253   3.455
 4079SOL    HW213137   1.227   1.137   3.403
 4080SOL     OW13138   2.900   3.257   0.579
 4080SOL    HW113139   2.807   3.221   0.582
 4080SOL    HW213140   2.965   3.183   0.599
 4081SOL     OW13141   1.879   1.096   4.083
 4081SOL    HW113142   1.833   1.185   4.077
 4081SOL    HW213143   1.818   1.025   4.050
 4082SOL     OW13144   1.865   1.682   0.449
 4082SOL    HW113145   1.849   1.599   0.504
 4082SOL    HW213146   1.815   1.758   0.488
 4083SOL     OW13147   6.008   4.290   3.539
 4083SOL    HW113148   6.008   4.307   3.638
 4083SOL    HW213149   6.101   4.273   3.508
 4084SOL     OW13150   5.173   3.021   3.281
 4084SOL    HW113151   5.104   2.962   3.324
 4084SOL    HW213152   5.264   2.982   3.295
 4085SOL     OW13153   2.851   5.349   0.334
 4085SOL    HW113154   2.760   5.313   0.353
 4085SOL    HW213155   2.896   5.292   0.264
 4086SOL     OW13156   0.311   4.492   0.783
 4086SOL    HW113157   0.378   4.494   0.858
 4086SOL    HW213158   0.353   4.531   0.701
 4087SOL     OW13159   2.469   0.954   2.666
 4087SOL    HW113160   2.541   1.008   2.709
 4087SOL    HW213161   2.380   0.993   2.688
 4088SOL     OW13162   6.356   0.948   5.867
 4088SOL    HW113163   6.411   0.929   5.786
 4088SOL    HW213164   6.384   0.888   5.942
 4089SOL     OW13165   6.468   5.740   4.680
 4089SOL    HW113166   6.546   5.765   4.737
 4089SOL    HW213167   6.419   5.663   4.723
 4090SOL     OW13168   1.613   5.714   5.076
 4090SOL    HW113169   1.535   5.706   5.014
 4090SOL    HW213170   1.694   5.673   5.033
 4091SOL     OW13171   0.710   5.646   0.026
 4091SOL    HW113172   0.790   5.675   0.078
 4091SOL    HW213173   0.628   5.691   0.062
 4092SOL     OW13174   5.851   2.795   3.989
 4092SOL    HW113175   5.943   2.770   3.958
 4092SOL    HW213176   5.859   2.858   4.067
 4093SOL     OW13177   5.229   6.738   1.130
 4093SOL    HW113178   5.193   6.657   1.084
 4093SOL    HW213179   5.180   6.819   1.098
 4094SOL     OW13180   0.926   5.008   6.390
 4094SOL    HW113181   1.004   4.952   6.418
 4094SOL    HW213182   0.948   5.056   6.306
 4095SOL     OW13183   1.075   3.640   0.190
 4095SOL    HW113184   1.002   3.664   0.126
 4095SOL    HW213185   1.068   3.697   0.272
 4096SOL     OW13186   2.847   0.769   6.113
 4096SOL    HW113187   2.823   0.866   6.119
 4096SOL    HW213188   2.843   0.728   6.203
 4097SOL     OW13189   5.653   4.985   5.561
 4097SOL    HW113190   5.587   5.053   5.593
 4097SOL    HW213191   5.740   5.031   5.541
 4098SOL     OW13192   1.676   3.310   1.039
 4098SOL    HW113193   1.577   3.318   1.027
 4098SOL    HW213194   1.697   3.226   1.089
 4099SOL     OW13195   3.153   4.962   0.181
 4099SOL    HW113196   3.135   4.864   0.173
 4099SOL    HW213197   3.206   4.980   0.264
 4100SOL     OW13198   1.610   0.735   4.287
 4100SOL    HW113199   1.689   0.725   4.228
 4100SOL    HW213200   1.639   0.741   4.382
 4101SOL     OW13201   0.471   1.164   6.696
 4101SOL    HW113202   0.462   1.263   6.684
 4101SOL    HW213203   0.419   1.117   6.625
 4102SOL     OW13204   1.647   0.788   0.916
 4102SOL    HW113205   1.731   0.806   0.967
 4102SOL    HW213206   1.651   0.696   0.877
 4103SOL     OW13207   0.034   6.924   2.013
 4103SOL    HW113208   0.121   6.908   1.967
 4103SOL    HW213209   7.017   7.007   1.977
 4104SOL     OW13210   0.372   5.404   3.738
 4104SOL    HW113211   0.382   5.340   3.662
 4104SOL    HW213212   0.441   5.476   3.731
 4105SOL     OW13213   5.266   0.769   2.323
 4105SOL    HW113214   5.250   0.736   2.416
 4105SOL    HW213215   5.296   0.694   2.265
 4106SOL     OW13216   0.950   2.091   3.731
 4106SOL    HW113217   1.039   2.126   3.704
 4106SOL    HW213218   0.941   1.996   3.701
 4107SOL     OW13219   1.169   5.922   6.950
 4107SOL    HW113220   1.223   6.005   6.934
 4107SOL    HW213221   1.085   5.947   7.000
 4108SOL     OW13222   6.751   4.962   4.654
 4108SOL    HW113223   6.847   4.939   4.638
 4108SOL    HW213224   6.732   5.052   4.616
 4109SOL     OW13225   5.546   6.754   4.427
 4109SOL    HW113226   5.468   6.775   4.368
 4109SOL    HW213227   5.553   6.655   4.439
 4110SOL     OW13228   3.730   2.944   6.418
 4110SOL    HW113229   3.793   2.878   6.377
 4110SOL    HW213230   3.721   3.023   6.357
 4111SOL     OW13231   6.144   5.091   6.227
 4111SOL    HW113232   6.077   5.164   6.246
 4111SOL    HW213233   6.228   5.109   6.278
 4112SOL     OW13234   4.654   6.610   4.378
 4112SOL    HW113235   4.662   6.603   4.477
 4112SOL    HW213236   4.646   6.518   4.339
 4113SOL     OW13237   4.584   5.751   5.092
 4113SOL    HW113238   4.681   5.747   5.116
 4113SOL    HW213239   4.530   5.704   5.162
 4114SOL     OW13240   6.937   1.773   3.125
 4114SOL    HW113241   6.981   1.682   3.125
 4114SOL    HW213242   7.005   1.842   3.101
 4115SOL     OW13243   2.708   5.397   3.588
 4115SOL    HW113244   2.804   5.373   3.595
 4115SOL    HW213245   2.662   5.377   3.675
 4116SOL     OW13246   4.402   1.808   3.402
 4116SOL    HW113247   4.459   1.837   3.478
 4116SOL    HW213248   4.328   1.750   3.436
 4117SOL     OW13249   1.073   2.487   3.540
 4117SOL    HW113250   0.982   2.451   3.562
 4117SOL    HW213251   1.119   2.514   3.625
 4118SOL     OW13252   5.410   6.879   6.584
 4118SOL    HW113253   5.465   6.962   6.583
 4118SOL    HW213254   5.457   6.807   6.635
 4119SOL     OW13255   3.185   1.447   3.658
 4119SOL    HW113256   3.134   1.512   3.715
 4119SOL    HW213257   3.125   1.412   3.586
 4120SOL     OW13258   3.454   1.286   5.913
 4120SOL    HW113259   3.368   1.250   5.949
 4120SOL    HW213260   3.530   1.228   5.941
 4121SOL     OW13261   5.934   0.328   3.260
 4121SOL    HW113262   5.952   0.413   3.310
 4121SOL    HW213263   6.015   0.302   3.209
 4122SOL     OW13264   1.959   6.559   4.375
 4122SOL    HW113265   1.901   6.594   4.449
 4122SOL    HW213266   1.905   6.498   4.317
 4123SOL     OW13267   4.039   4.866   4.698
 4123SOL    HW113268   4.096   4.800   4.746
 4123SOL    HW213269   4.044   4.850   4.600
 4124SOL     OW13270   6.859   6.877   1.087
 4124SOL    HW113271   6.817   6.961   1.052
 4124SOL    HW213272   6.935   6.851   1.027
 4125SOL     OW13273   4.595   1.921   2.582
 4125SOL    HW113274   4.506   1.897   2.621
 4125SOL    HW213275   4.654   1.959   2.653
 4126SOL     OW13276   2.120   3.476   2.874
 4126SOL    HW113277   2.164   3.462   2.962
 4126SOL    HW213278   2.079   3.567   2.871
 4127SOL     OW13279   5.595   3.168   5.117
 4127SOL    HW113280   5.638   3.252   5.146
 4127SOL    HW213281   5.638   3.135   5.033
 4128SOL     OW13282   0.762   3.517   1.359
 4128SOL    HW113283   0.721   3.475   1.440
 4128SOL    HW213284   0.779   3.447   1.289
 4129SOL     OW13285   3.087   1.252   0.283
 4129SOL    HW113286   3.049   1.162   0.301
 4129SOL    HW213287   3.013   1.318   0.271
 4130SOL     OW13288   6.231   2.162   0.266
 4130SOL    HW113289   6.206   2.254   0.237
 4130SOL    HW213290   6.192   2.144   0.357
 4131SOL     OW13291   0.329   1.509   3.073
 4131SOL    HW113292   0.273   1.483   2.995
 4131SOL    HW213293   0.352   1.428   3.127
 4132SOL     OW13294   5.127   4.010   4.416
 4132SOL    HW113295   5.147   4.081   4.483
 4132SOL    HW213296   5.051   3.954   4.449
 4133SOL     OW13297   4.081   5.948   1.746
 4133SOL    HW113298   4.067   5.885   1.822
 4133SOL    HW213299   4.122   5.898   1.669
 4134SOL     OW13300   2.266   3.970   0.935
 4134SOL    HW113301   2.182   3.977   0.881
 4134SOL    HW213302   2.250   4.005   1.027
 4135SOL     OW13303   0.472   2.781   1.819
 4135SOL    HW113304   0.400   2.719   1.788
 4135SOL    HW213305   0.441   2.876   1.809
 4136SOL     OW13306   1.532   3.677   2.650
 4136SOL    HW113307   1.555   3.590   2.607
 4136SOL    HW213308   1.491   3.660   2.739
 4137SOL     OW13309   1.877   3.699   0.403
 4137SOL    HW113310   1.812   3.634   0.363
 4137SOL    HW213311   1.835   3.789   0.410
 4138SOL     OW13312   3.327   5.088   2.532
 4138SOL    HW113313   3.274   5.080   2.447
 4138SOL    HW213314   3.401   5.022   2.531
 4139SOL     OW13315   1.749   1.609   4.246
 4139SOL    HW113316   1.655   1.626   4.275
 4139SOL    HW213317   1.785   1.690   4.200
 4140SOL     OW13318   3.485   1.512   4.411
 4140SOL    HW113319   3.419   1.438   4.428
 4140SOL    HW213320   3.508   1.556   4.498
 4141SOL     OW13321   5.875   0.010   1.032
 4141SOL    HW113322   5.829   6.986   1.106
 4141SOL    HW213323   5.968   7.000   1.022
 4142SOL     OW13324   6.223   3.830   1.361
 4142SOL    HW113325   6.133   3.817   1.319
 4142SOL    HW213326   6.268   3.909   1.320
 4143SOL     OW13327   5.787   2.833   0.193
 4143SOL    HW113328   5.789   2.746   0.143
 4143SOL    HW213329   5.698   2.844   0.237
 4144SOL     OW13330   4.876   1.509   0.264
 4144SOL    HW113331   4.966   1.506   0.221
 4144SOL    HW213332   4.884   1.485   0.360
 4145SOL     OW13333   1.209   6.028   0.282
 4145SOL    HW113334   1.204   5.931   0.258
 4145SOL    HW213335   1.256   6.078   0.209
 4146SOL     OW13336   6.640   0.567   3.467
 4146SOL    HW113337   6.594   0.555   3.555
 4146SOL    HW213338   6.578   0.538   3.393
 4147SOL     OW13339   4.349   4.684   6.095
 4147SOL    HW113340   4.414   4.608   6.089
 4147SOL    HW213341   4.398   4.771   6.098
 4148SOL     OW13342   2.779   0.555   5.048
 4148SOL    HW113343   2.837   0.519   4.975
 4148SOL    HW213344   2.830   0.623   5.101
 4149SOL     OW13345   0.128   3.691   1.293
 4149SOL    HW113346   0.169   3.780   1.315
 4149SOL    HW213347   0.033   3.703   1.266
 4150SOL     OW13348   0.068   1.263   5.306
 4150SOL    HW113349   7.001   1.270   5.346
 4150SOL    HW213350   0.075   1.324   5.227
 4151SOL     OW13351   2.855   5.873   5.966
 4151SOL    HW113352   2.918   5.858   6.043
 4151SOL    HW213353   2.813   5.786   5.940
 4152SOL     OW13354   4.013   5.534   0.720
 4152SOL    HW113355   4.098   5.586   0.717
 4152SOL    HW213356   4.032   5.438   0.741
 4153SOL     OW13357   5.974   5.376   1.377
 4153SOL    HW113358   5.955   5.278   1.382
 4153SOL    HW213359   5.889   5.427   1.391
 4154SOL     OW13360   0.266   5.970   4.234
 4154SOL    HW113361   0.178   5.974   4.187
 4154SOL    HW213362   0.251   5.971   4.333
 4155SOL     OW13363   0.413   0.882   0.891
 4155SOL    HW113364   0.504   0.916   0.914
 4155SOL    HW213365   0.374   0.938   0.819
 4156SOL     OW13366   5.941   5.499   5.431
 4156SOL    HW113367   5.892   5.573   5.478
 4156SOL    HW213368   6.014   5.465   5.489
 4157SOL     OW13369   5.065   6.316   3.407
 4157SOL    HW113370   5.083   6.218   3.420
 4157SOL    HW213371   5.152   6.366   3.410
 4158SOL     OW13372   0.391   2.983   2.185
 4158SOL    HW113373   0.441   3.067   2.205
 4158SOL    HW213374   0.300   3.006   2.151
 4159SOL     OW13375   1.776   2.642   3.256
 4159SOL    HW113376   1.685   2.676   3.280
 4159SOL    HW213377   1.822   2.708   3.198
 4160SOL     OW13378   5.644   7.019   6.798
 4160SOL    HW113379   5.597   0.074   6.836
 4160SOL    HW213380   5.715   6.988   6.862
 4161SOL     OW13381   1.724   2.394   1.324
 4161SOL    HW113382   1.689   2.418   1.415
 4161SOL    HW213383   1.648   2.385   1.260
 4162SOL     OW13384   5.864   5.864   0.464
 4162SOL    HW113385   5.947   5.813   0.487
 4162SOL    HW213386   5.846   5.931   0.536
 4163SOL     OW13387   5.490   0.880   3.249
 4163SOL    HW113388   5.415   0.862   3.185
 4163SOL    HW213389   5.452   0.904   3.339
 4164SOL     OW13390   1.466   0.349   4.485
 4164SOL    HW113391   1.554   0.383   4.453
 4164SOL    HW213392   1.434   0.276   4.426
 4165SOL     OW13393   4.544   0.739   5.322
 4165SOL    HW113394   4.554   0.820   5.264
 4165SOL    HW213395   4.574   0.658   5.272
 4166SOL     OW13396   5.215   1.024   1.086
 4166SOL    HW113397   5.230   1.022   0.987
 4166SOL    HW213398   5.286   1.079   1.129
 4167SOL     OW13399   3.517   4.442   6.782
 4167SOL    HW113400   3.540   4.371   6.716
 4167SOL    HW213401   3.461   4.513   6.738
 4168SOL     OW13402   0.369   4.018   0.751
 4168SOL    HW113403   0.402   4.107   0.784
 4168SOL    HW213404   0.300   3.983   0.815
 4169SOL     OW13405   6.034   4.740   4.484
 4169SOL    HW113406   6.106   4.713   4.419
 4169SOL    HW213407   6.052   4.697   4.572
 4170SOL     OW13408   5.204   3.218   5.564
 4170SOL    HW113409   5.164   3.215   5.472
 4170SOL    HW213410   5.199   3.311   5.599
 4171SOL     OW13411   6.635   5.261   0.708
 4171SOL    HW113412   6.630   5.233   0.612
 4171SOL    HW213413   6.545   5.254   0.750
 4172SOL     OW13414   2.145   2.162   0.372
 4172SOL    HW113415   2.218   2.143   0.437
 4172SOL    HW213416   2.177   2.145   0.279
 4173SOL     OW13417   5.412   3.987   4.702
 4173SOL    HW113418   5.335   3.927   4.720
 4173SOL    HW213419   5.387   4.081   4.726
 4174SOL     OW13420   4.482   1.527   2.439
 4174SOL    HW113421   4.567   1.572   2.414
 4174SOL    HW213422   4.475   1.520   2.539
 4175SOL     OW13423   1.980   4.620   4.222
 4175SOL    HW113424   2.066   4.630   4.272
 4175SOL    HW213425   1.993   4.556   4.146
 4176SOL     OW13426   4.210   6.743   1.669
 4176SOL    HW113427   4.203   6.666   1.733
 4176SOL    HW213428   4.305   6.755   1.640
 4177SOL     OW13429   5.904   5.171   5.545
 4177SOL    HW113430   5.821   5.190   5.596
 4177SOL    HW213431   5.913   5.237   5.470
 4178SOL     OW13432   4.235   0.143   3.801
 4178SOL    HW113433   4.208   0.051   3.832
 4178SOL    HW213434   4.183   0.211   3.853
 4179SOL     OW13435   5.466   3.448   3.248
 4179SOL    HW113436   5.390   3.510   3.235
 4179SOL    HW213437   5.548   3.500   3.273
 4180SOL     OW13438   5.000   3.029   0.677
 4180SOL    HW113439   4.968   3.052   0.585
 4180SOL    HW213440   5.048   3.107   0.716
 4181SOL     OW13441   3.957   0.888   6.511
 4181SOL    HW113442   3.977   0.979   6.548
 4181SOL    HW213443   4.042   0.843   6.485
 4182SOL     OW13444   0.264   5.880   3.513
 4182SOL    HW113445   0.182   5.824   3.495
 4182SOL    HW213446   0.236   5.970   3.546
 4183SOL     OW13447   2.200   1.907   0.162
 4183SOL    HW113448   2.104   1.934   0.161
 4183SOL    HW213449   2.225   1.869   0.073
 4184SOL     OW13450   2.828   6.878   2.418
 4184SOL    HW113451   2.896   6.928   2.364
 4184SOL    HW213452   2.856   6.876   2.514
 4185SOL     OW13453   0.523   4.499   2.732
 4185SOL    HW113454   0.619   4.524   2.721
 4185SOL    HW213455   0.478   4.501   2.642
 4186SOL     OW13456   2.596   4.906   6.630
 4186SOL    HW113457   2.585   4.901   6.729
 4186SOL    HW213458   2.510   4.881   6.585
 4187SOL     OW13459   3.003   3.076   5.555
 4187SOL    HW113460   3.095   3.062   5.592
 4187SOL    HW213461   2.991   3.018   5.474
 4188SOL     OW13462   5.193   0.739   5.151
 4188SOL    HW113463   5.104   0.778   5.175
 4188SOL    HW213464   5.203   0.739   5.051
 4189SOL     OW13465   2.893   5.339   4.427
 4189SOL    HW113466   2.852   5.282   4.498
 4189SOL    HW213467   2.992   5.325   4.425
 4190SOL     OW13468   0.717   0.164   1.266
 4190SOL    HW113469   0.741   0.148   1.170
 4190SOL    HW213470   0.791   0.213   1.311
 4191SOL     OW13471   4.835   4.419   4.125
 4191SOL    HW113472   4.900   4.349   4.155
 4191SOL    HW213473   4.872   4.467   4.046
 4192SOL     OW13474   0.935   1.659   2.891
 4192SOL    HW113475   0.923   1.599   2.812
 4192SOL    HW213476   0.854   1.717   2.901
 4193SOL     OW13477   6.481   0.412   0.628
 4193SOL    HW113478   6.419   0.480   0.589
 4193SOL    HW213479   6.455   0.394   0.723
 4194SOL     OW13480   4.312   0.373   4.859
 4194SOL    HW113481   4.384   0.439   4.838
 4194SOL    HW213482   4.265   0.347   4.775
 4195SOL     OW13483   3.684   5.556   1.475
 4195SOL    HW113484   3.756   5.616   1.510
 4195SOL    HW213485   3.625   5.607   1.412
 4196SOL     OW13486   6.190   2.709   2.580
 4196SOL    HW113487   6.212   2.754   2.666
 4196SOL    HW213488   6.171   2.778   2.510
 4197SOL     OW13489   4.909   5.752   5.866
 4197SOL    HW113490   4.955   5.666   5.845
 4197SOL    HW213491   4.840   5.771   5.795
 4198SOL     OW13492   6.291   1.936   0.551
 4198SOL    HW113493   6.218   1.971   0.610
 4198SOL    HW213494   6.265   1.845   0.517
 4199SOL     OW13495   1.015   2.603   6.131
 4199SOL    HW113496   0.922   2.572   6.150
 4199SOL    HW213497   1.022   2.700   6.153
 4200SOL     OW13498   2.751   0.189   6.260
 4200SOL    HW113499   2.789   0.194   6.353
 4200SOL    HW213500   2.824   0.165   6.196
 4201SOL     OW13501   5.741   6.744   3.763
 4201SOL    HW113502   5.767   6.740   3.667
 4201SOL    HW213503   5.814   6.788   3.816
 4202SOL     OW13504   3.213   5.676   5.914
 4202SOL    HW113505   3.179   5.696   6.006
 4202SOL    HW213506   3.175   5.589   5.882
 4203SOL     OW13507   4.250   4.209   0.052
 4203SOL    HW113508   4.196   4.220   6.993
 4203SOL    HW213509   4.191   4.177   0.126
 4204SOL     OW13510   4.164   3.526   3.857
 4204SOL    HW113511   4.104   3.447   3.856
 4204SOL    HW213512   4.149   3.581   3.775
 4205SOL     OW13513   4.325   6.263   4.106
 4205SOL    HW113514   4.358   6.169   4.094
 4205SOL    HW213515   4.365   6.301   4.190
 4206SOL     OW13516   6.306   0.642   5.284
 4206SOL    HW113517   6.403   0.660   5.300
 4206SOL    HW213518   6.252   0.718   5.320
 4207SOL     OW13519   1.813   2.022   1.782
 4207SOL    HW113520   1.776   2.115   1.789
 4207SOL    HW213521   1.910   2.023   1.807
 4208SOL     OW13522   0.355   3.411   5.300
 4208SOL    HW113523   0.322   3.407   5.206
 4208SOL    HW213524   0.382   3.505   5.322
 4209SOL     OW13525   6.954   0.247   3.852
 4209SOL    HW113526   6.962   0.149   3.835
 4209SOL    HW213527   6.957   0.296   3.765
 4210SOL     OW13528   4.116   3.645   2.132
 4210SOL    HW113529   4.144   3.622   2.039
 4210SOL    HW213530   4.086   3.741   2.135
 4211SOL     OW13531   3.678   0.506   6.380
 4211SOL    HW113532   3.655   0.410   6.360
 4211SOL    HW213533   3.774   0.522   6.359
 4212SOL     OW13534   6.592   2.030   2.823
 4212SOL    HW113535   6.526   2.025   2.749
 4212SOL    HW213536   6.663   1.960   2.810
 4213SOL     OW13537   2.020   0.328   2.255
 4213SOL    HW113538   2.086   0.364   2.322
 4213SOL    HW213539   2.070   0.287   2.179
 4214SOL     OW13540   0.972   5.824   5.339
 4214SOL    HW113541   0.947   5.807   5.434
 4214SOL    HW213542   1.053   5.884   5.336
 4215SOL     OW13543   4.913   0.305   6.305
 4215SOL    HW113544   4.834   0.363   6.284
 4215SOL    HW213545   4.886   0.208   6.299
 4216SOL     OW13546   1.249   1.021   2.982
 4216SOL    HW113547   1.225   1.044   2.888
 4216SOL    HW213548   1.341   0.983   2.985
 4217SOL     OW13549   1.112   0.784   2.857
 4217SOL    HW113550   1.196   0.801   2.909
 4217SOL    HW213551   1.041   0.846   2.889
 4218SOL     OW13552   4.030   1.334   1.954
 4218SOL    HW113553   4.037   1.314   2.051
 4218SOL    HW213554   4.112   1.383   1.924
 4219SOL     OW13555   3.881   6.020   3.949
 4219SOL    HW113556   3.836   6.053   4.032
 4219SOL    HW213557   3.816   5.965   3.896
 4220SOL     OW13558   6.404   3.150   3.363
 4220SOL    HW113559   6.312   3.177   3.391
 4220SOL    HW213560   6.410   3.050   3.362
 4221SOL     OW13561   6.151   5.486   6.118
 4221SOL    HW113562   6.219   5.556   6.098
 4221SOL    HW213563   6.171   5.404   6.065
 4222SOL     OW13564   0.366   1.660   2.374
 4222SOL    HW113565   0.336   1.754   2.353
 4222SOL    HW213566   0.376   1.649   2.472
 4223SOL     OW13567   3.634   3.320   0.257
 4223SOL    HW113568   3.690   3.361   0.185
 4223SOL    HW213569   3.673   3.232   0.284
 4224SOL     OW13570   5.152   4.532   4.093
 4224SOL    HW113571   5.229   4.477   4.061
 4224SOL    HW213572   5.069   4.477   4.092
 4225SOL     OW13573   2.773   2.278   5.816
 4225SOL    HW113574   2.791   2.228   5.732
 4225SOL    HW213575   2.769   2.376   5.797
 4226SOL     OW13576   0.991   6.960   3.037
 4226SOL    HW113577   0.971   6.908   3.120
 4226SOL    HW213578   0.907   7.002   3.003
 4227SOL     OW13579   3.836   5.180   1.458
 4227SOL    HW113580   3.737   5.176   1.463
 4227SOL    HW213581   3.871   5.099   1.411
 4228SOL     OW13582   1.269   5.310   5.275
 4228SOL    HW113583   1.240   5.350   5.187
 4228SOL    HW213584   1.286   5.383   5.340
 4229SOL     OW13585   5.152   6.525   6.098
 4229SOL    HW113586   5.167   6.615   6.057
 4229SOL    HW213587   5.174   6.529   6.195
 4230SOL     OW13588   0.527   5.694   2.402
 4230SOL    HW113589   0.477   5.647   2.475
 4230SOL    HW213590   0.469   5.764   2.361
 4231SOL     OW13591   6.034   6.702   5.869
 4231SOL    HW113592   6.018   6.618   5.920
 4231SOL    HW213593   6.039   6.681   5.771
 4232SOL     OW13594   6.923   4.769   3.082
 4232SOL    HW113595   6.874   4.848   3.046
 4232SOL    HW213596   6.861   4.690   3.084
 4233SOL     OW13597   6.726   6.885   5.926
 4233SOL    HW113598   6.800   6.950   5.944
 4233SOL    HW213599   6.666   6.880   6.006
 4234SOL     OW13600   2.453   6.230   5.053
 4234SOL    HW113601   2.490   6.317   5.021
 4234SOL    HW213602   2.354   6.228   5.039
 4235SOL     OW13603   5.741   4.350   5.774
 4235SOL    HW113604   5.725   4.447   5.790
 4235SOL    HW213605   5.836   4.328   5.796
 4236SOL     OW13606   6.267   3.382   2.208
 4236SOL    HW113607   6.286   3.475   2.239
 4236SOL    HW213608   6.170   3.373   2.186
 4237SOL     OW13609   5.621   5.652   3.365
 4237SOL    HW113610   5.551   5.604   3.418
 4237SOL    HW213611   5.708   5.603   3.374
 4238SOL     OW13612   2.538   6.381   2.685
 4238SOL    HW113613   2.443   6.397   2.713
 4238SOL    HW213614   2.571   6.460   2.635
 4239SOL     OW13615   5.440   1.358   2.552
 4239SOL    HW113616   5.348   1.339   2.515
 4239SOL    HW213617   5.433   1.380   2.649
 4240SOL     OW13618   2.535   5.872   0.180
 4240SOL    HW113619   2.525   5.941   0.251
 4240SOL    HW213620   2.630   5.842   0.176
 4241SOL     OW13621   6.323   1.226   0.287
 4241SOL    HW113622   6.250   1.235   0.354
 4241SOL    HW213623   6.310   1.142   0.234
 4242SOL     OW13624   3.097   1.349   4.113
 4242SOL    HW113625   3.149   1.347   4.028
 4242SOL    HW213626   3.135   1.284   4.178
 4243SOL     OW13627   6.304   3.092   2.782
 4243SOL    HW113628   6.350   3.005   2.764
 4243SOL    HW213629   6.330   3.126   2.872
 4244SOL     OW13630   4.365   4.204   1.560
 4244SOL    HW113631   4.392   4.239   1.649
 4244SOL    HW213632   4.305   4.125   1.571
 4245SOL     OW13633   6.786   1.487   6.599
 4245SOL    HW113634   6.850   1.465   6.526
 4245SOL    HW213635   6.815   1.444   6.685
 4246SOL     OW13636   0.268   3.985   3.448
 4246SOL    HW113637   0.269   3.886   3.464
 4246SOL    HW213638   0.210   4.006   3.369
 4247SOL     OW13639   2.925   5.873   3.741
 4247SOL    HW113640   3.019   5.898   3.766
 4247SOL    HW213641   2.921   5.775   3.721
 4248SOL     OW13642   3.532   1.450   3.161
 4248SOL    HW113643   3.595   1.521   3.131
 4248SOL    HW213644   3.448   1.454   3.107
 4249SOL     OW13645   5.899   2.153   3.779
 4249SOL    HW113646   5.805   2.185   3.768
 4249SOL    HW213647   5.951   2.174   3.697
 4250SOL     OW13648   6.673   4.265   2.962
 4250SOL    HW113649   6.725   4.345   2.991
 4250SOL    HW213650   6.576   4.279   2.981
 4251SOL     OW13651   5.310   4.677   1.424
 4251SOL    HW113652   5.329   4.707   1.517
 4251SOL    HW213653   5.389   4.629   1.387
 4252SOL     OW13654   5.506   6.348   6.226
 4252SOL    HW113655   5.471   6.275   6.167
 4252SOL    HW213656   5.518   6.431   6.172
 4253SOL     OW13657   3.644   6.519   0.878
 4253SOL    HW113658   3.618   6.476   0.792
 4253SOL    HW213659   3.575   6.587   0.903
 4254SOL     OW13660   0.558   3.175   1.660
 4254SOL    HW113661   0.575   3.203   1.565
 4254SOL    HW213662   0.643   3.180   1.712
 4255SOL     OW13663   0.025   4.352   3.655
 4255SOL    HW113664   0.120   4.381   3.649
 4255SOL    HW213665   0.013   4.265   3.607
 4256SOL     OW13666   2.315   6.605   0.344
 4256SOL    HW113667   2.294   6.515   0.382
 4256SOL    HW213668   2.242   6.669   0.371
 4257SOL     OW13669   3.007   0.615   4.553
 4257SOL    HW113670   2.925   0.623   4.495
 4257SOL    HW213671   3.054   0.529   4.531
 4258SOL     OW13672   4.736   6.404   1.175
 4258SOL    HW113673   4.830   6.432   1.194
 4258SOL    HW213674   4.674   6.476   1.203
 4259SOL     OW13675   2.661   0.567   0.733
 4259SOL    HW113676   2.686   0.525   0.646
 4259SOL    HW213677   2.688   0.663   0.733
 4260SOL     OW13678   5.406   0.085   1.262
 4260SOL    HW113679   5.496   0.075   1.304
 4260SOL    HW213680   5.404   0.033   1.176
 4261SOL     OW13681   2.153   0.020   2.229
 4261SOL    HW113682   2.243   7.000   2.230
 4261SOL    HW213683   2.129   0.048   2.322
 4262SOL     OW13684   1.100   4.936   5.734
 4262SOL    HW113685   1.052   4.890   5.658
 4262SOL    HW213686   1.090   4.881   5.817
 4263SOL     OW13687   3.003   6.343   3.351
 4263SOL    HW113688   2.965   6.276   3.415
 4263SOL    HW213689   3.102   6.352   3.368
 4264SOL     OW13690   0.071   2.617   2.676
 4264SOL    HW113691   0.165   2.617   2.711
 4264SOL    HW213692   0.012   2.566   2.738
 4265SOL     OW13693   5.319   1.637   0.941
 4265SOL    HW113694   5.318   1.734   0.961
 4265SOL    HW213695   5.357   1.586   1.018
 4266SOL     OW13696   1.865   5.360   0.362
 4266SOL    HW113697   1.881   5.439   0.302
 4266SOL    HW213698   1.869   5.389   0.458
 4267SOL     OW13699   1.903   3.070   4.643
 4267SOL    HW113700   1.992   3.115   4.647
 4267SOL    HW213701   1.914   2.972   4.662
 4268SOL     OW13702   1.370   5.992   6.454
 4268SOL    HW113703   1.411   6.024   6.539
 4268SOL    HW213704   1.316   6.066   6.414
 4269SOL     OW13705   2.652   0.663   1.479
 4269SOL    HW113706   2.589   0.625   1.547
 4269SOL    HW213707   2.618   0.645   1.387
 4270SOL     OW13708   4.135   3.428   3.468
 4270SOL    HW113709   4.133   3.494   3.544
 4270SOL    HW213710   4.149   3.336   3.505
 4271SOL     OW13711   6.707   1.144   0.026
 4271SOL    HW113712   6.692   1.061   0.079
 4271SOL    HW213713   6.724   1.221   0.088
 4272SOL     OW13714   6.387   2.807   3.946
 4272SOL    HW113715   6.462   2.746   3.972
 4272SOL    HW213716   6.411   2.901   3.969
 4273SOL     OW13717   4.511   6.952   4.816
 4273SOL    HW113718   4.425   6.921   4.775
 4273SOL    HW213719   4.515   0.027   4.813
 4274SOL     OW13720   0.868   6.139   1.694
 4274SOL    HW113721   0.824   6.104   1.776
 4274SOL    HW213722   0.805   6.198   1.645
 4275SOL     OW13723   6.448   1.123   3.799
 4275SOL    HW113724   6.362   1.073   3.806
 4275SOL    HW213725   6.510   1.094   3.872
 4276SOL     OW13726   1.805   5.007   3.333
 4276SOL    HW113727   1.815   5.031   3.429
 4276SOL    HW213728   1.821   5.088   3.276
 4277SOL     OW13729   6.208   4.480   3.849
 4277SOL    HW113730   6.110   4.457   3.854
 4277SOL    HW213731   6.262   4.397   3.857
 4278SOL     OW13732   0.018   0.425   4.549
 4278SOL    HW113733   0.060   0.334   4.555
 4278SOL    HW213734   0.014   0.454   4.454
 4279SOL     OW13735   3.311   0.288   4.261
 4279SOL    HW113736   3.258   0.373   4.261
 4279SOL    HW213737   3.257   0.215   4.301
 4280SOL     OW13738   4.471   0.375   5.815
 4280SOL    HW113739   4.561   0.398   5.852
 4280SOL    HW213740   4.400   0.410   5.876
 4281SOL     OW13741   0.292   4.627   3.533
 4281SOL    HW113742   0.329   4.544   3.575
 4281SOL    HW213743   0.331   4.638   3.442
 4282SOL     OW13744   3.009   4.230   5.908
 4282SOL    HW113745   2.981   4.323   5.934
 4282SOL    HW213746   2.932   4.183   5.865
 4283SOL     OW13747   1.193   0.634   3.640
 4283SOL    HW113748   1.145   0.645   3.727
 4283SOL    HW213749   1.291   0.649   3.654
 4284SOL     OW13750   3.897   4.891   1.427
 4284SOL    HW113751   3.821   4.842   1.470
 4284SOL    HW213752   3.978   4.832   1.426
 4285SOL     OW13753   1.086   0.674   6.163
 4285SOL    HW113754   1.077   0.582   6.202
 4285SOL    HW213755   0.995   0.715   6.153
 4286SOL     OW13756   4.885   6.514   6.372
 4286SOL    HW113757   4.836   6.495   6.458
 4286SOL    HW213758   4.983   6.498   6.385
 4287SOL     OW13759   6.275   2.294   6.414
 4287SOL    HW113760   6.278   2.393   6.426
 4287SOL    HW213761   6.220   2.272   6.334
 4288SOL     OW13762   0.297   6.059   3.973
 4288SOL    HW113763   0.314   6.023   4.064
 4288SOL    HW213764   0.369   6.030   3.911
 4289SOL     OW13765   6.750   2.777   6.977
 4289SOL    HW113766   6.817   2.773   6.902
 4289SOL    HW213767   6.786   2.727   0.031
 4290SOL     OW13768   1.289   6.677   2.726
 4290SOL    HW113769   1.194   6.706   2.712
 4290SOL    HW213770   1.291   6.577   2.738
 4291SOL     OW13771   4.787   3.283   1.236
 4291SOL    HW113772   4.756   3.306   1.143
 4291SOL    HW213773   4.830   3.193   1.235
 4292SOL     OW13774   5.857   3.668   0.247
 4292SOL    HW113775   5.953   3.655   0.272
 4292SOL    HW213776   5.805   3.585   0.265
 4293SOL     OW13777   2.359   2.977   0.534
 4293SOL    HW113778   2.361   2.902   0.468
 4293SOL    HW213779   2.393   3.060   0.490
 4294SOL     OW13780   2.136   3.031   6.888
 4294SOL    HW113781   2.044   3.066   6.867
 4294SOL    HW213782   2.194   3.107   6.919
 4295SOL     OW13783   4.273   5.405   4.444
 4295SOL    HW113784   4.230   5.450   4.366
 4295SOL    HW213785   4.251   5.456   4.527
 4296SOL     OW13786   3.406   0.163   0.201
 4296SOL    HW113787   3.479   0.230   0.220
 4296SOL    HW213788   3.421   0.122   0.111
 4297SOL     OW13789   4.828   0.926   6.992
 4297SOL    HW113790   4.736   0.915   0.006
 4297SOL    HW213791   4.862   0.837   6.963
 4298SOL     OW13792   3.625   5.363   0.567
 4298SOL    HW113793   3.673   5.392   0.650
 4298SOL    HW213794   3.691   5.331   0.499
 4299SOL     OW13795   0.991   2.867   6.202
 4299SOL    HW113796   0.971   2.924   6.122
 4299SOL    HW213797   1.089   2.849   6.207
 4300SOL     OW13798   3.950   0.502   6.891
 4300SOL    HW113799   3.972   0.572   6.823
 4300SOL    HW213800   3.875   0.446   6.857
 4301SOL     OW13801   4.137   1.080   1.593
 4301SOL    HW113802   4.092   1.142   1.657
 4301SOL    HW213803   4.226   1.118   1.567
 4302SOL     OW13804   1.545   6.637   6.275
 4302SOL    HW113805   1.626   6.617   6.220
 4302SOL    HW213806   1.571   6.691   6.355
 4303SOL     OW13807   0.129   4.819   3.970
 4303SOL    HW113808   0.099   4.851   4.060
 4303SOL    HW213809   0.222   4.783   3.977
 4304SOL     OW13810   3.148   3.808   3.319
 4304SOL    HW113811   3.244   3.837   3.319
 4304SOL    HW213812   3.118   3.793   3.225
 4305SOL     OW13813   6.632   0.397   5.071
 4305SOL    HW113814   6.720   0.349   5.068
 4305SOL    HW213815   6.568   0.353   5.008
 4306SOL     OW13816   5.704   4.411   6.117
 4306SOL    HW113817   5.678   4.488   6.175
 4306SOL    HW213818   5.624   4.354   6.098
 4307SOL     OW13819   4.255   4.147   5.848
 4307SOL    HW113820   4.320   4.089   5.800
 4307SOL    HW213821   4.173   4.095   5.871
 4308SOL     OW13822   6.560   5.347   0.141
 4308SOL    HW113823   6.600   5.390   0.060
 4308SOL    HW213824   6.464   5.373   0.149
 4309SOL     OW13825   1.191   1.458   0.440
 4309SOL    HW113826   1.201   1.538   0.498
 4309SOL    HW213827   1.103   1.462   0.392
 4310SOL     OW13828   1.315   2.887   2.654
 4310SOL    HW113829   1.400   2.917   2.611
 4310SOL    HW213830   1.238   2.906   2.593
 4311SOL     OW13831   1.952   5.951   2.703
 4311SOL    HW113832   1.905   5.975   2.618
 4311SOL    HW213833   1.912   6.003   2.779
 4312SOL     OW13834   1.368   4.795   1.152
 4312SOL    HW113835   1.370   4.872   1.216
 4312SOL    HW213836   1.343   4.828   1.061
 4313SOL     OW13837   5.172   1.843   2.129
 4313SOL    HW113838   5.165   1.863   2.031
 4313SOL    HW213839   5.254   1.788   2.145
 4314SOL     OW13840   5.977   1.042   4.618
 4314SOL    HW113841   6.032   1.021   4.699
 4314SOL    HW213842   5.882   1.053   4.644
 4315SOL     OW13843   2.034   7.018   1.748
 4315SOL    HW113844   2.084   6.995   1.832
 4315SOL    HW213845   2.086   0.061   1.696
 4316SOL     OW13846   5.211   0.214   1.789
 4316SOL    HW113847   5.129   0.157   1.791
 4316SOL    HW213848   5.277   0.176   1.724
 4317SOL     OW13849   4.948   1.910   4.465
 4317SOL    HW113850   4.884   1.910   4.541
 4317SOL    HW213851   5.037   1.943   4.497
 4318SOL     OW13852   0.808   3.324   5.316
 4318SOL    HW113853   0.708   3.322   5.321
 4318SOL    HW213854   0.836   3.344   5.222
 4319SOL     OW13855   2.095   2.725   1.076
 4319SOL    HW113856   2.010   2.775   1.086
 4319SOL    HW213857   2.148   2.764   1.001
 4320SOL     OW13858   6.191   5.419   1.190
 4320SOL    HW113859   6.119   5.413   1.258
 4320SOL    HW213860   6.184   5.343   1.126
 4321SOL     OW13861   0.026   6.465   5.516
 4321SOL    HW113862   0.084   6.399   5.563
 4321SOL    HW213863   7.020   6.535   5.581
 4322SOL     OW13864   6.682   2.893   6.617
 4322SOL    HW113865   6.668   2.952   6.696
 4322SOL    HW213866   6.745   2.819   6.641
 4323SOL     OW13867   4.288   3.832   0.806
 4323SOL    HW113868   4.272   3.737   0.835
 4323SOL    HW213869   4.354   3.875   0.868
 4324SOL     OW13870   5.655   4.692   0.261
 4324SOL    HW113871   5.665   4.596   0.238
 4324SOL    HW213872   5.614   4.741   0.185
 4325SOL     OW13873   2.243   1.315   1.183
 4325SOL    HW113874   2.309   1.253   1.142
 4325SOL    HW213875   2.192   1.267   1.255
 4326SOL     OW13876   5.020   4.976   4.878
 4326SOL    HW113877   4.931   5.014   4.853
 4326SOL    HW213878   5.053   4.917   4.804
 4327SOL     OW13879   5.765   6.459   1.805
 4327SOL    HW113880   5.745   6.545   1.759
 4327SOL    HW213881   5.838   6.473   1.872
 4328SOL     OW13882   4.643   3.768   5.338
 4328SOL    HW113883   4.725   3.743   5.390
 4328SOL    HW213884   4.619   3.692   5.277
 4329SOL     OW13885   4.537   1.841   5.791
 4329SOL    HW113886   4.578   1.814   5.878
 4329SOL    HW213887   4.438   1.830   5.796
 4330SOL     OW13888   2.714   0.055   5.028
 4330SOL    HW113889   2.639   0.120   5.013
 4330SOL    HW213890   2.733   0.048   5.126
 4331SOL     OW13891   5.081   2.241   1.275
 4331SOL    HW113892   5.042   2.246   1.368
 4331SOL    HW213893   5.084   2.145   1.247
 4332SOL     OW13894   5.236   4.187   2.607
 4332SOL    HW113895   5.196   4.103   2.569
 4332SOL    HW213896   5.191   4.209   2.693
 4333SOL     OW13897   3.795   0.571   4.949
 4333SOL    HW113898   3.798   0.498   5.017
 4333SOL    HW213899   3.744   0.540   4.869
 4334SOL     OW13900   1.690   2.793   2.615
 4334SOL    HW113901   1.702   2.792   2.715
 4334SOL    HW213902   1.779   2.781   2.571
 4335SOL     OW13903   3.553   3.681   2.336
 4335SOL    HW113904   3.529   3.605   2.397
 4335SOL    HW213905   3.638   3.659   2.288
 4336SOL     OW13906   2.245   6.548   6.874
 4336SOL    HW113907   2.239   6.512   6.781
 4336SOL    HW213908   2.179   6.501   6.933
 4337SOL     OW13909   0.149   4.234   0.836
 4337SOL    HW113910   0.184   4.319   0.873
 4337SOL    HW213911   0.206   4.158   0.868
 4338SOL     OW13912   5.719   5.700   5.343
 4338SOL    HW113913   5.634   5.690   5.292
 4338SOL    HW213914   5.723   5.792   5.383
 4339SOL     OW13915   5.537   3.757   5.075
 4339SOL    HW113916   5.455   3.704   5.096
 4339SOL    HW213917   5.614   3.694   5.064
 4340SOL     OW13918   6.667   3.266   0.926
 4340SOL    HW113919   6.744   3.305   0.977
 4340SOL    HW213920   6.703   3.207   0.853
 4341SOL     OW13921   0.478   5.845   1.715
 4341SOL    HW113922   0.505   5.765   1.768
 4341SOL    HW213923   0.530   5.924   1.745
 4342SOL     OW13924   6.099   4.049   4.312
 4342SOL    HW113925   6.045   3.981   4.363
 4342SOL    HW213926   6.037   4.115   4.270
 4343SOL     OW13927   2.646   5.681   4.941
 4343SOL    HW113928   2.565   5.718   4.984
 4343SOL    HW213929   2.715   5.660   5.011
 4344SOL     OW13930   0.865   4.489   2.197
 4344SOL    HW113931   0.858   4.390   2.205
 4344SOL    HW213932   0.908   4.526   2.280
 4345SOL     OW13933   2.895   3.703   5.329
 4345SOL    HW113934   2.880   3.615   5.283
 4345SOL    HW213935   2.978   3.699   5.385
 4346SOL     OW13936   1.521   3.210   2.258
 4346SOL    HW113937   1.511   3.310   2.268
 4346SOL    HW213938   1.613   3.183   2.284
 4347SOL     OW13939   6.693   6.731   3.095
 4347SOL    HW113940   6.692   6.736   2.995
 4347SOL    HW213941   6.758   6.798   3.131
 4348SOL     OW13942   6.709   4.563   3.066
 4348SOL    HW113943   6.654   4.593   2.988
 4348SOL    HW213944   6.649   4.545   3.144
 4349SOL     OW13945   0.053   1.652   2.603
 4349SOL    HW113946   0.011   1.742   2.593
 4349SOL    HW213947   7.022   1.596   2.665
 4350SOL     OW13948   4.580   1.466   3.935
 4350SOL    HW113949   4.619   1.557   3.923
 4350SOL    HW213950   4.653   1.402   3.960
 4351SOL     OW13951   1.746   5.242   0.920
 4351SOL    HW113952   1.700   5.199   0.842
 4351SOL    HW213953   1.830   5.286   0.890
 4352SOL     OW13954   6.883   3.251   2.130
 4352SOL    HW113955   6.901   3.189   2.206
 4352SOL    HW213956   6.970   3.293   2.102
 4353SOL     OW13957   3.901   3.214   6.464
 4353SOL    HW113958   3.802   3.216   6.451
 4353SOL    HW213959   3.923   3.160   6.545
 4354SOL     OW13960   2.346   6.376   5.408
 4354SOL    HW113961   2.399   6.456   5.379
 4354SOL    HW213962   2.305   6.395   5.498
 4355SOL     OW13963   2.212   0.370   2.462
 4355SOL    HW113964   2.246   0.462   2.483
 4355SOL    HW213965   2.277   0.324   2.402
 4356SOL     OW13966   5.201   3.843   0.998
 4356SOL    HW113967   5.262   3.912   0.958
 4356SOL    HW213968   5.202   3.852   1.098
 4357SOL     OW13969   6.977   1.004   0.811
 4357SOL    HW113970   6.972   1.027   0.714
 4357SOL    HW213971   6.989   0.905   0.822
 4358SOL     OW13972   0.701   6.591   0.287
 4358SOL    HW113973   0.638   6.635   0.223
 4358SOL    HW213974   0.672   6.609   0.381
 4359SOL     OW13975   2.082   1.743   6.760
 4359SOL    HW113976   2.023   1.822   6.743
 4359SOL    HW213977   2.148   1.767   6.832
 4360SOL     OW13978   1.535   2.168   3.410
 4360SOL    HW113979   1.538   2.071   3.388
 4360SOL    HW213980   1.619   2.212   3.379
 4361SOL     OW13981   2.260   3.396   1.390
 4361SOL    HW113982   2.172   3.431   1.421
 4361SOL    HW213983   2.298   3.335   1.459
 4362SOL     OW13984   6.189   5.508   2.800
 4362SOL    HW113985   6.105   5.462   2.770
 4362SOL    HW213986   6.168   5.602   2.824
 4363SOL     OW13987   5.127   2.736   0.487
 4363SOL    HW113988   5.211   2.726   0.540
 4363SOL    HW213989   5.050   2.749   0.549
 4364SOL     OW13990   2.994   3.297   4.551
 4364SOL    HW113991   2.990   3.300   4.651
 4364SOL    HW213992   3.076   3.248   4.522
 4365SOL     OW13993   2.190   1.488   1.905
 4365SOL    HW113994   2.198   1.525   1.813
 4365SOL    HW213995   2.232   1.551   1.970
 4366SOL     OW13996   5.971   0.034   0.131
 4366SOL    HW113997   5.952   0.131   0.114
 4366SOL    HW213998   5.933   0.008   0.220
 4367SOL     OW13999   2.083   4.367   4.080
 4367SOL    HW114000   2.015   4.296   4.101
 4367SOL    HW214001   2.115   4.355   3.986
 4368SOL     OW14002   3.867   4.119   0.515
 4368SOL    HW114003   3.959   4.132   0.552
 4368SOL    HW214004   3.802   4.111   0.591
 4369SOL     OW14005   4.217   5.281   2.747
 4369SOL    HW114006   4.223   5.197   2.694
 4369SOL    HW214007   4.308   5.324   2.751
 4370SOL     OW14008   4.160   5.437   2.291
 4370SOL    HW114009   4.244   5.398   2.253
 4370SOL    HW214010   4.153   5.415   2.388
 4371SOL     OW14011   1.225   2.199   1.800
 4371SOL    HW114012   1.321   2.227   1.793
 4371SOL    HW214013   1.191   2.178   1.708
 4372SOL     OW14014   3.682   1.341   2.589
 4372SOL    HW114015   3.582   1.341   2.586
 4372SOL    HW214016   3.716   1.420   2.538
 4373SOL     OW14017   6.479   2.188   6.284
 4373SOL    HW114018   6.395   2.205   6.335
 4373SOL    HW214019   6.557   2.224   6.334
 4374SOL     OW14020   1.749   2.130   1.537
 4374SOL    HW114021   1.797   2.067   1.598
 4374SOL    HW214022   1.722   2.212   1.588
 4375SOL     OW14023   4.517   0.017   3.225
 4375SOL    HW114024   4.418   0.030   3.218
 4375SOL    HW214025   4.563   0.107   3.223
 4376SOL     OW14026   0.167   6.923   1.182
 4376SOL    HW114027   0.240   6.977   1.140
 4376SOL    HW214028   0.111   6.880   1.111
 4377SOL     OW14029   5.160   4.738   0.501
 4377SOL    HW114030   5.202   4.658   0.458
 4377SOL    HW214031   5.178   4.819   0.445
 4378SOL     OW14032   2.058   2.571   2.993
 4378SOL    HW114033   1.972   2.560   2.944
 4378SOL    HW214034   2.134   2.549   2.932
 4379SOL     OW14035   1.749   1.579   2.950
 4379SOL    HW114036   1.747   1.539   2.858
 4379SOL    HW214037   1.664   1.556   2.998
 4380SOL     OW14038   0.531   6.903   2.493
 4380SOL    HW114039   0.533   6.845   2.575
 4380SOL    HW214040   0.444   6.892   2.446
 4381SOL     OW14041   1.260   5.546   5.441
 4381SOL    HW114042   1.273   5.600   5.525
 4381SOL    HW214043   1.163   5.536   5.422
 4382SOL     OW14044   6.744   3.078   5.315
 4382SOL    HW114045   6.823   3.139   5.311
 4382SOL    HW214046   6.767   2.989   5.275
 4383SOL     OW14047   0.482   3.381   5.951
 4383SOL    HW114048   0.432   3.336   5.877
 4383SOL    HW214049   0.574   3.406   5.920
 4384SOL     OW14050   5.463   0.935   4.373
 4384SOL    HW114051   5.497   0.870   4.440
 4384SOL    HW214052   5.521   1.017   4.373
 4385SOL     OW14053   5.968   2.738   4.439
 4385SOL    HW114054   5.898   2.729   4.510
 4385SOL    HW214055   6.058   2.740   4.483
 4386SOL     OW14056   1.791   3.636   5.815
 4386SOL    HW114057   1.841   3.550   5.829
 4386SOL    HW214058   1.848   3.700   5.764
 4387SOL     OW14059   0.205   1.623   0.877
 4387SOL    HW114060   0.213   1.723   0.867
 4387SOL    HW214061   0.274   1.590   0.941
 4388SOL     OW14062   4.711   2.614   6.313
 4388SOL    HW114063   4.791   2.617   6.373
 4388SOL    HW214064   4.636   2.567   6.359
 4389SOL     OW14065   6.606   3.166   0.604
 4389SOL    HW114066   6.524   3.118   0.571
 4389SOL    HW214067   6.667   3.101   0.648
 4390SOL     OW14068   3.913   0.042   1.761
 4390SOL    HW114069   4.002   0.044   1.715
 4390SOL    HW214070   3.848   7.014   1.705
 4391SOL     OW14071   2.620   5.333   6.600
 4391SOL    HW114072   2.627   5.292   6.509
 4391SOL    HW214073   2.676   5.416   6.604
 4392SOL     OW14074   6.613   3.514   4.843
 4392SOL    HW114075   6.627   3.603   4.887
 4392SOL    HW214076   6.687   3.452   4.870
 4393SOL     OW14077   5.857   0.852   2.987
 4393SOL    HW114078   5.817   0.761   2.984
 4393SOL    HW214079   5.946   0.851   2.941
 4394SOL     OW14080   6.987   5.287   2.275
 4394SOL    HW114081   0.031   5.216   2.286
 4394SOL    HW214082   7.000   5.333   2.187
 4395SOL     OW14083   1.427   6.800   2.530
 4395SOL    HW114084   1.522   6.769   2.523
 4395SOL    HW214085   1.381   6.750   2.603
 4396SOL     OW14086   2.834   1.852   3.944
 4396SOL    HW114087   2.755   1.839   3.884
 4396SOL    HW214088   2.813   1.816   4.035
 4397SOL     OW14089   1.186   2.037   4.308
 4397SOL    HW114090   1.113   1.969   4.308
 4397SOL    HW214091   1.186   2.087   4.395
 4398SOL     OW14092   0.538   3.435   6.221
 4398SOL    HW114093   0.481   3.500   6.271
 4398SOL    HW214094   0.492   3.407   6.137
 4399SOL     OW14095   2.500   0.192   2.626
 4399SOL    HW114096   2.526   0.111   2.574
 4399SOL    HW214097   2.410   0.177   2.667
 4400SOL     OW14098   3.087   6.732   5.565
 4400SOL    HW114099   3.170   6.780   5.535
 4400SOL    HW214100   3.079   6.739   5.664
 4401SOL     OW14101   3.067   0.043   5.859
 4401SOL    HW114102   3.102   0.136   5.847
 4401SOL    HW214103   2.982   0.031   5.807
 4402SOL     OW14104   1.826   1.074   2.134
 4402SOL    HW114105   1.872   1.157   2.163
 4402SOL    HW214106   1.893   1.006   2.105
 4403SOL     OW14107   0.729   0.738   0.843
 4403SOL    HW114108   0.652   0.691   0.800
 4403SOL    HW214109   0.771   0.677   0.911
 4404SOL     OW14110   1.643   5.614   5.729
 4404SOL    HW114111   1.576   5.656   5.790
 4404SOL    HW214112   1.596   5.559   5.660
 4405SOL     OW14113   1.811   4.363   1.757
 4405SOL    HW114114   1.736   4.335   1.698
 4405SOL    HW214115   1.867   4.430   1.709
 4406SOL     OW14116   0.450   3.033   1.236
 4406SOL    HW114117   0.501   2.991   1.161
 4406SOL    HW214118   0.472   2.986   1.321
 4407SOL     OW14119   6.274   5.649   0.663
 4407SOL    HW114120   6.358   5.698   0.688
 4407SOL    HW214121   6.220   5.632   0.745
 4408SOL     OW14122   2.676   0.599   1.018
 4408SOL    HW114123   2.756   0.660   1.014
 4408SOL    HW214124   2.627   0.602   0.931
 4409SOL     OW14125   4.623   1.498   2.133
 4409SOL    HW114126   4.625   1.573   2.067
 4409SOL    HW214127   4.677   1.522   2.213
 4410SOL     OW14128   1.270   5.020   6.904
 4410SOL    HW114129   1.349   5.079   6.887
 4410SOL    HW214130   1.283   4.932   6.859
 4411SOL     OW14131   3.545   3.835   4.988
 4411SOL    HW114132   3.504   3.925   4.973
 4411SOL    HW214133   3.574   3.797   4.901
 4412SOL     OW14134   4.818   6.001   4.055
 4412SOL    HW114135   4.814   6.023   4.152
 4412SOL    HW214136   4.775   6.074   4.002
 4413SOL     OW14137   5.665   5.102   4.758
 4413SOL    HW114138   5.652   5.153   4.673
 4413SOL    HW214139   5.723   5.155   4.820
 4414SOL     OW14140   3.557   5.013   1.263
 4414SOL    HW114141   3.575   5.072   1.184
 4414SOL    HW214142   3.487   4.945   1.239
 4415SOL     OW14143   5.249   2.931   0.824
 4415SOL    HW114144   5.179   2.984   0.777
 4415SOL    HW214145   5.329   2.923   0.765
 4416SOL     OW14146   3.775   1.439   4.434
 4416SOL    HW114147   3.679   1.423   4.412
 4416SOL    HW214148   3.831   1.369   4.391
 4417SOL     OW14149   5.586   4.384   3.594
 4417SOL    HW114150   5.600   4.290   3.625
 4417SOL    HW214151   5.489   4.400   3.578
 4418SOL     OW14152   6.229   1.833   2.241
 4418SOL    HW114153   6.191   1.827   2.333
 4418SOL    HW214154   6.328   1.843   2.246
 4419SOL     OW14155   5.762   6.780   5.938
 4419SOL    HW114156   5.720   6.811   5.853
 4419SOL    HW214157   5.847   6.732   5.917
 4420SOL     OW14158   4.628   1.031   1.666
 4420SOL    HW114159   4.598   1.062   1.756
 4420SOL    HW214160   4.556   0.977   1.623
 4421SOL     OW14161   2.165   1.429   5.163
 4421SOL    HW114162   2.223   1.401   5.087
 4421SOL    HW214163   2.174   1.528   5.177
 4422SOL     OW14164   1.871   3.998   7.008
 4422SOL    HW114165   1.848   4.045   6.923
 4422SOL    HW214166   1.915   4.063   0.046
 4423SOL     OW14167   6.802   3.369   5.232
 4423SOL    HW114168   6.796   3.339   5.136
 4423SOL    HW214169   6.874   3.317   5.278
 4424SOL     OW14170   5.609   1.153   4.290
 4424SOL    HW114171   5.577   1.147   4.196
 4424SOL    HW214172   5.709   1.159   4.291
 4425SOL     OW14173   2.880   4.435   6.846
 4425SOL    HW114174   2.950   4.398   6.785
 4425SOL    HW214175   2.870   4.375   6.925
 4426SOL     OW14176   0.533   1.188   4.173
 4426SOL    HW114177   0.627   1.210   4.201
 4426SOL    HW214178   0.490   1.131   4.243
 4427SOL     OW14179   0.110   6.139   2.323
 4427SOL    HW114180   0.104   6.077   2.401
 4427SOL    HW214181   0.184   6.108   2.262
 4428SOL     OW14182   3.358   1.102   3.763
 4428SOL    HW114183   3.361   1.144   3.672
 4428SOL    HW214184   3.309   1.162   3.825
 4429SOL     OW14185   2.604   7.011   2.509
 4429SOL    HW114186   2.520   6.958   2.494
 4429SOL    HW214187   2.681   6.962   2.469
 4430SOL     OW14188   4.653   4.356   4.987
 4430SOL    HW114189   4.721   4.403   5.043
 4430SOL    HW214190   4.628   4.270   5.032
 4431SOL     OW14191   2.941   1.186   2.642
 4431SOL    HW114192   3.009   1.158   2.574
 4431SOL    HW214193   2.875   1.112   2.655
 4432SOL     OW14194   2.494   3.458   6.143
 4432SOL    HW114195   2.491   3.553   6.111
 4432SOL    HW214196   2.402   3.419   6.141
 4433SOL     OW14197   5.663   1.997   4.472
 4433SOL    HW114198   5.703   1.958   4.389
 4433SOL    HW214199   5.573   2.035   4.450
 4434SOL     OW14200   5.590   1.245   2.972
 4434SOL    HW114201   5.571   1.172   3.038
 4434SOL    HW214202   5.634   1.321   3.019
 4435SOL     OW14203   5.159   3.449   1.065
 4435SOL    HW114204   5.248   3.430   1.108
 4435SOL    HW214205   5.094   3.477   1.135
 4436SOL     OW14206   4.444   0.598   1.311
 4436SOL    HW114207   4.405   0.511   1.342
 4436SOL    HW214208   4.384   0.673   1.339
 4437SOL     OW14209   0.255   2.942   2.964
 4437SOL    HW114210   0.312   2.904   2.892
 4437SOL    HW214211   0.265   3.041   2.966
 4438SOL     OW14212   5.009   6.906   6.385
 4438SOL    HW114213   4.930   6.936   6.333
 4438SOL    HW214214   5.024   6.967   6.463
 4439SOL     OW14215   0.352   4.064   1.596
 4439SOL    HW114216   0.435   4.009   1.604
 4439SOL    HW214217   0.291   4.042   1.672
 4440SOL     OW14218   3.051   4.702   0.229
 4440SOL    HW114219   3.068   4.618   0.178
 4440SOL    HW214220   3.048   4.682   0.327
 4441SOL     OW14221   0.752   1.921   2.136
 4441SOL    HW114222   0.715   1.900   2.226
 4441SOL    HW214223   0.687   1.979   2.086
 4442SOL     OW14224   1.961   5.477   4.164
 4442SOL    HW114225   2.024   5.552   4.183
 4442SOL    HW214226   1.893   5.471   4.238
 4443SOL     OW14227   1.508   3.516   6.283
 4443SOL    HW114228   1.545   3.542   6.194
 4443SOL    HW214229   1.512   3.417   6.294
 4444SOL     OW14230   3.496   4.051   5.318
 4444SOL    HW114231   3.442   4.073   5.237
 4444SOL    HW214232   3.543   3.964   5.305
 4445SOL     OW14233   1.483   6.398   6.965
 4445SOL    HW114234   1.489   6.387   6.866
 4445SOL    HW214235   1.421   6.473   6.986
 4446SOL     OW14236   5.410   1.213   1.358
 4446SOL    HW114237   5.456   1.133   1.396
 4446SOL    HW214238   5.424   1.216   1.259
 4447SOL     OW14239   4.900   4.647   5.973
 4447SOL    HW114240   4.885   4.711   5.897
 4447SOL    HW214241   4.994   4.657   6.006
 4448SOL     OW14242   2.336   4.441   1.579
 4448SOL    HW114243   2.385   4.373   1.634
 4448SOL    HW214244   2.389   4.525   1.576
 4449SOL     OW14245   4.923   1.141   6.226
 4449SOL    HW114246   4.827   1.114   6.218
 4449SOL    HW214247   4.934   1.235   6.193
 4450SOL     OW14248   3.933   2.976   5.913
 4450SOL    HW114249   3.960   2.931   5.827
 4450SOL    HW214250   3.899   3.067   5.893
 4451SOL     OW14251   6.120   4.580   3.165
 4451SOL    HW114252   6.139   4.597   3.262
 4451SOL    HW214253   6.071   4.658   3.127
 4452SOL     OW14254   5.394   5.844   4.363
 4452SOL    HW114255   5.338   5.840   4.446
 4452SOL    HW214256   5.438   5.934   4.357
 4453SOL     OW14257   0.972   3.041   1.112
 4453SOL    HW114258   0.953   3.123   1.168
 4453SOL    HW214259   1.055   3.056   1.058
 4454SOL     OW14260   1.403   1.879   0.035
 4454SOL    HW114261   1.304   1.869   0.023
 4454SOL    HW214262   1.421   1.939   0.112
 4455SOL     OW14263   5.033   6.088   6.214
 4455SOL    HW114264   4.995   6.171   6.172
 4455SOL    HW214265   4.980   6.009   6.184
 4456SOL     OW14266   2.528   5.816   2.254
 4456SOL    HW114267   2.557   5.906   2.222
 4456SOL    HW214268   2.534   5.750   2.178
 4457SOL     OW14269   3.775   1.144   3.005
 4457SOL    HW114270   3.874   1.147   3.018
 4457SOL    HW214271   3.754   1.121   2.910
 4458SOL     OW14272   1.818   2.649   0.488
 4458SOL    HW114273   1.849   2.726   0.434
 4458SOL    HW214274   1.893   2.584   0.502
 4459SOL     OW14275   3.777   1.844   4.128
 4459SOL    HW114276   3.697   1.793   4.160
 4459SOL    HW214277   3.769   1.860   4.029
 4460SOL     OW14278   1.674   2.639   6.283
 4460SOL    HW114279   1.627   2.555   6.256
 4460SOL    HW214280   1.769   2.634   6.254
 4461SOL     OW14281   1.907   0.642   0.776
 4461SOL    HW114282   1.935   0.734   0.803
 4461SOL    HW214283   1.809   0.641   0.756
 4462SOL     OW14284   6.138   5.107   2.156
 4462SOL    HW114285   6.228   5.129   2.194
 4462SOL    HW214286   6.131   5.144   2.063
 4463SOL     OW14287   5.067   1.137   0.825
 4463SOL    HW114288   4.980   1.108   0.866
 4463SOL    HW214289   5.085   1.233   0.850
 4464SOL     OW14290   6.929   5.119   0.349
 4464SOL    HW114291   6.960   5.199   0.298
 4464SOL    HW214292   7.003   5.087   0.408
 4465SOL     OW14293   3.374   4.816   1.084
 4465SOL    HW114294   3.452   4.837   1.025
 4465SOL    HW214295   3.406   4.765   1.164
 4466SOL     OW14296   1.191   1.616   3.022
 4466SOL    HW114297   1.107   1.605   2.970
 4466SOL    HW214298   1.177   1.584   3.115
 4467SOL     OW14299   1.598   5.845   2.620
 4467SOL    HW114300   1.617   5.816   2.713
 4467SOL    HW214301   1.681   5.838   2.565
 4468SOL     OW14302   2.193   3.964   0.379
 4468SOL    HW114303   2.208   3.873   0.341
 4468SOL    HW214304   2.191   3.958   0.479
 4469SOL     OW14305   3.159   0.250   2.018
 4469SOL    HW114306   3.103   0.176   2.055
 4469SOL    HW214307   3.135   0.336   2.064
 4470SOL     OW14308   0.304   2.280   1.978
 4470SOL    HW114309   0.271   2.355   2.034
 4470SOL    HW214310   0.291   2.194   2.027
 4471SOL     OW14311   1.460   2.178   6.392
 4471SOL    HW114312   1.435   2.263   6.438
 4471SOL    HW214313   1.424   2.101   6.443
 4472SOL     OW14314   0.536   3.201   2.187
 4472SOL    HW114315   0.594   3.276   2.155
 4472SOL    HW214316   0.590   3.137   2.241
 4473SOL     OW14317   5.609   2.919   3.856
 4473SOL    HW114318   5.571   2.852   3.792
 4473SOL    HW214319   5.696   2.884   3.891
 4474SOL     OW14320   2.240   0.639   2.196
 4474SOL    HW114321   2.241   0.561   2.134
 4474SOL    HW214322   2.329   0.685   2.194
 4475SOL     OW14323   1.227   4.187   2.221
 4475SOL    HW114324   1.227   4.110   2.157
 4475SOL    HW214325   1.138   4.192   2.267
 4476SOL     OW14326   5.717   0.705   3.359
 4476SOL    HW114327   5.653   0.775   3.325
 4476SOL    HW214328   5.810   0.729   3.331
 4477SOL     OW14329   1.793   0.319   5.754
 4477SOL    HW114330   1.808   0.321   5.853
 4477SOL    HW214331   1.784   0.412   5.720
 4478SOL     OW14332   2.915   6.897   2.677
 4478SOL    HW114333   2.887   6.964   2.745
 4478SOL    HW214334   2.944   6.813   2.723
 4479SOL     OW14335   0.395   2.220   0.883
 4479SOL    HW114336   0.364   2.138   0.835
 4479SOL    HW214337   0.362   2.301   0.834
 4480SOL     OW14338   0.364   4.248   5.139
 4480SOL    HW114339   0.361   4.347   5.149
 4480SOL    HW214340   0.459   4.219   5.124
 4481SOL     OW14341   3.631   5.796   4.699
 4481SOL    HW114342   3.544   5.843   4.683
 4481SOL    HW214343   3.626   5.747   4.786
 4482SOL     OW14344   1.811   3.160   5.195
 4482SOL    HW114345   1.722   3.117   5.210
 4482SOL    HW214346   1.861   3.111   5.123
 4483SOL     OW14347   6.010   2.420   2.032
 4483SOL    HW114348   5.964   2.364   2.101
 4483SOL    HW214349   6.068   2.362   1.975
 4484SOL     OW14350   3.625   2.341   6.617
 4484SOL    HW114351   3.556   2.408   6.592
 4484SOL    HW214352   3.597   2.251   6.584
 4485SOL     OW14353   5.787   2.517   4.068
 4485SOL    HW114354   5.871   2.468   4.048
 4485SOL    HW214355   5.798   2.614   4.046
 4486SOL     OW14356   6.306   5.551   5.514
 4486SOL    HW114357   6.347   5.526   5.427
 4486SOL    HW214358   6.288   5.649   5.516
 4487SOL     OW14359   3.008   2.874   6.242
 4487SOL    HW114360   2.949   2.953   6.258
 4487SOL    HW214361   2.959   2.804   6.191
 4488SOL     OW14362   0.163   3.578   5.650
 4488SOL    HW114363   0.222   3.601   5.727
 4488SOL    HW214364   0.070   3.561   5.684
 4489SOL     OW14365   4.767   5.501   5.342
 4489SOL    HW114366   4.791   5.519   5.438
 4489SOL    HW214367   4.826   5.556   5.283
 4490SOL     OW14368   5.612   2.348   2.368
 4490SOL    HW114369   5.534   2.302   2.411
 4490SOL    HW214370   5.579   2.407   2.294
 4491SOL     OW14371   0.561   3.459   3.807
 4491SOL    HW114372   0.605   3.523   3.869
 4491SOL    HW214373   0.530   3.379   3.859
 4492SOL     OW14374   6.206   4.749   2.359
 4492SOL    HW114375   6.157   4.667   2.388
 4492SOL    HW214376   6.171   4.780   2.271
 4493SOL     OW14377   4.780   5.248   4.602
 4493SOL    HW114378   4.746   5.204   4.685
 4493SOL    HW214379   4.710   5.243   4.531
 4494SOL     OW14380   0.574   0.875   6.710
 4494SOL    HW114381   0.503   0.811   6.681
 4494SOL    HW214382   0.532   0.963   6.735
 4495SOL     OW14383   4.342   6.932   4.161
 4495SOL    HW114384   4.338   0.006   4.176
 4495SOL    HW214385   4.313   6.912   4.067
 4496SOL     OW14386   6.152   6.608   1.361
 4496SOL    HW114387   6.129   6.606   1.264
 4496SOL    HW214388   6.168   6.702   1.389
 4497SOL     OW14389   4.652   2.498   6.706
 4497SOL    HW114390   4.699   2.451   6.632
 4497SOL    HW214391   4.692   2.470   6.794
 4498SOL     OW14392   0.094   3.019   0.430
 4498SOL    HW114393   0.086   3.105   0.481
 4498SOL    HW214394   0.191   2.992   0.427
 4499SOL     OW14395   6.009   3.997   3.934
 4499SOL    HW114396   5.961   3.939   4.000
 4499SOL    HW214397   6.108   3.984   3.943
 4500SOL     OW14398   3.256   3.111   4.492
 4500SOL    HW114399   3.245   3.092   4.394
 4500SOL    HW214400   3.318   3.043   4.532
 4501SOL     OW14401   6.844   3.263   2.730
 4501SOL    HW114402   6.815   3.297   2.641
 4501SOL    HW214403   6.772   3.279   2.798
 4502SOL     OW14404   0.775   2.749   6.844
 4502SOL    HW114405   0.858   2.727   6.895
 4502SOL    HW214406   0.706   2.788   6.906
 4503SOL     OW14407   3.502   6.801   1.842
 4503SOL    HW114408   3.510   6.900   1.851
 4503SOL    HW214409   3.410   6.773   1.871
 4504SOL     OW14410   6.770   1.005   4.699
 4504SOL    HW114411   6.709   0.944   4.648
 4504SOL    HW214412   6.738   1.099   4.688
 4505SOL     OW14413   6.290   5.448   2.006
 4505SOL    HW114414   6.380   5.405   2.013
 4505SOL    HW214415   6.292   5.537   2.051
 4506SOL     OW14416   4.886   3.164   3.435
 4506SOL    HW114417   4.984   3.167   3.416
 4506SOL    HW214418   4.841   3.242   3.390
 4507SOL     OW14419   6.300   4.593   3.599
 4507SOL    HW114420   6.217   4.618   3.549
 4507SOL    HW214421   6.275   4.559   3.690
 4508SOL     OW14422   1.597   5.133   6.941
 4508SOL    HW114423   1.631   5.223   6.967
 4508SOL    HW214424   1.622   5.114   6.846
 4509SOL     OW14425   4.771   2.594   3.017
 4509SOL    HW114426   4.835   2.545   3.075
 4509SOL    HW214427   4.753   2.684   3.055
 4510SOL     OW14428   4.539   1.936   4.172
 4510SOL    HW114429   4.443   1.914   4.153
 4510SOL    HW214430   4.563   2.021   4.126
 4511SOL     OW14431   5.908   4.295   6.321
 4511SOL    HW114432   5.904   4.243   6.406
 4511SOL    HW214433   5.860   4.246   6.249
 4512SOL     OW14434   2.801   1.055   5.790
 4512SOL    HW114435   2.896   1.080   5.810
 4512SOL    HW214436   2.744   1.137   5.788
 4513SOL     OW14437   0.514   4.922   6.534
 4513SOL    HW114438   0.573   4.894   6.458
 4513SOL    HW214439   0.496   4.844   6.593
 4514SOL     OW14440   3.457   2.010   5.829
 4514SOL    HW114441   3.433   1.926   5.780
 4514SOL    HW214442   3.555   2.013   5.844
 4515SOL     OW14443   6.195   2.109   5.129
 4515SOL    HW114444   6.278   2.163   5.143
 4515SOL    HW214445   6.115   2.165   5.147
 4516SOL     OW14446   2.136   6.967   6.962
 4516SOL    HW114447   2.086   6.917   0.008
 4516SOL    HW214448   2.232   6.938   6.962
 4517SOL     OW14449   4.937   6.989   6.975
 4517SOL    HW114450   5.026   6.979   6.931
 4517SOL    HW214451   4.941   0.037   0.019
 4518SOL     OW14452   6.641   6.716   2.357
 4518SOL    HW114453   6.615   6.715   2.260
 4518SOL    HW214454   6.701   6.639   2.376
 4519SOL     OW14455   6.411   0.155   1.275
 4519SOL    HW114456   6.469   0.123   1.350
 4519SOL    HW214457   6.337   0.089   1.259
 4520SOL     OW14458   4.575   6.246   5.743
 4520SOL    HW114459   4.502   6.187   5.776
 4520SOL    HW214460   4.536   6.329   5.702
 4521SOL     OW14461   5.702   2.094   4.797
 4521SOL    HW114462   5.788   2.054   4.831
 4521SOL    HW214463   5.647   2.022   4.755
 4522SOL     OW14464   5.452   5.144   3.825
 4522SOL    HW114465   5.361   5.123   3.789
 4522SOL    HW214466   5.444   5.180   3.918
 4523SOL     OW14467   1.345   4.732   6.808
 4523SOL    HW114468   1.360   4.656   6.745
 4523SOL    HW214469   1.329   4.696   6.900
 4524SOL     OW14470   6.453   2.889   1.688
 4524SOL    HW114471   6.532   2.828   1.685
 4524SOL    HW214472   6.443   2.925   1.781
 4525SOL     OW14473   5.065   2.324   4.932
 4525SOL    HW114474   5.002   2.343   4.857
 4525SOL    HW214475   5.028   2.362   5.017
 4526SOL     OW14476   6.645   0.582   6.477
 4526SOL    HW114477   6.707   0.590   6.554
 4526SOL    HW214478   6.680   0.513   6.413
 4527SOL     OW14479   6.796   1.254   3.085
 4527SOL    HW114480   6.770   1.328   3.022
 4527SOL    HW214481   6.767   1.277   3.178
 4528SOL     OW14482   4.522   0.547   6.720
 4528SOL    HW114483   4.567   0.486   6.785
 4528SOL    HW214484   4.583   0.622   6.697
 4529SOL     OW14485   2.187   0.190   5.229
 4529SOL    HW114486   2.191   0.273   5.173
 4529SOL    HW214487   2.232   0.206   5.316
 4530SOL     OW14488   1.527   5.727   4.290
 4530SOL    HW114489   1.471   5.645   4.296
 4530SOL    HW214490   1.601   5.722   4.357
 4531SOL     OW14491   0.749   2.698   5.583
 4531SOL    HW114492   0.724   2.763   5.654
 4531SOL    HW214493   0.803   2.745   5.513
 4532SOL     OW14494   6.242   1.288   2.155
 4532SOL    HW114495   6.284   1.376   2.133
 4532SOL    HW214496   6.241   1.276   2.254
 4533SOL     OW14497   1.525   1.621   2.446
 4533SOL    HW114498   1.567   1.700   2.400
 4533SOL    HW214499   1.482   1.651   2.531
 4534SOL     OW14500   5.605   4.208   4.804
 4534SOL    HW114501   5.507   4.220   4.820
 4534SOL    HW214502   5.637   4.130   4.859
 4535SOL     OW14503   3.800   0.705   2.076
 4535SOL    HW114504   3.841   0.788   2.039
 4535SOL    HW214505   3.765   0.723   2.168
 4536SOL     OW14506   4.633   1.570   4.328
 4536SOL    HW114507   4.548   1.595   4.374
 4536SOL    HW214508   4.626   1.477   4.293
 4537SOL     OW14509   4.088   3.412   0.697
 4537SOL    HW114510   4.024   3.481   0.664
 4537SOL    HW214511   4.092   3.337   0.632
 4538SOL     OW14512   1.783   0.901   2.538
 4538SOL    HW114513   1.749   0.810   2.511
 4538SOL    HW214514   1.705   0.960   2.561
 4539SOL     OW14515   3.480   6.118   4.832
 4539SOL    HW114516   3.450   6.028   4.800
 4539SOL    HW214517   3.567   6.141   4.789
 4540SOL     OW14518   2.225   2.503   6.867
 4540SOL    HW114519   2.146   2.441   6.870
 4540SOL    HW214520   2.226   2.551   6.780
 4541SOL     OW14521   5.865   1.810   6.763
 4541SOL    HW114522   5.884   1.713   6.747
 4541SOL    HW214523   5.944   1.865   6.734
 4542SOL     OW14524   0.180   2.033   1.564
 4542SOL    HW114525   0.116   2.001   1.493
 4542SOL    HW214526   0.250   2.089   1.522
 4543SOL     OW14527   4.494   2.618   0.956
 4543SOL    HW114528   4.476   2.578   1.046
 4543SOL    HW214529   4.415   2.672   0.927
 4544SOL     OW14530   3.419   5.716   6.509
 4544SOL    HW114531   3.502   5.668   6.482
 4544SOL    HW214532   3.431   5.756   6.600
 4545SOL     OW14533   5.693   3.385   4.103
 4545SOL    HW114534   5.756   3.411   4.176
 4545SOL    HW214535   5.724   3.299   4.061
 4546SOL     OW14536   2.471   0.445   3.964
 4546SOL    HW114537   2.444   0.360   4.009
 4546SOL    HW214538   2.492   0.427   3.868
 4547SOL     OW14539   6.128   2.036   0.774
 4547SOL    HW114540   6.064   2.070   0.844
 4547SOL    HW214541   6.191   2.109   0.748
 4548SOL     OW14542   1.802   2.751   3.974
 4548SOL    HW114543   1.822   2.834   3.921
 4548SOL    HW214544   1.740   2.693   3.922
 4549SOL     OW14545   5.703   3.976   2.518
 4549SOL    HW114546   5.650   3.892   2.501
 4549SOL    HW214547   5.658   4.053   2.472
 4550SOL     OW14548   1.281   5.460   3.310
 4550SOL    HW114549   1.347   5.446   3.383
 4550SOL    HW214550   1.192   5.485   3.349
 4551SOL     OW14551   0.969   3.319   4.712
 4551SOL    HW114552   0.895   3.385   4.727
 4551SOL    HW214553   1.022   3.308   4.797
 4552SOL     OW14554   5.992   2.182   0.965
 4552SOL    HW114555   5.904   2.136   0.960
 4552SOL    HW214556   6.009   2.213   1.059
 4553SOL     OW14557   4.495   4.261   0.411
 4553SOL    HW114558   4.534   4.348   0.439
 4553SOL    HW214559   4.396   4.261   0.428
 4554SOL     OW14560   6.561   6.705   2.100
 4554SOL    HW114561   6.587   6.776   2.034
 4554SOL    HW214562   6.486   6.651   2.063
 4555SOL     OW14563   2.140   1.993   5.149
 4555SOL    HW114564   2.087   1.950   5.075
 4555SOL    HW214565   2.145   2.092   5.132
 4556SOL     OW14566   5.438   3.938   4.439
 4556SOL    HW114567   5.453   3.953   4.537
 4556SOL    HW214568   5.363   3.874   4.426
 4557SOL     OW14569   4.933   5.631   4.714
 4557SOL    HW114570   5.009   5.599   4.770
 4557SOL    HW214571   4.847   5.618   4.763
 4558SOL     OW14572   6.992   4.218   4.595
 4558SOL    HW114573   7.014   4.265   4.681
 4558SOL    HW214574   6.962   4.285   4.527
 4559SOL     OW14575   0.089   3.193   2.757
 4559SOL    HW114576   7.019   3.223   2.767
 4559SOL    HW214577   0.132   3.188   2.848
 4560SOL     OW14578   5.670   4.027   1.125
 4560SOL    HW114579   5.659   4.118   1.085
 4560SOL    HW214580   5.744   4.029   1.192
 4561SOL     OW14581   3.211   1.965   2.954
 4561SOL    HW114582   3.139   1.898   2.973
 4561SOL    HW214583   3.195   2.007   2.865
 4562SOL     OW14584   2.311   6.789   6.229
 4562SOL    HW114585   2.406   6.809   6.251
 4562SOL    HW214586   2.306   6.705   6.175
 4563SOL     OW14587   0.114   2.406   1.438
 4563SOL    HW114588   0.100   2.385   1.535
 4563SOL    HW214589   0.113   2.505   1.426
 4564SOL     OW14590   7.019   6.182   1.853
 4564SOL    HW114591   6.956   6.256   1.827
 4564SOL    HW214592   6.978   6.127   1.925
 4565SOL     OW14593   0.833   0.618   4.572
 4565SOL    HW114594   0.911   0.616   4.510
 4565SOL    HW214595   0.748   0.616   4.519
 4566SOL     OW14596   6.923   2.840   0.488
 4566SOL    HW114597   6.976   2.923   0.471
 4566SOL    HW214598   6.986   2.765   0.509
 4567SOL     OW14599   6.309   1.067   6.538
 4567SOL    HW114600   6.245   1.133   6.501
 4567SOL    HW214601   6.395   1.072   6.487
 4568SOL     OW14602   1.907   3.404   5.789
 4568SOL    HW114603   1.947   3.418   5.699
 4568SOL    HW214604   1.913   3.307   5.814
 4569SOL     OW14605   2.171   0.870   3.420
 4569SOL    HW114606   2.159   0.957   3.372
 4569SOL    HW214607   2.203   0.888   3.513
 4570SOL     OW14608   6.832   6.629   2.630
 4570SOL    HW114609   6.866   6.688   2.557
 4570SOL    HW214610   6.837   6.534   2.601
 4571SOL     OW14611   4.607   3.956   6.089
 4571SOL    HW114612   4.647   4.045   6.064
 4571SOL    HW214613   4.624   3.938   6.186
 4572SOL     OW14614   1.777   0.685   6.379
 4572SOL    HW114615   1.813   0.667   6.470
 4572SOL    HW214616   1.850   0.717   6.319
 4573SOL     OW14617   6.788   0.372   0.252
 4573SOL    HW114618   6.724   0.300   0.280
 4573SOL    HW214619   6.800   0.437   0.327
 4574SOL     OW14620   5.878   4.020   0.516
 4574SOL    HW114621   5.942   4.035   0.591
 4574SOL    HW214622   5.922   4.043   0.429
 4575SOL     OW14623   5.648   0.616   5.608
 4575SOL    HW114624   5.598   0.701   5.590
 4575SOL    HW214625   5.653   0.602   5.707
 4576SOL     OW14626   3.777   5.815   5.573
 4576SOL    HW114627   3.715   5.738   5.588
 4576SOL    HW214628   3.850   5.814   5.641
 4577SOL     OW14629   0.947   1.682   4.337
 4577SOL    HW114630   0.937   1.687   4.437
 4577SOL    HW214631   0.941   1.774   4.299
 4578SOL     OW14632   0.996   2.580   5.141
 4578SOL    HW114633   1.045   2.665   5.159
 4578SOL    HW214634   0.933   2.561   5.216
 4579SOL     OW14635   4.012   0.281   3.264
 4579SOL    HW114636   4.089   0.235   3.220
 4579SOL    HW214637   3.952   0.319   3.194
 4580SOL     OW14638   5.373   4.286   1.074
 4580SOL    HW114639   5.454   4.337   1.043
 4580SOL    HW214640   5.320   4.344   1.136
 4581SOL     OW14641   1.877   5.867   2.183
 4581SOL    HW114642   1.858   5.835   2.090
 4581SOL    HW214643   1.894   5.966   2.181
 4582SOL     OW14644   4.404   0.861   4.859
 4582SOL    HW114645   4.488   0.882   4.810
 4582SOL    HW214646   4.338   0.819   4.796
 4583SOL     OW14647   2.744   1.951   6.916
 4583SOL    HW114648   2.834   1.917   6.889
 4583SOL    HW214649   2.712   2.019   6.850
 4584SOL     OW14650   0.989   4.789   5.198
 4584SOL    HW114651   0.972   4.882   5.166
 4584SOL    HW214652   0.932   4.724   5.148
 4585SOL     OW14653   1.927   5.636   3.230
 4585SOL    HW114654   1.830   5.615   3.222
 4585SOL    HW214655   1.963   5.663   3.141
 4586SOL     OW14656   3.785   4.317   0.794
 4586SOL    HW114657   3.807   4.346   0.887
 4586SOL    HW214658   3.765   4.219   0.793
 4587SOL     OW14659   3.553   4.182   3.811
 4587SOL    HW114660   3.549   4.165   3.910
 4587SOL    HW214661   3.460   4.190   3.775
 4588SOL     OW14662   2.430   3.592   5.538
 4588SOL    HW114663   2.456   3.651   5.462
 4588SOL    HW214664   2.370   3.519   5.504
 4589SOL     OW14665   6.186   0.905   2.315
 4589SOL    HW114666   6.121   0.962   2.266
 4589SOL    HW214667   6.162   0.904   2.413
 4590SOL     OW14668   4.387   5.157   1.422
 4590SOL    HW114669   4.338   5.213   1.489
 4590SOL    HW214670   4.468   5.117   1.465
 4591SOL     OW14671   2.108   0.485   4.923
 4591SOL    HW114672   2.044   0.561   4.917
 4591SOL    HW214673   2.067   0.403   4.884
 4592SOL     OW14674   3.051   1.347   3.423
 4592SOL    HW114675   3.101   1.345   3.336
 4592SOL    HW214676   3.044   1.254   3.459
 4593SOL     OW14677   5.242   6.051   2.080
 4593SOL    HW114678   5.234   5.956   2.107
 4593SOL    HW214679   5.183   6.068   2.001
 4594SOL     OW14680   2.731   1.324   3.255
 4594SOL    HW114681   2.716   1.304   3.351
 4594SOL    HW214682   2.753   1.239   3.206
 4595SOL     OW14683   4.990   3.055   5.711
 4595SOL    HW114684   5.070   3.108   5.684
 4595SOL    HW214685   4.985   2.971   5.657
 4596SOL     OW14686   6.234   1.257   2.430
 4596SOL    HW114687   6.328   1.290   2.434
 4596SOL    HW214688   6.180   1.299   2.503
 4597SOL     OW14689   3.800   5.508   6.775
 4597SOL    HW114690   3.713   5.492   6.823
 4597SOL    HW214691   3.829   5.423   6.731
 4598SOL     OW14692   1.331   6.076   0.787
 4598SOL    HW114693   1.310   6.109   0.696
 4598SOL    HW214694   1.323   5.977   0.790
 4599SOL     OW14695   1.536   5.009   0.174
 4599SOL    HW114696   1.517   5.069   0.096
 4599SOL    HW214697   1.454   5.001   0.231
 4600SOL     OW14698   0.586   5.686   5.246
 4600SOL    HW114699   0.585   5.786   5.252
 4600SOL    HW214700   0.680   5.654   5.237
 4601SOL     OW14701   1.698   1.152   5.410
 4601SOL    HW114702   1.743   1.128   5.496
 4601SOL    HW214703   1.754   1.219   5.361
 4602SOL     OW14704   3.260   6.632   0.188
 4602SOL    HW114705   3.211   6.620   0.274
 4602SOL    HW214706   3.209   6.694   0.128
 4603SOL     OW14707   3.583   6.190   1.050
 4603SOL    HW114708   3.533   6.202   1.136
 4603SOL    HW214709   3.677   6.221   1.061
 4604SOL     OW14710   4.710   0.198   0.101
 4604SOL    HW114711   4.654   0.132   0.051
 4604SOL    HW214712   4.651   0.254   0.159
 4605SOL     OW14713   1.471   6.010   2.471
 4605SOL    HW114714   1.481   5.983   2.375
 4605SOL    HW214715   1.520   5.945   2.529
 4606SOL     OW14716   0.490   0.180   2.389
 4606SOL    HW114717   0.436   0.099   2.366
 4606SOL    HW214718   0.440   0.235   2.456
 4607SOL     OW14719   2.188   3.127   2.674
 4607SOL    HW114720   2.206   3.066   2.752
 4607SOL    HW214721   2.110   3.186   2.695
 4608SOL     OW14722   0.308   5.660   3.930
 4608SOL    HW114723   0.231   5.716   3.959
 4608SOL    HW214724   0.276   5.570   3.901
 4609SOL     OW14725   4.771   5.017   6.751
 4609SOL    HW114726   4.676   5.048   6.748
 4609SOL    HW214727   4.818   5.047   6.668
 4610SOL     OW14728   5.111   1.543   0.174
 4610SOL    HW114729   5.154   1.609   0.236
 4610SOL    HW214730   5.106   1.582   0.082
 4611SOL     OW14731   1.141   6.668   6.009
 4611SOL    HW114732   1.094   6.712   6.085
 4611SOL    HW214733   1.234   6.704   6.000
 4612SOL     OW14734   1.659   6.543   0.746
 4612SOL    HW114735   1.655   6.564   0.648
 4612SOL    HW214736   1.703   6.619   0.794
 4613SOL     OW14737   1.289   5.615   2.174
 4613SOL    HW114738   1.359   5.683   2.152
 4613SOL    HW214739   1.242   5.642   2.259
 4614SOL     OW14740   6.044   3.290   3.650
 4614SOL    HW114741   5.964   3.248   3.693
 4614SOL    HW214742   6.113   3.309   3.720
 4615SOL     OW14743   1.609   1.011   0.007
 4615SOL    HW114744   1.602   0.957   0.091
 4615SOL    HW214745   1.669   1.090   0.023
 4616SOL     OW14746   6.481   1.185   4.447
 4616SOL    HW114747   6.467   1.117   4.518
 4616SOL    HW214748   6.499   1.139   4.360
 4617SOL     OW14749   1.364   2.403   2.051
 4617SOL    HW114750   1.306   2.414   1.970
 4617SOL    HW214751   1.316   2.439   2.131
 4618SOL     OW14752   2.389   3.103   5.434
 4618SOL    HW114753   2.458   3.159   5.480
 4618SOL    HW214754   2.431   3.058   5.355
 4619SOL     OW14755   3.195   5.994   3.783
 4619SOL    HW114756   3.252   5.924   3.740
 4619SOL    HW214757   3.232   6.084   3.761
 4620SOL     OW14758   1.336   4.915   0.924
 4620SOL    HW114759   1.425   4.887   0.888
 4620SOL    HW214760   1.278   4.946   0.848
 4621SOL     OW14761   4.549   0.451   2.669
 4621SOL    HW114762   4.551   0.479   2.573
 4621SOL    HW214763   4.640   0.418   2.696
 4622SOL     OW14764   3.797   4.996   0.697
 4622SOL    HW114765   3.877   4.980   0.755
 4622SOL    HW214766   3.816   5.070   0.634
 4623SOL     OW14767   5.261   5.616   1.824
 4623SOL    HW114768   5.341   5.656   1.779
 4623SOL    HW214769   5.204   5.572   1.755
 4624SOL     OW14770   3.507   0.073   3.037
 4624SOL    HW114771   3.530   0.052   3.132
 4624SOL    HW214772   3.591   0.075   2.982
 4625SOL     OW14773   1.502   4.498   1.356
 4625SOL    HW114774   1.600   4.508   1.373
 4625SOL    HW214775   1.452   4.511   1.441
 4626SOL     OW14776   4.812   3.974   2.229
 4626SOL    HW114777   4.826   4.073   2.242
 4626SOL    HW214778   4.841   3.949   2.136
 4627SOL     OW14779   1.795   4.894   4.779
 4627SOL    HW114780   1.760   4.870   4.870
 4627SOL    HW214781   1.799   4.994   4.771
 4628SOL     OW14782   4.814   4.236   4.776
 4628SOL    HW114783   4.746   4.268   4.843
 4628SOL    HW214784   4.819   4.302   4.700
 4629SOL     OW14785   2.905   5.428   5.517
 4629SOL    HW114786   2.896   5.356   5.586
 4629SOL    HW214787   2.814   5.458   5.488
 4630SOL     OW14788   2.219   6.135   2.127
 4630SOL    HW114789   2.305   6.086   2.112
 4630SOL    HW214790   2.156   6.077   2.179
 4631SOL     OW14791   1.372   5.824   3.198
 4631SOL    HW114792   1.301   5.777   3.250
 4631SOL    HW214793   1.355   5.812   3.100
 4632SOL     OW14794   2.526   4.601   2.829
 4632SOL    HW114795   2.554   4.687   2.787
 4632SOL    HW214796   2.434   4.610   2.866
 4633SOL     OW14797   6.172   0.638   4.380
 4633SOL    HW114798   6.076   0.665   4.370
 4633SOL    HW214799   6.193   0.627   4.477
 4634SOL     OW14800   2.504   3.814   5.370
 4634SOL    HW114801   2.532   3.881   5.439
 4634SOL    HW214802   2.500   3.858   5.280
 4635SOL     OW14803   4.802   3.866   1.751
 4635SOL    HW114804   4.752   3.941   1.795
 4635SOL    HW214805   4.738   3.795   1.723
 4636SOL     OW14806   2.713   4.529   0.497
 4636SOL    HW114807   2.786   4.494   0.438
 4636SOL    HW214808   2.724   4.628   0.507
 4637SOL     OW14809   0.481   6.687   0.893
 4637SOL    HW114810   0.540   6.751   0.941
 4637SOL    HW214811   0.397   6.673   0.945
 4638SOL     OW14812   4.154   5.039   0.103
 4638SOL    HW114813   4.150   5.113   0.035
 4638SOL    HW214814   4.176   4.953   0.057
 4639SOL     OW14815   3.531   3.330   6.187
 4639SOL    HW114816   3.629   3.347   6.181
 4639SOL    HW214817   3.481   3.414   6.164
 4640SOL     OW14818   4.781   4.020   4.331
 4640SOL    HW114819   4.826   3.967   4.402
 4640SOL    HW214820   4.753   4.109   4.368
 4641SOL     OW14821   3.052   0.707   4.804
 4641SOL    HW114822   3.055   0.638   4.877
 4641SOL    HW214823   3.080   0.664   4.717
 4642SOL     OW14824   1.248   0.005   2.975
 4642SOL    HW114825   1.156   7.006   3.007
 4642SOL    HW214826   1.242   0.054   2.888
 4643SOL     OW14827   6.721   2.190   0.636
 4643SOL    HW114828   6.626   2.190   0.666
 4643SOL    HW214829   6.769   2.267   0.678
 4644SOL     OW14830   0.575   6.468   5.058
 4644SOL    HW114831   0.563   6.567   5.059
 4644SOL    HW214832   0.571   6.433   5.152
 4645SOL     OW14833   0.573   0.648   4.478
 4645SOL    HW114834   0.532   0.698   4.554
 4645SOL    HW214835   0.522   0.563   4.462
 4646SOL     OW14836   2.031   5.271   3.151
 4646SOL    HW114837   2.129   5.274   3.169
 4646SOL    HW214838   2.007   5.341   3.083
 4647SOL     OW14839   1.910   0.321   2.658
 4647SOL    HW114840   1.913   0.361   2.567
 4647SOL    HW214841   1.952   0.383   2.724
 4648SOL     OW14842   3.621   0.525   2.694
 4648SOL    HW114843   3.540   0.537   2.751
 4648SOL    HW214844   3.654   0.431   2.702
 4649SOL     OW14845   5.293   1.057   0.404
 4649SOL    HW114846   5.308   1.073   0.307
 4649SOL    HW214847   5.333   0.969   0.431
 4650SOL     OW14848   4.869   5.627   2.049
 4650SOL    HW114849   4.831   5.661   2.134
 4650SOL    HW214850   4.810   5.554   2.013
 4651SOL     OW14851   6.118   3.852   6.396
 4651SOL    HW114852   6.106   3.756   6.420
 4651SOL    HW214853   6.064   3.874   6.315
 4652SOL     OW14854   5.681   6.349   4.692
 4652SOL    HW114855   5.701   6.252   4.703
 4652SOL    HW214856   5.685   6.373   4.595
 4653SOL     OW14857   5.105   5.769   1.163
 4653SOL    HW114858   5.028   5.794   1.221
 4653SOL    HW214859   5.114   5.836   1.089
 4654SOL     OW14860   0.733   5.995   6.274
 4654SOL    HW114861   0.730   6.011   6.373
 4654SOL    HW214862   0.705   6.079   6.227
 4655SOL     OW14863   5.893   3.770   0.974
 4655SOL    HW114864   5.894   3.799   0.879
 4655SOL    HW214865   5.829   3.828   1.026
 4656SOL     OW14866   1.469   0.578   1.738
 4656SOL    HW114867   1.487   0.530   1.824
 4656SOL    HW214868   1.404   0.525   1.683
 4657SOL     OW14869   4.659   5.597   1.582
 4657SOL    HW114870   4.635   5.529   1.652
 4657SOL    HW214871   4.750   5.634   1.602
 4658SOL     OW14872   3.210   0.118   4.441
 4658SOL    HW114873   3.298   0.072   4.429
 4658SOL    HW214874   3.160   0.074   4.517
 4659SOL     OW14875   2.691   4.182   5.813
 4659SOL    HW114876   2.694   4.087   5.843
 4659SOL    HW214877   2.724   4.189   5.719
 4660SOL     OW14878   0.748   5.772   4.920
 4660SOL    HW114879   0.810   5.814   4.986
 4660SOL    HW214880   0.753   5.821   4.833
 4661SOL     OW14881   3.487   4.034   6.433
 4661SOL    HW114882   3.498   4.049   6.334
 4661SOL    HW214883   3.405   3.978   6.448
 4662SOL     OW14884   2.699   0.306   5.520
 4662SOL    HW114885   2.669   0.250   5.597
 4662SOL    HW214886   2.625   0.367   5.491
 4663SOL     OW14887   0.347   1.352   1.454
 4663SOL    HW114888   0.391   1.441   1.470
 4663SOL    HW214889   0.391   1.308   1.376
 4664SOL     OW14890   1.304   1.153   0.764
 4664SOL    HW114891   1.351   1.065   0.765
 4664SOL    HW214892   1.305   1.190   0.671
 4665SOL     OW14893   4.202   6.913   6.550
 4665SOL    HW114894   4.212   6.867   6.462
 4665SOL    HW214895   4.165   6.849   6.617
 4666SOL     OW14896   2.758   2.524   6.950
 4666SOL    HW114897   2.687   2.491   7.012
 4666SOL    HW214898   2.786   2.616   6.977
 4667SOL     OW14899   6.209   3.781   1.844
 4667SOL    HW114900   6.309   3.786   1.852
 4667SOL    HW214901   6.173   3.723   1.918
 4668SOL     OW14902   5.005   1.638   3.537
 4668SOL    HW114903   4.957   1.721   3.564
 4668SOL    HW214904   5.042   1.650   3.445
 4669SOL     OW14905   4.734   6.255   0.967
 4669SOL    HW114906   4.714   6.295   1.056
 4669SOL    HW214907   4.682   6.303   0.896
 4670SOL     OW14908   1.724   2.075   6.370
 4670SOL    HW114909   1.761   2.157   6.326
 4670SOL    HW214910   1.627   2.091   6.392
 4671SOL     OW14911   1.032   3.423   6.628
 4671SOL    HW114912   1.130   3.411   6.643
 4671SOL    HW214913   1.010   3.401   6.533
 4672SOL     OW14914   2.636   5.047   5.701
 4672SOL    HW114915   2.708   4.981   5.722
 4672SOL    HW214916   2.612   5.097   5.784
 4673SOL     OW14917   5.124   6.951   1.596
 4673SOL    HW114918   5.147   6.865   1.641
 4673SOL    HW214919   5.063   7.004   1.654
 4674SOL     OW14920   4.854   1.244   0.181
 4674SOL    HW114921   4.777   1.192   0.217
 4674SOL    HW214922   4.845   1.340   0.209
 4675SOL     OW14923   2.163   1.085   0.442
 4675SOL    HW114924   2.186   1.114   0.350
 4675SOL    HW214925   2.126   1.163   0.493
 4676SOL     OW14926   6.391   6.391   3.952
 4676SOL    HW114927   6.315   6.350   3.901
 4676SOL    HW214928   6.414   6.479   3.911
 4677SOL     OW14929   2.943   0.799   0.082
 4677SOL    HW114930   2.919   0.711   0.122
 4677SOL    HW214931   2.969   0.863   0.154
 4678SOL     OW14932   1.835   4.322   2.740
 4678SOL    HW114933   1.767   4.395   2.731
 4678SOL    HW214934   1.819   4.272   2.825
 4679SOL     OW14935   3.420   1.566   0.073
 4679SOL    HW114936   3.387   1.650   0.030
 4679SOL    HW214937   3.487   1.522   0.013
 4680SOL     OW14938   1.823   0.949   1.533
 4680SOL    HW114939   1.915   0.971   1.567
 4680SOL    HW214940   1.758   0.953   1.609
 4681SOL     OW14941   6.006   5.929   5.731
 4681SOL    HW114942   6.075   5.909   5.801
 4681SOL    HW214943   6.049   5.977   5.655
 4682SOL     OW14944   4.119   4.558   6.233
 4682SOL    HW114945   4.202   4.586   6.185
 4682SOL    HW214946   4.090   4.468   6.199
 4683SOL     OW14947   4.219   4.659   2.606
 4683SOL    HW114948   4.285   4.633   2.676
 4683SOL    HW214949   4.211   4.586   2.539
 4684SOL     OW14950   6.986   1.752   4.997
 4684SOL    HW114951   0.061   1.747   4.988
 4684SOL    HW214952   6.957   1.847   4.995
 4685SOL     OW14953   0.336   6.647   4.977
 4685SOL    HW114954   0.352   6.728   4.921
 4685SOL    HW214955   0.355   6.565   4.923
 4686SOL     OW14956   5.313   5.601   0.597
 4686SOL    HW114957   5.380   5.579   0.669
 4686SOL    HW214958   5.360   5.613   0.510
 4687SOL     OW14959   6.446   4.735   5.294
 4687SOL    HW114960   6.360   4.711   5.250
 4687SOL    HW214961   6.522   4.719   5.230
 4688SOL     OW14962   6.316   3.856   5.485
 4688SOL    HW114963   6.314   3.844   5.386
 4688SOL    HW214964   6.318   3.766   5.530
 4689SOL     OW14965   6.129   0.863   0.075
 4689SOL    HW114966   6.067   0.867   0.153
 4689SOL    HW214967   6.077   0.844   7.017
 4690SOL     OW14968   1.165   0.767   0.092
 4690SOL    HW114969   1.116   0.854   0.096
 4690SOL    HW214970   1.250   0.775   0.144
 4691SOL     OW14971   2.955   4.801   2.186
 4691SOL    HW114972   2.909   4.888   2.203
 4691SOL    HW214973   2.894   4.740   2.136
 4692SOL     OW14974   6.366   5.687   2.214
 4692SOL    HW114975   6.394   5.644   2.299
 4692SOL    HW214976   6.443   5.689   2.150
 4693SOL     OW14977   0.794   0.660   3.580
 4693SOL    HW114978   0.729   0.612   3.639
 4693SOL    HW214979   0.833   0.596   3.514
 4694SOL     OW14980   2.692   0.461   0.463
 4694SOL    HW114981   2.606   0.414   0.482
 4694SOL    HW214982   2.706   0.467   0.364
 4695SOL     OW14983   2.361   3.244   1.654
 4695SOL    HW114984   2.353   3.322   1.716
 4695SOL    HW214985   2.457   3.230   1.629
 4696SOL     OW14986   0.305   4.447   6.219
 4696SOL    HW114987   0.346   4.513   6.282
 4696SOL    HW214988   0.315   4.480   6.125
 4697SOL     OW14989   2.480   2.927   0.770
 4697SOL    HW114990   2.555   2.863   0.756
 4697SOL    HW214991   2.426   2.934   0.687
 4698SOL     OW14992   4.241   5.880   2.758
 4698SOL    HW114993   4.195   5.951   2.704
 4698SOL    HW214994   4.182   5.853   2.834
 4699SOL     OW14995   0.960   6.497   1.802
 4699SOL    HW114996   0.984   6.555   1.880
 4699SOL    HW214997   0.861   6.490   1.794
 4700SOL     OW14998   6.488   1.439   2.431
 4700SOL    HW114999   6.553   1.372   2.395
 4700SOL    HW215000   6.467   1.506   2.360
 4701SOL     OW15001   2.165   2.469   0.985
 4701SOL    HW115002   2.145   2.566   0.978
 4701SOL    HW215003   2.198   2.447   1.076
 4702SOL     OW15004   5.616   4.847   6.637
 4702SOL    HW115005   5.552   4.770   6.631
 4702SOL    HW215006   5.690   4.833   6.571
 4703SOL     OW15007   1.173   2.587   1.890
 4703SOL    HW115008   1.151   2.667   1.835
 4703SOL    HW215009   1.089   2.536   1.910
 4704SOL     OW15010   1.273   6.647   6.877
 4704SOL    HW115011   1.220   6.731   6.866
 4704SOL    HW215012   1.230   6.574   6.823
 4705SOL     OW15013   3.416   3.469   2.435
 4705SOL    HW115014   3.423   3.375   2.469
 4705SOL    HW215015   3.348   3.474   2.363
 4706SOL     OW15016   3.671   6.558   6.160
 4706SOL    HW115017   3.664   6.460   6.183
 4706SOL    HW215018   3.762   6.592   6.186
 4707SOL     OW15019   2.978   5.798   0.880
 4707SOL    HW115020   2.914   5.792   0.957
 4707SOL    HW215021   2.929   5.775   0.796
 4708SOL     OW15022   1.573   2.376   6.201
 4708SOL    HW115023   1.546   2.303   6.263
 4708SOL    HW215024   1.528   2.363   6.113
 4709SOL     OW15025   4.457   5.980   5.977
 4709SOL    HW115026   4.551   6.000   6.005
 4709SOL    HW215027   4.403   5.956   6.057
 4710SOL     OW15028   4.138   1.238   5.817
 4710SOL    HW115029   4.214   1.173   5.824
 4710SOL    HW215030   4.060   1.193   5.774
 4711SOL     OW15031   5.358   1.165   1.847
 4711SOL    HW115032   5.345   1.240   1.782
 4711SOL    HW215033   5.438   1.182   1.903
 4712SOL     OW15034   3.534   3.970   0.261
 4712SOL    HW115035   3.527   4.032   0.339
 4712SOL    HW215036   3.511   3.877   0.290
 4713SOL     OW15037   3.326   3.269   1.190
 4713SOL    HW115038   3.357   3.291   1.282
 4713SOL    HW215039   3.379   3.322   1.123
 4714SOL     OW15040   1.711   2.608   0.040
 4714SOL    HW115041   1.656   2.681   0.081
 4714SOL    HW215042   1.696   2.523   0.089
 4715SOL     OW15043   6.687   3.346   1.543
 4715SOL    HW115044   6.688   3.278   1.470
 4715SOL    HW215045   6.748   3.318   1.616
 4716SOL     OW15046   4.617   6.282   6.464
 4716SOL    HW115047   4.713   6.271   6.490
 4716SOL    HW215048   4.612   6.307   6.367
 4717SOL     OW15049   6.960   6.282   3.328
 4717SOL    HW115050   0.021   6.259   3.281
 4717SOL    HW215051   6.913   6.354   3.277
 4718SOL     OW15052   5.296   2.495   0.762
 4718SOL    HW115053   5.203   2.475   0.791
 4718SOL    HW215054   5.348   2.410   0.752
 4719SOL     OW15055   5.216   2.967   2.165
 4719SOL    HW115056   5.170   3.032   2.226
 4719SOL    HW215057   5.314   2.984   2.166
 4720SOL     OW15058   1.787   5.619   5.251
 4720SOL    HW115059   1.709   5.653   5.199
 4720SOL    HW215060   1.841   5.697   5.285
 4721SOL     OW15061   6.827   2.438   1.333
 4721SOL    HW115062   6.847   2.535   1.322
 4721SOL    HW215063   6.850   2.389   1.248
 4722SOL     OW15064   0.606   5.890   6.671
 4722SOL    HW115065   0.523   5.933   6.704
 4722SOL    HW215066   0.651   5.951   6.606
 4723SOL     OW15067   1.452   4.546   5.934
 4723SOL    HW115068   1.376   4.598   5.976
 4723SOL    HW215069   1.539   4.583   5.967
 4724SOL     OW15070   5.270   5.913   3.028
 4724SOL    HW115071   5.348   5.898   3.089
 4724SOL    HW215072   5.257   6.011   3.015
 4725SOL     OW15073   6.312   6.760   2.750
 4725SOL    HW115074   6.235   6.704   2.719
 4725SOL    HW215075   6.396   6.729   2.707
 4726SOL     OW15076   1.535   2.967   6.097
 4726SOL    HW115077   1.591   2.991   6.018
 4726SOL    HW215078   1.592   2.961   6.179
 4727SOL     OW15079   0.924   6.261   0.060
 4727SOL    HW115080   0.835   6.267   0.106
 4727SOL    HW215081   0.929   6.330   7.013
 4728SOL     OW15082   5.168   0.334   0.905
 4728SOL    HW115083   5.112   0.416   0.916
 4728SOL    HW215084   5.264   0.358   0.921
 4729SOL     OW15085   2.218   1.640   1.690
 4729SOL    HW115086   2.226   1.643   1.590
 4729SOL    HW215087   2.143   1.698   1.719
 4730SOL     OW15088   3.236   5.916   4.442
 4730SOL    HW115089   3.257   5.991   4.380
 4730SOL    HW215090   3.198   5.840   4.390
 4731SOL     OW15091   4.432   0.189   6.137
 4731SOL    HW115092   4.354   0.251   6.140
 4731SOL    HW215093   4.461   0.168   6.230
 4732SOL     OW15094   0.432   3.620   5.466
 4732SOL    HW115095   0.459   3.716   5.473
 4732SOL    HW215096   0.338   3.609   5.498
 4733SOL     OW15097   1.728   4.355   3.583
 4733SOL    HW115098   1.812   4.325   3.538
 4733SOL    HW215099   1.692   4.281   3.639
 4734SOL     OW15100   5.420   2.447   6.553
 4734SOL    HW115101   5.492   2.386   6.522
 4734SOL    HW215102   5.460   2.536   6.577
 4735SOL     OW15103   0.438   6.292   4.498
 4735SOL    HW115104   0.506   6.256   4.435
 4735SOL    HW215105   0.352   6.309   4.449
 4736SOL     OW15106   0.028   2.033   6.761
 4736SOL    HW115107   6.965   2.024   6.714
 4736SOL    HW215108   0.096   1.974   6.718
 4737SOL     OW15109   1.976   4.997   2.161
 4737SOL    HW115110   1.974   4.903   2.125
 4737SOL    HW215111   1.942   5.060   2.091
 4738SOL     OW15112   6.808   6.331   2.841
 4738SOL    HW115113   6.877   6.404   2.838
 4738SOL    HW215114   6.853   6.243   2.857
 4739SOL     OW15115   4.472   6.807   3.371
 4739SOL    HW115116   4.551   6.766   3.326
 4739SOL    HW215117   4.468   6.905   3.348
 4740SOL     OW15118   1.080   1.714   0.876
 4740SOL    HW115119   1.076   1.812   0.860
 4740SOL    HW215120   1.163   1.692   0.927
 4741SOL     OW15121   3.675   2.837   1.948
 4741SOL    HW115122   3.595   2.873   1.899
 4741SOL    HW215123   3.750   2.904   1.943
 4742SOL     OW15124   2.587   6.480   5.705
 4742SOL    HW115125   2.502   6.476   5.758
 4742SOL    HW215126   2.631   6.390   5.705
 4743SOL     OW15127   2.090   4.002   3.299
 4743SOL    HW115128   2.076   3.905   3.319
 4743SOL    HW215129   2.129   4.012   3.207
 4744SOL     OW15130   2.539   4.860   0.659
 4744SOL    HW115131   2.529   4.807   0.743
 4744SOL    HW215132   2.459   4.917   0.646
 4745SOL     OW15133   2.974   3.669   5.986
 4745SOL    HW115134   2.894   3.713   6.026
 4745SOL    HW215135   3.049   3.671   6.052
 4746SOL     OW15136   4.814   6.453   3.551
 4746SOL    HW115137   4.768   6.367   3.574
 4746SOL    HW215138   4.903   6.434   3.511
 4747SOL     OW15139   1.526   4.013   6.927
 4747SOL    HW115140   1.510   4.069   6.846
 4747SOL    HW215141   1.525   4.072   7.008
 4748SOL     OW15142   1.955   5.413   1.150
 4748SOL    HW115143   2.050   5.425   1.123
 4748SOL    HW215144   1.937   5.316   1.165
 4749SOL     OW15145   2.424   6.541   6.450
 4749SOL    HW115146   2.445   6.456   6.402
 4749SOL    HW215147   2.341   6.528   6.505
 4750SOL     OW15148   6.968   3.594   5.118
 4750SOL    HW115149   6.951   3.509   5.168
 4750SOL    HW215150   6.890   3.655   5.127
 4751SOL     OW15151   4.293   1.969   2.962
 4751SOL    HW115152   4.338   2.002   3.045
 4751SOL    HW215153   4.258   2.048   2.910
 4752SOL     OW15154   4.675   1.253   6.968
 4752SOL    HW115155   4.756   1.212   7.010
 4752SOL    HW215156   4.644   1.330   7.024
 4753SOL     OW15157   0.469   0.332   4.460
 4753SOL    HW115158   0.454   0.242   4.418
 4753SOL    HW215159   0.521   0.321   4.545
 4754SOL     OW15160   5.391   4.330   4.385
 4754SOL    HW115161   5.361   4.246   4.338
 4754SOL    HW215162   5.413   4.400   4.317
 4755SOL     OW15163   2.597   1.081   0.477
 4755SOL    HW115164   2.594   1.079   0.377
 4755SOL    HW215165   2.693   1.080   0.508
 4756SOL     OW15166   5.883   3.651   6.048
 4756SOL    HW115167   5.862   3.554   6.054
 4756SOL    HW215168   5.939   3.668   5.968
 4757SOL     OW15169   2.304   2.420   1.241
 4757SOL    HW115170   2.273   2.372   1.324
 4757SOL    HW215171   2.285   2.518   1.250
 4758SOL     OW15172   1.540   6.530   3.051
 4758SOL    HW115173   1.600   6.450   3.048
 4758SOL    HW215174   1.559   6.589   2.973
 4759SOL     OW15175   0.710   4.854   6.345
 4759SOL    HW115176   0.664   4.876   6.259
 4759SOL    HW215177   0.780   4.923   6.364
 4760SOL     OW15178   1.897   2.030   0.381
 4760SOL    HW115179   1.968   2.100   0.379
 4760SOL    HW215180   1.914   1.967   0.456
 4761SOL     OW15181   0.950   6.672   0.210
 4761SOL    HW115182   1.003   6.603   0.161
 4761SOL    HW215183   0.856   6.641   0.219
 4762SOL     OW15184   1.194   5.365   2.084
 4762SOL    HW115185   1.226   5.455   2.112
 4762SOL    HW215186   1.260   5.296   2.112
 4763SOL     OW15187   5.246   0.712   2.613
 4763SOL    HW115188   5.195   0.784   2.660
 4763SOL    HW215189   5.303   0.662   2.678
 4764SOL     OW15190   4.249   4.017   5.296
 4764SOL    HW115191   4.176   3.963   5.254
 4764SOL    HW215192   4.240   4.112   5.268
 4765SOL     OW15193   3.649   0.935   5.691
 4765SOL    HW115194   3.675   0.839   5.686
 4765SOL    HW215195   3.617   0.957   5.783
 4766SOL     OW15196   5.627   5.245   3.619
 4766SOL    HW115197   5.707   5.258   3.676
 4766SOL    HW215198   5.550   5.213   3.675
 4767SOL     OW15199   3.260   4.976   4.980
 4767SOL    HW115200   3.251   4.956   4.883
 4767SOL    HW215201   3.208   4.909   5.033
 4768SOL     OW15202   4.075   2.692   6.428
 4768SOL    HW115203   4.139   2.733   6.363
 4768SOL    HW215204   4.103   2.598   6.448
 4769SOL     OW15205   4.725   5.916   0.310
 4769SOL    HW115206   4.804   5.890   0.255
 4769SOL    HW215207   4.725   5.865   0.395
 4770SOL     OW15208   0.251   2.235   4.593
 4770SOL    HW115209   0.308   2.311   4.562
 4770SOL    HW215210   0.186   2.210   4.522
 4771SOL     OW15211   2.843   6.510   5.925
 4771SOL    HW115212   2.837   6.597   5.876
 4771SOL    HW215213   2.762   6.499   5.983
 4772SOL     OW15214   3.735   4.898   6.934
 4772SOL    HW115215   3.811   4.926   6.876
 4772SOL    HW215216   3.764   4.823   6.993
 4773SOL     OW15217   0.374   4.940   5.540
 4773SOL    HW115218   0.355   5.006   5.612
 4773SOL    HW215219   0.451   4.973   5.484
 4774SOL     OW15220   1.698   3.881   0.649
 4774SOL    HW115221   1.685   3.970   0.693
 4774SOL    HW215222   1.701   3.809   0.718
 4775SOL     OW15223   5.331   6.301   3.441
 4775SOL    HW115224   5.364   6.349   3.523
 4775SOL    HW215225   5.404   6.242   3.405
 4776SOL     OW15226   0.867   0.289   5.153
 4776SOL    HW115227   0.835   0.196   5.137
 4776SOL    HW215228   0.790   0.352   5.150
 4777SOL     OW15229   1.779   4.907   0.533
 4777SOL    HW115230   1.861   4.936   0.582
 4777SOL    HW215231   1.762   4.970   0.457
 4778SOL     OW15232   6.563   2.733   4.685
 4778SOL    HW115233   6.485   2.770   4.633
 4778SOL    HW215234   6.647   2.744   4.631
 4779SOL     OW15235   5.273   0.333   3.595
 4779SOL    HW115236   5.301   0.346   3.500
 4779SOL    HW215237   5.290   0.417   3.647
 4780SOL     OW15238   6.355   2.971   6.942
 4780SOL    HW115239   6.337   3.038   7.013
 4780SOL    HW215240   6.271   2.952   6.891
 4781SOL     OW15241   2.847   5.055   2.167
 4781SOL    HW115242   2.755   5.094   2.179
 4781SOL    HW215243   2.912   5.105   2.224
 4782SOL     OW15244   6.105   5.150   6.754
 4782SOL    HW115245   6.184   5.176   6.699
 4782SOL    HW215246   6.120   5.177   6.849
 4783SOL     OW15247   5.179   3.319   6.556
 4783SOL    HW115248   5.112   3.342   6.485
 4783SOL    HW215249   5.149   3.236   6.604
 4784SOL     OW15250   6.502   1.917   6.381
 4784SOL    HW115251   6.520   2.013   6.360
 4784SOL    HW215252   6.541   1.894   6.470
 4785SOL     OW15253   0.425   6.157   2.898
 4785SOL    HW115254   0.496   6.177   2.831
 4785SOL    HW215255   0.434   6.219   2.976
 4786SOL     OW15256   2.396   0.044   0.187
 4786SOL    HW115257   2.398   7.005   0.110
 4786SOL    HW215258   2.302   0.052   0.220
 4787SOL     OW15259   3.673   1.633   2.704
 4787SOL    HW115260   3.591   1.666   2.750
 4787SOL    HW215261   3.650   1.602   2.612
 4788SOL     OW15262   6.961   6.821   0.351
 4788SOL    HW115263   6.977   6.758   0.275
 4788SOL    HW215264   6.922   6.771   0.428
 4789SOL     OW15265   5.328   1.376   1.692
 4789SOL    HW115266   5.421   1.372   1.656
 4789SOL    HW215267   5.263   1.367   1.616
 4790SOL     OW15268   6.064   1.523   5.421
 4790SOL    HW115269   6.157   1.488   5.411
 4790SOL    HW215270   6.065   1.605   5.477
 4791SOL     OW15271   6.966   3.093   1.347
 4791SOL    HW115272   6.936   3.188   1.356
 4791SOL    HW215273   0.025   3.089   1.293
 4792SOL     OW15274   2.415   4.436   3.923
 4792SOL    HW115275   2.369   4.506   3.977
 4792SOL    HW215276   2.402   4.347   3.965
 4793SOL     OW15277   1.407   2.929   5.651
 4793SOL    HW115278   1.507   2.934   5.649
 4793SOL    HW215279   1.369   3.006   5.599
 4794SOL     OW15280   4.640   0.198   4.427
 4794SOL    HW115281   4.720   0.226   4.375
 4794SOL    HW215282   4.666   0.183   4.523
 4795SOL     OW15283   6.345   1.740   4.651
 4795SOL    HW115284   6.389   1.665   4.601
 4795SOL    HW215285   6.321   1.708   4.743
 4796SOL     OW15286   3.898   1.118   5.751
 4796SOL    HW115287   3.857   1.090   5.837
 4796SOL    HW215288   3.889   1.045   5.683
 4797SOL     OW15289   0.443   6.863   4.833
 4797SOL    HW115290   0.458   6.937   4.899
 4797SOL    HW215291   0.372   6.891   4.769
 4798SOL     OW15292   0.217   4.631   5.578
 4798SOL    HW115293   0.180   4.559   5.637
 4798SOL    HW215294   0.163   4.714   5.591
 4799SOL     OW15295   4.463   1.814   0.360
 4799SOL    HW115296   4.553   1.810   0.405
 4799SOL    HW215297   4.466   1.881   0.287
 4800SOL     OW15298   1.959   3.449   6.494
 4800SOL    HW115299   2.020   3.373   6.519
 4800SOL    HW215300   1.894   3.418   6.425
 4801SOL     OW15301   3.217   2.467   0.239
 4801SOL    HW115302   3.128   2.456   0.195
 4801SOL    HW215303   3.288   2.435   0.178
 4802SOL     OW15304   0.476   6.658   1.870
 4802SOL    HW115305   0.410   6.672   1.944
 4802SOL    HW215306   0.511   6.747   1.839
 4803SOL     OW15307   0.516   4.390   0.581
 4803SOL    HW115308   0.431   4.430   0.548
 4803SOL    HW215309   0.589   4.405   0.514
 4804SOL     OW15310   6.493   6.256   1.661
 4804SOL    HW115311   6.531   6.181   1.607
 4804SOL    HW215312   6.532   6.343   1.629
 4805SOL     OW15313   6.099   1.144   2.709
 4805SOL    HW115314   6.006   1.137   2.672
 4805SOL    HW215315   6.149   1.060   2.689
 4806SOL     OW15316   0.862   4.145   2.754
 4806SOL    HW115317   0.915   4.229   2.767
 4806SOL    HW215318   0.765   4.168   2.746
 4807SOL     OW15319   0.572   5.180   6.592
 4807SOL    HW115320   0.535   5.199   6.684
 4807SOL    HW215321   0.527   5.099   6.555
 4808SOL     OW15322   4.247   5.655   0.639
 4808SOL    HW115323   4.207   5.650   0.548
 4808SOL    HW215324   4.289   5.567   0.662
 4809SOL     OW15325   3.499   4.485   0.851
 4809SOL    HW115326   3.536   4.468   0.760
 4809SOL    HW215327   3.570   4.467   0.920
 4810SOL     OW15328   1.459   4.163   3.328
 4810SOL    HW115329   1.385   4.096   3.325
 4810SOL    HW215330   1.421   4.252   3.354
 4811SOL     OW15331   3.934   3.455   2.738
 4811SOL    HW115332   3.993   3.375   2.725
 4811SOL    HW215333   3.991   3.533   2.763
 4812SOL     OW15334   0.567   0.496   2.560
 4812SOL    HW115335   0.647   0.492   2.500
 4812SOL    HW215336   0.559   0.587   2.600
 4813SOL     OW15337   5.944   1.525   6.724
 4813SOL    HW115338   5.918   1.434   6.758
 4813SOL    HW215339   6.043   1.534   6.725
 4814SOL     OW15340   6.817   2.942   1.143
 4814SOL    HW115341   6.886   2.999   1.186
 4814SOL    HW215342   6.855   2.851   1.125
 4815SOL     OW15343   5.560   4.229   3.193
 4815SOL    HW115344   5.649   4.268   3.170
 4815SOL    HW215345   5.513   4.203   3.108
 4816SOL     OW15346   2.526   5.385   1.126
 4816SOL    HW115347   2.609   5.419   1.082
 4816SOL    HW215348   2.506   5.293   1.093
 4817SOL     OW15349   2.443   1.161   1.061
 4817SOL    HW115350   2.507   1.127   0.993
 4817SOL    HW215351   2.468   1.125   1.151
 4818SOL     OW15352   0.983   1.132   4.350
 4818SOL    HW115353   0.918   1.084   4.409
 4818SOL    HW215354   0.947   1.137   4.258
 4819SOL     OW15355   2.264   2.376   1.718
 4819SOL    HW115356   2.338   2.362   1.653
 4819SOL    HW215357   2.191   2.430   1.676
 4820SOL     OW15358   6.887   1.793   0.997
 4820SOL    HW115359   6.894   1.850   0.915
 4820SOL    HW215360   6.796   1.750   1.001
 4821SOL     OW15361   0.282   0.613   1.929
 4821SOL    HW115362   0.218   0.539   1.909
 4821SOL    HW215363   0.253   0.696   1.880
 4822SOL     OW15364   1.902   3.007   3.868
 4822SOL    HW115365   1.826   3.071   3.862
 4822SOL    HW215366   1.987   3.057   3.880
 4823SOL     OW15367   0.945   1.276   3.916
 4823SOL    HW115368   0.994   1.360   3.891
 4823SOL    HW215369   0.921   1.226   3.832
 4824SOL     OW15370   5.767   1.798   4.270
 4824SOL    HW115371   5.857   1.815   4.311
 4824SOL    HW215372   5.772   1.816   4.172
 4825SOL     OW15373   1.705   2.504   4.842
 4825SOL    HW115374   1.663   2.479   4.930
 4825SOL    HW215375   1.803   2.518   4.856
 4826SOL     OW15376   0.319   0.565   6.146
 4826SOL    HW115377   0.362   0.531   6.063
 4826SOL    HW215378   0.294   0.661   6.134
 4827SOL     OW15379   6.006   2.264   1.753
 4827SOL    HW115380   6.057   2.296   1.673
 4827SOL    HW215381   6.064   2.204   1.809
 4828SOL     OW15382   5.524   3.396   0.872
 4828SOL    HW115383   5.551   3.372   0.779
 4828SOL    HW215384   5.537   3.494   0.886
 4829SOL     OW15385   3.848   6.562   6.827
 4829SOL    HW115386   3.850   6.650   6.779
 4829SOL    HW215387   3.878   6.490   6.764
 4830SOL     OW15388   5.085   6.369   3.753
 4830SOL    HW115389   5.084   6.333   3.846
 4830SOL    HW215390   5.046   6.302   3.690
 4831SOL     OW15391   0.376   4.793   6.836
 4831SOL    HW115392   0.327   4.752   6.760
 4831SOL    HW215393   0.433   4.724   6.880
 4832SOL     OW15394   2.806   2.562   5.761
 4832SOL    HW115395   2.803   2.554   5.662
 4832SOL    HW215396   2.901   2.556   5.793
 4833SOL     OW15397   4.862   1.145   2.631
 4833SOL    HW115398   4.878   1.048   2.649
 4833SOL    HW215399   4.817   1.187   2.710
 4834SOL     OW15400   3.874   0.301   0.890
 4834SOL    HW115401   3.782   0.266   0.878
 4834SOL    HW215402   3.890   0.377   0.827
 4835SOL     OW15403   0.633   1.667   6.453
 4835SOL    HW115404   0.644   1.765   6.434
 4835SOL    HW215405   0.649   1.615   6.369
 4836SOL     OW15406   5.076   2.660   3.968
 4836SOL    HW115407   4.978   2.640   3.960
 4836SOL    HW215408   5.088   2.740   4.027
 4837SOL     OW15409   4.906   3.585   1.996
 4837SOL    HW115410   4.909   3.684   1.984
 4837SOL    HW215411   4.879   3.542   1.909
 4838SOL     OW15412   0.829   4.738   1.691
 4838SOL    HW115413   0.907   4.696   1.644
 4838SOL    HW215414   0.820   4.700   1.782
 4839SOL     OW15415   1.179   3.301   5.947
 4839SOL    HW115416   1.152   3.395   5.964
 4839SOL    HW215417   1.255   3.299   5.882
 4840SOL     OW15418   0.808   6.029   5.911
 4840SOL    HW115419   0.837   6.121   5.886
 4840SOL    HW215420   0.756   6.033   5.996
 4841SOL     OW15421   3.062   6.291   1.628
 4841SOL    HW115422   3.128   6.220   1.603
 4841SOL    HW215423   3.036   6.279   1.724
 4842SOL     OW15424   2.997   5.033   1.940
 4842SOL    HW115425   3.024   5.117   1.987
 4842SOL    HW215426   2.916   4.994   1.986
 4843SOL     OW15427   6.101   3.099   0.405
 4843SOL    HW115428   6.047   3.069   0.483
 4843SOL    HW215429   6.047   3.087   0.321
 4844SOL     OW15430   6.929   3.901   5.549
 4844SOL    HW115431   6.843   3.934   5.587
 4844SOL    HW215432   6.927   3.905   5.449
 4845SOL     OW15433   5.870   5.613   5.136
 4845SOL    HW115434   5.901   5.520   5.156
 4845SOL    HW215435   5.810   5.645   5.209
 4846SOL     OW15436   6.341   3.194   3.035
 4846SOL    HW115437   6.282   3.134   3.088
 4846SOL    HW215438   6.421   3.220   3.090
 4847SOL     OW15439   2.994   1.423   6.057
 4847SOL    HW115440   2.933   1.371   6.117
 4847SOL    HW215441   2.941   1.460   5.980
 4848SOL     OW15442   1.431   1.221   4.533
 4848SOL    HW115443   1.336   1.201   4.506
 4848SOL    HW215444   1.445   1.320   4.536
 4849SOL     OW15445   1.278   6.623   6.434
 4849SOL    HW115446   1.307   6.676   6.514
 4849SOL    HW215447   1.355   6.617   6.370
 4850SOL     OW15448   3.968   1.645   2.800
 4850SOL    HW115449   3.956   1.722   2.863
 4850SOL    HW215450   3.897   1.577   2.816
 4851SOL     OW15451   4.177   6.478   5.653
 4851SOL    HW115452   4.236   6.558   5.640
 4851SOL    HW215453   4.133   6.483   5.743
 4852SOL     OW15454   1.316   0.175   5.269
 4852SOL    HW115455   1.406   0.133   5.282
 4852SOL    HW215456   1.322   0.272   5.293
 4853SOL     OW15457   2.800   1.075   3.276
 4853SOL    HW115458   2.830   1.014   3.202
 4853SOL    HW215459   2.862   1.067   3.353
 4854SOL     OW15460   5.164   6.791   1.814
 4854SOL    HW115461   5.229   6.721   1.845
 4854SOL    HW215462   5.178   6.875   1.866
 4855SOL     OW15463   6.608   2.964   2.532
 4855SOL    HW115464   6.512   2.984   2.511
 4855SOL    HW215465   6.639   2.887   2.476
 4856SOL     OW15466   1.873   3.935   2.289
 4856SOL    HW115467   1.813   3.865   2.251
 4856SOL    HW215468   1.838   4.025   2.264
 4857SOL     OW15469   1.559   2.447   5.456
 4857SOL    HW115470   1.597   2.472   5.366
 4857SOL    HW215471   1.471   2.401   5.443
 4858SOL     OW15472   1.069   1.091   4.892
 4858SOL    HW115473   1.146   1.126   4.946
 4858SOL    HW215474   1.035   1.163   4.832
 4859SOL     OW15475   1.083   0.783   4.544
 4859SOL    HW115476   1.137   0.725   4.606
 4859SOL    HW215477   1.101   0.879   4.566
 4860SOL     OW15478   3.773   4.281   1.389
 4860SOL    HW115479   3.712   4.297   1.312
 4860SOL    HW215480   3.774   4.362   1.448
 4861SOL     OW15481   4.965   4.752   6.654
 4861SOL    HW115482   5.028   4.795   6.719
 4861SOL    HW215483   4.871   4.760   6.688
 4862SOL     OW15484   2.729   4.728   4.579
 4862SOL    HW115485   2.720   4.712   4.481
 4862SOL    HW215486   2.820   4.699   4.609
 4863SOL     OW15487   6.134   3.600   2.022
 4863SOL    HW115488   6.110   3.504   2.040
 4863SOL    HW215489   6.139   3.650   2.108
 4864SOL     OW15490   3.763   1.286   3.289
 4864SOL    HW115491   3.697   1.307   3.217
 4864SOL    HW215492   3.718   1.290   3.378
 4865SOL     OW15493   2.237   0.448   5.148
 4865SOL    HW115494   2.269   0.536   5.183
 4865SOL    HW215495   2.187   0.462   5.062
 4866SOL     OW15496   6.411   1.839   1.094
 4866SOL    HW115497   6.419   1.936   1.072
 4866SOL    HW215498   6.333   1.825   1.155
 4867SOL     OW15499   3.384   5.475   2.230
 4867SOL    HW115500   3.285   5.476   2.246
 4867SOL    HW215501   3.429   5.421   2.301
 4868SOL     OW15502   6.524   4.747   2.441
 4868SOL    HW115503   6.596   4.711   2.382
 4868SOL    HW215504   6.447   4.777   2.384
 4869SOL     OW15505   1.128   1.788   2.096
 4869SOL    HW115506   1.177   1.815   2.013
 4869SOL    HW215507   1.191   1.792   2.174
 4870SOL     OW15508   0.451   6.499   1.648
 4870SOL    HW115509   0.425   6.548   1.732
 4870SOL    HW215510   0.514   6.555   1.595
 4871SOL     OW15511   1.510   0.701   3.950
 4871SOL    HW115512   1.542   0.727   3.858
 4871SOL    HW215513   1.441   0.767   3.980
 4872SOL     OW15514   6.280   0.051   3.796
 4872SOL    HW115515   6.297   6.999   3.859
 4872SOL    HW215516   6.251   0.016   3.707
 4873SOL     OW15517   6.047   5.139   3.720
 4873SOL    HW115518   6.052   5.046   3.756
 4873SOL    HW215519   6.130   5.189   3.745
 4874SOL     OW15520   6.438   3.366   2.683
 4874SOL    HW115521   6.403   3.278   2.716
 4874SOL    HW215522   6.366   3.414   2.633
 4875SOL     OW15523   5.565   2.047   0.770
 4875SOL    HW115524   5.588   1.996   0.853
 4875SOL    HW215525   5.573   1.986   0.691
 4876SOL     OW15526   6.020   2.392   3.052
 4876SOL    HW115527   5.992   2.483   3.084
 4876SOL    HW215528   6.116   2.396   3.024
 4877SOL     OW15529   1.242   1.776   6.583
 4877SOL    HW115530   1.274   1.871   6.576
 4877SOL    HW215531   1.300   1.717   6.528
 4878SOL     OW15532   5.967   1.232   2.147
 4878SOL    HW115533   5.944   1.135   2.156
 4878SOL    HW215534   6.066   1.244   2.159
 4879SOL     OW15535   4.377   0.901   2.921
 4879SOL    HW115536   4.418   0.856   2.841
 4879SOL    HW215537   4.278   0.907   2.909
 4880SOL     OW15538   5.386   3.452   6.726
 4880SOL    HW115539   5.336   3.424   6.644
 4880SOL    HW215540   5.444   3.530   6.704
 4881SOL     OW15541   1.241   0.994   0.287
 4881SOL    HW115542   1.145   0.968   0.291
 4881SOL    HW215543   1.284   0.974   0.376
 4882SOL     OW15544   4.693   0.994   4.807
 4882SOL    HW115545   4.778   0.979   4.756
 4882SOL    HW215546   4.635   1.057   4.756
 4883SOL     OW15547   4.960   5.089   1.682
 4883SOL    HW115548   4.865   5.077   1.712
 4883SOL    HW215549   4.998   5.171   1.724
 4884SOL     OW15550   2.681   6.655   1.014
 4884SOL    HW115551   2.590   6.650   0.972
 4884SOL    HW215552   2.672   6.693   1.107
 4885SOL     OW15553   2.269   5.493   1.849
 4885SOL    HW115554   2.368   5.504   1.853
 4885SOL    HW215555   2.230   5.565   1.792
 4886SOL     OW15556   1.188   6.494   1.339
 4886SOL    HW115557   1.123   6.486   1.263
 4886SOL    HW215558   1.162   6.572   1.397
 4887SOL     OW15559   7.013   0.320   2.226
 4887SOL    HW115560   0.082   0.300   2.197
 4887SOL    HW215561   6.954   0.322   2.145
 4888SOL     OW15562   2.736   0.195   4.220
 4888SOL    HW115563   2.748   0.170   4.316
 4888SOL    HW215564   2.638   0.197   4.198
 4889SOL     OW15565   6.799   2.140   5.287
 4889SOL    HW115566   6.722   2.122   5.226
 4889SOL    HW215567   6.773   2.117   5.381
 4890SOL     OW15568   6.975   0.963   6.646
 4890SOL    HW115569   6.950   0.957   6.549
 4890SOL    HW215570   6.902   1.010   6.695
 4891SOL     OW15571   2.533   4.430   0.143
 4891SOL    HW115572   2.625   4.406   0.112
 4891SOL    HW215573   2.532   4.524   0.175
 4892SOL     OW15574   3.383   6.111   2.492
 4892SOL    HW115575   3.441   6.034   2.463
 4892SOL    HW215576   3.347   6.158   2.412
 4893SOL     OW15577   6.548   2.957   1.240
 4893SOL    HW115578   6.637   2.970   1.196
 4893SOL    HW215579   6.549   2.999   1.331
 4894SOL     OW15580   2.965   0.542   3.174
 4894SOL    HW115581   2.878   0.564   3.219
 4894SOL    HW215582   3.018   0.480   3.232
 4895SOL     OW15583   0.822   4.702   4.239
 4895SOL    HW115584   0.861   4.656   4.319
 4895SOL    HW215585   0.825   4.801   4.252
 4896SOL     OW15586   1.482   4.848   2.130
 4896SOL    HW115587   1.420   4.819   2.058
 4896SOL    HW215588   1.541   4.921   2.096
 4897SOL     OW15589   1.809   4.355   5.647
 4897SOL    HW115590   1.902   4.386   5.627
 4897SOL    HW215591   1.804   4.323   5.742
 4898SOL     OW15592   4.436   0.864   4.425
 4898SOL    HW115593   4.364   0.867   4.494
 4898SOL    HW215594   4.395   0.841   4.336
 4899SOL     OW15595   5.426   5.161   3.139
 4899SOL    HW115596   5.491   5.237   3.148
 4899SOL    HW215597   5.432   5.123   3.047
 4900SOL     OW15598   3.536   6.260   5.080
 4900SOL    HW115599   3.532   6.201   5.000
 4900SOL    HW215600   3.451   6.310   5.089
 4901SOL     OW15601   2.992   1.289   5.151
 4901SOL    HW115602   3.002   1.244   5.239
 4901SOL    HW215603   3.067   1.261   5.090
 4902SOL     OW15604   1.888   1.781   4.726
 4902SOL    HW115605   1.800   1.800   4.768
 4902SOL    HW215606   1.875   1.728   4.642
 4903SOL     OW15607   3.806   5.718   6.974
 4903SOL    HW115608   3.733   5.684   0.010
 4903SOL    HW215609   3.828   5.648   6.907
 4904SOL     OW15610   2.489   0.213   5.010
 4904SOL    HW115611   2.406   0.237   4.958
 4904SOL    HW215612   2.503   0.281   5.082
 4905SOL     OW15613   3.391   0.570   2.874
 4905SOL    HW115614   3.419   0.550   2.968
 4905SOL    HW215615   3.299   0.534   2.858
 4906SOL     OW15616   5.449   1.880   6.494
 4906SOL    HW115617   5.517   1.843   6.558
 4906SOL    HW215618   5.489   1.957   6.444
 4907SOL     OW15619   4.300   6.297   2.384
 4907SOL    HW115620   4.303   6.397   2.391
 4907SOL    HW215621   4.393   6.261   2.373
 4908SOL     OW15622   5.565   6.202   0.516
 4908SOL    HW115623   5.635   6.188   0.586
 4908SOL    HW215624   5.608   6.214   0.427
 4909SOL     OW15625   0.566   0.075   4.344
 4909SOL    HW115626   0.600   7.007   4.364
 4909SOL    HW215627   0.641   0.130   4.306
 4910SOL     OW15628   5.275   1.160   4.988
 4910SOL    HW115629   5.308   1.223   5.058
 4910SOL    HW215630   5.227   1.212   4.918
 4911SOL     OW15631   1.501   4.542   3.672
 4911SOL    HW115632   1.500   4.632   3.715
 4911SOL    HW215633   1.593   4.522   3.639
 4912SOL     OW15634   5.520   1.517   6.717
 4912SOL    HW115635   5.549   1.561   6.632
 4912SOL    HW215636   5.444   1.569   6.757
 4913SOL     OW15637   4.142   2.914   5.407
 4913SOL    HW115638   4.238   2.884   5.412
 4913SOL    HW215639   4.138   3.014   5.411
 4914SOL     OW15640   3.225   0.323   4.833
 4914SOL    HW115641   3.305   0.272   4.800
 4914SOL    HW215642   3.199   0.288   4.923
 4915SOL     OW15643   3.326   6.428   5.871
 4915SOL    HW115644   3.277   6.340   5.876
 4915SOL    HW215645   3.391   6.426   5.796
 4916SOL     OW15646   1.145   0.484   4.099
 4916SOL    HW115647   1.134   0.530   4.187
 4916SOL    HW215648   1.106   0.541   4.027
 4917SOL     OW15649   2.380   5.762   1.624
 4917SOL    HW115650   2.284   5.735   1.621
 4917SOL    HW215651   2.400   5.808   1.710
 4918SOL     OW15652   4.827   5.882   2.882
 4918SOL    HW115653   4.866   5.828   2.957
 4918SOL    HW215654   4.889   5.958   2.861
 4919SOL     OW15655   3.523   2.500   0.808
 4919SOL    HW115656   3.519   2.496   0.708
 4919SOL    HW215657   3.611   2.536   0.836
 4920SOL     OW15658   5.424   0.540   4.513
 4920SOL    HW115659   5.376   0.545   4.600
 4920SOL    HW215660   5.360   0.556   4.438
 4921SOL     OW15661   1.233   5.280   0.872
 4921SOL    HW115662   1.182   5.316   0.794
 4921SOL    HW215663   1.168   5.249   0.942
 4922SOL     OW15664   2.602   2.525   5.188
 4922SOL    HW115665   2.699   2.515   5.209
 4922SOL    HW215666   2.566   2.606   5.236
 4923SOL     OW15667   3.596   1.971   2.594
 4923SOL    HW115668   3.695   1.986   2.605
 4923SOL    HW215669   3.548   2.008   2.673
 4924SOL     OW15670   3.909   1.298   4.818
 4924SOL    HW115671   3.890   1.396   4.805
 4924SOL    HW215672   3.955   1.284   4.906
 4925SOL     OW15673   6.602   6.978   2.681
 4925SOL    HW115674   6.600   6.880   2.664
 4925SOL    HW215675   6.634   0.001   2.599
 4926SOL     OW15676   4.792   1.104   0.465
 4926SOL    HW115677   4.797   1.024   0.524
 4926SOL    HW215678   4.708   1.101   0.410
 4927SOL     OW15679   3.475   3.878   4.574
 4927SOL    HW115680   3.426   3.963   4.554
 4927SOL    HW215681   3.427   3.801   4.532
 4928SOL     OW15682   2.175   6.801   6.722
 4928SOL    HW115683   2.151   6.863   6.797
 4928SOL    HW215684   2.137   6.710   6.740
 4929SOL     OW15685   6.816   6.893   4.138
 4929SOL    HW115686   6.785   6.972   4.085
 4929SOL    HW215687   6.744   6.866   4.203
 4930SOL     OW15688   5.268   0.821   3.084
 4930SOL    HW115689   5.266   0.827   2.984
 4930SOL    HW215690   5.213   0.744   3.114
 4931SOL     OW15691   6.976   6.622   0.763
 4931SOL    HW115692   6.906   6.580   0.820
 4931SOL    HW215693   7.009   6.556   0.696
 4932SOL     OW15694   3.060   3.029   2.260
 4932SOL    HW115695   3.092   3.117   2.295
 4932SOL    HW215696   2.962   3.035   2.240
 4933SOL     OW15697   2.357   6.895   2.514
 4933SOL    HW115698   2.312   6.812   2.480
 4933SOL    HW215699   2.306   6.931   2.592
 4934SOL     OW15700   3.319   5.762   3.037
 4934SOL    HW115701   3.253   5.689   3.023
 4934SOL    HW215702   3.364   5.784   2.950
 4935SOL     OW15703   2.044   1.932   6.508
 4935SOL    HW115704   2.045   2.030   6.488
 4935SOL    HW215705   2.138   1.899   6.520
 4936SOL     OW15706   2.677   4.706   1.395
 4936SOL    HW115707   2.604   4.775   1.392
 4936SOL    HW215708   2.638   4.615   1.386
 4937SOL     OW15709   5.790   2.969   5.584
 4937SOL    HW115710   5.745   2.886   5.552
 4937SOL    HW215711   5.818   3.024   5.506
 4938SOL     OW15712   2.123   4.978   5.660
 4938SOL    HW115713   2.048   5.022   5.709
 4938SOL    HW215714   2.095   4.962   5.565
 4939SOL     OW15715   6.278   2.102   4.347
 4939SOL    HW115716   6.261   2.161   4.426
 4939SOL    HW215717   6.338   2.027   4.374
 4940SOL     OW15718   0.065   1.423   4.708
 4940SOL    HW115719   0.134   1.373   4.655
 4940SOL    HW215720   0.030   1.499   4.653
 4941SOL     OW15721   5.161   2.166   5.696
 4941SOL    HW115722   5.251   2.131   5.721
 4941SOL    HW215723   5.123   2.218   5.773
 4942SOL     OW15724   5.017   2.429   6.170
 4942SOL    HW115725   4.923   2.455   6.145
 4942SOL    HW215726   5.033   2.449   6.266
 4943SOL     OW15727   4.921   3.541   6.703
 4943SOL    HW115728   4.916   3.588   6.791
 4943SOL    HW215729   4.829   3.530   6.666
 4944SOL     OW15730   1.804   4.469   1.497
 4944SOL    HW115731   1.875   4.460   1.427
 4944SOL    HW215732   1.784   4.566   1.511
 4945SOL     OW15733   1.383   0.549   4.287
 4945SOL    HW115734   1.456   0.613   4.267
 4945SOL    HW215735   1.422   0.465   4.326
 4946SOL     OW15736   1.103   3.944   0.159
 4946SOL    HW115737   1.174   4.012   0.179
 4946SOL    HW215738   1.084   3.890   0.241
 4947SOL     OW15739   2.205   0.923   1.187
 4947SOL    HW115740   2.159   0.837   1.208
 4947SOL    HW215741   2.290   0.904   1.137
 4948SOL     OW15742   1.493   2.204   2.210
 4948SOL    HW115743   1.431   2.264   2.160
 4948SOL    HW215744   1.585   2.212   2.172
 4949SOL     OW15745   4.685   6.823   6.435
 4949SOL    HW115746   4.774   6.784   6.412
 4949SOL    HW215747   4.620   6.749   6.451
 4950SOL     OW15748   2.459   5.372   4.423
 4950SOL    HW115749   2.416   5.296   4.374
 4950SOL    HW215750   2.390   5.419   4.478
 4951SOL     OW15751   5.076   1.370   4.089
 4951SOL    HW115752   5.071   1.467   4.064
 4951SOL    HW215753   5.080   1.361   4.189
 4952SOL     OW15754   7.012   0.976   5.473
 4952SOL    HW115755   6.981   1.032   5.549
 4952SOL    HW215756   7.008   0.880   5.498
 4953SOL     OW15757   2.252   6.417   2.111
 4953SOL    HW115758   2.236   6.331   2.158
 4953SOL    HW215759   2.248   6.402   2.012
 4954SOL     OW15760   4.239   3.364   6.906
 4954SOL    HW115761   4.174   3.439   6.916
 4954SOL    HW215762   4.300   3.383   6.829
 4955SOL     OW15763   2.837   5.833   6.593
 4955SOL    HW115764   2.767   5.877   6.537
 4955SOL    HW215765   2.920   5.819   6.538
 4956SOL     OW15766   2.404   6.668   5.025
 4956SOL    HW115767   2.371   6.763   5.029
 4956SOL    HW215768   2.326   6.605   5.032
 4957SOL     OW15769   6.802   1.841   2.256
 4957SOL    HW115770   6.760   1.894   2.182
 4957SOL    HW215771   6.761   1.749   2.259
 4958SOL     OW15772   6.768   5.117   5.131
 4958SOL    HW115773   6.820   5.100   5.215
 4958SOL    HW215774   6.781   5.041   5.068
 4959SOL     OW15775   6.610   1.184   6.590
 4959SOL    HW115776   6.591   1.273   6.548
 4959SOL    HW215777   6.575   1.185   6.684
 4960SOL     OW15778   3.738   5.842   3.021
 4960SOL    HW115779   3.721   5.894   2.937
 4960SOL    HW215780   3.665   5.860   3.087
 4961SOL     OW15781   4.888   1.716   6.087
 4961SOL    HW115782   4.906   1.675   5.997
 4961SOL    HW215783   4.975   1.741   6.130
 4962SOL     OW15784   6.647   2.634   0.399
 4962SOL    HW115785   6.621   2.726   0.371
 4962SOL    HW215786   6.568   2.587   0.438
 4963SOL     OW15787   6.021   5.799   6.800
 4963SOL    HW115788   6.047   5.771   6.892
 4963SOL    HW215789   5.999   5.718   6.745
 4964SOL     OW15790   3.532   6.865   4.107
 4964SOL    HW115791   3.522   6.771   4.074
 4964SOL    HW215792   3.471   6.925   4.057
 4965SOL     OW15793   0.270   0.414   3.627
 4965SOL    HW115794   0.362   0.445   3.604
 4965SOL    HW215795   0.208   0.436   3.551
 4966SOL     OW15796   2.552   0.453   4.693
 4966SOL    HW115797   2.503   0.539   4.710
 4966SOL    HW215798   2.647   0.462   4.724
 4967SOL     OW15799   3.644   3.822   6.057
 4967SOL    HW115800   3.714   3.760   6.092
 4967SOL    HW215801   3.635   3.900   6.119
 4968SOL     OW15802   6.214   2.440   3.328
 4968SOL    HW115803   6.150   2.498   3.379
 4968SOL    HW215804   6.265   2.497   3.263
 4969SOL     OW15805   2.498   0.769   2.227
 4969SOL    HW115806   2.595   0.742   2.224
 4969SOL    HW215807   2.478   0.814   2.314
 4970SOL     OW15808   1.947   1.966   3.924
 4970SOL    HW115809   1.934   2.043   3.986
 4970SOL    HW215810   1.858   1.935   3.891
 4971SOL     OW15811   6.288   6.680   3.727
 4971SOL    HW115812   6.231   6.760   3.746
 4971SOL    HW215813   6.384   6.703   3.746
 4972SOL     OW15814   2.257   2.811   6.998
 4972SOL    HW115815   2.200   2.733   6.973
 4972SOL    HW215816   2.218   2.894   6.959
 4973SOL     OW15817   0.496   0.292   2.751
 4973SOL    HW115818   0.504   0.368   2.687
 4973SOL    HW215819   0.552   0.310   2.832
 4974SOL     OW15820   5.748   4.866   1.374
 4974SOL    HW115821   5.820   4.827   1.431
 4974SOL    HW215822   5.666   4.882   1.429
 4975SOL     OW15823   5.512   5.199   5.857
 4975SOL    HW115824   5.467   5.118   5.820
 4975SOL    HW215825   5.446   5.274   5.861
 4976SOL     OW15826   2.886   6.864   4.435
 4976SOL    HW115827   2.882   6.766   4.458
 4976SOL    HW215828   2.877   6.875   4.337
 4977SOL     OW15829   4.115   4.020   0.675
 4977SOL    HW115830   4.174   3.954   0.722
 4977SOL    HW215831   4.149   4.113   0.692
 4978SOL     OW15832   0.041   4.187   5.459
 4978SOL    HW115833   0.037   4.091   5.486
 4978SOL    HW215834   0.136   4.220   5.464
 4979SOL     OW15835   0.599   0.216   5.419
 4979SOL    HW115836   0.537   0.293   5.436
 4979SOL    HW215837   0.679   0.225   5.478
 4980SOL     OW15838   4.694   6.563   3.326
 4980SOL    HW115839   4.672   6.486   3.266
 4980SOL    HW215840   4.723   6.529   3.415
 4981SOL     OW15841   5.143   5.790   6.281
 4981SOL    HW115842   5.177   5.848   6.355
 4981SOL    HW215843   5.198   5.805   6.199
 4982SOL     OW15844   2.777   2.045   6.378
 4982SOL    HW115845   2.871   2.012   6.378
 4982SOL    HW215846   2.751   2.073   6.470
 4983SOL     OW15847   5.410   2.338   4.258
 4983SOL    HW115848   5.508   2.334   4.279
 4983SOL    HW215849   5.397   2.370   4.164
 4984SOL     OW15850   6.046   4.362   4.391
 4984SOL    HW115851   6.144   4.348   4.400
 4984SOL    HW215852   6.028   4.426   4.317
 4985SOL     OW15853   5.988   6.589   3.403
 4985SOL    HW115854   6.004   6.602   3.305
 4985SOL    HW215855   6.072   6.559   3.447
 4986SOL     OW15856   5.789   4.201   2.897
 4986SOL    HW115857   5.783   4.263   2.975
 4986SOL    HW215858   5.885   4.176   2.881
 4987SOL     OW15859   0.958   1.664   1.131
 4987SOL    HW115860   0.984   1.605   1.206
 4987SOL    HW215861   1.024   1.655   1.056
 4988SOL     OW15862   5.967   1.214   3.375
 4988SOL    HW115863   6.029   1.216   3.453
 4988SOL    HW215864   5.893   1.280   3.388
 4989SOL     OW15865   5.438   0.410   0.941
 4989SOL    HW115866   5.473   0.321   0.970
 4989SOL    HW215867   5.442   0.474   1.017
 4990SOL     OW15868   1.927   1.482   5.556
 4990SOL    HW115869   1.961   1.430   5.634
 4990SOL    HW215870   1.865   1.554   5.589
 4991SOL     OW15871   0.376   3.485   4.716
 4991SOL    HW115872   0.432   3.491   4.799
 4991SOL    HW215873   0.317   3.565   4.711
 4992SOL     OW15874   4.858   1.209   4.942
 4992SOL    HW115875   4.864   1.162   5.030
 4992SOL    HW215876   4.801   1.155   4.880
 4993SOL     OW15877   3.847   5.250   3.857
 4993SOL    HW115878   3.934   5.270   3.813
 4993SOL    HW215879   3.811   5.164   3.822
 4994SOL     OW15880   1.175   0.235   2.435
 4994SOL    HW115881   1.192   0.222   2.337
 4994SOL    HW215882   1.257   0.209   2.486
 4995SOL     OW15883   6.791   3.133   5.729
 4995SOL    HW115884   6.710   3.074   5.720
 4995SOL    HW215885   6.772   3.205   5.795
 4996SOL     OW15886   1.263   1.317   2.708
 4996SOL    HW115887   1.189   1.253   2.727
 4996SOL    HW215888   1.235   1.379   2.635
 4997SOL     OW15889   6.530   1.634   3.126
 4997SOL    HW115890   6.509   1.724   3.087
 4997SOL    HW215891   6.526   1.639   3.226
 4998SOL     OW15892   2.239   3.728   5.227
 4998SOL    HW115893   2.323   3.686   5.260
 4998SOL    HW215894   2.256   3.825   5.208
 4999SOL     OW15895   5.710   4.948   1.129
 4999SOL    HW115896   5.797   4.943   1.080
 4999SOL    HW215897   5.720   4.912   1.221
 5000SOL     OW15898   1.980   6.477   3.902
 5000SOL    HW115899   2.079   6.465   3.893
 5000SOL    HW215900   1.951   6.554   3.844
 5001SOL     OW15901   1.372   4.392   0.425
 5001SOL    HW115902   1.404   4.301   0.399
 5001SOL    HW215903   1.349   4.444   0.343
 5002SOL     OW15904   1.339   3.372   3.363
 5002SOL    HW115905   1.399   3.327   3.297
 5002SOL    HW215906   1.353   3.471   3.359
 5003SOL     OW15907   2.195   6.676   2.806
 5003SOL    HW115908   2.103   6.689   2.769
 5003SOL    HW215909   2.222   6.581   2.795
 5004SOL     OW15910   3.090   4.905   5.640
 5004SOL    HW115911   3.117   4.962   5.563
 5004SOL    HW215912   3.171   4.865   5.682
 5005SOL     OW15913   3.671   2.002   0.894
 5005SOL    HW115914   3.754   2.039   0.853
 5005SOL    HW215915   3.623   2.075   0.943
 5006SOL     OW15916   4.693   6.641   6.778
 5006SOL    HW115917   4.660   6.549   6.803
 5006SOL    HW215918   4.675   6.704   6.853
 5007SOL     OW15919   1.945   0.338   6.751
 5007SOL    HW115920   2.023   0.289   6.790
 5007SOL    HW215921   1.870   0.340   6.817
 5008SOL     OW15922   6.369   0.517   3.333
 5008SOL    HW115923   6.319   0.495   3.417
 5008SOL    HW215924   6.319   0.586   3.281
 5009SOL     OW15925   1.519   6.256   1.576
 5009SOL    HW115926   1.492   6.177   1.631
 5009SOL    HW215927   1.456   6.267   1.500
 5010SOL     OW15928   3.390   2.944   3.012
 5010SOL    HW115929   3.477   2.925   2.966
 5010SOL    HW215930   3.390   2.901   3.103
 5011SOL     OW15931   1.809   3.449   2.590
 5011SOL    HW115932   1.724   3.414   2.551
 5011SOL    HW215933   1.866   3.485   2.517
 5012SOL     OW15934   5.025   3.374   6.353
 5012SOL    HW115935   4.934   3.391   6.315
 5012SOL    HW215936   5.082   3.329   6.284
 5013SOL     OW15937   5.185   1.722   0.400
 5013SOL    HW115938   5.097   1.762   0.377
 5013SOL    HW215939   5.224   1.770   0.479
 5014SOL     OW15940   5.326   4.294   0.678
 5014SOL    HW115941   5.321   4.303   0.777
 5014SOL    HW215942   5.236   4.313   0.638
 5015SOL     OW15943   4.862   2.245   3.787
 5015SOL    HW115944   4.847   2.230   3.689
 5015SOL    HW215945   4.892   2.159   3.829
 5016SOL     OW15946   2.751   1.811   0.814
 5016SOL    HW115947   2.793   1.723   0.835
 5016SOL    HW215948   2.807   1.859   0.746
 5017SOL     OW15949   1.971   2.723   7.019
 5017SOL    HW115950   2.056   2.695   0.039
 5017SOL    HW215951   1.898   2.660   0.020
 5018SOL     OW15952   0.759   4.407   1.084
 5018SOL    HW115953   0.686   4.398   1.151
 5018SOL    HW215954   0.842   4.441   1.130
 5019SOL     OW15955   2.165   4.990   6.446
 5019SOL    HW115956   2.221   5.052   6.502
 5019SOL    HW215957   2.120   5.043   6.374
 5020SOL     OW15958   4.863   6.755   6.070
 5020SOL    HW115959   4.800   6.822   6.110
 5020SOL    HW215960   4.815   6.703   5.999
 5021SOL     OW15961   1.840   1.722   5.657
 5021SOL    HW115962   1.923   1.691   5.702
 5021SOL    HW215963   1.793   1.789   5.715
 5022SOL     OW15964   1.888   0.079   0.055
 5022SOL    HW115965   1.890   7.011   0.094
 5022SOL    HW215966   1.943   0.081   6.997
 5023SOL     OW15967   6.306   2.613   1.118
 5023SOL    HW115968   6.300   2.667   1.203
 5023SOL    HW215969   6.312   2.675   1.040
 5024SOL     OW15970   6.494   5.200   2.981
 5024SOL    HW115971   6.555   5.249   3.043
 5024SOL    HW215972   6.399   5.220   3.004
 5025SOL     OW15973   3.898   2.099   2.072
 5025SOL    HW115974   3.821   2.154   2.040
 5025SOL    HW215975   3.878   2.063   2.163
 5026SOL     OW15976   5.643   6.159   6.473
 5026SOL    HW115977   5.728   6.113   6.446
 5026SOL    HW215978   5.657   6.258   6.471
 5027SOL     OW15979   0.299   6.916   2.343
 5027SOL    HW115980   0.348   6.894   2.259
 5027SOL    HW215981   0.214   6.964   2.320
 5028SOL     OW15982   0.422   6.371   3.096
 5028SOL    HW115983   0.382   6.395   3.184
 5028SOL    HW215984   0.518   6.399   3.094
 5029SOL     OW15985   6.793   4.017   3.592
 5029SOL    HW115986   6.890   4.029   3.615
 5029SOL    HW215987   6.737   4.079   3.647
 5030SOL     OW15988   7.006   0.576   6.532
 5030SOL    HW115989   6.957   0.605   6.450
 5030SOL    HW215990   0.074   0.546   6.507
 5031SOL     OW15991   5.257   1.070   4.503
 5031SOL    HW115992   5.166   1.071   4.462
 5031SOL    HW215993   5.317   1.010   4.450
 5032SOL     OW15994   1.335   4.286   1.279
 5032SOL    HW115995   1.379   4.224   1.343
 5032SOL    HW215996   1.393   4.366   1.264
 5033SOL     OW15997   1.667   4.948   6.513
 5033SOL    HW115998   1.759   4.913   6.531
 5033SOL    HW215999   1.625   4.893   6.440
 5034SOL     OW16000   6.744   2.435   2.621
 5034SOL    HW116001   6.672   2.500   2.599
 5034SOL    HW216002   6.727   2.348   2.575
 5035SOL     OW16003   6.066   4.717   0.639
 5035SOL    HW116004   6.072   4.692   0.736
 5035SOL    HW216005   6.019   4.645   0.589
 5036SOL     OW16006   6.980   4.475   0.245
 5036SOL    HW116007   7.004   4.512   0.155
 5036SOL    HW216008   6.883   4.490   0.262
 5037SOL     OW16009   5.311   2.012   2.359
 5037SOL    HW116010   5.363   2.021   2.274
 5037SOL    HW216011   5.220   1.978   2.339
 5038SOL     OW16012   1.947   4.744   5.174
 5038SOL    HW116013   1.964   4.686   5.095
 5038SOL    HW216014   1.856   4.785   5.166
 5039SOL     OW16015   1.943   3.803   5.670
 5039SOL    HW116016   1.928   3.900   5.649
 5039SOL    HW216017   2.038   3.780   5.655
 5040SOL     OW16018   1.936   4.884   6.514
 5040SOL    HW116019   2.023   4.926   6.540
 5040SOL    HW216020   1.941   4.856   6.418
 5041SOL     OW16021   1.492   3.359   1.361
 5041SOL    HW116022   1.399   3.387   1.383
 5041SOL    HW216023   1.491   3.295   1.284
 5042SOL     OW16024   6.769   3.077   0.119
 5042SOL    HW116025   6.792   3.122   0.205
 5042SOL    HW216026   6.811   2.986   0.116
 5043SOL     OW16027   2.644   1.650   6.190
 5043SOL    HW116028   2.607   1.578   6.247
 5043SOL    HW216029   2.733   1.680   6.226
 5044SOL     OW16030   5.948   6.713   2.388
 5044SOL    HW116031   5.961   6.661   2.472
 5044SOL    HW216032   5.854   6.749   2.385
 5045SOL     OW16033   5.682   3.058   6.952
 5045SOL    HW116034   5.626   3.046   0.009
 5045SOL    HW216035   5.669   3.150   6.916
 5046SOL     OW16036   3.315   4.033   5.075
 5046SOL    HW116037   3.236   4.073   5.123
 5046SOL    HW216038   3.332   4.083   4.991
 5047SOL     OW16039   0.215   2.775   1.998
 5047SOL    HW116040   0.184   2.777   1.903
 5047SOL    HW216041   0.239   2.868   2.027
 5048SOL     OW16042   6.885   1.334   1.452
 5048SOL    HW116043   6.815   1.305   1.517
 5048SOL    HW216044   6.841   1.381   1.374
 5049SOL     OW16045   6.457   1.563   4.478
 5049SOL    HW116046   6.547   1.604   4.459
 5049SOL    HW216047   6.470   1.470   4.514
 5050SOL     OW16048   0.913   1.124   1.778
 5050SOL    HW116049   0.984   1.074   1.828
 5050SOL    HW216050   0.823   1.100   1.814
 5051SOL     OW16051   4.598   3.509   0.349
 5051SOL    HW116052   4.673   3.449   0.320
 5051SOL    HW216053   4.546   3.465   0.422
 5052SOL     OW16054   2.544   5.201   5.926
 5052SOL    HW116055   2.469   5.190   5.991
 5052SOL    HW216056   2.626   5.231   5.975
 5053SOL     OW16057   1.720   3.900   3.565
 5053SOL    HW116058   1.661   3.880   3.487
 5053SOL    HW216059   1.782   3.823   3.581
 5054SOL     OW16060   3.565   5.634   5.571
 5054SOL    HW116061   3.552   5.561   5.637
 5054SOL    HW216062   3.476   5.662   5.533
 5055SOL     OW16063   0.954   0.644   5.316
 5055SOL    HW116064   0.980   0.710   5.246
 5055SOL    HW216065   0.937   0.691   5.402
 5056SOL     OW16066   6.099   3.383   0.425
 5056SOL    HW116067   6.140   3.409   0.512
 5056SOL    HW216068   6.110   3.285   0.411
 5057SOL     OW16069   0.742   5.618   4.209
 5057SOL    HW116070   0.780   5.709   4.196
 5057SOL    HW216071   0.643   5.621   4.203
 5058SOL     OW16072   2.696   4.017   6.275
 5058SOL    HW116073   2.749   4.078   6.335
 5058SOL    HW216074   2.657   4.071   6.200
 5059SOL     OW16075   5.849   3.417   3.806
 5059SOL    HW116076   5.809   3.485   3.744
 5059SOL    HW216077   5.778   3.353   3.836
 5060SOL     OW16078   0.262   2.849   5.432
 5060SOL    HW116079   0.361   2.862   5.430
 5060SOL    HW216080   0.241   2.758   5.466
 5061SOL     OW16081   3.230   2.925   3.879
 5061SOL    HW116082   3.226   2.886   3.787
 5061SOL    HW216083   3.318   2.971   3.893
 5062SOL     OW16084   5.210   1.100   2.524
 5062SOL    HW116085   5.116   1.098   2.491
 5062SOL    HW216086   5.211   1.113   2.623
 5063SOL     OW16087   1.115   6.244   1.809
 5063SOL    HW116088   1.035   6.217   1.756
 5063SOL    HW216089   1.126   6.343   1.807
 5064SOL     OW16090   5.028   4.141   1.508
 5064SOL    HW116091   5.003   4.210   1.441
 5064SOL    HW216092   4.966   4.063   1.500
 5065SOL     OW16093   1.125   1.821   2.778
 5065SOL    HW116094   1.048   1.787   2.832
 5065SOL    HW216095   1.207   1.824   2.837
 5066SOL     OW16096   3.306   3.926   1.613
 5066SOL    HW116097   3.250   3.995   1.567
 5066SOL    HW216098   3.366   3.971   1.680
 5067SOL     OW16099   3.374   0.835   2.734
 5067SOL    HW116100   3.380   0.913   2.795
 5067SOL    HW216101   3.343   0.755   2.786
 5068SOL     OW16102   3.740   4.681   0.096
 5068SOL    HW116103   3.828   4.657   0.137
 5068SOL    HW216104   3.675   4.705   0.168
 5069SOL     OW16105   1.277   2.515   6.065
 5069SOL    HW116106   1.179   2.533   6.073
 5069SOL    HW216107   1.323   2.537   6.151
 5070SOL     OW16108   5.208   5.147   4.967
 5070SOL    HW116109   5.134   5.084   4.943
 5070SOL    HW216110   5.296   5.103   4.952
 5071SOL     OW16111   3.752   1.948   3.890
 5071SOL    HW116112   3.822   1.883   3.860
 5071SOL    HW216113   3.699   1.978   3.811
 5072SOL     OW16114   1.616   1.538   1.322
 5072SOL    HW116115   1.516   1.537   1.318
 5072SOL    HW216116   1.647   1.482   1.399
 5073SOL     OW16117   1.854   4.931   0.906
 5073SOL    HW116118   1.856   4.923   1.006
 5073SOL    HW216119   1.912   5.008   0.878
 5074SOL     OW16120   3.558   2.072   2.251
 5074SOL    HW116121   3.567   2.132   2.172
 5074SOL    HW216122   3.500   2.116   2.320
 5075SOL     OW16123   1.122   1.854   0.014
 5075SOL    HW116124   1.108   1.788   0.087
 5075SOL    HW216125   1.062   1.832   6.962
 5076SOL     OW16126   5.336   7.018   0.358
 5076SOL    HW116127   5.405   0.064   0.338
 5076SOL    HW216128   5.246   0.026   0.332
 5077SOL     OW16129   0.927   3.966   6.254
 5077SOL    HW116130   0.953   4.026   6.179
 5077SOL    HW216131   0.828   3.948   6.250
 5078SOL     OW16132   0.486   1.054   3.924
 5078SOL    HW116133   0.497   1.112   4.004
 5078SOL    HW216134   0.545   0.974   3.932
 5079SOL     OW16135   2.515   2.767   5.298
 5079SOL    HW116136   2.520   2.848   5.240
 5079SOL    HW216137   2.428   2.768   5.348
 5080SOL     OW16138   6.286   6.059   5.182
 5080SOL    HW116139   6.208   6.107   5.142
 5080SOL    HW216140   6.361   6.124   5.196
 5081SOL     OW16141   2.950   4.181   6.208
 5081SOL    HW116142   3.029   4.182   6.146
 5081SOL    HW216143   2.866   4.183   6.153
 5082SOL     OW16144   5.247   7.014   0.731
 5082SOL    HW116145   5.191   0.044   0.668
 5082SOL    HW216146   5.339   0.028   0.735
 5083SOL     OW16147   2.997   0.358   2.563
 5083SOL    HW116148   2.967   0.394   2.651
 5083SOL    HW216149   3.097   0.352   2.561
 5084SOL     OW16150   0.996   5.453   3.628
 5084SOL    HW116151   0.938   5.467   3.548
 5084SOL    HW216152   0.954   5.386   3.689
 5085SOL     OW16153   0.013   2.645   5.755
 5085SOL    HW116154   7.014   2.740   5.775
 5085SOL    HW216155   0.027   2.634   5.656
 5086SOL     OW16156   1.232   4.730   2.995
 5086SOL    HW116157   1.174   4.650   2.979
 5086SOL    HW216158   1.326   4.708   2.970
 5087SOL     OW16159   0.424   5.357   1.476
 5087SOL    HW116160   0.366   5.383   1.554
 5087SOL    HW216161   0.369   5.361   1.392
 5088SOL     OW16162   5.489   0.143   3.618
 5088SOL    HW116163   5.570   0.144   3.675
 5088SOL    HW216164   5.423   0.211   3.652
 5089SOL     OW16165   6.236   4.664   4.277
 5089SOL    HW116166   6.315   4.606   4.296
 5089SOL    HW216167   6.185   4.627   4.200
 5090SOL     OW16168   1.769   2.132   2.561
 5090SOL    HW116169   1.825   2.102   2.639
 5090SOL    HW216170   1.677   2.095   2.570
 5091SOL     OW16171   6.204   1.099   1.938
 5091SOL    HW116172   6.236   1.169   2.000
 5091SOL    HW216173   6.280   1.039   1.913
 5092SOL     OW16174   3.683   3.208   3.736
 5092SOL    HW116175   3.680   3.300   3.697
 5092SOL    HW216176   3.776   3.172   3.731
 5093SOL     OW16177   3.483   1.144   0.359
 5093SOL    HW116178   3.439   1.225   0.321
 5093SOL    HW216179   3.495   1.155   0.458
 5094SOL     OW16180   2.222   5.878   6.053
 5094SOL    HW116181   2.168   5.892   5.971
 5094SOL    HW216182   2.240   5.780   6.066
 5095SOL     OW16183   6.968   2.547   2.905
 5095SOL    HW116184   6.992   2.634   2.949
 5095SOL    HW216185   6.870   2.546   2.885
 5096SOL     OW16186   4.706   4.722   6.740
 5096SOL    HW116187   4.666   4.808   6.774
 5096SOL    HW216188   4.642   4.648   6.755
 5097SOL     OW16189   0.853   6.754   6.573
 5097SOL    HW116190   0.826   6.768   6.478
 5097SOL    HW216191   0.927   6.817   6.596
 5098SOL     OW16192   2.541   0.897   1.848
 5098SOL    HW116193   2.550   0.991   1.813
 5098SOL    HW216194   2.540   0.899   1.948
 5099SOL     OW16195   0.454   6.813   1.400
 5099SOL    HW116196   0.448   6.781   1.306
 5099SOL    HW216197   0.522   6.759   1.450
 5100SOL     OW16198   3.221   5.410   4.691
 5100SOL    HW116199   3.139   5.434   4.640
 5100SOL    HW216200   3.204   5.327   4.744
 5101SOL     OW16201   4.158   0.018   6.250
 5101SOL    HW116202   4.206   0.024   6.337
 5101SOL    HW216203   4.172   6.952   6.210
 5102SOL     OW16204   4.884   6.792   4.549
 5102SOL    HW116205   4.951   6.743   4.494
 5102SOL    HW216206   4.808   6.822   4.490
 5103SOL     OW16207   0.033   1.476   4.118
 5103SOL    HW116208   0.078   1.387   4.119
 5103SOL    HW216209   0.092   1.543   4.073
 5104SOL     OW16210   1.916   6.968   2.085
 5104SOL    HW116211   1.841   6.933   2.141
 5104SOL    HW216212   1.997   6.979   2.141
 5105SOL     OW16213   3.301   2.632   0.447
 5105SOL    HW116214   3.278   2.573   0.369
 5105SOL    HW216215   3.220   2.641   0.506
 5106SOL     OW16216   4.607   1.403   0.879
 5106SOL    HW116217   4.513   1.415   0.910
 5106SOL    HW216218   4.667   1.383   0.957
 5107SOL     OW16219   4.620   2.762   1.447
 5107SOL    HW116220   4.655   2.670   1.428
 5107SOL    HW216221   4.553   2.788   1.377
 5108SOL     OW16222   3.925   3.786   5.223
 5108SOL    HW116223   3.886   3.857   5.165
 5108SOL    HW216224   3.864   3.707   5.225
 5109SOL     OW16225   0.940   2.062   7.020
 5109SOL    HW116226   1.014   2.000   0.021
 5109SOL    HW216227   0.923   2.127   0.070
 5110SOL     OW16228   0.470   0.392   6.320
 5110SOL    HW116229   0.424   0.339   6.392
 5110SOL    HW216230   0.403   0.448   6.272
 5111SOL     OW16231   1.428   0.993   4.678
 5111SOL    HW116232   1.445   1.070   4.617
 5111SOL    HW216233   1.483   0.915   4.649
 5112SOL     OW16234   1.098   0.337   2.938
 5112SOL    HW116235   1.022   0.307   2.996
 5112SOL    HW216236   1.169   0.377   2.996
 5113SOL     OW16237   2.344   5.633   1.266
 5113SOL    HW116238   2.259   5.681   1.247
 5113SOL    HW216239   2.324   5.541   1.300
 5114SOL     OW16240   4.087   0.421   6.380
 5114SOL    HW116241   4.078   0.376   6.469
 5114SOL    HW216242   4.082   0.351   6.308
 5115SOL     OW16243   1.481   5.417   3.496
 5115SOL    HW116244   1.516   5.457   3.581
 5115SOL    HW216245   1.503   5.319   3.494
 5116SOL     OW16246   0.878   6.524   0.547
 5116SOL    HW116247   0.841   6.584   0.476
 5116SOL    HW216248   0.840   6.550   0.636
 5117SOL     OW16249   1.557   3.728   3.876
 5117SOL    HW116250   1.611   3.656   3.921
 5117SOL    HW216251   1.475   3.688   3.836
 5118SOL     OW16252   5.272   1.059   0.131
 5118SOL    HW116253   5.194   0.997   0.118
 5118SOL    HW216254   5.251   1.148   0.092
 5119SOL     OW16255   4.600   0.859   2.395
 5119SOL    HW116256   4.530   0.893   2.459
 5119SOL    HW216257   4.638   0.935   2.343
 5120SOL     OW16258   3.931   0.056   4.880
 5120SOL    HW116259   3.867   0.128   4.853
 5120SOL    HW216260   3.998   0.092   4.944
 5121SOL     OW16261   3.766   2.850   0.249
 5121SOL    HW116262   3.764   2.827   0.346
 5121SOL    HW216263   3.853   2.820   0.209
 5122SOL     OW16264   3.420   6.161   3.211
 5122SOL    HW116265   3.395   6.212   3.129
 5122SOL    HW216266   3.440   6.225   3.286
 5123SOL     OW16267   4.812   2.346   4.326
 5123SOL    HW116268   4.750   2.334   4.403
 5123SOL    HW216269   4.870   2.265   4.316
 5124SOL     OW16270   1.579   6.000   5.125
 5124SOL    HW116271   1.561   5.904   5.102
 5124SOL    HW216272   1.506   6.057   5.089
 5125SOL     OW16273   6.722   3.777   3.535
 5125SOL    HW116274   6.767   3.705   3.589
 5125SOL    HW216275   6.749   3.866   3.571
 5126SOL     OW16276   6.198   5.615   6.412
 5126SOL    HW116277   6.113   5.621   6.464
 5126SOL    HW216278   6.179   5.626   6.314
 5127SOL     OW16279   0.034   3.885   0.370
 5127SOL    HW116280   6.984   3.840   0.320
 5127SOL    HW216281   7.019   3.943   0.442
 5128SOL     OW16282   0.189   6.973   6.515
 5128SOL    HW116283   0.227   6.882   6.501
 5128SOL    HW216284   0.090   6.966   6.529
 5129SOL     OW16285   6.291   0.028   2.519
 5129SOL    HW116286   6.306   6.975   2.581
 5129SOL    HW216287   6.292   7.019   2.424
 5130SOL     OW16288   0.235   5.563   3.386
 5130SOL    HW116289   0.245   5.547   3.288
 5130SOL    HW216290   0.166   5.634   3.402
 5131SOL     OW16291   2.283   4.675   4.070
 5131SOL    HW116292   2.271   4.656   4.167
 5131SOL    HW216293   2.270   4.772   4.052
 5132SOL     OW16294   3.949   2.799   6.931
 5132SOL    HW116295   4.000   2.795   6.845
 5132SOL    HW216296   3.851   2.790   6.912
 5133SOL     OW16297   2.014   5.071   6.930
 5133SOL    HW116298   1.989   5.126   7.009
 5133SOL    HW216299   1.944   5.001   6.914
 5134SOL     OW16300   0.273   3.251   2.274
 5134SOL    HW116301   0.369   3.261   2.252
 5134SOL    HW216302   0.263   3.203   2.361
 5135SOL     OW16303   6.115   2.909   4.702
 5135SOL    HW116304   6.075   2.929   4.791
 5135SOL    HW216305   6.114   2.811   4.686
 5136SOL     OW16306   3.940   0.957   6.003
 5136SOL    HW116307   3.932   0.870   5.954
 5136SOL    HW216308   4.003   0.945   6.081
 5137SOL     OW16309   5.557   3.634   6.199
 5137SOL    HW116310   5.513   3.545   6.203
 5137SOL    HW216311   5.494   3.704   6.234
 5138SOL     OW16312   3.195   2.830   5.464
 5138SOL    HW116313   3.233   2.762   5.402
 5138SOL    HW216314   3.239   2.919   5.447
 5139SOL     OW16315   1.942   0.767   2.911
 5139SOL    HW116316   1.892   0.683   2.930
 5139SOL    HW216317   2.007   0.784   2.985
 5140SOL     OW16318   4.026   2.414   0.468
 5140SOL    HW116319   4.076   2.500   0.480
 5140SOL    HW216320   4.040   2.355   0.548
 5141SOL     OW16321   6.526   3.913   0.201
 5141SOL    HW116322   6.532   3.844   0.129
 5141SOL    HW216323   6.603   3.976   0.195
 5142SOL     OW16324   6.248   0.233   4.012
 5142SOL    HW116325   6.287   0.173   3.943
 5142SOL    HW216326   6.155   0.259   3.984
 5143SOL     OW16327   6.699   4.235   4.247
 5143SOL    HW116328   6.658   4.220   4.156
 5143SOL    HW216329   6.767   4.163   4.264
 5144SOL     OW16330   0.867   4.650   6.160
 5144SOL    HW116331   0.812   4.683   6.237
 5144SOL    HW216332   0.901   4.558   6.181
 5145SOL     OW16333   2.308   4.778   5.368
 5145SOL    HW116334   2.322   4.768   5.269
 5145SOL    HW216335   2.389   4.819   5.409
 5146SOL     OW16336   3.758   3.979   5.099
 5146SOL    HW116337   3.773   4.056   5.037
 5146SOL    HW216338   3.690   3.917   5.059
 5147SOL     OW16339   6.873   4.995   2.672
 5147SOL    HW116340   6.905   5.083   2.708
 5147SOL    HW216341   6.920   4.975   2.586
 5148SOL     OW16342   0.082   6.476   1.701
 5148SOL    HW116343   0.121   6.534   1.629
 5148SOL    HW216344   0.094   6.521   1.789
 5149SOL     OW16345   6.420   5.681   3.334
 5149SOL    HW116346   6.504   5.728   3.361
 5149SOL    HW216347   6.422   5.587   3.367
 5150SOL     OW16348   2.169   5.023   2.599
 5150SOL    HW116349   2.111   5.093   2.640
 5150SOL    HW216350   2.214   5.060   2.518
 5151SOL     OW16351   5.435   2.700   0.946
 5151SOL    HW116352   5.366   2.772   0.950
 5151SOL    HW216353   5.402   2.624   0.889
 5152SOL     OW16354   2.394   5.104   0.242
 5152SOL    HW116355   2.379   5.150   0.329
 5152SOL    HW216356   2.362   5.010   0.248
 5153SOL     OW16357   2.362   0.373   6.836
 5153SOL    HW116358   2.385   0.324   6.753
 5153SOL    HW216359   2.429   0.352   6.907
 5154SOL     OW16360   0.988   3.664   6.309
 5154SOL    HW116361   1.082   3.637   6.330
 5154SOL    HW216362   0.985   3.763   6.293
 5155SOL     OW16363   4.311   6.540   2.248
 5155SOL    HW116364   4.213   6.536   2.234
 5155SOL    HW216365   4.340   6.636   2.253
 5156SOL     OW16366   6.333   3.513   5.935
 5156SOL    HW116367   6.323   3.431   5.992
 5156SOL    HW216368   6.396   3.493   5.860
 5157SOL     OW16369   4.149   1.984   3.911
 5157SOL    HW116370   4.081   2.048   3.876
 5157SOL    HW216371   4.238   2.030   3.917
 5158SOL     OW16372   3.820   0.945   1.685
 5158SOL    HW116373   3.836   0.930   1.783
 5158SOL    HW216374   3.827   0.858   1.636
 5159SOL     OW16375   6.870   3.520   3.677
 5159SOL    HW116376   6.886   3.428   3.641
 5159SOL    HW216377   6.786   3.520   3.733
 5160SOL     OW16378   0.048   4.551   3.212
 5160SOL    HW116379   7.013   4.620   3.170
 5160SOL    HW216380   0.093   4.591   3.292
 5161SOL     OW16381   1.456   4.044   5.343
 5161SOL    HW116382   1.511   4.035   5.260
 5161SOL    HW216383   1.517   4.044   5.422
 5162SOL     OW16384   1.024   5.149   3.423
 5162SOL    HW116385   1.050   5.142   3.327
 5162SOL    HW216386   0.932   5.189   3.430
 5163SOL     OW16387   3.930   6.184   0.366
 5163SOL    HW116388   3.949   6.119   0.439
 5163SOL    HW216389   3.951   6.143   0.277
 5164SOL     OW16390   4.711   2.444   6.980
 5164SOL    HW116391   4.778   2.404   0.018
 5164SOL    HW216392   4.632   2.382   6.972
 5165SOL     OW16393   5.925   4.491   6.004
 5165SOL    HW116394   5.850   4.449   6.055
 5165SOL    HW216395   5.960   4.570   6.054
 5166SOL     OW16396   0.603   5.332   3.242
 5166SOL    HW116397   0.627   5.303   3.150
 5166SOL    HW216398   0.505   5.317   3.257
 5167SOL     OW16399   6.216   6.034   5.575
 5167SOL    HW116400   6.197   6.125   5.538
 5167SOL    HW216401   6.227   5.969   5.499
 5168SOL     OW16402   4.862   4.026   2.874
 5168SOL    HW116403   4.825   3.982   2.792
 5168SOL    HW216404   4.936   3.970   2.911
 5169SOL     OW16405   4.313   1.842   4.819
 5169SOL    HW116406   4.398   1.793   4.836
 5169SOL    HW216407   4.327   1.910   4.747
 5170SOL     OW16408   0.481   4.494   5.205
 5170SOL    HW116409   0.498   4.587   5.172
 5170SOL    HW216410   0.467   4.495   5.304
 5171SOL     OW16411   1.237   5.790   4.156
 5171SOL    HW116412   1.328   5.779   4.115
 5171SOL    HW216413   1.181   5.711   4.132
 5172SOL     OW16414   0.704   2.545   2.212
 5172SOL    HW116415   0.691   2.537   2.311
 5172SOL    HW216416   0.631   2.602   2.174
 5173SOL     OW16417   5.774   4.872   6.051
 5173SOL    HW116418   5.743   4.962   6.082
 5173SOL    HW216419   5.760   4.865   5.952
 5174SOL     OW16420   2.081   4.379   2.674
 5174SOL    HW116421   2.105   4.475   2.683
 5174SOL    HW216422   2.000   4.359   2.730
 5175SOL     OW16423   2.238   3.815   6.990
 5175SOL    HW116424   2.284   3.904   6.991
 5175SOL    HW216425   2.150   3.824   6.942
 5176SOL     OW16426   4.805   3.069   6.495
 5176SOL    HW116427   4.804   3.142   6.563
 5176SOL    HW216428   4.766   2.986   6.535
 5177SOL     OW16429   5.049   0.303   0.089
 5177SOL    HW116430   5.085   0.396   0.098
 5177SOL    HW216431   5.010   0.292   7.022
 5178SOL     OW16432   1.307   3.691   1.536
 5178SOL    HW116433   1.381   3.670   1.473
 5178SOL    HW216434   1.248   3.762   1.497
 5179SOL     OW16435   4.155   5.907   4.335
 5179SOL    HW116436   4.105   5.990   4.361
 5179SOL    HW216437   4.212   5.878   4.412
 5180SOL     OW16438   3.101   2.553   0.677
 5180SOL    HW116439   3.009   2.516   0.668
 5180SOL    HW216440   3.099   2.638   0.729
 5181SOL     OW16441   5.475   2.041   2.134
 5181SOL    HW116442   5.447   1.963   2.077
 5181SOL    HW216443   5.422   2.122   2.109
 5182SOL     OW16444   3.946   4.440   1.653
 5182SOL    HW116445   3.959   4.525   1.703
 5182SOL    HW216446   4.009   4.436   1.576
 5183SOL     OW16447   4.167   1.613   2.588
 5183SOL    HW116448   4.101   1.629   2.662
 5183SOL    HW216449   4.240   1.681   2.594
 5184SOL     OW16450   0.343   2.490   4.480
 5184SOL    HW116451   0.439   2.465   4.467
 5184SOL    HW216452   0.335   2.559   4.552
 5185SOL     OW16453   5.265   1.035   2.194
 5185SOL    HW116454   5.267   0.947   2.241
 5185SOL    HW216455   5.234   1.021   2.099
 5186SOL     OW16456   5.958   2.820   0.442
 5186SOL    HW116457   5.924   2.819   0.348
 5186SOL    HW216458   6.042   2.766   0.448
 5187SOL     OW16459   0.421   0.425   3.987
 5187SOL    HW116460   0.381   0.450   4.075
 5187SOL    HW216461   0.353   0.378   3.931
 5188SOL     OW16462   0.515   5.934   0.375
 5188SOL    HW116463   0.607   5.935   0.337
 5188SOL    HW216464   0.496   6.021   0.420
 5189SOL     OW16465   4.785   4.981   0.734
 5189SOL    HW116466   4.783   4.959   0.636
 5189SOL    HW216467   4.869   4.944   0.774
 5190SOL     OW16468   0.074   3.057   4.370
 5190SOL    HW116469   0.025   3.019   4.291
 5190SOL    HW216470   0.113   3.146   4.346
 5191SOL     OW16471   3.739   0.481   1.778
 5191SOL    HW116472   3.753   0.392   1.735
 5191SOL    HW216473   3.727   0.470   1.876
 5192SOL     OW16474   2.835   5.103   2.820
 5192SOL    HW116475   2.740   5.130   2.839
 5192SOL    HW216476   2.870   5.158   2.744
 5193SOL     OW16477   5.184   4.365   4.585
 5193SOL    HW116478   5.095   4.339   4.546
 5193SOL    HW216479   5.250   4.378   4.510
 5194SOL     OW16480   3.610   1.175   0.042
 5194SOL    HW116481   3.521   1.172   0.086
 5194SOL    HW216482   3.681   1.147   0.107
 5195SOL     OW16483   6.533   5.809   4.406
 5195SOL    HW116484   6.511   5.766   4.319
 5195SOL    HW216485   6.471   5.776   4.477
 5196SOL     OW16486   2.386   4.238   0.782
 5196SOL    HW116487   2.340   4.307   0.726
 5196SOL    HW216488   2.407   4.158   0.727
 5197SOL     OW16489   2.163   5.496   4.913
 5197SOL    HW116490   2.132   5.408   4.878
 5197SOL    HW216491   2.148   5.500   5.012
 5198SOL     OW16492   4.322   6.796   3.607
 5198SOL    HW116493   4.362   6.751   3.687
 5198SOL    HW216494   4.385   6.787   3.529
 5199SOL     OW16495   1.268   6.154   0.040
 5199SOL    HW116496   1.256   6.225   0.109
 5199SOL    HW216497   1.343   6.180   7.004
 5200SOL     OW16498   1.563   1.424   5.617
 5200SOL    HW116499   1.627   1.347   5.617
 5200SOL    HW216500   1.604   1.502   5.663
 5201SOL     OW16501   5.979   5.985   4.459
 5201SOL    HW116502   6.024   6.063   4.502
 5201SOL    HW216503   5.888   6.011   4.428
 5202SOL     OW16504   5.937   4.596   5.748
 5202SOL    HW116505   5.971   4.532   5.680
 5202SOL    HW216506   5.958   4.563   5.840
 5203SOL     OW16507   2.208   0.618   0.176
 5203SOL    HW116508   2.153   0.693   0.140
 5203SOL    HW216509   2.232   0.637   0.271
 5204SOL     OW16510   4.412   6.629   6.993
 5204SOL    HW116511   4.495   6.599   0.014
 5204SOL    HW216512   4.377   6.555   6.935
 5205SOL     OW16513   6.978   5.759   0.025
 5205SOL    HW116514   6.897   5.803   7.010
 5205SOL    HW216515   6.949   5.679   0.078
 5206SOL     OW16516   0.581   4.716   6.980
 5206SOL    HW116517   0.630   4.755   0.033
 5206SOL    HW216518   0.615   4.624   6.961
 5207SOL     OW16519   1.376   0.010   3.888
 5207SOL    HW116520   1.471   0.038   3.904
 5207SOL    HW216521   1.346   6.975   3.963
 5208SOL     OW16522   4.933   2.143   0.074
 5208SOL    HW116523   4.972   2.198   7.024
 5208SOL    HW216524   4.888   2.203   0.140
 5209SOL     OW16525   5.749   0.328   1.329
 5209SOL    HW116526   5.665   0.361   1.371
 5209SOL    HW216527   5.826   0.383   1.362
 5210SOL     OW16528   4.690   3.660   0.592
 5210SOL    HW116529   4.648   3.573   0.614
 5210SOL    HW216530   4.669   3.684   0.497
 5211SOL     OW16531   4.176   1.932   5.101
 5211SOL    HW116532   4.191   1.901   5.194
 5211SOL    HW216533   4.194   2.031   5.095
 5212SOL     OW16534   1.124   3.809   0.721
 5212SOL    HW116535   1.185   3.751   0.668
 5212SOL    HW216536   1.174   3.847   0.799
 5213SOL     OW16537   4.722   3.317   0.942
 5213SOL    HW116538   4.637   3.368   0.946
 5213SOL    HW216539   4.773   3.341   0.860
 5214SOL     OW16540   5.762   2.457   6.168
 5214SOL    HW116541   5.679   2.507   6.193
 5214SOL    HW216542   5.832   2.471   6.237
 5215SOL     OW16543   1.205   4.849   3.994
 5215SOL    HW116544   1.252   4.775   3.946
 5215SOL    HW216545   1.185   4.820   4.088
 5216SOL     OW16546   4.635   4.756   1.486
 5216SOL    HW116547   4.608   4.728   1.393
 5216SOL    HW216548   4.734   4.748   1.496
 5217SOL     OW16549   3.269   5.687   4.783
 5217SOL    HW116550   3.213   5.724   4.857
 5217SOL    HW216551   3.231   5.600   4.753
 5218SOL     OW16552   0.760   1.263   1.336
 5218SOL    HW116553   0.761   1.301   1.243
 5218SOL    HW216554   0.827   1.311   1.392
 5219SOL     OW16555   3.535   1.645   4.949
 5219SOL    HW116556   3.588   1.623   5.031
 5219SOL    HW216557   3.550   1.740   4.924
 5220SOL     OW16558   1.219   5.609   2.800
 5220SOL    HW116559   1.237   5.563   2.887
 5220SOL    HW216560   1.247   5.550   2.725
 5221SOL     OW16561   6.408   1.060   3.134
 5221SOL    HW116562   6.484   1.045   3.070
 5221SOL    HW216563   6.337   1.114   3.089
 5222SOL     OW16564   3.718   6.632   2.280
 5222SOL    HW116565   3.693   6.577   2.200
 5222SOL    HW216566   3.785   6.581   2.335
 5223SOL     OW16567   0.048   2.513   0.123
 5223SOL    HW116568   0.065   2.548   0.031
 5223SOL    HW216569   6.974   2.512   0.141
 5224SOL     OW16570   6.514   3.456   4.602
 5224SOL    HW116571   6.572   3.465   4.683
 5224SOL    HW216572   6.425   3.419   4.629
 5225SOL     OW16573   6.712   1.085   3.938
 5225SOL    HW116574   6.773   1.087   4.018
 5225SOL    HW216575   6.749   1.144   3.867
 5226SOL     OW16576   0.097   6.766   4.534
 5226SOL    HW116577   0.069   6.814   4.451
 5226SOL    HW216578   0.194   6.742   4.529
 5227SOL     OW16579   0.595   3.986   5.801
 5227SOL    HW116580   0.573   4.068   5.852
 5227SOL    HW216581   0.681   3.999   5.752
 5228SOL     OW16582   0.577   2.408   0.044
 5228SOL    HW116583   0.605   2.371   6.980
 5228SOL    HW216584   0.532   2.336   0.097
 5229SOL     OW16585   2.887   6.578   0.610
 5229SOL    HW116586   2.820   6.653   0.612
 5229SOL    HW216587   2.897   6.540   0.702
 5230SOL     OW16588   6.923   6.063   2.110
 5230SOL    HW116589   6.863   6.142   2.099
 5230SOL    HW216590   6.985   6.079   2.186
 5231SOL     OW16591   4.224   2.282   3.729
 5231SOL    HW116592   4.226   2.298   3.630
 5231SOL    HW216593   4.135   2.242   3.753
 5232SOL     OW16594   1.150   3.835   6.106
 5232SOL    HW116595   1.075   3.808   6.046
 5232SOL    HW216596   1.127   3.920   6.153
 5233SOL     OW16597   3.800   1.425   2.859
 5233SOL    HW116598   3.797   1.406   2.761
 5233SOL    HW216599   3.709   1.412   2.898
 5234SOL     OW16600   2.842   2.711   6.090
 5234SOL    HW116601   2.751   2.670   6.096
 5234SOL    HW216602   2.901   2.652   6.036
 5235SOL     OW16603   1.622   2.574   0.869
 5235SOL    HW116604   1.698   2.522   0.831
 5235SOL    HW216605   1.594   2.534   0.956
 5236SOL     OW16606   3.960   5.908   2.385
 5236SOL    HW116607   3.983   5.939   2.292
 5236SOL    HW216608   3.963   5.808   2.388
 5237SOL     OW16609   0.698   0.972   4.845
 5237SOL    HW116610   0.682   1.001   4.939
 5237SOL    HW216611   0.794   0.946   4.834
 5238SOL     OW16612   0.823   5.058   0.390
 5238SOL    HW116613   0.783   4.979   0.436
 5238SOL    HW216614   0.751   5.112   0.346
 5239SOL     OW16615   3.714   2.511   6.405
 5239SOL    HW116616   3.760   2.423   6.420
 5239SOL    HW216617   3.661   2.535   6.487
 5240SOL     OW16618   3.390   2.317   5.415
 5240SOL    HW116619   3.422   2.225   5.392
 5240SOL    HW216620   3.332   2.350   5.340
 5241SOL     OW16621   0.534   5.896   4.293
 5241SOL    HW116622   0.438   5.914   4.271
 5241SOL    HW216623   0.592   5.958   4.241
 5242SOL     OW16624   6.471   0.144   1.024
 5242SOL    HW116625   6.484   0.243   1.020
 5242SOL    HW216626   6.468   0.115   1.120
 5243SOL     OW16627   2.062   5.957   1.798
 5243SOL    HW116628   2.108   6.046   1.794
 5243SOL    HW216629   2.013   5.948   1.885
 5244SOL     OW16630   3.720   4.399   6.413
 5244SOL    HW116631   3.763   4.342   6.343
 5244SOL    HW216632   3.786   4.418   6.486
 5245SOL     OW16633   3.842   4.300   0.266
 5245SOL    HW116634   3.871   4.239   0.339
 5245SOL    HW216635   3.921   4.351   0.231
 5246SOL     OW16636   6.199   2.778   1.330
 5246SOL    HW116637   6.177   2.797   1.426
 5246SOL    HW216638   6.227   2.863   1.286
 5247SOL     OW16639   2.849   0.113   6.592
 5247SOL    HW116640   2.813   0.206   6.598
 5247SOL    HW216641   2.949   0.115   6.590
 5248SOL     OW16642   6.301   1.818   3.249
 5248SOL    HW116643   6.349   1.815   3.336
 5248SOL    HW216644   6.354   1.870   3.183
 5249SOL     OW16645   0.529   5.340   6.390
 5249SOL    HW116646   0.572   5.278   6.456
 5249SOL    HW216647   0.548   5.434   6.416
 5250SOL     OW16648   1.973   6.276   6.728
 5250SOL    HW116649   1.996   6.204   6.793
 5250SOL    HW216650   1.873   6.285   6.722
 5251SOL     OW16651   0.843   3.322   6.817
 5251SOL    HW116652   0.811   3.309   6.723
 5251SOL    HW216653   0.941   3.344   6.816
 5252SOL     OW16654   2.747   6.210   0.540
 5252SOL    HW116655   2.670   6.273   0.551
 5252SOL    HW216656   2.721   6.120   0.574
 5253SOL     OW16657   0.147   3.591   4.930
 5253SOL    HW116658   0.151   3.651   4.850
 5253SOL    HW216659   0.058   3.602   4.975
 5254SOL     OW16660   5.014   1.085   2.998
 5254SOL    HW116661   4.935   1.144   3.013
 5254SOL    HW216662   5.033   1.033   3.081
 5255SOL     OW16663   5.665   2.459   4.926
 5255SOL    HW116664   5.649   2.402   4.845
 5255SOL    HW216665   5.718   2.540   4.900
 5256SOL     OW16666   5.265   1.623   3.946
 5256SOL    HW116667   5.182   1.629   4.001
 5256SOL    HW216668   5.331   1.564   3.991
 5257SOL     OW16669   5.525   6.909   1.796
 5257SOL    HW116670   5.441   6.909   1.850
 5257SOL    HW216671   5.503   6.922   1.699
 5258SOL     OW16672   5.798   3.063   1.758
 5258SOL    HW116673   5.714   3.034   1.802
 5258SOL    HW216674   5.821   2.999   1.684
 5259SOL     OW16675   5.073   6.691   2.200
 5259SOL    HW116676   5.037   6.723   2.288
 5259SOL    HW216677   4.997   6.665   2.141
 5260SOL     OW16678   5.307   3.603   0.879
 5260SOL    HW116679   5.299   3.694   0.921
 5260SOL    HW216680   5.232   3.545   0.912
 5261SOL     OW16681   0.202   4.150   5.760
 5261SOL    HW116682   0.293   4.178   5.729
 5261SOL    HW216683   0.198   4.050   5.767
 5262SOL     OW16684   2.361   1.268   4.009
 5262SOL    HW116685   2.369   1.203   4.085
 5262SOL    HW216686   2.264   1.291   3.995
 5263SOL     OW16687   1.670   1.287   3.472
 5263SOL    HW116688   1.596   1.294   3.405
 5263SOL    HW216689   1.633   1.254   3.559
 5264SOL     OW16690   6.911   2.209   2.124
 5264SOL    HW116691   6.944   2.203   2.218
 5264SOL    HW216692   6.925   2.302   2.090
 5265SOL     OW16693   6.327   3.902   3.907
 5265SOL    HW116694   6.285   3.815   3.880
 5265SOL    HW216695   6.387   3.934   3.834
 5266SOL     OW16696   3.463   4.918   6.806
 5266SOL    HW116697   3.432   4.840   6.753
 5266SOL    HW216698   3.540   4.890   6.864
 5267SOL     OW16699   5.497   2.761   5.218
 5267SOL    HW116700   5.453   2.672   5.208
 5267SOL    HW216701   5.431   2.827   5.254
 5268SOL     OW16702   5.556   1.113   0.540
 5268SOL    HW116703   5.469   1.126   0.493
 5268SOL    HW216704   5.607   1.199   0.540
 5269SOL     OW16705   0.651   6.174   2.745
 5269SOL    HW116706   0.661   6.082   2.709
 5269SOL    HW216707   0.740   6.208   2.775
 5270SOL     OW16708   5.779   0.895   1.502
 5270SOL    HW116709   5.808   0.907   1.407
 5270SOL    HW216710   5.716   0.968   1.527
 5271SOL     OW16711   6.571   5.406   5.763
 5271SOL    HW116712   6.541   5.320   5.804
 5271SOL    HW216713   6.510   5.429   5.686
 5272SOL     OW16714   3.204   6.180   1.931
 5272SOL    HW116715   3.259   6.259   1.955
 5272SOL    HW216716   3.111   6.209   1.909
 5273SOL     OW16717   0.370   3.206   3.819
 5273SOL    HW116718   0.346   3.160   3.733
 5273SOL    HW216719   0.298   3.269   3.845
 5274SOL     OW16720   5.813   0.122   2.785
 5274SOL    HW116721   5.745   0.106   2.713
 5274SOL    HW216722   5.905   0.118   2.745
 5275SOL     OW16723   3.522   1.788   0.953
 5275SOL    HW116724   3.431   1.799   0.914
 5275SOL    HW216725   3.573   1.874   0.943
 5276SOL     OW16726   1.697   0.283   0.734
 5276SOL    HW116727   1.604   0.262   0.764
 5276SOL    HW216728   1.723   0.221   0.660
 5277SOL     OW16729   2.424   1.158   1.936
 5277SOL    HW116730   2.523   1.158   1.924
 5277SOL    HW216731   2.380   1.189   1.852
 5278SOL     OW16732   6.120   6.304   3.882
 5278SOL    HW116733   6.110   6.256   3.795
 5278SOL    HW216734   6.088   6.245   3.956
 5279SOL     OW16735   2.686   5.173   6.363
 5279SOL    HW116736   2.612   5.114   6.329
 5279SOL    HW216737   2.772   5.121   6.362
 5280SOL     OW16738   3.124   5.727   5.021
 5280SOL    HW116739   3.197   5.728   5.088
 5280SOL    HW216740   3.091   5.634   5.009
 5281SOL     OW16741   0.252   1.907   2.521
 5281SOL    HW116742   0.308   1.963   2.583
 5281SOL    HW216743   0.198   1.842   2.575
 5282SOL     OW16744   3.282   1.354   3.909
 5282SOL    HW116745   3.244   1.386   3.822
 5282SOL    HW216746   3.372   1.396   3.923
 5283SOL     OW16747   4.485   6.057   1.508
 5283SOL    HW116748   4.458   5.961   1.507
 5283SOL    HW216749   4.406   6.114   1.484
 5284SOL     OW16750   4.787   3.933   3.162
 5284SOL    HW116751   4.788   3.990   3.080
 5284SOL    HW216752   4.842   3.851   3.146
 5285SOL     OW16753   2.245   4.888   3.749
 5285SOL    HW116754   2.228   4.791   3.730
 5285SOL    HW216755   2.264   4.900   3.846
 5286SOL     OW16756   1.932   4.573   0.580
 5286SOL    HW116757   1.909   4.491   0.528
 5286SOL    HW216758   1.974   4.640   0.519
 5287SOL     OW16759   3.444   0.301   6.967
 5287SOL    HW116760   3.463   0.392   6.928
 5287SOL    HW216761   3.530   0.257   6.991
 5288SOL     OW16762   2.993   0.020   2.056
 5288SOL    HW116763   2.895   0.002   2.055
 5288SOL    HW216764   3.031   7.022   2.146
 5289SOL     OW16765   2.363   5.146   6.613
 5289SOL    HW116766   2.458   5.121   6.633
 5289SOL    HW216767   2.311   5.150   6.698
 5290SOL     OW16768   2.374   6.008   4.707
 5290SOL    HW116769   2.389   6.023   4.805
 5290SOL    HW216770   2.433   5.935   4.674
 5291SOL     OW16771   2.573   5.699   6.036
 5291SOL    HW116772   2.483   5.663   6.061
 5291SOL    HW216773   2.622   5.630   5.983
 5292SOL     OW16774   6.242   2.979   6.667
 5292SOL    HW116775   6.342   2.989   6.670
 5292SOL    HW216776   6.210   2.996   6.574
 5293SOL     OW16777   0.395   0.867   5.048
 5293SOL    HW116778   0.490   0.849   5.071
 5293SOL    HW216779   0.382   0.965   5.030
 5294SOL     OW16780   4.608   3.451   5.806
 5294SOL    HW116781   4.566   3.531   5.764
 5294SOL    HW216782   4.699   3.475   5.840
 5295SOL     OW16783   6.351   1.018   2.552
 5295SOL    HW116784   6.401   0.979   2.474
 5295SOL    HW216785   6.299   1.098   2.522
 5296SOL     OW16786   2.053   5.604   6.670
 5296SOL    HW116787   1.962   5.595   6.628
 5296SOL    HW216788   2.051   5.562   6.761
 5297SOL     OW16789   1.935   2.244   1.378
 5297SOL    HW116790   1.916   2.181   1.453
 5297SOL    HW216791   1.849   2.281   1.343
 5298SOL     OW16792   0.008   6.097   1.573
 5298SOL    HW116793   7.022   6.140   1.662
 5298SOL    HW216794   0.101   6.063   1.563
 5299SOL     OW16795   3.142   1.690   0.309
 5299SOL    HW116796   3.120   1.782   0.276
 5299SOL    HW216797   3.196   1.696   0.393
 5300SOL     OW16798   0.115   5.548   2.618
 5300SOL    HW116799   0.124   5.449   2.629
 5300SOL    HW216800   0.206   5.589   2.604
 5301SOL     OW16801   4.557   1.379   0.422
 5301SOL    HW116802   4.643   1.379   0.474
 5301SOL    HW216803   4.481   1.358   0.484
 5302SOL     OW16804   5.546   4.821   3.424
 5302SOL    HW116805   5.464   4.847   3.475
 5302SOL    HW216806   5.533   4.843   3.327
 5303SOL     OW16807   0.002   6.764   3.723
 5303SOL    HW116808   7.000   6.858   3.745
 5303SOL    HW216809   0.059   6.728   3.796
 5304SOL     OW16810   6.703   2.617   6.159
 5304SOL    HW116811   6.797   2.624   6.128
 5304SOL    HW216812   6.660   2.536   6.119
 5305SOL     OW16813   1.302   6.814   4.069
 5305SOL    HW116814   1.397   6.801   4.041
 5305SOL    HW216815   1.282   6.755   4.148
 5306SOL     OW16816   1.694   6.309   4.874
 5306SOL    HW116817   1.784   6.269   4.886
 5306SOL    HW216818   1.663   6.348   4.961
 5307SOL     OW16819   4.285   6.436   6.853
 5307SOL    HW116820   4.247   6.408   6.941
 5307SOL    HW216821   4.330   6.358   6.810
 5308SOL     OW16822   0.534   0.276   4.736
 5308SOL    HW116823   0.604   0.215   4.699
 5308SOL    HW216824   0.579   0.348   4.789
 5309SOL     OW16825   3.590   4.016   3.064
 5309SOL    HW116826   3.639   4.023   3.151
 5309SOL    HW216827   3.613   3.930   3.019
 5310SOL     OW16828   5.141   2.453   2.182
 5310SOL    HW116829   5.068   2.409   2.130
 5310SOL    HW216830   5.130   2.553   2.177
 5311SOL     OW16831   0.290   5.887   0.211
 5311SOL    HW116832   0.237   5.962   0.170
 5311SOL    HW216833   0.368   5.924   0.260
 5312SOL     OW16834   6.922   4.284   2.344
 5312SOL    HW116835   6.916   4.185   2.336
 5312SOL    HW216836   6.930   4.309   2.440
 5313SOL     OW16837   1.139   5.454   6.985
 5313SOL    HW116838   1.109   5.546   6.957
 5313SOL    HW216839   1.061   5.403   7.021
 5314SOL     OW16840   4.612   4.821   0.930
 5314SOL    HW116841   4.548   4.766   0.876
 5314SOL    HW216842   4.688   4.850   0.872
 5315SOL     OW16843   4.593   4.484   1.797
 5315SOL    HW116844   4.563   4.403   1.848
 5315SOL    HW216845   4.524   4.509   1.730
 5316SOL     OW16846   6.309   5.393   4.465
 5316SOL    HW116847   6.257   5.465   4.420
 5316SOL    HW216848   6.405   5.419   4.471
 5317SOL     OW16849   5.949   1.428   4.505
 5317SOL    HW116850   5.974   1.510   4.555
 5317SOL    HW216851   5.925   1.355   4.570
 5318SOL     OW16852   0.015   1.906   5.296
 5318SOL    HW116853   6.978   1.838   5.256
 5318SOL    HW216854   0.107   1.868   5.303
 5319SOL     OW16855   4.696   6.817   7.006
 5319SOL    HW116856   4.770   6.884   6.993
 5319SOL    HW216857   4.692   6.790   0.077
 5320SOL     OW16858   5.933   5.066   6.433
 5320SOL    HW116859   6.018   5.119   6.432
 5320SOL    HW216860   5.869   5.108   6.498
 5321SOL     OW16861   0.668   5.188   2.637
 5321SOL    HW116862   0.705   5.156   2.724
 5321SOL    HW216863   0.657   5.111   2.575
 5322SOL     OW16864   3.730   6.990   6.211
 5322SOL    HW116865   3.795   0.010   6.149
 5322SOL    HW216866   3.650   6.960   6.159
 5323SOL     OW16867   3.981   3.265   1.056
 5323SOL    HW116868   4.011   3.200   1.125
 5323SOL    HW216869   3.934   3.216   0.982
 5324SOL     OW16870   3.659   2.345   1.380
 5324SOL    HW116871   3.681   2.252   1.351
 5324SOL    HW216872   3.614   2.343   1.469
 5325SOL     OW16873   5.559   0.096   3.369
 5325SOL    HW116874   5.474   0.107   3.317
 5325SOL    HW216875   5.541   0.114   3.466
 5326SOL     OW16876   5.985   5.258   2.805
 5326SOL    HW116877   5.981   5.244   2.706
 5326SOL    HW216878   6.013   5.173   2.849
 5327SOL     OW16879   0.452   6.079   5.905
 5327SOL    HW116880   0.514   6.143   5.859
 5327SOL    HW216881   0.363   6.122   5.918
 5328SOL     OW16882   3.625   2.297   5.582
 5328SOL    HW116883   3.570   2.381   5.580
 5328SOL    HW216884   3.646   2.274   5.677
 5329SOL     OW16885   0.388   3.728   0.338
 5329SOL    HW116886   0.334   3.789   0.280
 5329SOL    HW216887   0.370   3.749   0.434
 5330SOL     OW16888   3.348   3.937   6.785
 5330SOL    HW116889   3.429   3.913   6.732
 5330SOL    HW216890   3.308   4.022   6.748
 5331SOL     OW16891   5.328   1.578   1.312
 5331SOL    HW116892   5.307   1.497   1.367
 5331SOL    HW216893   5.420   1.569   1.273
 5332SOL     OW16894   5.963   4.186   6.995
 5332SOL    HW116895   5.868   4.154   6.998
 5332SOL    HW216896   6.011   4.139   6.921
 5333SOL     OW16897   1.328   0.884   3.991
 5333SOL    HW116898   1.265   0.935   3.932
 5333SOL    HW216899   1.295   0.887   4.085
 5334SOL     OW16900   4.289   5.253   4.889
 5334SOL    HW116901   4.303   5.247   4.790
 5334SOL    HW216902   4.238   5.337   4.910
 5335SOL     OW16903   0.062   4.368   1.854
 5335SOL    HW116904   7.022   4.440   1.828
 5335SOL    HW216905   0.150   4.408   1.876
 5336SOL     OW16906   2.598   1.839   3.491
 5336SOL    HW116907   2.584   1.927   3.535
 5336SOL    HW216908   2.597   1.850   3.392
 5337SOL     OW16909   5.863   4.886   2.286
 5337SOL    HW116910   5.927   4.870   2.212
 5337SOL    HW216911   5.911   4.880   2.374
 5338SOL     OW16912   5.786   2.444   6.731
 5338SOL    HW116913   5.758   2.387   6.654
 5338SOL    HW216914   5.804   2.537   6.700
 5339SOL     OW16915   5.659   1.976   1.784
 5339SOL    HW116916   5.565   1.961   1.754
 5339SOL    HW216917   5.684   1.906   1.851
 5340SOL     OW16918   5.562   3.455   1.191
 5340SOL    HW116919   5.507   3.536   1.211
 5340SOL    HW216920   5.513   3.373   1.222
 5341SOL     OW16921   3.768   4.943   4.533
 5341SOL    HW116922   3.749   4.911   4.626
 5341SOL    HW216923   3.816   5.031   4.537
 5342SOL     OW16924   4.862   6.383   4.719
 5342SOL    HW116925   4.898   6.298   4.681
 5342SOL    HW216926   4.811   6.363   4.802
 5343SOL     OW16927   3.863   3.484   4.821
 5343SOL    HW116928   3.785   3.430   4.853
 5343SOL    HW216929   3.938   3.422   4.797
 5344SOL     OW16930   0.803   1.520   6.809
 5344SOL    HW116931   0.743   1.588   6.852
 5344SOL    HW216932   0.767   1.428   6.826
 5345SOL     OW16933   4.624   1.116   0.241
 5345SOL    HW116934   4.529   1.146   0.240
 5345SOL    HW216935   4.633   1.031   0.190
 5346SOL     OW16936   2.940   4.801   4.194
 5346SOL    HW116937   2.944   4.803   4.095
 5346SOL    HW216938   3.031   4.813   4.232
 5347SOL     OW16939   0.123   3.336   3.833
 5347SOL    HW116940   0.071   3.289   3.762
 5347SOL    HW216941   0.139   3.431   3.805
 5348SOL     OW16942   0.314   1.283   5.936
 5348SOL    HW116943   0.353   1.357   5.882
 5348SOL    HW216944   0.224   1.258   5.899
 5349SOL     OW16945   2.585   2.930   1.637
 5349SOL    HW116946   2.647   2.985   1.693
 5349SOL    HW216947   2.599   2.952   1.541
 5350SOL     OW16948   2.222   6.211   5.835
 5350SOL    HW116949   2.295   6.246   5.893
 5350SOL    HW216950   2.247   6.120   5.801
 5351SOL     OW16951   0.099   4.586   1.585
 5351SOL    HW116952   0.163   4.594   1.661
 5351SOL    HW216953   0.137   4.630   1.504
 5352SOL     OW16954   2.298   4.161   3.364
 5352SOL    HW116955   2.205   4.123   3.370
 5352SOL    HW216956   2.328   4.162   3.268
 5353SOL     OW16957   3.713   5.148   3.213
 5353SOL    HW116958   3.748   5.176   3.124
 5353SOL    HW216959   3.757   5.203   3.285
 5354SOL     OW16960   2.925   3.959   6.591
 5354SOL    HW116961   2.861   3.906   6.537
 5354SOL    HW216962   2.929   4.053   6.557
 5355SOL     OW16963   5.077   4.777   5.056
 5355SOL    HW116964   5.171   4.747   5.036
 5355SOL    HW216965   5.052   4.851   4.995
 5356SOL     OW16966   6.761   3.558   1.875
 5356SOL    HW116967   6.753   3.461   1.896
 5356SOL    HW216968   6.687   3.609   1.920
 5357SOL     OW16969   4.198   4.440   1.521
 5357SOL    HW116970   4.231   4.346   1.511
 5357SOL    HW216971   4.273   4.498   1.553
 5358SOL     OW16972   4.575   1.854   0.912
 5358SOL    HW116973   4.668   1.870   0.879
 5358SOL    HW216974   4.509   1.887   0.844
 5359SOL     OW16975   2.195   2.139   6.763
 5359SOL    HW116976   2.140   2.131   6.679
 5359SOL    HW216977   2.137   2.122   6.842
 5360SOL     OW16978   5.627   5.334   3.153
 5360SOL    HW116979   5.647   5.348   3.057
 5360SOL    HW216980   5.694   5.383   3.209
 5361SOL     OW16981   2.362   6.400   3.501
 5361SOL    HW116982   2.459   6.405   3.478
 5361SOL    HW216983   2.310   6.375   3.419
 5362SOL     OW16984   6.216   6.963   2.943
 5362SOL    HW116985   6.231   6.889   2.876
 5362SOL    HW216986   6.170   6.926   3.023
 5363SOL     OW16987   5.289   6.078   5.090
 5363SOL    HW116988   5.266   6.165   5.046
 5363SOL    HW216989   5.338   6.096   5.175
 5364SOL     OW16990   5.677   0.368   2.679
 5364SOL    HW116991   5.767   0.358   2.636
 5364SOL    HW216992   5.607   0.372   2.609
 5365SOL     OW16993   3.019   3.490   2.367
 5365SOL    HW116994   2.983   3.549   2.295
 5365SOL    HW216995   2.981   3.518   2.456
 5366SOL     OW16996   6.943   0.616   2.186
 5366SOL    HW116997   6.971   0.536   2.240
 5366SOL    HW216998   6.967   0.699   2.235
 5367SOL     OW16999   6.358   0.421   0.874
 5367SOL    HW117000   6.303   0.350   0.919
 5367SOL    HW217001   6.300   0.501   0.856
 5368SOL     OW17002   6.985   5.788   1.969
 5368SOL    HW117003   6.959   5.878   2.005
 5368SOL    HW217004   6.999   5.725   2.045
 5369SOL     OW17005   2.687   5.990   1.478
 5369SOL    HW117006   2.661   5.899   1.444
 5369SOL    HW217007   2.786   6.000   1.473
 5370SOL     OW17008   4.505   3.396   1.703
 5370SOL    HW117009   4.470   3.489   1.686
 5370SOL    HW217010   4.580   3.377   1.639
 5371SOL     OW17011   0.105   5.297   5.334
 5371SOL    HW117012   0.057   5.215   5.303
 5371SOL    HW217013   0.200   5.293   5.305
 5372SOL     OW17014   1.061   6.832   2.745
 5372SOL    HW117015   1.033   6.912   2.798
 5372SOL    HW217016   1.059   6.854   2.647
 5373SOL     OW17017   3.960   0.311   5.942
 5373SOL    HW117018   4.011   0.361   5.871
 5373SOL    HW217019   3.906   0.375   5.995
 5374SOL     OW17020   2.130   4.240   1.074
 5374SOL    HW117021   2.113   4.183   1.154
 5374SOL    HW217022   2.209   4.298   1.090
 5375SOL     OW17023   0.862   5.796   5.590
 5375SOL    HW117024   0.932   5.861   5.620
 5375SOL    HW217025   0.771   5.834   5.610
 5376SOL     OW17026   1.346   2.612   1.530
 5376SOL    HW117027   1.273   2.559   1.573
 5376SOL    HW217028   1.406   2.649   1.601
 5377SOL     OW17029   1.565   1.337   2.993
 5377SOL    HW117030   1.574   1.255   2.936
 5377SOL    HW217031   1.507   1.404   2.947
 5378SOL     OW17032   6.729   0.639   1.591
 5378SOL    HW117033   6.827   0.649   1.610
 5378SOL    HW217034   6.709   0.668   1.498
 5379SOL     OW17035   1.247   3.395   5.147
 5379SOL    HW117036   1.213   3.400   5.241
 5379SOL    HW217037   1.272   3.486   5.115
 5380SOL     OW17038   3.357   6.927   1.221
 5380SOL    HW117039   3.390   7.019   1.242
 5380SOL    HW217040   3.275   6.908   1.274
 5381SOL     OW17041   6.002   5.919   2.717
 5381SOL    HW117042   6.088   5.938   2.669
 5381SOL    HW217043   5.958   6.005   2.743
 5382SOL     OW17044   2.899   2.215   2.442
 5382SOL    HW117045   2.981   2.267   2.463
 5382SOL    HW217046   2.900   2.188   2.345
 5383SOL     OW17047   1.419   3.345   4.608
 5383SOL    HW117048   1.329   3.378   4.581
 5383SOL    HW217049   1.462   3.411   4.669
 5384SOL     OW17050   4.377   5.639   4.760
 5384SOL    HW117051   4.409   5.684   4.844
 5384SOL    HW217052   4.310   5.569   4.784
 5385SOL     OW17053   6.501   2.896   5.105
 5385SOL    HW117054   6.543   2.808   5.083
 5385SOL    HW217055   6.440   2.923   5.030
 5386SOL     OW17056   6.197   1.704   3.842
 5386SOL    HW117057   6.189   1.662   3.932
 5386SOL    HW217058   6.135   1.782   3.836
 5387SOL     OW17059   3.026   6.385   3.715
 5387SOL    HW117060   2.948   6.369   3.654
 5387SOL    HW217061   3.103   6.330   3.685
 5388SOL     OW17062   1.664   6.264   3.051
 5388SOL    HW117063   1.654   6.205   3.131
 5388SOL    HW217064   1.762   6.281   3.035
 5389SOL     OW17065   4.181   2.259   4.538
 5389SOL    HW117066   4.083   2.243   4.526
 5389SOL    HW217067   4.217   2.304   4.456
 5390SOL     OW17068   5.112   3.941   4.121
 5390SOL    HW117069   5.171   3.877   4.071
 5390SOL    HW217070   5.132   3.935   4.219
 5391SOL     OW17071   3.128   1.947   0.229
 5391SOL    HW117072   3.044   2.000   0.222
 5391SOL    HW217073   3.206   2.008   0.214
 5392SOL     OW17074   4.887   3.140   2.524
 5392SOL    HW117075   4.984   3.148   2.502
 5392SOL    HW217076   4.838   3.098   2.447
 5393SOL     OW17077   4.677   1.101   5.453
 5393SOL    HW117078   4.628   1.095   5.366
 5393SOL    HW217079   4.665   1.015   5.504
 5394SOL     OW17080   0.674   6.201   0.844
 5394SOL    HW117081   0.598   6.168   0.900
 5394SOL    HW217082   0.656   6.295   0.814
 5395SOL     OW17083   5.057   1.204   1.259
 5395SOL    HW117084   5.083   1.146   1.182
 5395SOL    HW217085   5.003   1.151   1.325
 5396SOL     OW17086   5.384   5.483   2.023
 5396SOL    HW117087   5.451   5.541   2.070
 5396SOL    HW217088   5.352   5.530   1.941
 5397SOL     OW17089   7.016   2.253   1.792
 5397SOL    HW117090   6.976   2.170   1.831
 5397SOL    HW217091   0.091   2.246   1.795
 5398SOL     OW17092   3.328   1.987   3.886
 5398SOL    HW117093   3.298   2.050   3.959
 5398SOL    HW217094   3.266   1.909   3.882
 5399SOL     OW17095   2.815   6.762   5.801
 5399SOL    HW117096   2.798   6.750   5.703
 5399SOL    HW217097   2.814   6.859   5.823
 5400SOL     OW17098   3.653   3.342   0.963
 5400SOL    HW117099   3.700   3.292   0.890
 5400SOL    HW217100   3.703   3.426   0.984
 5401SOL     OW17101   5.439   4.143   2.959
 5401SOL    HW117102   5.456   4.187   2.871
 5401SOL    HW217103   5.427   4.045   2.946
 5402SOL     OW17104   3.425   6.219   0.827
 5402SOL    HW117105   3.481   6.196   0.906
 5402SOL    HW217106   3.476   6.282   0.768
 5403SOL     OW17107   5.345   2.932   6.472
 5403SOL    HW117108   5.246   2.916   6.474
 5403SOL    HW217109   5.387   2.895   6.554
 5404SOL     OW17110   0.584   0.455   0.625
 5404SOL    HW117111   0.550   0.541   0.663
 5404SOL    HW217112   0.601   0.391   0.700
 5405SOL     OW17113   5.991   4.866   6.972
 5405SOL    HW117114   6.054   4.851   6.895
 5405SOL    HW217115   6.039   4.911   0.022
 5406SOL     OW17116   2.021   0.969   5.199
 5406SOL    HW117117   1.926   0.950   5.172
 5406SOL    HW217118   2.068   0.882   5.216
 5407SOL     OW17119   2.704   1.433   1.170
 5407SOL    HW117120   2.676   1.396   1.082
 5407SOL    HW217121   2.647   1.514   1.191
 5408SOL     OW17122   3.461   1.934   4.881
 5408SOL    HW117123   3.543   1.991   4.872
 5408SOL    HW217124   3.380   1.987   4.859
 5409SOL     OW17125   6.449   1.784   2.399
 5409SOL    HW117126   6.531   1.766   2.345
 5409SOL    HW217127   6.455   1.734   2.486
 5410SOL     OW17128   0.646   2.861   0.065
 5410SOL    HW117129   0.731   2.861   0.117
 5410SOL    HW217130   0.568   2.856   0.127
 5411SOL     OW17131   5.330   4.377   7.001
 5411SOL    HW117132   5.344   4.475   6.989
 5411SOL    HW217133   5.305   4.358   0.072
 5412SOL     OW17134   2.356   1.359   6.578
 5412SOL    HW117135   2.278   1.419   6.560
 5412SOL    HW217136   2.322   1.268   6.602
 5413SOL     OW17137   0.127   6.902   5.711
 5413SOL    HW117138   0.084   6.941   5.792
 5413SOL    HW217139   0.103   6.957   5.631
 5414SOL     OW17140   6.526   4.705   5.545
 5414SOL    HW117141   6.485   4.618   5.573
 5414SOL    HW217142   6.495   4.728   5.453
 5415SOL     OW17143   2.818   5.720   0.676
 5415SOL    HW117144   2.827   5.669   0.591
 5415SOL    HW217145   2.781   5.660   0.747
 5416SOL     OW17146   3.053   5.480   4.959
 5416SOL    HW117147   3.112   5.404   4.988
 5416SOL    HW217148   3.019   5.463   4.867
 5417SOL     OW17149   3.970   6.594   4.253
 5417SOL    HW117150   4.067   6.592   4.278
 5417SOL    HW217151   3.915   6.618   4.333
 5418SOL     OW17152   5.410   5.404   5.060
 5418SOL    HW117153   5.488   5.368   5.110
 5418SOL    HW217154   5.419   5.382   4.963
 5419SOL     OW17155   4.035   6.407   0.268
 5419SOL    HW117156   4.056   6.487   0.325
 5419SOL    HW217157   4.035   6.325   0.324
 5420SOL     OW17158   1.820   1.775   1.037
 5420SOL    HW117159   1.868   1.859   1.066
 5420SOL    HW217160   1.730   1.772   1.079
 5421SOL     OW17161   2.986   5.600   2.020
 5421SOL    HW117162   2.985   5.507   1.983
 5421SOL    HW217163   2.940   5.662   1.956
 5422SOL     OW17164   1.856   5.882   4.286
 5422SOL    HW117165   1.851   5.972   4.331
 5422SOL    HW217166   1.797   5.817   4.335
 5423SOL     OW17167   6.367   5.192   1.660
 5423SOL    HW117168   6.412   5.139   1.589
 5423SOL    HW217169   6.331   5.129   1.730
 5424SOL     OW17170   4.843   3.736   4.192
 5424SOL    HW117171   4.911   3.678   4.148
 5424SOL    HW217172   4.833   3.709   4.288
 5425SOL     OW17173   6.575   3.068   4.722
 5425SOL    HW117174   6.508   3.134   4.757
 5425SOL    HW217175   6.608   3.098   4.632
 5426SOL     OW17176   4.710   5.675   2.260
 5426SOL    HW117177   4.620   5.665   2.218
 5426SOL    HW217178   4.707   5.640   2.354
 5427SOL     OW17179   4.595   2.893   0.133
 5427SOL    HW117180   4.684   2.904   0.178
 5427SOL    HW217181   4.603   2.824   0.061
 5428SOL     OW17182   5.266   6.427   2.804
 5428SOL    HW117183   5.290   6.366   2.879
 5428SOL    HW217184   5.260   6.375   2.719
 5429SOL     OW17185   2.502   6.630   5.300
 5429SOL    HW117186   2.445   6.642   5.219
 5429SOL    HW217187   2.474   6.695   5.371
 5430SOL     OW17188   1.769   2.931   5.811
 5430SOL    HW117189   1.785   3.010   5.752
 5430SOL    HW217190   1.699   2.872   5.771
 5431SOL     OW17191   3.553   4.649   6.421
 5431SOL    HW117192   3.488   4.654   6.345
 5431SOL    HW217193   3.598   4.560   6.420
 5432SOL     OW17194   5.478   5.622   0.387
 5432SOL    HW117195   5.452   5.716   0.365
 5432SOL    HW217196   5.569   5.621   0.429
 5433SOL     OW17197   1.095   7.016   0.935
 5433SOL    HW117198   1.070   6.977   0.846
 5433SOL    HW217199   1.187   6.986   0.960
 5434SOL     OW17200   4.946   1.471   4.899
 5434SOL    HW117201   5.041   1.449   4.877
 5434SOL    HW217202   4.898   1.387   4.924
 5435SOL     OW17203   6.237   3.407   0.702
 5435SOL    HW117204   6.290   3.429   0.784
 5435SOL    HW217205   6.140   3.400   0.725
 5436SOL     OW17206   0.232   5.512   4.234
 5436SOL    HW117207   0.159   5.581   4.241
 5436SOL    HW217208   0.321   5.557   4.242
 5437SOL     OW17209   3.194   4.409   6.014
 5437SOL    HW117210   3.161   4.394   6.107
 5437SOL    HW217211   3.177   4.327   5.959
 5438SOL     OW17212   5.270   5.186   1.962
 5438SOL    HW117213   5.217   5.104   1.942
 5438SOL    HW217214   5.256   5.212   2.058
 5439SOL     OW17215   1.393   3.939   0.561
 5439SOL    HW117216   1.426   3.863   0.505
 5439SOL    HW217217   1.302   3.966   0.530
 5440SOL     OW17218   5.784   6.975   3.346
 5440SOL    HW117219   5.796   6.983   3.247
 5440SOL    HW217220   5.691   7.002   3.370
 5441SOL     OW17221   5.309   3.346   3.471
 5441SOL    HW117222   5.310   3.413   3.545
 5441SOL    HW217223   5.384   3.365   3.408
 5442SOL     OW17224   3.695   0.423   3.364
 5442SOL    HW117225   3.673   0.521   3.372
 5442SOL    HW217226   3.709   0.401   3.267
 5443SOL     OW17227   4.238   6.532   4.009
 5443SOL    HW117228   4.278   6.451   4.051
 5443SOL    HW217229   4.257   6.531   3.911
 5444SOL     OW17230   6.987   2.209   4.135
 5444SOL    HW117231   6.969   2.121   4.090
 5444SOL    HW217232   7.019   2.275   4.068
 5445SOL     OW17233   4.986   4.216   4.206
 5445SOL    HW117234   4.998   4.229   4.304
 5445SOL    HW217235   5.068   4.175   4.167
 5446SOL     OW17236   6.627   4.568   4.455
 5446SOL    HW117237   6.614   4.483   4.507
 5446SOL    HW217238   6.554   4.577   4.388
 5447SOL     OW17239   2.577   1.381   0.925
 5447SOL    HW117240   2.600   1.363   0.830
 5447SOL    HW217241   2.478   1.389   0.935
 5448SOL     OW17242   4.580   5.481   3.984
 5448SOL    HW117243   4.633   5.558   3.948
 5448SOL    HW217244   4.629   5.395   3.967
 5449SOL     OW17245   2.470   1.490   1.794
 5449SOL    HW117246   2.431   1.462   1.707
 5449SOL    HW217247   2.403   1.543   1.845
 5450SOL     OW17248   3.971   6.016   1.114
 5450SOL    HW117249   3.907   5.960   1.062
 5450SOL    HW217250   3.927   6.102   1.140
 5451SOL     OW17251   1.708   6.514   3.412
 5451SOL    HW117252   1.674   6.497   3.505
 5451SOL    HW217253   1.644   6.573   3.364
 5452SOL     OW17254   2.283   4.649   0.748
 5452SOL    HW117255   2.232   4.583   0.692
 5452SOL    HW217256   2.239   4.657   0.838
 5453SOL     OW17257   5.044   4.235   1.753
 5453SOL    HW117258   5.037   4.197   1.661
 5453SOL    HW217259   4.957   4.224   1.801
 5454SOL     OW17260   5.491   6.379   1.839
 5454SOL    HW117261   5.494   6.392   1.938
 5454SOL    HW217262   5.577   6.410   1.798
 5455SOL     OW17263   0.777   1.497   3.138
 5455SOL    HW117264   0.703   1.542   3.088
 5455SOL    HW217265   0.740   1.452   3.219
 5456SOL     OW17266   4.517   0.972   6.941
 5456SOL    HW117267   4.442   0.923   6.897
 5456SOL    HW217268   4.499   1.071   6.938
 5457SOL     OW17269   6.396   1.741   0.231
 5457SOL    HW117270   6.417   1.667   0.294
 5457SOL    HW217271   6.471   1.807   0.232
 5458SOL     OW17272   6.952   5.098   1.197
 5458SOL    HW117273   6.965   5.004   1.230
 5458SOL    HW217274   6.922   5.096   1.102
 5459SOL     OW17275   1.923   4.287   5.074
 5459SOL    HW117276   1.828   4.300   5.046
 5459SOL    HW217277   1.983   4.310   4.998
 5460SOL     OW17278   2.504   0.658   1.732
 5460SOL    HW117279   2.543   0.732   1.787
 5460SOL    HW217280   2.406   0.674   1.720
 5461SOL     OW17281   1.251   1.508   5.736
 5461SOL    HW117282   1.228   1.543   5.827
 5461SOL    HW217283   1.347   1.480   5.734
 5462SOL     OW17284   5.098   6.375   6.915
 5462SOL    HW117285   5.165   6.410   6.982
 5462SOL    HW217286   5.057   6.452   6.866
 5463SOL     OW17287   6.439   1.998   6.817
 5463SOL    HW117288   6.345   1.976   6.790
 5463SOL    HW217289   6.438   2.037   6.909
 5464SOL     OW17290   6.954   5.513   5.421
 5464SOL    HW117291   6.991   5.553   5.336
 5464SOL    HW217292   6.957   5.582   5.493
 5465SOL     OW17293   0.081   6.993   2.945
 5465SOL    HW117294   0.070   6.924   2.874
 5465SOL    HW217295   0.090   0.059   2.904
 5466SOL     OW17296   5.828   2.432   5.668
 5466SOL    HW117297   5.833   2.471   5.760
 5466SOL    HW217298   5.879   2.491   5.604
 5467SOL     OW17299   5.587   4.117   3.659
 5467SOL    HW117300   5.659   4.048   3.668
 5467SOL    HW217301   5.513   4.081   3.602
 5468SOL     OW17302   6.858   2.604   3.816
 5468SOL    HW117303   6.842   2.534   3.746
 5468SOL    HW217304   6.956   2.615   3.829
 5469SOL     OW17305   2.818   6.472   6.302
 5469SOL    HW117306   2.914   6.500   6.300
 5469SOL    HW217307   2.759   6.551   6.288
 5470SOL     OW17308   4.020   5.451   3.608
 5470SOL    HW117309   4.028   5.530   3.669
 5470SOL    HW217310   4.062   5.372   3.652
 5471SOL     OW17311   5.531   0.335   2.448
 5471SOL    HW117312   5.582   0.348   2.363
 5471SOL    HW217313   5.436   0.313   2.426
 5472SOL     OW17314   3.554   2.955   6.616
 5472SOL    HW117315   3.617   2.942   6.539
 5472SOL    HW217316   3.460   2.936   6.587
 5473SOL     OW17317   2.322   4.837   0.237
 5473SOL    HW117318   2.267   4.754   0.248
 5473SOL    HW217319   2.419   4.813   0.241
 5474SOL     OW17320   0.396   5.842   3.744
 5474SOL    HW117321   0.328   5.838   3.670
 5474SOL    HW217322   0.371   5.776   3.815
 5475SOL     OW17323   1.689   1.791   0.675
 5475SOL    HW117324   1.761   1.847   0.716
 5475SOL    HW217325   1.611   1.785   0.738
 5476SOL     OW17326   2.512   4.897   5.478
 5476SOL    HW117327   2.542   4.942   5.562
 5476SOL    HW217328   2.589   4.891   5.414
 5477SOL     OW17329   1.783   3.628   3.198
 5477SOL    HW117330   1.760   3.724   3.216
 5477SOL    HW217331   1.721   3.592   3.129
 5478SOL     OW17332   5.177   6.049   5.713
 5478SOL    HW117333   5.166   5.958   5.672
 5478SOL    HW217334   5.101   6.066   5.776
 5479SOL     OW17335   4.849   1.665   4.712
 5479SOL    HW117336   4.910   1.644   4.635
 5479SOL    HW217337   4.867   1.602   4.787
 5480SOL     OW17338   5.833   4.866   4.852
 5480SOL    HW117339   5.914   4.922   4.867
 5480SOL    HW217340   5.784   4.899   4.771
 5481SOL     OW17341   4.730   1.230   4.580
 5481SOL    HW117342   4.807   1.180   4.620
 5481SOL    HW217343   4.724   1.321   4.622
 5482SOL     OW17344   3.153   3.970   2.978
 5482SOL    HW117345   3.185   4.028   3.053
 5482SOL    HW217346   3.231   3.919   2.940
 5483SOL     OW17347   6.187   2.535   5.198
 5483SOL    HW117348   6.256   2.580   5.254
 5483SOL    HW217349   6.097   2.544   5.243
 5484SOL     OW17350   6.238   0.507   3.591
 5484SOL    HW117351   6.201   0.590   3.633
 5484SOL    HW217352   6.325   0.484   3.633
 5485SOL     OW17353   3.173   6.556   4.696
 5485SOL    HW117354   3.209   6.465   4.717
 5485SOL    HW217355   3.126   6.593   4.775
 5486SOL     OW17356   1.998   6.546   3.615
 5486SOL    HW117357   1.965   6.453   3.632
 5486SOL    HW217358   2.021   6.556   3.518
 5487SOL     OW17359   5.375   3.863   6.225
 5487SOL    HW117360   5.281   3.897   6.231
 5487SOL    HW217361   5.421   3.877   6.313
 5488SOL     OW17362   5.554   1.498   1.183
 5488SOL    HW117363   5.619   1.553   1.130
 5488SOL    HW217364   5.604   1.430   1.237
 5489SOL     OW17365   0.897   4.156   1.650
 5489SOL    HW117366   0.812   4.192   1.689
 5489SOL    HW217367   0.882   4.134   1.554
 5490SOL     OW17368   3.529   6.895   0.934
 5490SOL    HW117369   3.459   6.826   0.952
 5490SOL    HW217370   3.580   6.914   1.018
 5491SOL     OW17371   1.343   3.809   5.909
 5491SOL    HW117372   1.258   3.814   5.963
 5491SOL    HW217373   1.407   3.747   5.955
 5492SOL     OW17374   0.971   1.791   6.518
 5492SOL    HW117375   0.939   1.706   6.477
 5492SOL    HW217376   1.070   1.786   6.531
 5493SOL     OW17377   4.062   3.698   4.388
 5493SOL    HW117378   4.102   3.690   4.296
 5493SOL    HW217379   4.098   3.625   4.446
 5494SOL     OW17380   6.045   2.874   6.973
 5494SOL    HW117381   6.110   2.804   6.946
 5494SOL    HW217382   6.075   2.916   0.034
 5495SOL     OW17383   2.991   2.534   1.573
 5495SOL    HW117384   2.919   2.548   1.505
 5495SOL    HW217385   2.960   2.468   1.641
 5496SOL     OW17386   2.542   6.906   3.222
 5496SOL    HW117387   2.617   6.844   3.199
 5496SOL    HW217388   2.576   6.981   3.279
 5497SOL     OW17389   0.126   1.953   3.459
 5497SOL    HW117390   0.134   1.861   3.420
 5497SOL    HW217391   0.096   1.946   3.555
 5498SOL     OW17392   5.286   0.158   1.502
 5498SOL    HW117393   5.338   0.138   1.418
 5498SOL    HW217394   5.237   0.076   1.531
 5499SOL     OW17395   1.146   1.016   3.789
 5499SOL    HW117396   1.154   1.103   3.741
 5499SOL    HW217397   1.064   0.968   3.758
 5500SOL     OW17398   1.892   5.909   0.042
 5500SOL    HW117399   1.806   5.872   0.078
 5500SOL    HW217400   1.922   5.854   6.988
 5501SOL     OW17401   3.559   0.254   0.907
 5501SOL    HW117402   3.545   0.190   0.832
 5501SOL    HW217403   3.470   0.278   0.947
 5502SOL     OW17404   5.127   4.380   6.194
 5502SOL    HW117405   5.129   4.283   6.170
 5502SOL    HW217406   5.210   4.405   6.243
 5503SOL     OW17407   0.169   4.812   2.992
 5503SOL    HW117408   0.074   4.819   3.025
 5503SOL    HW217409   0.186   4.718   2.961
 5504SOL     OW17410   4.170   1.702   5.577
 5504SOL    HW117411   4.185   1.751   5.662
 5504SOL    HW217412   4.085   1.649   5.583
 5505SOL     OW17413   2.461   5.086   4.401
 5505SOL    HW117414   2.429   5.020   4.333
 5505SOL    HW217415   2.520   5.039   4.467
 5506SOL     OW17416   0.044   0.843   5.958
 5506SOL    HW117417   0.063   0.933   5.999
 5506SOL    HW217418   6.979   0.845   5.914
 5507SOL     OW17419   1.945   6.608   2.454
 5507SOL    HW117420   1.940   6.547   2.534
 5507SOL    HW217421   2.040   6.637   2.441
 5508SOL     OW17422   1.906   1.096   0.143
 5508SOL    HW117423   1.850   1.140   0.213
 5508SOL    HW217424   1.963   1.165   0.098
 5509SOL     OW17425   1.123   6.410   0.545
 5509SOL    HW117426   1.040   6.461   0.522
 5509SOL    HW217427   1.098   6.331   0.601
 5510SOL     OW17428   5.307   5.986   0.773
 5510SOL    HW117429   5.391   5.933   0.759
 5510SOL    HW217430   5.324   6.082   0.751
 5511SOL     OW17431   2.479   6.938   4.507
 5511SOL    HW117432   2.559   6.966   4.560
 5511SOL    HW217433   2.498   6.951   4.409
 5512SOL     OW17434   5.892   2.131   1.464
 5512SOL    HW117435   5.899   2.063   1.537
 5512SOL    HW217436   5.827   2.203   1.492
 5513SOL     OW17437   3.341   4.144   6.059
 5513SOL    HW117438   3.298   4.059   6.091
 5513SOL    HW217439   3.333   4.150   5.960
 5514SOL     OW17440   4.274   5.740   2.216
 5514SOL    HW117441   4.224   5.655   2.228
 5514SOL    HW217442   4.289   5.783   2.305
 5515SOL     OW17443   0.385   4.298   1.103
 5515SOL    HW117444   0.335   4.218   1.068
 5515SOL    HW217445   0.388   4.294   1.203
 5516SOL     OW17446   1.396   3.611   6.867
 5516SOL    HW117447   1.446   3.535   6.826
 5516SOL    HW217448   1.312   3.627   6.815
 5517SOL     OW17449   2.199   2.640   2.288
 5517SOL    HW117450   2.134   2.686   2.227
 5517SOL    HW217451   2.244   2.567   2.238
 5518SOL     OW17452   6.506   6.859   6.577
 5518SOL    HW117453   6.412   6.825   6.573
 5518SOL    HW217454   6.507   6.957   6.560
 5519SOL     OW17455   5.182   3.156   3.029
 5519SOL    HW117456   5.169   3.104   3.114
 5519SOL    HW217457   5.103   3.216   3.015
 5520SOL     OW17458   6.658   5.314   2.320
 5520SOL    HW117459   6.757   5.330   2.314
 5520SOL    HW217460   6.641   5.218   2.342
 5521SOL     OW17461   4.173   6.600   2.557
 5521SOL    HW117462   4.263   6.635   2.532
 5521SOL    HW217463   4.127   6.665   2.617
 5522SOL     OW17464   0.489   4.912   0.611
 5522SOL    HW117465   0.448   4.994   0.571
 5522SOL    HW217466   0.535   4.936   0.697
 5523SOL     OW17467   2.935   0.009   3.141
 5523SOL    HW117468   3.011   6.969   3.138
 5523SOL    HW217469   2.890   0.004   3.231
 5524SOL     OW17470   6.139   5.004   4.441
 5524SOL    HW117471   6.173   5.067   4.512
 5524SOL    HW217472   6.116   4.916   4.483
 5525SOL     OW17473   0.005   3.532   0.108
 5525SOL    HW117474   6.947   3.505   0.058
 5525SOL    HW217475   0.048   3.451   0.147
 5526SOL     OW17476   5.324   4.241   4.819
 5526SOL    HW117477   5.278   4.302   4.754
 5526SOL    HW217478   5.256   4.179   4.859
 5527SOL     OW17479   1.077   3.887   4.012
 5527SOL    HW117480   1.011   3.954   3.977
 5527SOL    HW217481   1.059   3.870   4.108
 5528SOL     OW17482   0.941   1.821   6.782
 5528SOL    HW117483   0.846   1.850   6.770
 5528SOL    HW217484   0.982   1.802   6.693
 5529SOL     OW17485   2.291   0.126   4.556
 5529SOL    HW117486   2.229   0.098   4.483
 5529SOL    HW217487   2.376   0.073   4.550
 5530SOL     OW17488   0.270   2.593   2.420
 5530SOL    HW117489   0.235   2.687   2.425
 5530SOL    HW217490   0.193   2.529   2.425
 5531SOL     OW17491   3.989   3.898   2.407
 5531SOL    HW117492   3.988   3.957   2.487
 5531SOL    HW217493   3.897   3.891   2.369
 5532SOL     OW17494   1.474   1.497   0.804
 5532SOL    HW117495   1.516   1.489   0.713
 5532SOL    HW217496   1.519   1.435   0.867
 5533SOL     OW17497   2.959   0.954   3.092
 5533SOL    HW117498   2.994   0.936   3.184
 5533SOL    HW217499   2.972   0.873   3.035
 5534SOL     OW17500   0.928   2.411   5.649
 5534SOL    HW117501   1.023   2.384   5.660
 5534SOL    HW217502   0.889   2.435   5.738
 5535SOL     OW17503   0.795   3.464   4.216
 5535SOL    HW117504   0.852   3.381   4.221
 5535SOL    HW217505   0.776   3.485   4.120
 5536SOL     OW17506   3.414   0.930   4.253
 5536SOL    HW117507   3.489   0.981   4.296
 5536SOL    HW217508   3.433   0.917   4.156
 5537SOL     OW17509   3.156   0.855   4.568
 5537SOL    HW117510   3.111   0.767   4.551
 5537SOL    HW217511   3.249   0.852   4.530
 5538SOL     OW17512   3.306   6.958   4.674
 5538SOL    HW117513   3.342   6.867   4.654
 5538SOL    HW217514   3.206   6.957   4.667
 5539SOL     OW17515   1.410   2.958   0.451
 5539SOL    HW117516   1.448   3.014   0.378
 5539SOL    HW217517   1.485   2.925   0.510
 5540SOL     OW17518   6.197   3.516   3.306
 5540SOL    HW117519   6.187   3.494   3.209
 5540SOL    HW217520   6.265   3.589   3.317
 5541SOL     OW17521   5.596   1.786   6.689
 5541SOL    HW117522   5.527   1.769   6.760
 5541SOL    HW217523   5.687   1.767   6.726
 5542SOL     OW17524   5.623   6.665   6.322
 5542SOL    HW117525   5.583   6.624   6.405
 5542SOL    HW217526   5.636   6.763   6.336
 5543SOL     OW17527   2.744   5.320   6.132
 5543SOL    HW117528   2.780   5.395   6.187
 5543SOL    HW217529   2.712   5.247   6.193
 5544SOL     OW17530   5.456   5.591   6.351
 5544SOL    HW117531   5.407   5.550   6.274
 5544SOL    HW217532   5.396   5.594   6.431
 5545SOL     OW17533   4.394   1.361   3.529
 5545SOL    HW117534   4.447   1.436   3.568
 5545SOL    HW217535   4.298   1.388   3.522
 5546SOL     OW17536   1.543   6.751   3.977
 5546SOL    HW117537   1.541   6.652   3.993
 5546SOL    HW217538   1.551   6.769   3.879
 5547SOL     OW17539   3.818   0.610   4.567
 5547SOL    HW117540   3.908   0.602   4.610
 5547SOL    HW217541   3.748   0.579   4.632
 5548SOL     OW17542   5.500   3.457   4.872
 5548SOL    HW117543   5.536   3.545   4.843
 5548SOL    HW217544   5.495   3.395   4.794
 5549SOL     OW17545   3.824   4.733   0.850
 5549SOL    HW117546   3.787   4.734   0.943
 5549SOL    HW217547   3.766   4.676   0.792
 5550SOL     OW17548   2.262   4.126   2.305
 5550SOL    HW117549   2.220   4.152   2.218
 5550SOL    HW217550   2.352   4.168   2.312
 5551SOL     OW17551   1.370   6.124   3.252
 5551SOL    HW117552   1.400   6.194   3.318
 5551SOL    HW217553   1.449   6.071   3.222
 5552SOL     OW17554   6.986   6.954   6.756
 5552SOL    HW117555   6.921   6.924   6.826
 5552SOL    HW217556   6.960   6.917   6.668
 5553SOL     OW17557   5.098   6.343   0.375
 5553SOL    HW117558   5.090   6.406   0.298
 5553SOL    HW217559   5.143   6.259   0.345
 5554SOL     OW17560   4.758   1.946   6.686
 5554SOL    HW117561   4.703   2.029   6.688
 5554SOL    HW217562   4.812   1.939   6.770
 5555SOL     OW17563   1.249   4.170   2.839
 5555SOL    HW117564   1.167   4.226   2.825
 5555SOL    HW217565   1.279   4.179   2.934
 5556SOL     OW17566   6.860   1.731   3.782
 5556SOL    HW117567   6.916   1.809   3.810
 5556SOL    HW217568   6.907   1.682   3.709
 5557SOL     OW17569   3.315   6.972   2.876
 5557SOL    HW117570   3.348   6.903   2.812
 5557SOL    HW217571   3.391   7.007   2.930
 5558SOL     OW17572   3.605   3.299   5.552
 5558SOL    HW117573   3.635   3.219   5.603
 5558SOL    HW217574   3.684   3.353   5.524
 5559SOL     OW17575   1.206   0.612   1.475
 5559SOL    HW117576   1.250   0.522   1.472
 5559SOL    HW217577   1.132   0.611   1.542
 5560SOL     OW17578   0.391   5.408   2.458
 5560SOL    HW117579   0.444   5.436   2.539
 5560SOL    HW217580   0.442   5.338   2.408
 5561SOL     OW17581   1.761   1.340   4.063
 5561SOL    HW117582   1.791   1.379   3.976
 5561SOL    HW217583   1.784   1.403   4.138
 5562SOL     OW17584   4.133   2.429   6.543
 5562SOL    HW117585   4.225   2.467   6.559
 5562SOL    HW217586   4.109   2.367   6.617
 5563SOL     OW17587   3.551   5.288   2.009
 5563SOL    HW117588   3.488   5.275   1.932
 5563SOL    HW217589   3.516   5.362   2.067
 5564SOL     OW17590   4.649   0.317   1.346
 5564SOL    HW117591   4.685   0.233   1.303
 5564SOL    HW217592   4.549   0.311   1.351
 5565SOL     OW17593   4.620   1.772   6.031
 5565SOL    HW117594   4.718   1.768   6.051
 5565SOL    HW217595   4.569   1.790   6.115
 5566SOL     OW17596   1.512   4.547   6.594
 5566SOL    HW117597   1.555   4.615   6.653
 5566SOL    HW217598   1.559   4.546   6.505
 5567SOL     OW17599   0.074   1.989   1.077
 5567SOL    HW117600   0.071   2.007   1.176
 5567SOL    HW217601   7.015   1.941   1.050
 5568SOL     OW17602   4.628   1.801   3.605
 5568SOL    HW117603   4.570   1.835   3.680
 5568SOL    HW217604   4.718   1.844   3.610
 5569SOL     OW17605   1.717   2.558   2.404
 5569SOL    HW117606   1.670   2.630   2.454
 5569SOL    HW217607   1.693   2.562   2.307
 5570SOL     OW17608   6.227   4.704   5.116
 5570SOL    HW117609   6.145   4.760   5.129
 5570SOL    HW217610   6.273   4.731   5.032
 5571SOL     OW17611   6.988   5.916   0.401
 5571SOL    HW117612   6.994   5.992   0.465
 5571SOL    HW217613   7.006   5.950   0.308
 5572SOL     OW17614   1.447   1.959   5.193
 5572SOL    HW117615   1.468   2.020   5.269
 5572SOL    HW217616   1.392   2.007   5.125
 5573SOL     OW17617   2.440   4.424   4.432
 5573SOL    HW117618   2.512   4.447   4.366
 5573SOL    HW217619   2.385   4.349   4.396
 5574SOL     OW17620   0.515   2.079   2.287
 5574SOL    HW117621   0.575   2.149   2.248
 5574SOL    HW217622   0.516   2.085   2.387
 5575SOL     OW17623   6.852   0.959   1.292
 5575SOL    HW117624   6.776   1.023   1.300
 5575SOL    HW217625   6.937   1.009   1.272
 5576SOL     OW17626   0.995   5.247   1.716
 5576SOL    HW117627   0.929   5.195   1.662
 5576SOL    HW217628   1.084   5.246   1.671
 5577SOL     OW17629   3.517   3.703   5.672
 5577SOL    HW117630   3.427   3.687   5.633
 5577SOL    HW217631   3.581   3.728   5.599
 5578SOL     OW17632   3.740   3.652   0.759
 5578SOL    HW117633   3.813   3.718   0.775
 5578SOL    HW217634   3.771   3.582   0.695
 5579SOL     OW17635   0.600   3.565   0.350
 5579SOL    HW117636   0.631   3.539   0.258
 5579SOL    HW217637   0.523   3.628   0.342
 5580SOL     OW17638   5.574   2.476   5.563
 5580SOL    HW117639   5.656   2.435   5.603
 5580SOL    HW217640   5.522   2.405   5.515
 5581SOL     OW17641   1.250   6.926   1.493
 5581SOL    HW117642   1.338   6.955   1.455
 5581SOL    HW217643   1.218   6.994   1.559
 5582SOL     OW17644   2.861   3.861   5.123
 5582SOL    HW117645   2.844   3.798   5.199
 5582SOL    HW217646   2.775   3.905   5.097
 5583SOL     OW17647   4.866   0.314   2.685
 5583SOL    HW117648   4.936   0.348   2.622
 5583SOL    HW217649   4.876   0.358   2.774
 5584SOL     OW17650   5.626   4.523   4.127
 5584SOL    HW117651   5.638   4.552   4.032
 5584SOL    HW217652   5.597   4.601   4.182
 5585SOL     OW17653   5.354   6.103   4.015
 5585SOL    HW117654   5.316   6.133   3.928
 5585SOL    HW217655   5.330   6.007   4.031
 5586SOL     OW17656   0.261   2.318   6.949
 5586SOL    HW117657   0.324   2.385   6.908
 5586SOL    HW217658   0.298   2.288   0.012
 5587SOL     OW17659   4.005   6.307   1.799
 5587SOL    HW117660   4.047   6.380   1.746
 5587SOL    HW217661   3.986   6.229   1.740
 5588SOL     OW17662   1.696   5.821   2.887
 5588SOL    HW117663   1.648   5.758   2.948
 5588SOL    HW217664   1.767   5.870   2.938
 5589SOL     OW17665   5.930   3.800   5.496
 5589SOL    HW117666   5.881   3.846   5.422
 5589SOL    HW217667   5.944   3.864   5.572
 5590SOL     OW17668   6.693   5.736   4.003
 5590SOL    HW117669   6.695   5.751   3.904
 5590SOL    HW217670   6.719   5.820   4.051
 5591SOL     OW17671   5.074   1.942   0.183
 5591SOL    HW117672   5.160   1.960   0.231
 5591SOL    HW217673   5.038   2.028   0.147
 5592SOL     OW17674   0.097   4.592   2.697
 5592SOL    HW117675   0.145   4.671   2.660
 5592SOL    HW217676   0.121   4.581   2.793
 5593SOL     OW17677   0.701   3.208   6.246
 5593SOL    HW117678   0.785   3.233   6.294
 5593SOL    HW217679   0.633   3.280   6.259
 5594SOL     OW17680   3.698   1.436   6.683
 5594SOL    HW117681   3.712   1.515   6.623
 5594SOL    HW217682   3.786   1.404   6.717
 5595SOL     OW17683   6.329   0.690   5.019
 5595SOL    HW117684   6.426   0.690   4.997
 5595SOL    HW217685   6.317   0.676   5.118
 5596SOL     OW17686   4.751   0.532   3.361
 5596SOL    HW117687   4.744   0.443   3.315
 5596SOL    HW217688   4.686   0.535   3.437
 5597SOL     OW17689   5.425   2.862   4.952
 5597SOL    HW117690   5.388   2.955   4.942
 5597SOL    HW217691   5.449   2.846   5.047
 5598SOL     OW17692   6.161   3.683   3.774
 5598SOL    HW117693   6.249   3.686   3.729
 5598SOL    HW217694   6.089   3.708   3.709
 5599SOL     OW17695   0.528   2.555   1.398
 5599SOL    HW117696   0.618   2.596   1.412
 5599SOL    HW217697   0.505   2.497   1.476
 5600SOL     OW17698   2.481   0.349   1.791
 5600SOL    HW117699   2.453   0.421   1.855
 5600SOL    HW217700   2.437   0.364   1.702
 5601SOL     OW17701   2.772   1.099   6.843
 5601SOL    HW117702   2.697   1.165   6.847
 5601SOL    HW217703   2.854   1.143   6.808
 5602SOL     OW17704   0.060   1.117   1.281
 5602SOL    HW117705   0.025   1.202   1.323
 5602SOL    HW217706   0.138   1.084   1.334
 5603SOL     OW17707   5.606   2.575   0.138
 5603SOL    HW117708   5.689   2.560   0.192
 5603SOL    HW217709   5.632   2.611   0.048
 5604SOL     OW17710   6.335   1.661   4.246
 5604SOL    HW117711   6.353   1.625   4.337
 5604SOL    HW217712   6.394   1.615   4.179
 5605SOL     OW17713   6.577   1.395   5.183
 5605SOL    HW117714   6.607   1.299   5.189
 5605SOL    HW217715   6.537   1.411   5.093
 5606SOL     OW17716   4.672   6.548   0.496
 5606SOL    HW117717   4.745   6.609   0.527
 5606SOL    HW217718   4.607   6.534   0.571
 5607SOL     OW17719   6.212   1.164   2.963
 5607SOL    HW117720   6.126   1.176   2.913
 5607SOL    HW217721   6.258   1.252   2.971
 5608SOL     OW17722   6.067   0.382   3.868
 5608SOL    HW117723   6.079   0.482   3.868
 5608SOL    HW217724   6.032   0.353   3.779
 5609SOL     OW17725   3.685   5.929   1.417
 5609SOL    HW117726   3.600   5.880   1.397
 5609SOL    HW217727   3.747   5.869   1.466
 5610SOL     OW17728   4.585   5.331   1.261
 5610SOL    HW117729   4.491   5.329   1.295
 5610SOL    HW217730   4.623   5.238   1.262
 5611SOL     OW17731   0.772   5.767   3.184
 5611SOL    HW117732   0.819   5.691   3.139
 5611SOL    HW217733   0.679   5.739   3.210
 5612SOL     OW17734   4.339   2.528   5.834
 5612SOL    HW117735   4.245   2.527   5.870
 5612SOL    HW217736   4.404   2.534   5.910
 5613SOL     OW17737   6.211   5.814   4.917
 5613SOL    HW117738   6.157   5.730   4.922
 5613SOL    HW217739   6.296   5.801   4.968
 5614SOL     OW17740   4.508   2.555   4.704
 5614SOL    HW117741   4.587   2.506   4.667
 5614SOL    HW217742   4.445   2.489   4.746
 5615SOL     OW17743   6.638   1.542   4.172
 5615SOL    HW117744   6.689   1.543   4.085
 5615SOL    HW217745   6.557   1.484   4.162
 5616SOL     OW17746   2.864   2.375   5.197
 5616SOL    HW117747   2.932   2.442   5.226
 5616SOL    HW217748   2.910   2.290   5.170
 5617SOL     OW17749   2.682   5.377   5.722
 5617SOL    HW117750   2.621   5.310   5.764
 5617SOL    HW217751   2.649   5.399   5.630
 5618SOL     OW17752   6.931   4.399   4.403
 5618SOL    HW117753   6.845   4.416   4.355
 5618SOL    HW217754   7.006   4.397   4.336
 5619SOL     OW17755   3.871   4.111   4.638
 5619SOL    HW117756   3.935   4.187   4.628
 5619SOL    HW217757   3.908   4.031   4.589
 5620SOL     OW17758   4.172   3.503   1.205
 5620SOL    HW117759   4.192   3.466   1.115
 5620SOL    HW217760   4.126   3.432   1.260
 5621SOL     OW17761   2.612   2.482   0.158
 5621SOL    HW117762   2.516   2.489   0.132
 5621SOL    HW217763   2.641   2.568   0.201
 5622SOL     OW17764   4.806   0.672   5.713
 5622SOL    HW117765   4.730   0.676   5.648
 5622SOL    HW217766   4.786   0.603   5.783
 5623SOL     OW17767   4.294   6.006   5.482
 5623SOL    HW117768   4.301   6.040   5.576
 5623SOL    HW217769   4.373   5.949   5.462
 5624SOL     OW17770   0.706   4.098   3.404
 5624SOL    HW117771   0.761   4.127   3.326
 5624SOL    HW217772   0.738   4.145   3.486
 5625SOL     OW17773   6.910   6.829   5.591
 5625SOL    HW117774   6.869   6.768   5.659
 5625SOL    HW217775   6.880   6.923   5.608
 5626SOL     OW17776   2.082   6.044   4.518
 5626SOL    HW117777   2.044   5.969   4.573
 5626SOL    HW217778   2.179   6.024   4.500
 5627SOL     OW17779   0.771   4.844   6.800
 5627SOL    HW117780   0.849   4.823   6.859
 5627SOL    HW217781   0.686   4.815   6.845
 5628SOL     OW17782   1.862   2.397   2.554
 5628SOL    HW117783   1.844   2.299   2.560
 5628SOL    HW217784   1.798   2.438   2.489
 5629SOL     OW17785   3.786   3.551   1.847
 5629SOL    HW117786   3.749   3.458   1.857
 5629SOL    HW217787   3.731   3.601   1.780
 5630SOL     OW17788   1.816   3.867   6.004
 5630SOL    HW117789   1.769   3.808   5.938
 5630SOL    HW217790   1.778   3.852   6.095
 5631SOL     OW17791   4.553   1.906   2.157
 5631SOL    HW117792   4.595   1.929   2.245
 5631SOL    HW217793   4.525   1.991   2.111
 5632SOL     OW17794   3.044   2.519   6.067
 5632SOL    HW117795   3.105   2.482   5.997
 5632SOL    HW217796   3.097   2.562   6.139
 5633SOL     OW17797   5.860   5.039   4.400
 5633SOL    HW117798   5.824   4.967   4.459
 5633SOL    HW217799   5.960   5.044   4.411
 5634SOL     OW17800   1.863   5.048   4.239
 5634SOL    HW117801   1.935   5.117   4.234
 5634SOL    HW217802   1.872   4.997   4.325
 5635SOL     OW17803   1.867   5.305   6.447
 5635SOL    HW117804   1.876   5.298   6.547
 5635SOL    HW217805   1.923   5.235   6.404
 5636SOL     OW17806   4.743   0.354   4.943
 5636SOL    HW117807   4.834   0.335   4.979
 5636SOL    HW217808   4.751   0.383   4.847
 5637SOL     OW17809   5.404   6.730   3.051
 5637SOL    HW117810   5.466   6.692   3.119
 5637SOL    HW217811   5.313   6.743   3.092
 5638SOL     OW17812   6.432   3.960   1.014
 5638SOL    HW117813   6.398   4.049   0.983
 5638SOL    HW217814   6.359   3.910   1.060
 5639SOL     OW17815   1.711   0.607   2.558
 5639SOL    HW117816   1.756   0.532   2.509
 5639SOL    HW217817   1.703   0.584   2.655
 5640SOL     OW17818   3.312   0.302   3.759
 5640SOL    HW117819   3.340   0.346   3.845
 5640SOL    HW217820   3.324   0.203   3.767
 5641SOL     OW17821   0.698   5.041   5.041
 5641SOL    HW117822   0.673   5.133   5.072
 5641SOL    HW217823   0.797   5.030   5.046
 5642SOL     OW17824   1.450   6.586   4.476
 5642SOL    HW117825   1.508   6.579   4.395
 5642SOL    HW217826   1.472   6.512   4.539
 5643SOL     OW17827   4.435   1.631   4.508
 5643SOL    HW117828   4.475   1.701   4.566
 5643SOL    HW217829   4.360   1.670   4.454
 5644SOL     OW17830   3.035   0.009   5.122
 5644SOL    HW117831   3.039   0.076   5.196
 5644SOL    HW217832   2.969   6.962   5.145
 5645SOL     OW17833   6.348   4.906   3.607
 5645SOL    HW117834   6.361   4.827   3.667
 5645SOL    HW217835   6.318   4.876   3.517
 5646SOL     OW17836   1.571   5.518   3.723
 5646SOL    HW117837   1.486   5.553   3.762
 5646SOL    HW217838   1.646   5.579   3.747
 5647SOL     OW17839   4.535   5.931   0.640
 5647SOL    HW117840   4.462   5.907   0.704
 5647SOL    HW217841   4.610   5.975   0.690
 5648SOL     OW17842   1.735   0.030   3.054
 5648SOL    HW117843   1.691   0.080   2.980
 5648SOL    HW217844   1.834   0.032   3.041
 5649SOL     OW17845   0.785   0.936   4.480
 5649SOL    HW117846   0.846   0.895   4.548
 5649SOL    HW217847   0.699   0.962   4.524
 5650SOL     OW17848   0.455   5.670   0.439
 5650SOL    HW117849   0.484   5.763   0.418
 5650SOL    HW217850   0.469   5.611   0.359
 5651SOL     OW17851   1.635   1.240   1.547
 5651SOL    HW117852   1.638   1.174   1.622
 5651SOL    HW217853   1.540   1.268   1.531
 5652SOL     OW17854   6.175   0.122   2.157
 5652SOL    HW117855   6.107   0.088   2.222
 5652SOL    HW217856   6.136   0.120   2.064
 5653SOL     OW17857   6.305   6.334   6.845
 5653SOL    HW117858   6.264   6.323   6.935
 5653SOL    HW217859   6.370   6.410   6.847
 5654SOL     OW17860   0.048   6.748   5.357
 5654SOL    HW117861   0.082   6.662   5.320
 5654SOL    HW217862   0.005   6.731   5.446
 5655SOL     OW17863   0.938   3.949   4.265
 5655SOL    HW117864   0.869   3.877   4.265
 5655SOL    HW217865   0.985   3.950   4.354
 5656SOL     OW17866   0.174   3.886   6.629
 5656SOL    HW117867   0.221   3.936   6.557
 5656SOL    HW217868   0.239   3.864   6.702
 5657SOL     OW17869   5.851   2.441   0.288
 5657SOL    HW117870   5.806   2.431   0.377
 5657SOL    HW217871   5.823   2.366   0.228
 5658SOL     OW17872   3.477   3.586   6.565
 5658SOL    HW117873   3.392   3.578   6.513
 5658SOL    HW217874   3.493   3.682   6.589
 5659SOL     OW17875   3.914   3.305   5.415
 5659SOL    HW117876   3.851   3.291   5.339
 5659SOL    HW217877   3.881   3.380   5.473
 5660SOL     OW17878   5.083   6.548   0.171
 5660SOL    HW117879   5.124   6.599   0.096
 5660SOL    HW217880   5.073   6.608   0.251
 5661SOL     OW17881   1.362   6.197   5.016
 5661SOL    HW117882   1.326   6.254   4.942
 5661SOL    HW217883   1.310   6.213   5.099
 5662SOL     OW17884   2.823   5.639   3.444
 5662SOL    HW117885   2.823   5.565   3.512
 5662SOL    HW217886   2.914   5.645   3.403
 5663SOL     OW17887   1.644   3.193   6.614
 5663SOL    HW117888   1.571   3.127   6.629
 5663SOL    HW217889   1.728   3.146   6.589
 5664SOL     OW17890   6.834   3.838   4.554
 5664SOL    HW117891   6.784   3.915   4.513
 5664SOL    HW217892   6.792   3.753   4.523
 5665SOL     OW17893   1.808   1.004   0.470
 5665SOL    HW117894   1.887   0.947   0.494
 5665SOL    HW217895   1.825   1.098   0.500
 5666SOL     OW17896   5.763   0.019   3.068
 5666SOL    HW117897   5.756   6.947   3.042
 5666SOL    HW217898   5.773   0.075   2.986
 5667SOL     OW17899   1.286   5.141   4.596
 5667SOL    HW117900   1.230   5.058   4.585
 5667SOL    HW217901   1.381   5.120   4.573
 5668SOL     OW17902   5.327   2.662   3.831
 5668SOL    HW117903   5.328   2.749   3.782
 5668SOL    HW217904   5.250   2.660   3.894
 5669SOL     OW17905   0.398   3.501   0.580
 5669SOL    HW117906   0.492   3.504   0.547
 5669SOL    HW217907   0.344   3.441   0.520
 5670SOL     OW17908   0.879   3.582   3.832
 5670SOL    HW117909   0.838   3.655   3.887
 5670SOL    HW217910   0.831   3.574   3.745
 5671SOL     OW17911   6.069   6.195   6.714
 5671SOL    HW117912   6.149   6.235   6.759
 5671SOL    HW217913   6.029   6.262   6.651
 5672SOL     OW17914   4.662   4.025   0.043
 5672SOL    HW117915   4.658   3.941   7.014
 5672SOL    HW217916   4.645   4.003   0.140
 5673SOL     OW17917   1.610   0.232   1.519
 5673SOL    HW117918   1.623   0.256   1.615
 5673SOL    HW217919   1.697   0.203   1.480
 5674SOL     OW17920   0.040   4.867   4.928
 5674SOL    HW117921   0.077   4.960   4.921
 5674SOL    HW217922   0.034   4.840   5.024
 5675SOL     OW17923   4.058   2.791   6.686
 5675SOL    HW117924   4.079   2.743   6.601
 5675SOL    HW217925   4.014   2.879   6.665
 5676SOL     OW17926   2.564   2.429   2.361
 5676SOL    HW117927   2.643   2.430   2.300
 5676SOL    HW217928   2.488   2.380   2.317
 5677SOL     OW17929   0.592   1.612   0.447
 5677SOL    HW117930   0.494   1.592   0.449
 5677SOL    HW217931   0.641   1.549   0.506
 5678SOL     OW17932   4.048   6.445   2.729
 5678SOL    HW117933   4.119   6.495   2.678
 5678SOL    HW217934   4.090   6.399   2.807
 5679SOL     OW17935   6.571   0.873   4.029
 5679SOL    HW117936   6.630   0.945   3.991
 5679SOL    HW217937   6.628   0.798   4.063
 5680SOL     OW17938   1.741   5.241   6.075
 5680SOL    HW117939   1.694   5.159   6.109
 5680SOL    HW217940   1.829   5.250   6.121
 5681SOL     OW17941   0.396   3.851   1.158
 5681SOL    HW117942   0.379   3.761   1.118
 5681SOL    HW217943   0.495   3.866   1.166
 5682SOL     OW17944   1.947   5.127   4.905
 5682SOL    HW117945   1.927   5.160   4.998
 5682SOL    HW217946   1.973   5.030   4.909
 5683SOL     OW17947   4.522   1.292   6.062
 5683SOL    HW117948   4.426   1.311   6.086
 5683SOL    HW217949   4.535   1.309   5.965
 5684SOL     OW17950   2.547   3.853   5.761
 5684SOL    HW117951   2.542   3.753   5.762
 5684SOL    HW217952   2.610   3.882   5.689
 5685SOL     OW17953   1.906   1.995   3.165
 5685SOL    HW117954   1.961   1.948   3.234
 5685SOL    HW217955   1.859   1.927   3.108
 5686SOL     OW17956   2.623   1.873   6.597
 5686SOL    HW117957   2.688   1.803   6.567
 5686SOL    HW217958   2.532   1.832   6.607
 5687SOL     OW17959   1.068   5.114   0.272
 5687SOL    HW117960   1.054   5.121   0.173
 5687SOL    HW217961   0.980   5.111   0.319
 5688SOL     OW17962   0.703   2.414   1.665
 5688SOL    HW117963   0.737   2.352   1.735
 5688SOL    HW217964   0.709   2.508   1.698
 5689SOL     OW17965   3.201   1.465   1.030
 5689SOL    HW117966   3.122   1.495   1.083
 5689SOL    HW217967   3.284   1.484   1.082
 5690SOL     OW17968   2.365   5.752   6.893
 5690SOL    HW117969   2.455   5.788   6.919
 5690SOL    HW217970   2.373   5.704   6.805
 5691SOL     OW17971   3.290   0.084   2.452
 5691SOL    HW117972   3.251   7.017   2.464
 5691SOL    HW217973   3.389   0.080   2.462
 5692SOL     OW17974   5.839   3.797   0.677
 5692SOL    HW117975   5.863   3.706   0.644
 5692SOL    HW217976   5.833   3.860   0.600
 5693SOL     OW17977   5.045   1.613   3.161
 5693SOL    HW117978   4.981   1.614   3.084
 5693SOL    HW217979   5.069   1.518   3.183
 5694SOL     OW17980   1.183   1.243   3.128
 5694SOL    HW117981   1.244   1.252   3.207
 5694SOL    HW217982   1.216   1.170   3.069
 5695SOL     OW17983   1.758   1.757   3.495
 5695SOL    HW117984   1.850   1.768   3.456
 5695SOL    HW217985   1.693   1.811   3.442
 5696SOL     OW17986   0.918   1.034   3.434
 5696SOL    HW117987   0.991   0.997   3.377
 5696SOL    HW217988   0.833   1.038   3.381
 5697SOL     OW17989   6.011   2.590   1.222
 5697SOL    HW117990   6.072   2.654   1.270
 5697SOL    HW217991   6.035   2.588   1.125
 5698SOL     OW17992   1.439   5.209   4.309
 5698SOL    HW117993   1.380   5.128   4.306
 5698SOL    HW217994   1.500   5.208   4.229
 5699SOL     OW17995   0.696   2.471   3.107
 5699SOL    HW117996   0.779   2.434   3.064
 5699SOL    HW217997   0.694   2.570   3.095
 5700SOL     OW17998   6.567   0.049   3.251
 5700SOL    HW117999   6.569   0.124   3.317
 5700SOL    HW218000   6.658   0.035   3.213
 5701SOL     OW18001   1.345   0.340   1.460
 5701SOL    HW118002   1.439   0.307   1.450
 5701SOL    HW218003   1.287   0.299   1.390
 5702SOL     OW18004   2.349   5.500   4.021
 5702SOL    HW118005   2.326   5.552   3.939
 5702SOL    HW218006   2.291   5.530   4.097
 5703SOL     OW18007   6.137   4.703   1.873
 5703SOL    HW118008   6.223   4.672   1.832
 5703SOL    HW218009   6.061   4.653   1.832
 5704SOL     OW18010   5.148   4.275   2.841
 5704SOL    HW118011   5.065   4.327   2.820
 5704SOL    HW218012   5.143   4.242   2.935
 5705SOL     OW18013   5.286   6.913   0.057
 5705SOL    HW118014   5.234   6.828   0.045
 5705SOL    HW218015   5.244   6.967   0.130
 5706SOL     OW18016   0.233   3.935   1.353
 5706SOL    HW118017   0.303   3.905   1.288
 5706SOL    HW218018   0.275   3.994   1.422
 5707SOL     OW18019   0.343   6.282   6.968
 5707SOL    HW118020   0.372   6.236   6.883
 5707SOL    HW218021   0.289   6.220   7.023
 5708SOL     OW18022   5.200   5.206   2.235
 5708SOL    HW118023   5.157   5.288   2.198
 5708SOL    HW218024   5.274   5.231   2.297
 5709SOL     OW18025   1.348   0.961   2.409
 5709SOL    HW118026   1.269   0.993   2.461
 5709SOL    HW218027   1.320   0.884   2.351
 5710SOL     OW18028   2.881   2.973   1.055
 5710SOL    HW118029   2.782   2.972   1.070
 5710SOL    HW218030   2.920   3.055   1.098
 5711SOL     OW18031   4.891   0.643   3.125
 5711SOL    HW118032   4.833   0.613   3.200
 5711SOL    HW218033   4.986   0.648   3.156
 5712SOL     OW18034   6.420   0.514   6.641
 5712SOL    HW118035   6.490   0.553   6.581
 5712SOL    HW218036   6.344   0.578   6.650
 5713SOL     OW18037   3.705   3.165   1.862
 5713SOL    HW118038   3.618   3.213   1.860
 5713SOL    HW218039   3.743   3.167   1.955
 5714SOL     OW18040   0.155   5.094   0.460
 5714SOL    HW118041   0.149   5.158   0.384
 5714SOL    HW218042   0.225   5.124   0.524
 5715SOL     OW18043   1.116   0.652   2.631
 5715SOL    HW118044   1.055   0.575   2.649
 5715SOL    HW218045   1.104   0.721   2.703
 5716SOL     OW18046   1.611   4.998   6.111
 5716SOL    HW118047   1.602   4.923   6.176
 5716SOL    HW218048   1.661   4.966   6.030
 5717SOL     OW18049   1.569   4.827   0.855
 5717SOL    HW118050   1.639   4.897   0.839
 5717SOL    HW218051   1.602   4.763   0.924
 5718SOL     OW18052   0.283   3.465   6.328
 5718SOL    HW118053   0.266   3.392   6.262
 5718SOL    HW218054   0.317   3.426   6.414
 5719SOL     OW18055   2.608   2.794   6.687
 5719SOL    HW118056   2.699   2.811   6.651
 5719SOL    HW218057   2.593   2.695   6.694
 5720SOL     OW18058   2.189   6.179   4.824
 5720SOL    HW118059   2.209   6.271   4.793
 5720SOL    HW218060   2.215   6.113   4.754
 5721SOL     OW18061   6.976   3.495   0.647
 5721SOL    HW118062   6.931   3.582   0.668
 5721SOL    HW218063   7.005   3.451   0.732
 5722SOL     OW18064   0.213   2.067   4.975
 5722SOL    HW118065   0.127   2.027   5.007
 5722SOL    HW218066   0.274   1.995   4.943
 5723SOL     OW18067   5.038   3.458   0.015
 5723SOL    HW118068   4.970   3.385   0.009
 5723SOL    HW218069   5.007   3.537   6.986
 5724SOL     OW18070   5.232   3.163   4.484
 5724SOL    HW118071   5.327   3.133   4.484
 5724SOL    HW218072   5.182   3.117   4.557
 5725SOL     OW18073   5.404   5.401   4.291
 5725SOL    HW118074   5.320   5.385   4.343
 5725SOL    HW218075   5.420   5.499   4.283
 5726SOL     OW18076   6.922   5.334   4.028
 5726SOL    HW118077   6.841   5.346   4.085
 5726SOL    HW218078   6.940   5.236   4.016
 5727SOL     OW18079   0.484   2.109   4.199
 5727SOL    HW118080   0.402   2.151   4.159
 5727SOL    HW218081   0.554   2.180   4.212
 5728SOL     OW18082   3.940   0.608   6.292
 5728SOL    HW118083   3.996   0.528   6.310
 5728SOL    HW218084   3.967   0.682   6.354
 5729SOL     OW18085   1.324   0.532   0.960
 5729SOL    HW118086   1.372   0.602   1.013
 5729SOL    HW218087   1.372   0.445   0.969
 5730SOL     OW18088   5.047   5.011   6.417
 5730SOL    HW118089   5.142   5.000   6.444
 5730SOL    HW218090   5.021   4.936   6.357
 5731SOL     OW18091   0.281   6.901   3.822
 5731SOL    HW118092   0.363   6.871   3.871
 5731SOL    HW218093   0.296   6.892   3.723
 5732SOL     OW18094   6.663   5.190   4.546
 5732SOL    HW118095   6.650   5.228   4.637
 5732SOL    HW218096   6.619   5.249   4.478
 5733SOL     OW18097   4.451   6.496   5.850
 5733SOL    HW118098   4.441   6.558   5.772
 5733SOL    HW218099   4.364   6.489   5.898
 5734SOL     OW18100   0.994   6.847   5.297
 5734SOL    HW118101   0.966   6.896   5.215
 5734SOL    HW218102   1.037   6.911   5.361
 5735SOL     OW18103   4.332   1.854   1.534
 5735SOL    HW118104   4.364   1.760   1.545
 5735SOL    HW218105   4.237   1.854   1.503
 5736SOL     OW18106   6.140   3.617   0.294
 5736SOL    HW118107   6.192   3.676   0.356
 5736SOL    HW218108   6.127   3.527   0.336
 5737SOL     OW18109   5.861   6.920   1.350
 5737SOL    HW118110   5.830   6.860   1.277
 5737SOL    HW218111   5.885   6.866   1.431
 5738SOL     OW18112   2.344   2.458   5.809
 5738SOL    HW118113   2.258   2.501   5.784
 5738SOL    HW218114   2.344   2.363   5.781
 5739SOL     OW18115   1.472   0.185   5.838
 5739SOL    HW118116   1.549   0.160   5.897
 5739SOL    HW218117   1.437   0.103   5.793
 5740SOL     OW18118   4.579   3.808   0.969
 5740SOL    HW118119   4.646   3.833   0.899
 5740SOL    HW218120   4.606   3.721   1.011
 5741SOL     OW18121   1.155   4.711   4.297
 5741SOL    HW118122   1.182   4.684   4.390
 5741SOL    HW218123   1.089   4.645   4.261
 5742SOL     OW18124   5.327   6.771   2.245
 5742SOL    HW118125   5.242   6.732   2.210
 5742SOL    HW218126   5.349   6.730   2.333
 5743SOL     OW18127   2.794   5.599   5.175
 5743SOL    HW118128   2.834   5.607   5.267
 5743SOL    HW218129   2.799   5.505   5.144
 5744SOL     OW18130   5.021   0.488   1.991
 5744SOL    HW118131   4.976   0.399   1.986
 5744SOL    HW218132   4.952   0.560   1.994
 5745SOL     OW18133   2.874   0.599   4.226
 5745SOL    HW118134   2.821   0.663   4.282
 5745SOL    HW218135   2.814   0.527   4.191
 5746SOL     OW18136   6.141   6.861   1.477
 5746SOL    HW118137   6.069   6.849   1.545
 5746SOL    HW218138   6.186   6.949   1.491
 5747SOL     OW18139   6.623   4.653   2.840
 5747SOL    HW118140   6.641   4.748   2.864
 5747SOL    HW218141   6.527   4.643   2.812
 5748SOL     OW18142   1.956   5.968   0.903
 5748SOL    HW118143   1.891   6.044   0.894
 5748SOL    HW218144   2.020   5.988   0.978
 5749SOL     OW18145   1.629   0.561   4.797
 5749SOL    HW118146   1.553   0.519   4.847
 5749SOL    HW218147   1.670   0.493   4.736
 5750SOL     OW18148   5.231   5.871   4.588
 5750SOL    HW118149   5.217   5.901   4.683
 5750SOL    HW218150   5.178   5.789   4.570
 5751SOL     OW18151   2.355   2.824   4.440
 5751SOL    HW118152   2.426   2.788   4.380
 5751SOL    HW218153   2.362   2.779   4.530
 5752SOL     OW18154   6.245   0.858   6.708
 5752SOL    HW118155   6.151   0.873   6.740
 5752SOL    HW218156   6.275   0.938   6.655
 5753SOL     OW18157   3.666   4.043   5.674
 5753SOL    HW118158   3.629   4.128   5.637
 5753SOL    HW218159   3.613   3.966   5.640
 5754SOL     OW18160   5.633   4.570   1.636
 5754SOL    HW118161   5.570   4.499   1.666
 5754SOL    HW218162   5.592   4.660   1.652
 5755SOL     OW18163   2.128   3.784   6.210
 5755SOL    HW118164   2.165   3.860   6.157
 5755SOL    HW218165   2.065   3.731   6.153
 5756SOL     OW18166   6.137   6.178   3.628
 5756SOL    HW118167   6.182   6.166   3.539
 5756SOL    HW218168   6.039   6.162   3.618
 5757SOL     OW18169   6.810   6.800   2.839
 5757SOL    HW118170   6.769   6.883   2.802
 5757SOL    HW218171   6.826   6.734   2.766
 5758SOL     OW18172   2.749   0.776   4.374
 5758SOL    HW118173   2.649   0.777   4.372
 5758SOL    HW218174   2.781   0.835   4.447
 5759SOL     OW18175   5.123   1.916   6.882
 5759SOL    HW118176   5.153   1.986   6.948
 5759SOL    HW218177   5.124   1.956   6.790
 5760SOL     OW18178   0.982   4.528   1.222
 5760SOL    HW118179   1.082   4.524   1.228
 5760SOL    HW218180   0.953   4.624   1.213
 5761SOL     OW18181   5.705   6.931   6.174
 5761SOL    HW118182   5.613   6.932   6.213
 5761SOL    HW218183   5.707   6.866   6.098
 5762SOL     OW18184   4.405   6.623   0.627
 5762SOL    HW118185   4.427   6.707   0.579
 5762SOL    HW218186   4.439   6.628   0.721
 5763SOL     OW18187   0.019   0.466   0.273
 5763SOL    HW118188   6.958   0.420   0.251
 5763SOL    HW218189   0.084   0.400   0.311
 5764SOL     OW18190   4.397   4.719   6.490
 5764SOL    HW118191   4.448   4.649   6.440
 5764SOL    HW218192   4.317   4.677   6.534
 5765SOL     OW18193   6.669   4.440   6.616
 5765SOL    HW118194   6.628   4.493   6.542
 5765SOL    HW218195   6.734   4.374   6.578
 5766SOL     OW18196   2.861   2.423   0.609
 5766SOL    HW118197   2.868   2.427   0.509
 5766SOL    HW218198   2.784   2.480   0.639
 5767SOL     OW18199   2.231   6.383   0.515
 5767SOL    HW118200   2.176   6.420   0.589
 5767SOL    HW218201   2.173   6.331   0.452
 5768SOL     OW18202   0.174   6.744   2.823
 5768SOL    HW118203   0.224   6.808   2.764
 5768SOL    HW218204   0.236   6.710   2.895
 5769SOL     OW18205   2.388   6.350   4.341
 5769SOL    HW118206   2.320   6.408   4.385
 5769SOL    HW218207   2.356   6.323   4.251
 5770SOL     OW18208   6.433   0.345   6.860
 5770SOL    HW118209   6.393   0.409   6.926
 5770SOL    HW218210   6.432   0.387   6.769
 5771SOL     OW18211   0.669   5.894   2.775
 5771SOL    HW118212   0.731   5.899   2.697
 5771SOL    HW218213   0.673   5.802   2.815
 5772SOL     OW18214   6.424   2.476   0.580
 5772SOL    HW118215   6.341   2.461   0.526
 5772SOL    HW218216   6.432   2.574   0.602
 5773SOL     OW18217   5.111   0.597   4.082
 5773SOL    HW118218   5.169   0.677   4.063
 5773SOL    HW218219   5.064   0.570   3.999
 5774SOL     OW18220   2.595   5.304   3.821
 5774SOL    HW118221   2.595   5.233   3.892
 5774SOL    HW218222   2.501   5.322   3.792
 5775SOL     OW18223   1.795   0.134   1.930
 5775SOL    HW118224   1.833   0.059   1.985
 5775SOL    HW218225   1.698   0.116   1.912
 5776SOL     OW18226   6.786   1.216   6.274
 5776SOL    HW118227   6.723   1.158   6.326
 5776SOL    HW218228   6.836   1.160   6.208
 5777SOL     OW18229   6.283   0.575   4.145
 5777SOL    HW118230   6.247   0.590   4.237
 5777SOL    HW218231   6.356   0.506   4.148
 5778SOL     OW18232   1.422   0.296   1.039
 5778SOL    HW118233   1.491   0.339   1.098
 5778SOL    HW218234   1.334   0.296   1.086
 5779SOL     OW18235   4.311   0.983   0.773
 5779SOL    HW118236   4.374   1.058   0.753
 5779SOL    HW218237   4.319   0.957   0.870
 5780SOL     OW18238   5.801   5.828   3.041
 5780SOL    HW118239   5.839   5.920   3.033
 5780SOL    HW218240   5.718   5.831   3.097
 5781SOL     OW18241   1.390   4.118   4.474
 5781SOL    HW118242   1.343   4.103   4.387
 5781SOL    HW218243   1.441   4.036   4.499
 5782SOL     OW18244   1.460   1.267   0.955
 5782SOL    HW118245   1.427   1.189   0.903
 5782SOL    HW218246   1.552   1.248   0.990
 5783SOL     OW18247   1.785   1.435   1.126
 5783SOL    HW118248   1.717   1.453   1.198
 5783SOL    HW218249   1.784   1.338   1.103
 5784SOL     OW18250   6.948   6.560   6.806
 5784SOL    HW118251   6.999   6.589   6.724
 5784SOL    HW218252   7.002   6.581   6.888
 5785SOL     OW18253   2.214   2.289   1.457
 5785SOL    HW118254   2.115   2.299   1.456
 5785SOL    HW218255   2.239   2.198   1.490
 5786SOL     OW18256   1.380   4.505   0.666
 5786SOL    HW118257   1.379   4.467   0.573
 5786SOL    HW218258   1.440   4.585   0.668
 5787SOL     OW18259   4.828   2.293   4.794
 5787SOL    HW118260   4.824   2.340   4.706
 5787SOL    HW218261   4.738   2.253   4.814
 5788SOL     OW18262   3.013   0.389   1.632
 5788SOL    HW118263   3.048   0.476   1.597
 5788SOL    HW218264   2.939   0.407   1.697
 5789SOL     OW18265   2.879   3.097   6.340
 5789SOL    HW118266   2.971   3.113   6.376
 5789SOL    HW218267   2.812   3.125   6.409
 5790SOL     OW18268   6.851   5.375   5.171
 5790SOL    HW118269   6.845   5.390   5.270
 5790SOL    HW218270   6.834   5.278   5.151
 5791SOL     OW18271   2.610   2.010   2.213
 5791SOL    HW118272   2.593   1.978   2.307
 5791SOL    HW218273   2.701   2.050   2.208
 5792SOL     OW18274   5.210   3.724   2.969
 5792SOL    HW118275   5.276   3.797   2.954
 5792SOL    HW218276   5.227   3.649   2.904
 5793SOL     OW18277   5.865   0.924   5.336
 5793SOL    HW118278   5.848   0.987   5.261
 5793SOL    HW218279   5.935   0.858   5.309
 5794SOL     OW18280   3.715   0.234   6.972
 5794SOL    HW118281   3.783   0.196   6.909
 5794SOL    HW218282   3.759   0.301   0.006
 5795SOL     OW18283   0.162   6.961   0.671
 5795SOL    HW118284   0.148   6.981   0.574
 5795SOL    HW218285   0.240   6.899   0.682
 5796SOL     OW18286   4.716   0.750   6.662
 5796SOL    HW118287   4.716   0.776   6.565
 5796SOL    HW218288   4.808   0.718   6.688
 5797SOL     OW18289   5.426   1.172   0.826
 5797SOL    HW118290   5.373   1.091   0.802
 5797SOL    HW218291   5.427   1.236   0.749
 5798SOL     OW18292   0.307   3.522   4.339
 5798SOL    HW118293   0.343   3.444   4.389
 5798SOL    HW218294   0.260   3.490   4.257
 5799SOL     OW18295   0.214   0.316   3.874
 5799SOL    HW118296   0.241   0.354   3.785
 5799SOL    HW218297   0.114   0.318   3.882
 5800SOL     OW18298   0.709   0.364   1.764
 5800SOL    HW118299   0.772   0.357   1.841
 5800SOL    HW218300   0.679   0.459   1.754
 5801SOL     OW18301   2.433   2.497   3.458
 5801SOL    HW118302   2.483   2.448   3.529
 5801SOL    HW218303   2.355   2.442   3.428
 5802SOL     OW18304   6.239   3.390   2.488
 5802SOL    HW118305   6.153   3.403   2.536
 5802SOL    HW218306   6.222   3.378   2.390
 5803SOL     OW18307   1.566   4.804   3.882
 5803SOL    HW118308   1.558   4.825   3.979
 5803SOL    HW218309   1.657   4.767   3.863
 5804SOL     OW18310   6.540   5.975   3.788
 5804SOL    HW118311   6.580   6.064   3.770
 5804SOL    HW218312   6.455   5.965   3.736
 5805SOL     OW18313   1.645   2.862   0.550
 5805SOL    HW118314   1.714   2.919   0.505
 5805SOL    HW218315   1.672   2.766   0.543
 5806SOL     OW18316   6.830   4.742   5.346
 5806SOL    HW118317   6.784   4.741   5.435
 5806SOL    HW218318   6.845   4.648   5.316
 5807SOL     OW18319   1.321   5.678   1.101
 5807SOL    HW118320   1.296   5.690   1.197
 5807SOL    HW218321   1.393   5.743   1.077
 5808SOL     OW18322   6.887   6.916   5.215
 5808SOL    HW118323   6.894   6.864   5.130
 5808SOL    HW218324   6.935   6.867   5.288
 5809SOL     OW18325   6.423   2.549   5.359
 5809SOL    HW118326   6.491   2.611   5.320
 5809SOL    HW218327   6.470   2.476   5.410
 5810SOL     OW18328   3.862   1.420   5.220
 5810SOL    HW118329   3.877   1.402   5.317
 5810SOL    HW218330   3.922   1.494   5.190
 5811SOL     OW18331   2.801   1.907   5.538
 5811SOL    HW118332   2.713   1.860   5.552
 5811SOL    HW218333   2.857   1.853   5.475
 5812SOL     OW18334   5.197   4.059   5.762
 5812SOL    HW118335   5.271   4.031   5.701
 5812SOL    HW218336   5.231   4.067   5.856
 5813SOL     OW18337   2.995   6.483   0.847
 5813SOL    HW118338   2.925   6.472   0.917
 5813SOL    HW218339   2.995   6.404   0.786
 5814SOL     OW18340   7.002   3.011   1.778
 5814SOL    HW118341   6.968   3.010   1.872
 5814SOL    HW218342   0.045   2.938   1.766
 5815SOL     OW18343   5.036   1.665   4.117
 5815SOL    HW118344   4.936   1.664   4.118
 5815SOL    HW218345   5.069   1.759   4.121
 5816SOL     OW18346   6.161   4.869   1.056
 5816SOL    HW118347   6.103   4.929   1.000
 5816SOL    HW218348   6.174   4.910   1.146
 5817SOL     OW18349   6.207   5.685   5.833
 5817SOL    HW118350   6.136   5.615   5.837
 5817SOL    HW218351   6.262   5.680   5.916
 5818SOL     OW18352   0.057   5.843   4.882
 5818SOL    HW118353   0.043   5.929   4.931
 5818SOL    HW218354   0.147   5.843   4.839
 5819SOL     OW18355   3.077   5.295   6.583
 5819SOL    HW118356   3.120   5.371   6.632
 5819SOL    HW218357   3.005   5.256   6.641
 5820SOL     OW18358   4.036   4.828   2.743
 5820SOL    HW118359   4.070   4.742   2.706
 5820SOL    HW218360   4.081   4.847   2.830
 5821SOL     OW18361   6.600   0.961   1.567
 5821SOL    HW118362   6.595   0.938   1.470
 5821SOL    HW218363   6.646   0.887   1.617
 5822SOL     OW18364   1.634   2.864   2.087
 5822SOL    HW118365   1.552   2.815   2.115
 5822SOL    HW218366   1.610   2.938   2.024
 5823SOL     OW18367   2.560   6.660   4.729
 5823SOL    HW118368   2.592   6.724   4.798
 5823SOL    HW218369   2.461   6.672   4.715
 5824SOL     OW18370   0.783   6.819   3.507
 5824SOL    HW118371   0.707   6.756   3.492
 5824SOL    HW218372   0.799   6.830   3.605
 5825SOL     OW18373   0.009   5.724   5.236
 5825SOL    HW118374   0.080   5.794   5.243
 5825SOL    HW218375   6.944   5.767   5.228
 5826SOL     OW18376   0.465   6.812   6.204
 5826SOL    HW118377   0.514   6.897   6.223
 5826SOL    HW218378   0.491   6.779   6.113
 5827SOL     OW18379   1.123   3.654   4.800
 5827SOL    HW118380   1.200   3.652   4.864
 5827SOL    HW218381   1.127   3.738   4.746
 5828SOL     OW18382   4.747   0.864   3.169
 5828SOL    HW118383   4.815   0.799   3.138
 5828SOL    HW218384   4.790   0.931   3.230
 5829SOL     OW18385   1.418   0.470   5.008
 5829SOL    HW118386   1.350   0.462   4.935
 5829SOL    HW218387   1.372   0.470   5.097
 5830SOL     OW18388   4.325   6.990   5.364
 5830SOL    HW118389   4.356   0.014   5.446
 5830SOL    HW218390   4.391   6.919   5.340
 5831SOL     OW18391   1.582   1.608   6.086
 5831SOL    HW118392   1.596   1.694   6.135
 5831SOL    HW218393   1.626   1.534   6.135
 5832SOL     OW18394   3.522   4.055   0.515
 5832SOL    HW118395   3.555   3.985   0.579
 5832SOL    HW218396   3.423   4.045   0.502
 5833SOL     OW18397   3.704   2.988   5.565
 5833SOL    HW118398   3.699   2.895   5.602
 5833SOL    HW218399   3.797   3.023   5.577
 5834SOL     OW18400   6.588   4.084   6.460
 5834SOL    HW118401   6.580   4.008   6.394
 5834SOL    HW218402   6.658   4.061   6.528
 5835SOL     OW18403   6.106   1.851   2.505
 5835SOL    HW118404   6.152   1.854   2.594
 5835SOL    HW218405   6.039   1.925   2.499
 5836SOL     OW18406   2.774   6.768   1.974
 5836SOL    HW118407   2.768   6.861   1.937
 5836SOL    HW218408   2.716   6.708   1.920
 5837SOL     OW18409   3.947   3.069   6.703
 5837SOL    HW118410   3.850   3.072   6.729
 5837SOL    HW218411   4.003   3.086   6.784
 5838SOL     OW18412   3.309   1.363   1.423
 5838SOL    HW118413   3.342   1.289   1.363
 5838SOL    HW218414   3.296   1.327   1.516
 5839SOL     OW18415   0.394   2.456   0.674
 5839SOL    HW118416   0.345   2.537   0.707
 5839SOL    HW218417   0.338   2.408   0.606
 5840SOL     OW18418   0.462   3.794   0.600
 5840SOL    HW118419   0.526   3.742   0.657
 5840SOL    HW218420   0.418   3.865   0.656
 5841SOL     OW18421   5.134   0.398   1.485
 5841SOL    HW118422   5.131   0.435   1.578
 5841SOL    HW218423   5.150   0.299   1.490
 5842SOL     OW18424   4.481   2.218   1.785
 5842SOL    HW118425   4.434   2.178   1.706
 5842SOL    HW218426   4.436   2.304   1.810
 5843SOL     OW18427   1.538   3.700   1.337
 5843SOL    HW118428   1.584   3.613   1.358
 5843SOL    HW218429   1.550   3.721   1.240
 5844SOL     OW18430   1.214   6.276   5.250
 5844SOL    HW118431   1.221   6.365   5.294
 5844SOL    HW218432   1.161   6.214   5.308
 5845SOL     OW18433   0.957   0.105   2.129
 5845SOL    HW118434   0.922   0.143   2.043
 5845SOL    HW218435   0.884   0.105   2.197
 5846SOL     OW18436   5.734   3.563   5.431
 5846SOL    HW118437   5.670   3.555   5.508
 5846SOL    HW218438   5.792   3.644   5.444
 5847SOL     OW18439   2.755   2.433   1.696
 5847SOL    HW118440   2.711   2.523   1.688
 5847SOL    HW218441   2.811   2.431   1.778
 5848SOL     OW18442   1.916   5.662   3.520
 5848SOL    HW118443   1.982   5.598   3.480
 5848SOL    HW218444   1.890   5.730   3.452
 5849SOL     OW18445   1.924   6.738   4.868
 5849SOL    HW118446   1.916   6.800   4.790
 5849SOL    HW218447   1.978   6.781   4.940
 5850SOL     OW18448   6.994   3.492   1.695
 5850SOL    HW118449   0.012   3.557   1.632
 5850SOL    HW218450   6.905   3.527   1.724
 5851SOL     OW18451   5.179   3.439   3.833
 5851SOL    HW118452   5.266   3.398   3.860
 5851SOL    HW218453   5.196   3.513   3.768
 5852SOL     OW18454   4.859   6.086   2.382
 5852SOL    HW118455   4.790   6.056   2.316
 5852SOL    HW218456   4.815   6.140   2.454
 5853SOL     OW18457   4.289   5.666   5.985
 5853SOL    HW118458   4.267   5.741   6.047
 5853SOL    HW218459   4.315   5.585   6.037
 5854SOL     OW18460   3.999   4.382   5.458
 5854SOL    HW118461   4.074   4.334   5.504
 5854SOL    HW218462   3.915   4.368   5.509
 5855SOL     OW18463   1.348   2.140   4.694
 5855SOL    HW118464   1.396   2.069   4.746
 5855SOL    HW218465   1.410   2.178   4.626
 5856SOL     OW18466   1.017   6.596   2.879
 5856SOL    HW118467   1.039   6.693   2.868
 5856SOL    HW218468   1.098   6.548   2.913
 5857SOL     OW18469   6.503   3.396   5.262
 5857SOL    HW118470   6.546   3.393   5.352
 5857SOL    HW218471   6.526   3.482   5.216
 5858SOL     OW18472   2.390   2.706   2.936
 5858SOL    HW118473   2.349   2.628   2.890
 5858SOL    HW218474   2.428   2.677   3.024
 5859SOL     OW18475   6.282   6.168   1.413
 5859SOL    HW118476   6.235   6.197   1.330
 5859SOL    HW218477   6.282   6.244   1.478
 5860SOL     OW18478   0.796   5.030   2.856
 5860SOL    HW118479   0.769   4.951   2.801
 5860SOL    HW218480   0.869   5.004   2.919
 5861SOL     OW18481   4.665   0.704   4.772
 5861SOL    HW118482   4.694   0.664   4.859
 5861SOL    HW218483   4.732   0.773   4.744
 5862SOL     OW18484   6.271   5.427   1.738
 5862SOL    HW118485   6.318   5.346   1.703
 5862SOL    HW218486   6.263   5.421   1.837
 5863SOL     OW18487   3.014   1.833   4.839
 5863SOL    HW118488   3.077   1.909   4.824
 5863SOL    HW218489   2.968   1.846   4.927
 5864SOL     OW18490   3.747   3.622   2.166
 5864SOL    HW118491   3.825   3.589   2.220
 5864SOL    HW218492   3.766   3.610   2.069
 5865SOL     OW18493   5.458   0.828   5.184
 5865SOL    HW118494   5.475   0.921   5.153
 5865SOL    HW218495   5.362   0.805   5.168
 5866SOL     OW18496   3.132   2.653   1.299
 5866SOL    HW118497   3.217   2.629   1.253
 5866SOL    HW218498   3.099   2.575   1.352
 5867SOL     OW18499   1.658   2.951   1.697
 5867SOL    HW118500   1.645   3.016   1.623
 5867SOL    HW218501   1.698   2.998   1.776
 5868SOL     OW18502   1.296   1.602   6.022
 5868SOL    HW118503   1.381   1.571   6.063
 5868SOL    HW218504   1.316   1.675   5.956
 5869SOL     OW18505   1.856   4.187   2.980
 5869SOL    HW118506   1.914   4.211   3.058
 5869SOL    HW218507   1.775   4.139   3.013
 5870SOL     OW18508   4.507   5.852   5.388
 5870SOL    HW118509   4.502   5.760   5.348
 5870SOL    HW218510   4.586   5.900   5.352
 5871SOL     OW18511   4.041   3.242   2.005
 5871SOL    HW118512   4.069   3.179   1.932
 5871SOL    HW218513   3.948   3.220   2.034
 5872SOL     OW18514   4.006   6.619   1.191
 5872SOL    HW118515   3.948   6.567   1.253
 5872SOL    HW218516   3.995   6.584   1.098
 5873SOL     OW18517   3.110   6.745   2.313
 5873SOL    HW118518   3.142   6.800   2.237
 5873SOL    HW218519   3.107   6.801   2.396
 5874SOL     OW18520   2.151   4.388   4.361
 5874SOL    HW118521   2.132   4.374   4.264
 5874SOL    HW218522   2.209   4.314   4.395
 5875SOL     OW18523   3.800   1.981   0.669
 5875SOL    HW118524   3.779   1.960   0.573
 5875SOL    HW218525   3.822   1.896   0.717
 5876SOL     OW18526   4.126   3.475   1.884
 5876SOL    HW118527   4.118   3.385   1.926
 5876SOL    HW218528   4.210   3.480   1.830
 5877SOL     OW18529   6.256   6.290   1.120
 5877SOL    HW118530   6.239   6.332   1.031
 5877SOL    HW218531   6.332   6.226   1.113
 5878SOL     OW18532   0.399   6.486   4.151
 5878SOL    HW118533   0.489   6.446   4.165
 5878SOL    HW218534   0.348   6.431   4.085
 5879SOL     OW18535   1.619   3.770   6.887
 5879SOL    HW118536   1.587   3.864   6.901
 5879SOL    HW218537   1.541   3.710   6.869
 5880SOL     OW18538   3.908   4.147   0.070
 5880SOL    HW118539   3.872   4.054   0.077
 5880SOL    HW218540   3.859   4.206   0.134
 5881SOL     OW18541   6.971   5.590   2.869
 5881SOL    HW118542   6.912   5.510   2.869
 5881SOL    HW218543   7.022   5.595   2.783
 5882SOL     OW18544   0.170   6.427   0.868
 5882SOL    HW118545   0.169   6.385   0.959
 5882SOL    HW218546   0.088   6.483   0.857
 5883SOL     OW18547   0.676   1.964   6.972
 5883SOL    HW118548   0.766   2.007   6.981
 5883SOL    HW218549   0.655   1.951   6.875
 5884SOL     OW18550   2.783   1.495   3.872
 5884SOL    HW118551   2.796   1.474   3.969
 5884SOL    HW218552   2.686   1.492   3.850
 5885SOL     OW18553   6.861   0.651   2.839
 5885SOL    HW118554   6.836   0.741   2.804
 5885SOL    HW218555   6.819   0.580   2.782
 5886SOL     OW18556   0.505   2.157   5.041
 5886SOL    HW118557   0.464   2.207   4.964
 5886SOL    HW218558   0.534   2.067   5.009
 5887SOL     OW18559   3.117   1.060   3.520
 5887SOL    HW118560   3.125   0.996   3.444
 5887SOL    HW218561   3.199   1.117   3.525
 5888SOL     OW18562   3.126   0.813   1.945
 5888SOL    HW118563   3.156   0.878   1.874
 5888SOL    HW218564   3.050   0.759   1.910
 5889SOL     OW18565   0.967   6.452   1.126
 5889SOL    HW118566   0.978   6.369   1.071
 5889SOL    HW218567   0.982   6.532   1.068
 5890SOL     OW18568   1.491   0.067   4.828
 5890SOL    HW118569   1.466   0.120   4.747
 5890SOL    HW218570   1.412   0.015   4.861
 5891SOL     OW18571   2.864   3.181   6.061
 5891SOL    HW118572   2.862   3.147   6.155
 5891SOL    HW218573   2.820   3.114   6.001
 5892SOL     OW18574   0.505   5.701   1.085
 5892SOL    HW118575   0.549   5.644   1.154
 5892SOL    HW218576   0.538   5.796   1.094
 5893SOL     OW18577   1.654   4.235   4.210
 5893SOL    HW118578   1.729   4.300   4.224
 5893SOL    HW218579   1.567   4.282   4.224
 5894SOL     OW18580   0.095   5.605   4.546
 5894SOL    HW118581   7.023   5.619   4.524
 5894SOL    HW218582   0.149   5.679   4.508
 5895SOL     OW18583   5.312   3.430   4.497
 5895SOL    HW118584   5.351   3.429   4.405
 5895SOL    HW218585   5.269   3.341   4.516
 5896SOL     OW18586   4.209   1.125   0.570
 5896SOL    HW118587   4.244   1.050   0.626
 5896SOL    HW218588   4.259   1.129   0.484
 5897SOL     OW18589   4.001   0.629   1.201
 5897SOL    HW118590   4.067   0.577   1.148
 5897SOL    HW218591   4.037   0.721   1.217
 5898SOL     OW18592   2.568   6.345   3.099
 5898SOL    HW118593   2.568   6.253   3.060
 5898SOL    HW218594   2.611   6.408   3.035
 5899SOL     OW18595   5.159   6.565   5.665
 5899SOL    HW118596   5.254   6.545   5.643
 5899SOL    HW218597   5.125   6.498   5.731
 5900SOL     OW18598   4.868   5.055   3.498
 5900SOL    HW118599   4.945   5.044   3.434
 5900SOL    HW218600   4.901   5.044   3.592
 5901SOL     OW18601   2.845   0.151   0.203
 5901SOL    HW118602   2.785   0.074   0.227
 5901SOL    HW218603   2.940   0.120   0.199
 5902SOL     OW18604   6.892   2.458   6.536
 5902SOL    HW118605   6.913   2.536   6.476
 5902SOL    HW218606   6.954   2.383   6.516
 5903SOL     OW18607   4.204   3.409   0.959
 5903SOL    HW118608   4.137   3.348   1.001
 5903SOL    HW218609   4.186   3.416   0.861
 5904SOL     OW18610   0.927   3.221   1.508
 5904SOL    HW118611   0.860   3.148   1.491
 5904SOL    HW218612   0.880   3.300   1.547
 5905SOL     OW18613   6.088   6.328   2.996
 5905SOL    HW118614   6.127   6.351   2.907
 5905SOL    HW218615   6.074   6.230   3.003
 5906SOL     OW18616   4.407   2.113   3.869
 5906SOL    HW118617   4.363   2.177   3.806
 5906SOL    HW218618   4.458   2.163   3.938
 5907SOL     OW18619   1.803   5.129   1.533
 5907SOL    HW118620   1.768   5.062   1.599
 5907SOL    HW218621   1.731   5.151   1.468
 5908SOL     OW18622   0.502   2.580   6.666
 5908SOL    HW118623   0.594   2.575   6.628
 5908SOL    HW218624   0.448   2.646   6.614
 5909SOL     OW18625   6.718   5.127   0.999
 5909SOL    HW118626   6.686   5.048   0.947
 5909SOL    HW218627   6.746   5.199   0.936
 5910SOL     OW18628   0.806   3.122   3.527
 5910SOL    HW118629   0.901   3.150   3.511
 5910SOL    HW218630   0.790   3.112   3.625
 5911SOL     OW18631   6.163   6.666   6.525
 5911SOL    HW118632   6.108   6.748   6.542
 5911SOL    HW218633   6.178   6.656   6.427
 5912SOL     OW18634   6.997   0.399   5.735
 5912SOL    HW118635   6.942   0.365   5.659
 5912SOL    HW218636   6.950   0.378   5.821
 5913SOL     OW18637   4.918   2.627   6.507
 5913SOL    HW118638   4.952   2.547   6.557
 5913SOL    HW218639   4.966   2.709   6.537
 5914SOL     OW18640   1.342   5.328   6.844
 5914SOL    HW118641   1.277   5.379   6.901
 5914SOL    HW218642   1.294   5.291   6.765
 5915SOL     OW18643   4.899   5.743   1.609
 5915SOL    HW118644   4.912   5.807   1.685
 5915SOL    HW218645   4.920   5.789   1.523
 5916SOL     OW18646   6.256   6.222   3.383
 5916SOL    HW118647   6.275   6.320   3.377
 5916SOL    HW218648   6.254   6.183   3.291
 5917SOL     OW18649   3.300   4.106   4.509
 5917SOL    HW118650   3.298   4.133   4.605
 5917SOL    HW218651   3.217   4.055   4.487
 5918SOL     OW18652   2.154   4.603   4.928
 5918SOL    HW118653   2.179   4.615   5.024
 5918SOL    HW218654   2.197   4.520   4.892
 5919SOL     OW18655   3.068   3.123   3.103
 5919SOL    HW118656   3.069   3.034   3.058
 5919SOL    HW218657   3.103   3.192   3.040
 5920SOL     OW18658   5.073   0.850   6.336
 5920SOL    HW118659   5.088   0.929   6.277
 5920SOL    HW218660   5.091   0.875   6.431
 5921SOL     OW18661   4.144   5.230   6.660
 5921SOL    HW118662   4.141   5.133   6.636
 5921SOL    HW218663   4.227   5.271   6.622
 5922SOL     OW18664   5.850   3.865   4.138
 5922SOL    HW118665   5.892   3.810   4.211
 5922SOL    HW218666   5.780   3.924   4.178
 5923SOL     OW18667   6.942   1.897   1.809
 5923SOL    HW118668   0.013   1.875   1.830
 5923SOL    HW218669   6.903   1.826   1.751
 5924SOL     OW18670   6.111   0.142   2.715
 5924SOL    HW118671   6.158   0.149   2.803
 5924SOL    HW218672   6.177   0.117   2.644
 5925SOL     OW18673   3.295   6.587   1.813
 5925SOL    HW118674   3.208   6.565   1.771
 5925SOL    HW218675   3.369   6.543   1.762
 5926SOL     OW18676   3.561   4.945   2.514
 5926SOL    HW118677   3.547   4.947   2.415
 5926SOL    HW218678   3.652   4.911   2.534
 5927SOL     OW18679   0.841   5.177   2.216
 5927SOL    HW118680   0.855   5.275   2.227
 5927SOL    HW218681   0.866   5.150   2.123
 5928SOL     OW18682   3.292   6.582   0.602
 5928SOL    HW118683   3.273   6.651   0.672
 5928SOL    HW218684   3.235   6.598   0.522
 5929SOL     OW18685   6.259   0.502   5.946
 5929SOL    HW118686   6.333   0.443   5.977
 5929SOL    HW218687   6.171   0.460   5.969
 5930SOL     OW18688   0.042   3.694   3.617
 5930SOL    HW118689   0.095   3.654   3.543
 5930SOL    HW218690   6.993   3.632   3.643
 5931SOL     OW18691   6.344   6.475   3.258
 5931SOL    HW118692   6.251   6.508   3.241
 5931SOL    HW218693   6.402   6.551   3.286
 5932SOL     OW18694   3.573   6.969   0.413
 5932SOL    HW118695   3.645   7.001   0.474
 5932SOL    HW218696   3.516   0.022   0.386
 5933SOL     OW18697   6.482   5.205   4.246
 5933SOL    HW118698   6.419   5.128   4.238
 5933SOL    HW218699   6.434   5.290   4.228
 5934SOL     OW18700   3.762   2.832   5.142
 5934SOL    HW118701   3.765   2.857   5.045
 5934SOL    HW218702   3.846   2.784   5.166
 5935SOL     OW18703   0.002   4.940   6.275
 5935SOL    HW118704   7.010   4.918   6.371
 5935SOL    HW218705   0.100   4.934   6.257
 5936SOL     OW18706   3.399   2.974   1.557
 5936SOL    HW118707   3.383   3.066   1.590
 5936SOL    HW218708   3.411   2.912   1.634
 5937SOL     OW18709   5.870   3.309   1.840
 5937SOL    HW118710   5.944   3.336   1.779
 5937SOL    HW218711   5.827   3.225   1.806
 5938SOL     OW18712   6.146   5.612   3.612
 5938SOL    HW118713   6.063   5.627   3.665
 5938SOL    HW218714   6.219   5.579   3.672
 5939SOL     OW18715   2.275   5.784   3.876
 5939SOL    HW118716   2.221   5.867   3.868
 5939SOL    HW218717   2.368   5.807   3.907
 5940SOL     OW18718   4.624   5.068   2.980
 5940SOL    HW118719   4.619   5.087   2.882
 5940SOL    HW218720   4.535   5.036   3.012
 5941SOL     OW18721   5.754   3.404   2.281
 5941SOL    HW118722   5.773   3.445   2.192
 5941SOL    HW218723   5.660   3.369   2.282
 5942SOL     OW18724   5.140   3.908   6.511
 5942SOL    HW118725   5.082   3.847   6.457
 5942SOL    HW218726   5.092   3.993   6.529
 5943SOL     OW18727   3.320   3.901   6.160
 5943SOL    HW118728   3.313   3.821   6.219
 5943SOL    HW218729   3.354   3.873   6.070
 5944SOL     OW18730   0.158   2.278   0.208
 5944SOL    HW118731   0.138   2.210   0.138
 5944SOL    HW218732   0.096   2.356   0.197
 5945SOL     OW18733   6.663   4.746   5.103
 5945SOL    HW118734   6.718   4.811   5.051
 5945SOL    HW218735   6.720   4.702   5.172
 5946SOL     OW18736   3.420   3.570   6.132
 5946SOL    HW118737   3.487   3.620   6.076
 5946SOL    HW218738   3.411   3.614   6.221
 5947SOL     OW18739   3.234   3.516   3.344
 5947SOL    HW118740   3.286   3.501   3.259
 5947SOL    HW218741   3.276   3.590   3.396
 5948SOL     OW18742   3.581   4.889   2.814
 5948SOL    HW118743   3.545   4.940   2.892
 5948SOL    HW218744   3.540   4.923   2.730
 5949SOL     OW18745   5.030   4.418   1.447
 5949SOL    HW118746   4.934   4.434   1.469
 5949SOL    HW218747   5.087   4.453   1.521
 5950SOL     OW18748   5.618   1.851   4.679
 5950SOL    HW118749   5.629   1.753   4.667
 5950SOL    HW218750   5.651   1.899   4.597
 5951SOL     OW18751   1.181   5.405   4.440
 5951SOL    HW118752   1.083   5.396   4.423
 5951SOL    HW218753   1.218   5.317   4.470
 5952SOL     OW18754   5.072   6.035   3.384
 5952SOL    HW118755   5.010   6.005   3.456
 5952SOL    HW218756   5.032   6.010   3.295
 5953SOL     OW18757   6.706   4.127   5.085
 5953SOL    HW118758   6.698   4.182   5.002
 5953SOL    HW218759   6.785   4.158   5.138
 5954SOL     OW18760   6.836   5.276   5.462
 5954SOL    HW118761   6.886   5.200   5.421
 5954SOL    HW218762   6.883   5.362   5.441
 5955SOL     OW18763   4.647   5.484   1.978
 5955SOL    HW118764   4.597   5.551   2.034
 5955SOL    HW218765   4.604   5.477   1.888
 5956SOL     OW18766   5.421   1.848   3.923
 5956SOL    HW118767   5.478   1.846   4.005
 5956SOL    HW218768   5.355   1.774   3.926
 5957SOL     OW18769   3.165   1.526   4.628
 5957SOL    HW118770   3.140   1.618   4.597
 5957SOL    HW218771   3.181   1.528   4.727
 5958SOL     OW18772   4.200   6.976   2.523
 5958SOL    HW118773   4.270   0.023   2.529
 5958SOL    HW218774   4.237   6.897   2.475
 5959SOL     OW18775   4.654   2.786   5.745
 5959SOL    HW118776   4.554   2.779   5.739
 5959SOL    HW218777   4.681   2.882   5.737
 5960SOL     OW18778   3.514   5.627   4.920
 5960SOL    HW118779   3.439   5.635   4.855
 5960SOL    HW218780   3.589   5.576   4.878
 5961SOL     OW18781   4.728   1.799   3.043
 5961SOL    HW118782   4.667   1.777   3.119
 5961SOL    HW218783   4.770   1.715   3.008
 5962SOL     OW18784   5.744   6.300   6.775
 5962SOL    HW118785   5.790   6.320   6.688
 5962SOL    HW218786   5.749   6.202   6.793
 5963SOL     OW18787   2.883   3.531   6.285
 5963SOL    HW118788   2.826   3.605   6.250
 5963SOL    HW218789   2.962   3.518   6.225
 5964SOL     OW18790   1.202   6.692   4.823
 5964SOL    HW118791   1.162   6.657   4.908
 5964SOL    HW218792   1.197   6.621   4.752
 5965SOL     OW18793   2.042   1.288   7.008
 5965SOL    HW118794   1.971   1.271   6.939
 5965SOL    HW218795   2.091   1.372   6.984
 5966SOL     OW18796   2.593   6.163   6.636
 5966SOL    HW118797   2.524   6.098   6.667
 5966SOL    HW218798   2.597   6.239   6.701
 5967SOL     OW18799   2.415   0.497   5.771
 5967SOL    HW118800   2.475   0.492   5.690
 5967SOL    HW218801   2.465   0.465   5.851
 5968SOL     OW18802   5.369   2.345   0.423
 5968SOL    HW118803   5.296   2.411   0.439
 5968SOL    HW218804   5.414   2.324   0.510
 5969SOL     OW18805   6.005   0.449   6.670
 5969SOL    HW118806   6.070   0.506   6.720
 5969SOL    HW218807   6.016   0.464   6.572
 5970SOL     OW18808   6.940   4.642   1.910
 5970SOL    HW118809   6.899   4.731   1.893
 5970SOL    HW218810   6.934   4.621   2.008
 5971SOL     OW18811   6.979   1.051   1.796
 5971SOL    HW118812   0.001   1.007   1.873
 5971SOL    HW218813   6.999   0.999   1.712
 5972SOL     OW18814   4.755   5.920   6.602
 5972SOL    HW118815   4.754   5.941   6.504
 5972SOL    HW218816   4.741   5.821   6.615
 5973SOL     OW18817   1.841   2.848   2.250
 5973SOL    HW118818   1.783   2.867   2.329
 5973SOL    HW218819   1.787   2.860   2.166
 5974SOL     OW18820   5.111   5.960   0.526
 5974SOL    HW118821   5.180   5.962   0.599
 5974SOL    HW218822   5.128   6.036   0.463
 5975SOL     OW18823   3.810   6.977   0.950
 5975SOL    HW118824   3.860   6.936   0.874
 5975SOL    HW218825   3.713   6.985   0.927
 5976SOL     OW18826   4.002   2.730   5.710
 5976SOL    HW118827   4.026   2.794   5.637
 5976SOL    HW218828   4.050   2.644   5.697
 5977SOL     OW18829   1.325   6.107   0.521
 5977SOL    HW118830   1.272   6.043   0.466
 5977SOL    HW218831   1.319   6.199   0.481
 5978SOL     OW18832   3.504   5.423   1.626
 5978SOL    HW118833   3.577   5.449   1.563
 5978SOL    HW218834   3.480   5.327   1.611
 5979SOL     OW18835   6.552   0.746   2.992
 5979SOL    HW118836   6.543   0.736   2.893
 5979SOL    HW218837   6.495   0.822   3.023
 5980SOL     OW18838   4.033   4.154   1.672
 5980SOL    HW118839   4.028   4.253   1.690
 5980SOL    HW218840   3.945   4.112   1.693
 5981SOL     OW18841   5.183   1.702   0.702
 5981SOL    HW118842   5.186   1.616   0.652
 5981SOL    HW218843   5.220   1.688   0.794
 5982SOL     OW18844   6.476   2.015   2.576
 5982SOL    HW118845   6.466   1.934   2.517
 5982SOL    HW218846   6.389   2.065   2.578
 5983SOL     OW18847   1.052   1.265   4.680
 5983SOL    HW118848   1.105   1.260   4.596
 5983SOL    HW218849   0.982   1.336   4.671
 5984SOL     OW18850   5.526   6.097   3.380
 5984SOL    HW118851   5.561   6.105   3.473
 5984SOL    HW218852   5.591   6.139   3.317
 5985SOL     OW18853   6.824   2.915   3.744
 5985SOL    HW118854   6.740   2.969   3.747
 5985SOL    HW218855   6.807   2.830   3.694
 5986SOL     OW18856   2.985   3.909   4.808
 5986SOL    HW118857   2.986   3.819   4.765
 5986SOL    HW218858   2.942   3.902   4.899
 5987SOL     OW18859   5.281   0.539   4.774
 5987SOL    HW118860   5.296   0.489   4.860
 5987SOL    HW218861   5.337   0.623   4.774
 5988SOL     OW18862   4.554   0.823   5.595
 5988SOL    HW118863   4.559   0.783   5.503
 5988SOL    HW218864   4.459   0.824   5.626
 5989SOL     OW18865   1.978   5.627   6.248
 5989SOL    HW118866   1.921   5.709   6.252
 5989SOL    HW218867   1.946   5.568   6.174
 5990SOL     OW18868   3.902   3.298   0.462
 5990SOL    HW118869   3.812   3.337   0.483
 5990SOL    HW218870   3.892   3.227   0.393
 5991SOL     OW18871   4.027   5.454   0.140
 5991SOL    HW118872   4.091   5.488   0.072
 5991SOL    HW218873   3.970   5.529   0.175
 5992SOL     OW18874   3.202   0.229   1.752
 5992SOL    HW118875   3.126   0.276   1.707
 5992SOL    HW218876   3.210   0.262   1.846
 5993SOL     OW18877   4.071   3.986   5.973
 5993SOL    HW118878   3.974   3.968   5.986
 5993SOL    HW218879   4.123   3.947   6.048
 5994SOL     OW18880   6.874   2.261   0.391
 5994SOL    HW118881   6.829   2.253   0.480
 5994SOL    HW218882   6.922   2.176   0.369
 5995SOL     OW18883   4.832   3.059   2.264
 5995SOL    HW118884   4.849   3.157   2.262
 5995SOL    HW218885   4.803   3.029   2.173
 5996SOL     OW18886   0.185   6.577   0.491
 5996SOL    HW118887   0.130   6.506   0.535
 5996SOL    HW218888   0.225   6.637   0.560
 5997SOL     OW18889   0.468   4.935   2.645
 5997SOL    HW118890   0.532   4.953   2.570
 5997SOL    HW218891   0.411   5.016   2.659
 5998SOL     OW18892   6.303   1.594   2.145
 5998SOL    HW118893   6.397   1.610   2.115
 5998SOL    HW218894   6.272   1.670   2.201
 5999SOL     OW18895   2.791   3.609   1.605
 5999SOL    HW118896   2.849   3.584   1.527
 5999SOL    HW218897   2.803   3.542   1.678
 6000SOL     OW18898   2.186   6.130   6.630
 6000SOL    HW118899   2.113   6.178   6.678
 6000SOL    HW218900   2.270   6.136   6.683
 6001SOL     OW18901   6.998   5.177   6.719
 6001SOL    HW118902   0.072   5.160   6.711
 6001SOL    HW218903   6.983   5.273   6.743
 6002SOL     OW18904   5.472   0.212   0.221
 6002SOL    HW118905   5.485   0.130   0.165
 6002SOL    HW218906   5.559   0.259   0.233
 6003SOL     OW18907   5.505   2.284   4.740
 6003SOL    HW118908   5.420   2.265   4.789
 6003SOL    HW218909   5.569   2.208   4.753
 6004SOL     OW18910   6.933   3.927   3.205
 6004SOL    HW118911   6.873   3.972   3.271
 6004SOL    HW218912   6.919   3.828   3.208
 6005SOL     OW18913   5.306   5.489   4.590
 6005SOL    HW118914   5.212   5.509   4.562
 6005SOL    HW218915   5.305   5.453   4.683
 6006SOL     OW18916   2.350   0.850   5.168
 6006SOL    HW118917   2.271   0.820   5.220
 6006SOL    HW218918   2.421   0.779   5.170
 6007SOL     OW18919   6.053   3.775   5.847
 6007SOL    HW118920   6.120   3.777   5.922
 6007SOL    HW218921   6.052   3.863   5.801
 6008SOL     OW18922   2.645   5.396   5.390
 6008SOL    HW118923   2.702   5.336   5.334
 6008SOL    HW218924   2.561   5.418   5.342
 6009SOL     OW18925   3.486   0.471   3.625
 6009SOL    HW118926   3.570   0.419   3.610
 6009SOL    HW218927   3.414   0.410   3.657
 6010SOL     OW18928   1.267   5.236   3.885
 6010SOL    HW118929   1.353   5.194   3.915
 6010SOL    HW218930   1.208   5.166   3.845
 6011SOL     OW18931   5.785   2.891   3.522
 6011SOL    HW118932   5.866   2.875   3.466
 6011SOL    HW218933   5.767   2.810   3.577
 6012SOL     OW18934   6.055   1.198   0.925
 6012SOL    HW118935   5.980   1.207   0.992
 6012SOL    HW218936   6.024   1.145   0.847
 6013SOL     OW18937   5.055   0.852   2.744
 6013SOL    HW118938   5.059   0.929   2.809
 6013SOL    HW218939   4.960   0.832   2.723
 6014SOL     OW18940   3.679   3.933   3.438
 6014SOL    HW118941   3.699   4.017   3.488
 6014SOL    HW218942   3.686   3.855   3.501
 6015SOL     OW18943   5.652   4.012   4.298
 6015SOL    HW118944   5.668   4.109   4.314
 6015SOL    HW218945   5.578   3.980   4.357
 6016SOL     OW18946   6.978   2.307   6.158
 6016SOL    HW118947   6.965   2.209   6.174
 6016SOL    HW218948   0.033   2.339   6.210
 6017SOL     OW18949   6.010   4.911   3.882
 6017SOL    HW118950   5.940   4.861   3.832
 6017SOL    HW218951   6.075   4.846   3.922
 6018SOL     OW18952   3.706   1.190   6.249
 6018SOL    HW118953   3.662   1.221   6.334
 6018SOL    HW218954   3.803   1.211   6.252
 6019SOL     OW18955   0.614   2.752   4.958
 6019SOL    HW118956   0.618   2.693   5.038
 6019SOL    HW218957   0.661   2.838   4.978
 6020SOL     OW18958   0.390   4.750   0.240
 6020SOL    HW118959   0.438   4.662   0.237
 6020SOL    HW218960   0.337   4.761   0.156
 6021SOL     OW18961   4.467   0.841   3.192
 6021SOL    HW118962   4.567   0.847   3.187
 6021SOL    HW218963   4.430   0.833   3.099
 6022SOL     OW18964   6.804   1.953   3.450
 6022SOL    HW118965   6.725   1.975   3.509
 6022SOL    HW218966   6.881   2.010   3.476
 6023SOL     OW18967   5.650   1.349   1.617
 6023SOL    HW118968   5.665   1.372   1.714
 6023SOL    HW218969   5.630   1.433   1.566
 6024SOL     OW18970   1.293   4.271   1.885
 6024SOL    HW118971   1.306   4.173   1.871
 6024SOL    HW218972   1.195   4.290   1.893
 6025SOL     OW18973   3.058   1.604   3.194
 6025SOL    HW118974   3.070   1.508   3.219
 6025SOL    HW218975   3.102   1.662   3.262
 6026SOL     OW18976   0.351   5.193   5.655
 6026SOL    HW118977   0.336   5.284   5.617
 6026SOL    HW218978   0.293   5.181   5.736
 6027SOL     OW18979   0.109   3.504   5.995
 6027SOL    HW118980   0.128   3.572   6.065
 6027SOL    HW218981   0.032   3.535   5.939
 6028SOL     OW18982   5.826   4.721   0.923
 6028SOL    HW118983   5.800   4.787   0.853
 6028SOL    HW218984   5.923   4.697   0.912
 6029SOL     OW18985   2.875   6.231   4.211
 6029SOL    HW118986   2.851   6.174   4.290
 6029SOL    HW218987   2.928   6.310   4.241
 6030SOL     OW18988   4.155   5.001   3.028
 6030SOL    HW118989   4.111   5.086   3.000
 6030SOL    HW218990   4.092   4.948   3.086
 6031SOL     OW18991   3.165   5.360   4.411
 6031SOL    HW118992   3.213   5.420   4.476
 6031SOL    HW218993   3.201   5.376   4.319
 6032SOL     OW18994   2.217   4.783   2.134
 6032SOL    HW118995   2.269   4.784   2.049
 6032SOL    HW218996   2.268   4.832   2.205
 6033SOL     OW18997   2.470   2.123   3.295
 6033SOL    HW118998   2.410   2.187   3.247
 6033SOL    HW218999   2.561   2.125   3.253
 6034SOL     OW19000   0.961   0.905   5.165
 6034SOL    HW119001   0.926   0.976   5.105
 6034SOL    HW219002   1.030   0.944   5.226
 6035SOL     OW19003   1.412   0.876   1.965
 6035SOL    HW119004   1.410   0.944   1.892
 6035SOL    HW219005   1.467   0.910   2.041
 6036SOL     OW19006   5.265   5.524   2.628
 6036SOL    HW119007   5.272   5.531   2.528
 6036SOL    HW219008   5.181   5.569   2.659
 6037SOL     OW19009   3.913   0.256   0.545
 6037SOL    HW119010   4.012   0.247   0.538
 6037SOL    HW219011   3.871   0.165   0.546
 6038SOL     OW19012   1.381   3.151   5.844
 6038SOL    HW119013   1.465   3.204   5.860
 6038SOL    HW219014   1.403   3.068   5.793
 6039SOL     OW19015   3.742   2.897   3.172
 6039SOL    HW119016   3.815   2.938   3.117
 6039SOL    HW219017   3.762   2.801   3.187
 6040SOL     OW19018   1.670   2.105   1.081
 6040SOL    HW119019   1.589   2.080   1.134
 6040SOL    HW219020   1.641   2.132   0.988
 6041SOL     OW19021   2.976   1.118   5.363
 6041SOL    HW119022   3.037   1.039   5.358
 6041SOL    HW219023   3.000   1.174   5.442
 6042SOL     OW19024   4.421   6.707   2.627
 6042SOL    HW119025   4.520   6.706   2.623
 6042SOL    HW219026   4.391   6.708   2.722
 6043SOL     OW19027   0.809   6.641   5.246
 6043SOL    HW119028   0.742   6.665   5.176
 6043SOL    HW219029   0.875   6.716   5.255
 6044SOL     OW19030   1.753   2.717   1.345
 6044SOL    HW119031   1.803   2.751   1.425
 6044SOL    HW219032   1.771   2.620   1.333
 6045SOL     OW19033   6.127   3.759   3.116
 6045SOL    HW119034   6.033   3.786   3.097
 6045SOL    HW219035   6.164   3.815   3.190
 6046SOL     OW19036   3.504   2.580   1.573
 6046SOL    HW119037   3.412   2.580   1.612
 6046SOL    HW219038   3.572   2.571   1.646
 6047SOL     OW19039   5.213   2.090   1.855
 6047SOL    HW119040   5.253   2.144   1.928
 6047SOL    HW219041   5.118   2.069   1.877
 6048SOL     OW19042   4.761   5.098   5.362
 6048SOL    HW119043   4.838   5.162   5.362
 6048SOL    HW219044   4.796   5.005   5.367
 6049SOL     OW19045   4.659   3.581   6.965
 6049SOL    HW119046   4.575   3.634   6.974
 6049SOL    HW219047   4.717   3.597   0.021
 6050SOL     OW19048   2.888   4.500   5.932
 6050SOL    HW119049   2.925   4.580   5.979
 6050SOL    HW219050   2.804   4.471   5.977
 6051SOL     OW19051   1.993   0.321   3.194
 6051SOL    HW119052   2.075   0.375   3.174
 6051SOL    HW219053   1.992   0.240   3.137
 6052SOL     OW19054   5.477   1.221   1.085
 6052SOL    HW119055   5.519   1.311   1.082
 6052SOL    HW219056   5.468   1.185   0.992
 6053SOL     OW19057   4.179   1.276   6.099
 6053SOL    HW119058   4.150   1.367   6.128
 6053SOL    HW219059   4.145   1.259   6.006
 6054SOL     OW19060   2.871   3.097   0.103
 6054SOL    HW119061   2.966   3.084   0.072
 6054SOL    HW219062   2.844   3.192   0.088
 6055SOL     OW19063   5.231   6.823   5.444
 6055SOL    HW119064   5.255   6.754   5.512
 6055SOL    HW219065   5.255   6.790   5.352
 6056SOL     OW19066   4.860   3.458   5.304
 6056SOL    HW119067   4.778   3.414   5.340
 6056SOL    HW219068   4.834   3.523   5.232
 6057SOL     OW19069   6.944   1.028   2.431
 6057SOL    HW119070   6.859   1.072   2.462
 6057SOL    HW219071   7.013   1.099   2.415
 6058SOL     OW19072   5.403   4.001   1.224
 6058SOL    HW119073   5.498   3.969   1.222
 6058SOL    HW219074   5.400   4.097   1.196
 6059SOL     OW19075   4.624   5.382   6.378
 6059SOL    HW119076   4.650   5.400   6.283
 6059SOL    HW219077   4.639   5.285   6.399
 6060SOL     OW19078   2.611   3.334   5.902
 6060SOL    HW119079   2.574   3.341   5.994
 6060SOL    HW219080   2.680   3.261   5.899
 6061SOL     OW19081   5.251   3.429   0.666
 6061SOL    HW119082   5.275   3.503   0.729
 6061SOL    HW219083   5.179   3.373   0.706
 6062SOL     OW19084   2.659   1.308   5.885
 6062SOL    HW119085   2.606   1.357   5.954
 6062SOL    HW219086   2.723   1.371   5.841
 6063SOL     OW19087   4.590   2.175   6.667
 6063SOL    HW119088   4.512   2.175   6.605
 6063SOL    HW219089   4.660   2.238   6.633
 6064SOL     OW19090   1.027   0.423   0.925
 6064SOL    HW119091   1.059   0.446   0.833
 6064SOL    HW219092   0.952   0.483   0.950
 6065SOL     OW19093   1.043   6.009   2.849
 6065SOL    HW119094   1.100   5.939   2.892
 6065SOL    HW219095   1.020   5.981   2.755
 6066SOL     OW19096   5.338   1.933   5.396
 6066SOL    HW119097   5.387   1.845   5.396
 6066SOL    HW219098   5.240   1.916   5.410
 6067SOL     OW19099   5.251   0.785   6.006
 6067SOL    HW119100   5.275   0.740   6.091
 6067SOL    HW219101   5.224   0.880   6.025
 6068SOL     OW19102   4.561   2.605   4.424
 6068SOL    HW119103   4.557   2.614   4.524
 6068SOL    HW219104   4.540   2.511   4.398
 6069SOL     OW19105   5.906   3.104   4.919
 6069SOL    HW119106   5.859   3.074   4.836
 6069SOL    HW219107   5.897   3.203   4.928
 6070SOL     OW19108   2.840   2.243   1.406
 6070SOL    HW119109   2.831   2.251   1.306
 6070SOL    HW219110   2.763   2.189   1.441
 6071SOL     OW19111   6.765   5.845   5.239
 6071SOL    HW119112   6.788   5.941   5.253
 6071SOL    HW219113   6.701   5.815   5.310
 6072SOL     OW19114   0.103   0.402   1.841
 6072SOL    HW119115   0.047   0.361   1.770
 6072SOL    HW219116   0.158   0.331   1.886
 6073SOL     OW19117   5.457   3.102   0.682
 6073SOL    HW119118   5.419   3.137   0.768
 6073SOL    HW219119   5.436   3.165   0.608
 6074SOL     OW19120   0.859   5.760   2.136
 6074SOL    HW119121   0.900   5.712   2.213
 6074SOL    HW219122   0.927   5.767   2.062
 6075SOL     OW19123   4.680   7.016   5.964
 6075SOL    HW119124   4.745   7.004   5.889
 6075SOL    HW219125   4.598   0.037   5.929
 6076SOL     OW19126   3.462   5.477   3.182
 6076SOL    HW119127   3.476   5.424   3.098
 6076SOL    HW219128   3.496   5.571   3.167
 6077SOL     OW19129   6.441   5.052   1.396
 6077SOL    HW119130   6.419   5.146   1.371
 6077SOL    HW219131   6.538   5.035   1.383
 6078SOL     OW19132   5.069   5.394   0.518
 6078SOL    HW119133   5.025   5.483   0.528
 6078SOL    HW219134   5.007   5.332   0.469
 6079SOL     OW19135   4.867   3.702   5.490
 6079SOL    HW119136   4.893   3.609   5.465
 6079SOL    HW219137   4.840   3.704   5.587
 6080SOL     OW19138   0.341   6.180   0.733
 6080SOL    HW119139   0.395   6.120   0.791
 6080SOL    HW219140   0.331   6.270   0.776
 6081SOL     OW19141   6.803   2.851   5.159
 6081SOL    HW119142   6.763   2.918   5.096
 6081SOL    HW219143   6.877   2.803   5.113
 6082SOL     OW19144   2.501   0.347   3.205
 6082SOL    HW119145   2.439   0.279   3.246
 6082SOL    HW219146   2.554   0.304   3.133
 6083SOL     OW19147   6.113   6.191   0.524
 6083SOL    HW119148   6.187   6.183   0.458
 6083SOL    HW219149   6.059   6.273   0.505
 6084SOL     OW19150   0.732   6.599   2.878
 6084SOL    HW119151   0.831   6.594   2.871
 6084SOL    HW219152   0.701   6.692   2.857
 6085SOL     OW19153   0.471   6.990   0.062
 6085SOL    HW119154   0.520   0.046   0.095
 6085SOL    HW219155   0.386   7.019   0.018
 6086SOL     OW19156   2.998   1.293   5.567
 6086SOL    HW119157   2.914   1.326   5.611
 6086SOL    HW219158   3.061   1.369   5.554
 6087SOL     OW19159   3.615   5.697   1.136
 6087SOL    HW119160   3.597   5.715   1.233
 6087SOL    HW219161   3.531   5.662   1.093
 6088SOL     OW19162   5.450   6.512   4.762
 6088SOL    HW119163   5.523   6.448   4.739
 6088SOL    HW219164   5.483   6.578   4.829
 6089SOL     OW19165   5.631   2.398   2.681
 6089SOL    HW119166   5.674   2.357   2.600
 6089SOL    HW219167   5.547   2.348   2.703
 6090SOL     OW19168   2.763   5.712   4.697
 6090SOL    HW119169   2.748   5.713   4.796
 6090SOL    HW219170   2.684   5.754   4.652
 6091SOL     OW19171   2.138   1.527   6.942
 6091SOL    HW119172   2.154   1.568   0.008
 6091SOL    HW219173   2.143   1.599   6.873
 6092SOL     OW19174   4.431   0.723   2.701
 6092SOL    HW119175   4.501   0.653   2.715
 6092SOL    HW219176   4.373   0.697   2.624
 6093SOL     OW19177   2.134   3.051   2.056
 6093SOL    HW119178   2.135   3.150   2.074
 6093SOL    HW219179   2.168   3.034   1.963
 6094SOL     OW19180   1.310   6.038   2.676
 6094SOL    HW119181   1.363   6.046   2.591
 6094SOL    HW219182   1.355   6.090   2.749
 6095SOL     OW19183   5.103   4.679   0.132
 6095SOL    HW119184   5.178   4.678   0.067
 6095SOL    HW219185   5.019   4.649   0.087
 6096SOL     OW19186   5.907   0.149   3.469
 6096SOL    HW119187   5.911   0.201   3.383
 6096SOL    HW219188   5.869   0.059   3.451
 6097SOL     OW19189   1.856   5.745   1.944
 6097SOL    HW119190   1.787   5.725   1.875
 6097SOL    HW219191   1.924   5.673   1.945
 6098SOL     OW19192   0.414   1.350   5.628
 6098SOL    HW119193   0.338   1.297   5.589
 6098SOL    HW219194   0.498   1.328   5.579
 6099SOL     OW19195   5.463   6.333   6.776
 6099SOL    HW119196   5.561   6.312   6.774
 6099SOL    HW219197   5.411   6.249   6.765
 6100SOL     OW19198   5.364   6.396   1.247
 6100SOL    HW119199   5.308   6.404   1.329
 6100SOL    HW219200   5.311   6.426   1.167
 6101SOL     OW19201   0.040   3.118   3.568
 6101SOL    HW119202   0.083   3.146   3.483
 6101SOL    HW219203   0.002   3.026   3.558
 6102SOL     OW19204   3.508   5.905   3.193
 6102SOL    HW119205   3.467   5.994   3.215
 6102SOL    HW219206   3.438   5.846   3.152
 6103SOL     OW19207   5.961   1.718   2.211
 6103SOL    HW119208   5.987   1.624   2.234
 6103SOL    HW219209   6.043   1.775   2.209
 6104SOL     OW19210   5.510   0.289   5.579
 6104SOL    HW119211   5.530   0.361   5.512
 6104SOL    HW219212   5.443   0.225   5.540
 6105SOL     OW19213   3.060   5.820   6.440
 6105SOL    HW119214   3.126   5.879   6.486
 6105SOL    HW219215   3.098   5.728   6.432
 6106SOL     OW19216   1.282   4.723   6.305
 6106SOL    HW119217   1.259   4.721   6.207
 6106SOL    HW219218   1.222   4.661   6.355
 6107SOL     OW19219   4.597   6.328   5.105
 6107SOL    HW119220   4.652   6.401   5.063
 6107SOL    HW219221   4.505   6.330   5.066
 6108SOL     OW19222   2.055   2.791   2.133
 6108SOL    HW119223   1.968   2.810   2.177
 6108SOL    HW219224   2.104   2.876   2.116
 6109SOL     OW19225   5.922   1.959   4.989
 6109SOL    HW119226   6.012   1.928   5.018
 6109SOL    HW219227   5.862   1.879   4.977
 6110SOL     OW19228   2.899   4.015   1.003
 6110SOL    HW119229   2.884   3.924   0.965
 6110SOL    HW219230   2.893   4.083   0.930
 6111SOL     OW19231   1.441   3.209   2.650
 6111SOL    HW119232   1.485   3.138   2.704
 6111SOL    HW219233   1.348   3.182   2.628
 6112SOL     OW19234   2.861   0.072   2.894
 6112SOL    HW119235   2.792   0.143   2.909
 6112SOL    HW219236   2.880   0.025   2.980
 6113SOL     OW19237   3.420   2.384   6.109
 6113SOL    HW119238   3.355   2.441   6.159
 6113SOL    HW219239   3.504   2.436   6.092
 6114SOL     OW19240   5.058   4.616   2.429
 6114SOL    HW119241   5.029   4.624   2.333
 6114SOL    HW219242   5.046   4.705   2.474
 6115SOL     OW19243   5.856   0.409   4.363
 6115SOL    HW119244   5.906   0.367   4.438
 6115SOL    HW219245   5.891   0.373   4.276
 6116SOL     OW19246   4.770   1.743   6.354
 6116SOL    HW119247   4.791   1.680   6.278
 6116SOL    HW219248   4.835   1.728   6.428
 6117SOL     OW19249   1.439   1.211   3.671
 6117SOL    HW119250   1.471   1.117   3.681
 6117SOL    HW219251   1.424   1.252   3.762
 6118SOL     OW19252   6.564   0.907   1.314
 6118SOL    HW119253   6.486   0.845   1.309
 6118SOL    HW219254   6.582   0.947   1.224
 6119SOL     OW19255   0.850   3.679   0.022
 6119SOL    HW119256   0.865   3.694   6.949
 6119SOL    HW219257   0.776   3.738   0.054
 6120SOL     OW19258   3.689   6.578   5.798
 6120SOL    HW119259   3.617   6.630   5.842
 6120SOL    HW219260   3.712   6.498   5.854
 6121SOL     OW19261   0.802   3.617   5.263
 6121SOL    HW119262   0.872   3.631   5.193
 6121SOL    HW219263   0.815   3.527   5.305
 6122SOL     OW19264   4.237   5.305   0.561
 6122SOL    HW119265   4.222   5.351   0.474
 6122SOL    HW219266   4.161   5.243   0.580
 6123SOL     OW19267   5.218   6.834   6.167
 6123SOL    HW119268   5.158   6.819   6.088
 6123SOL    HW219269   5.162   6.856   6.247
 6124SOL     OW19270   1.323   6.955   5.741
 6124SOL    HW119271   1.395   6.945   5.672
 6124SOL    HW219272   1.285   6.865   5.763
 6125SOL     OW19273   2.556   4.086   0.342
 6125SOL    HW119274   2.561   3.988   0.321
 6125SOL    HW219275   2.476   4.126   0.297
 6126SOL     OW19276   0.623   0.708   4.201
 6126SOL    HW119277   0.567   0.753   4.131
 6126SOL    HW219278   0.578   0.715   4.290
 6127SOL     OW19279   3.206   6.802   0.993
 6127SOL    HW119280   3.149   6.764   1.065
 6127SOL    HW219281   3.247   6.888   1.025
 6128SOL     OW19282   6.376   4.461   0.792
 6128SOL    HW119283   6.444   4.488   0.724
 6128SOL    HW219284   6.301   4.413   0.747
 6129SOL     OW19285   0.029   3.509   2.366
 6129SOL    HW119286   0.118   3.466   2.353
 6129SOL    HW219287   0.029   3.600   2.324
 6130SOL     OW19288   5.364   2.777   2.662
 6130SOL    HW119289   5.400   2.802   2.572
 6130SOL    HW219290   5.281   2.830   2.681
 6131SOL     OW19291   0.448   1.537   3.913
 6131SOL    HW119292   0.540   1.512   3.884
 6131SOL    HW219293   0.427   1.492   4.000
 6132SOL     OW19294   4.575   1.827   6.929
 6132SOL    HW119295   4.670   1.845   6.956
 6132SOL    HW219296   4.569   1.822   6.829
 6133SOL     OW19297   2.139   3.368   3.155
 6133SOL    HW119298   2.140   3.368   3.255
 6133SOL    HW219299   2.159   3.276   3.122
 6134SOL     OW19300   4.154   5.216   6.935
 6134SOL    HW119301   4.120   5.308   6.953
 6134SOL    HW219302   4.148   5.197   6.837
 6135SOL     OW19303   6.872   0.017   0.139
 6135SOL    HW119304   6.867   0.106   0.093
 6135SOL    HW219305   6.800   0.010   0.208
 6136SOL     OW19306   1.189   3.349   1.988
 6136SOL    HW119307   1.270   3.393   2.027
 6136SOL    HW219308   1.200   3.250   1.993
 6137SOL     OW19309   6.613   3.895   2.242
 6137SOL    HW119310   6.548   3.820   2.247
 6137SOL    HW219311   6.701   3.865   2.279
 6138SOL     OW19312   3.684   6.948   2.678
 6138SOL    HW119313   3.701   6.995   2.764
 6138SOL    HW219314   3.686   6.849   2.693
 6139SOL     OW19315   1.649   6.917   5.866
 6139SOL    HW119316   1.679   6.991   5.927
 6139SOL    HW219317   1.656   6.948   5.771
 6140SOL     OW19318   0.833   7.008   1.830
 6140SOL    HW119319   0.797   6.973   1.743
 6140SOL    HW219320   0.922   6.968   1.848
 6141SOL     OW19321   0.644   6.988   6.326
 6141SOL    HW119322   0.732   0.008   6.344
 6141SOL    HW219323   0.577   7.017   6.394
 6142SOL     OW19324   0.482   6.209   6.510
 6142SOL    HW119325   0.446   6.197   6.417
 6142SOL    HW219326   0.567   6.260   6.508
 6143SOL     OW19327   6.489   3.035   0.982
 6143SOL    HW119328   6.487   2.993   1.073
 6143SOL    HW219329   6.542   3.120   0.986
 6144SOL     OW19330   4.795   4.794   4.495
 6144SOL    HW119331   4.698   4.814   4.511
 6144SOL    HW219332   4.843   4.878   4.472
 6145SOL     OW19333   5.177   5.011   4.437
 6145SOL    HW119334   5.216   4.920   4.449
 6145SOL    HW219335   5.142   5.044   4.525
 6146SOL     OW19336   3.270   5.363   3.806
 6146SOL    HW119337   3.367   5.374   3.786
 6146SOL    HW219338   3.233   5.450   3.840
 6147SOL     OW19339   2.376   2.234   4.807
 6147SOL    HW119340   2.413   2.145   4.835
 6147SOL    HW219341   2.277   2.235   4.821
 6148SOL     OW19342   4.615   0.035   5.236
 6148SOL    HW119343   4.572   6.973   5.262
 6148SOL    HW219344   4.684   0.019   5.166
 6149SOL     OW19345   2.565   6.747   1.258
 6149SOL    HW119346   2.476   6.786   1.234
 6149SOL    HW219347   2.563   6.648   1.244
 6150SOL     OW19348   5.802   5.593   0.778
 6150SOL    HW119349   5.815   5.680   0.826
 6150SOL    HW219350   5.839   5.519   0.833
 6151SOL     OW19351   6.391   5.154   6.366
 6151SOL    HW119352   6.429   5.230   6.313
 6151SOL    HW219353   6.453   5.075   6.360
 6152SOL     OW19354   6.664   5.790   4.867
 6152SOL    HW119355   6.648   5.733   4.948
 6152SOL    HW219356   6.760   5.784   4.841
 6153SOL     OW19357   5.283   4.769   0.977
 6153SOL    HW119358   5.337   4.813   1.048
 6153SOL    HW219359   5.337   4.761   0.893
 6154SOL     OW19360   6.283   2.439   2.680
 6154SOL    HW119361   6.270   2.352   2.632
 6154SOL    HW219362   6.235   2.512   2.631
 6155SOL     OW19363   1.496   1.340   3.280
 6155SOL    HW119364   1.433   1.416   3.296
 6155SOL    HW219365   1.538   1.350   3.189
 6156SOL     OW19366   4.381   4.674   2.072
 6156SOL    HW119367   4.462   4.616   2.058
 6156SOL    HW219368   4.410   4.767   2.093
 6157SOL     OW19369   0.009   1.931   4.510
 6157SOL    HW119370   6.935   1.925   4.526
 6157SOL    HW219371   0.029   2.012   4.455
 6158SOL     OW19372   3.575   2.108   6.477
 6158SOL    HW119373   3.502   2.143   6.418
 6158SOL    HW219374   3.534   2.058   6.553
 6159SOL     OW19375   4.443   2.023   1.347
 6159SOL    HW119376   4.532   2.005   1.305
 6159SOL    HW219377   4.425   1.954   1.417
 6160SOL     OW19378   5.234   1.029   6.823
 6160SOL    HW119379   5.168   1.036   6.898
 6160SOL    HW219380   5.324   1.056   6.855
 6161SOL     OW19381   5.787   1.713   5.780
 6161SOL    HW119382   5.825   1.627   5.813
 6161SOL    HW219383   5.691   1.718   5.807
 6162SOL     OW19384   6.702   6.193   3.739
 6162SOL    HW119385   6.737   6.187   3.646
 6162SOL    HW219386   6.745   6.270   3.786
 6163SOL     OW19387   6.285   6.427   1.518
 6163SOL    HW119388   6.221   6.475   1.458
 6163SOL    HW219389   6.330   6.493   1.578
 6164SOL     OW19390   3.392   3.653   3.583
 6164SOL    HW119391   3.461   3.609   3.642
 6164SOL    HW219392   3.377   3.746   3.614
 6165SOL     OW19393   4.612   1.504   6.759
 6165SOL    HW119394   4.699   1.492   6.807
 6165SOL    HW219395   4.622   1.473   6.665
 6166SOL     OW19396   5.793   1.887   6.430
 6166SOL    HW119397   5.807   1.837   6.516
 6166SOL    HW219398   5.752   1.826   6.362
 6167SOL     OW19399   1.057   5.076   3.149
 6167SOL    HW119400   1.036   4.988   3.191
 6167SOL    HW219401   1.143   5.069   3.099
 6168SOL     OW19402   1.545   3.422   2.510
 6168SOL    HW119403   1.467   3.442   2.451
 6168SOL    HW219404   1.525   3.342   2.567
 6169SOL     OW19405   1.215   2.192   0.235
 6169SOL    HW119406   1.277   2.246   0.178
 6169SOL    HW219407   1.150   2.253   0.280
 6170SOL     OW19408   2.312   4.162   5.342
 6170SOL    HW119409   2.334   4.085   5.282
 6170SOL    HW219410   2.282   4.128   5.431
 6171SOL     OW19411   1.783   3.723   1.137
 6171SOL    HW119412   1.816   3.651   1.198
 6171SOL    HW219413   1.836   3.807   1.152
 6172SOL     OW19414   1.780   1.484   3.260
 6172SOL    HW119415   1.745   1.395   3.290
 6172SOL    HW219416   1.879   1.480   3.251
 6173SOL     OW19417   6.032   5.274   1.974
 6173SOL    HW119418   6.099   5.348   1.985
 6173SOL    HW219419   5.944   5.303   2.011
 6174SOL     OW19420   5.215   5.129   3.724
 6174SOL    HW119421   5.209   5.158   3.629
 6174SOL    HW219422   5.149   5.180   3.779
 6175SOL     OW19423   4.547   0.669   3.527
 6175SOL    HW119424   4.568   0.695   3.433
 6175SOL    HW219425   4.451   0.691   3.548
 6176SOL     OW19426   5.693   3.163   6.476
 6176SOL    HW119427   5.723   3.240   6.534
 6176SOL    HW219428   5.594   3.170   6.461
 6177SOL     OW19429   5.839   0.912   0.915
 6177SOL    HW119430   5.885   0.887   0.830
 6177SOL    HW219431   5.904   0.954   0.978
 6178SOL     OW19432   4.502   4.438   3.054
 6178SOL    HW119433   4.520   4.348   3.093
 6178SOL    HW219434   4.517   4.508   3.124
 6179SOL     OW19435   6.800   4.809   4.199
 6179SOL    HW119436   6.883   4.795   4.254
 6179SOL    HW219437   6.780   4.907   4.194
 6180SOL     OW19438   4.017   4.745   0.215
 6180SOL    HW119439   4.088   4.724   0.148
 6180SOL    HW219440   3.990   4.841   0.207
 6181SOL     OW19441   3.623   6.697   0.566
 6181SOL    HW119442   3.596   6.716   0.471
 6181SOL    HW219443   3.592   6.605   0.590
 6182SOL     OW19444   5.425   3.316   5.779
 6182SOL    HW119445   5.478   3.387   5.734
 6182SOL    HW219446   5.414   3.238   5.718
 6183SOL     OW19447   2.306   1.350   2.938
 6183SOL    HW119448   2.235   1.403   2.891
 6183SOL    HW219449   2.328   1.393   3.025
 6184SOL     OW19450   2.154   6.872   5.986
 6184SOL    HW119451   2.243   6.874   6.031
 6184SOL    HW219452   2.088   6.824   6.044
 6185SOL     OW19453   0.010   4.310   6.696
 6185SOL    HW119454   7.002   4.304   6.602
 6185SOL    HW219455   0.109   4.324   6.696
 6186SOL     OW19456   6.824   6.675   5.795
 6186SOL    HW119457   6.748   6.613   5.815
 6186SOL    HW219458   6.810   6.761   5.844
 6187SOL     OW19459   4.383   5.055   3.197
 6187SOL    HW119460   4.423   5.141   3.165
 6187SOL    HW219461   4.308   5.028   3.137
 6188SOL     OW19462   2.220   0.059   0.826
 6188SOL    HW119463   2.308   0.103   0.847
 6188SOL    HW219464   2.191   0.085   0.734
 6189SOL     OW19465   4.945   4.234   3.802
 6189SOL    HW119466   5.024   4.205   3.855
 6189SOL    HW219467   4.957   4.330   3.773
 6190SOL     OW19468   0.114   3.876   5.703
 6190SOL    HW119469   0.196   3.828   5.671
 6190SOL    HW219470   0.050   3.885   5.627
 6191SOL     OW19471   3.990   2.075   0.067
 6191SOL    HW119472   3.953   2.120   7.011
 6191SOL    HW219473   3.961   1.979   0.067
 6192SOL     OW19474   4.172   2.571   6.859
 6192SOL    HW119475   4.121   2.557   6.943
 6192SOL    HW219476   4.142   2.657   6.816
 6193SOL     OW19477   4.931   1.346   2.400
 6193SOL    HW119478   4.916   1.324   2.496
 6193SOL    HW219479   4.933   1.262   2.346
 6194SOL     OW19480   1.446   0.186   0.815
 6194SOL    HW119481   1.362   0.146   0.779
 6194SOL    HW219482   1.431   0.216   0.909
 6195SOL     OW19483   4.636   6.646   5.444
 6195SOL    HW119484   4.730   6.656   5.479
 6195SOL    HW219485   4.619   6.550   5.421
 6196SOL     OW19486   5.851   2.515   1.753
 6196SOL    HW119487   5.757   2.487   1.772
 6196SOL    HW219488   5.914   2.445   1.786
 6197SOL     OW19489   4.560   4.409   0.754
 6197SOL    HW119490   4.570   4.310   0.749
 6197SOL    HW219491   4.562   4.447   0.661
 6198SOL     OW19492   3.790   6.265   2.319
 6198SOL    HW119493   3.879   6.255   2.276
 6198SOL    HW219494   3.799   6.317   2.404
 6199SOL     OW19495   0.883   0.609   1.051
 6199SOL    HW119496   0.973   0.598   1.094
 6199SOL    HW219497   0.826   0.667   1.109
 6200SOL     OW19498   1.530   0.926   5.505
 6200SOL    HW119499   1.503   0.949   5.599
 6200SOL    HW219500   1.564   1.008   5.459
 6201SOL     OW19501   0.722   3.123   5.554
 6201SOL    HW119502   0.659   3.128   5.477
 6201SOL    HW219503   0.731   3.213   5.596
 6202SOL     OW19504   3.848   1.842   2.531
 6202SOL    HW119505   3.841   1.776   2.456
 6202SOL    HW219506   3.888   1.797   2.611
 6203SOL     OW19507   6.523   6.708   3.284
 6203SOL    HW119508   6.519   6.807   3.300
 6203SOL    HW219509   6.604   6.687   3.230
 6204SOL     OW19510   0.752   5.506   4.915
 6204SOL    HW119511   0.846   5.484   4.890
 6204SOL    HW219512   0.740   5.605   4.914
 6205SOL     OW19513   6.055   6.320   0.849
 6205SOL    HW119514   6.029   6.224   0.838
 6205SOL    HW219515   5.982   6.379   0.814
 6206SOL     OW19516   0.174   1.294   3.351
 6206SOL    HW119517   0.231   1.312   3.431
 6206SOL    HW219518   0.079   1.280   3.380
 6207SOL     OW19519   1.418   4.953   4.826
 6207SOL    HW119520   1.510   4.952   4.864
 6207SOL    HW219521   1.421   4.929   4.729
 6208SOL     OW19522   5.760   1.683   6.238
 6208SOL    HW119523   5.796   1.631   6.315
 6208SOL    HW219524   5.828   1.686   6.164
 6209SOL     OW19525   4.587   5.820   0.037
 6209SOL    HW119526   4.627   5.905   0.071
 6209SOL    HW219527   4.623   5.743   0.088
 6210SOL     OW19528   4.874   3.426   3.196
 6210SOL    HW119529   4.959   3.374   3.200
 6210SOL    HW219530   4.863   3.479   3.280
 6211SOL     OW19531   3.233   6.130   5.421
 6211SOL    HW119532   3.236   6.229   5.430
 6211SOL    HW219533   3.140   6.100   5.400
 6212SOL     OW19534   1.637   5.263   3.737
 6212SOL    HW119535   1.601   5.356   3.736
 6212SOL    HW219536   1.581   5.205   3.796
 6213SOL     OW19537   5.718   0.354   0.231
 6213SOL    HW119538   5.734   0.310   0.319
 6213SOL    HW219539   5.787   0.324   0.165
 6214SOL     OW19540   5.022   4.807   4.644
 6214SOL    HW119541   5.035   4.715   4.680
 6214SOL    HW219542   4.936   4.812   4.594
 6215SOL     OW19543   4.335   1.384   0.587
 6215SOL    HW119544   4.259   1.322   0.571
 6215SOL    HW219545   4.354   1.390   0.685
 6216SOL     OW19546   6.013   1.463   2.323
 6216SOL    HW119547   6.047   1.447   2.416
 6216SOL    HW219548   6.034   1.384   2.266
 6217SOL     OW19549   0.115   3.488   2.676
 6217SOL    HW119550   0.044   3.524   2.616
 6217SOL    HW219551   0.111   3.388   2.677
 6218SOL     OW19552   3.869   5.651   6.282
 6218SOL    HW119553   3.914   5.689   6.362
 6218SOL    HW219554   3.877   5.551   6.283
 6219SOL     OW19555   0.615   3.001   4.170
 6219SOL    HW119556   0.682   3.039   4.234
 6219SOL    HW219557   0.565   2.926   4.214
 6220SOL     OW19558   1.815   2.014   5.235
 6220SOL    HW119559   1.875   2.063   5.298
 6220SOL    HW219560   1.758   1.950   5.286
 6221SOL     OW19561   5.806   5.420   6.757
 6221SOL    HW119562   5.836   5.337   6.804
 6221SOL    HW219563   5.713   5.407   6.723
 6222SOL     OW19564   0.539   6.930   1.817
 6222SOL    HW119565   0.553   7.004   1.751
 6222SOL    HW219566   0.619   6.923   1.876
 6223SOL     OW19567   0.391   5.120   4.359
 6223SOL    HW119568   0.306   5.155   4.319
 6223SOL    HW219569   0.433   5.055   4.296
 6224SOL     OW19570   2.558   1.933   6.227
 6224SOL    HW119571   2.611   2.002   6.275
 6224SOL    HW219572   2.619   1.865   6.187
 6225SOL     OW19573   3.566   3.832   6.626
 6225SOL    HW119574   3.552   3.898   6.552
 6225SOL    HW219575   3.660   3.800   6.625
 6226SOL     OW19576   6.711   1.525   5.410
 6226SOL    HW119577   6.636   1.516   5.345
 6226SOL    HW219578   6.734   1.622   5.421
 6227SOL     OW19579   3.686   6.105   5.464
 6227SOL    HW119580   3.701   6.016   5.507
 6227SOL    HW219581   3.600   6.104   5.414
 6228SOL     OW19582   1.345   2.538   3.187
 6228SOL    HW119583   1.390   2.509   3.102
 6228SOL    HW219584   1.339   2.461   3.250
 6229SOL     OW19585   0.216   2.385   3.184
 6229SOL    HW119586   0.257   2.368   3.274
 6229SOL    HW219587   0.139   2.323   3.171
 6230SOL     OW19588   1.130   1.670   3.773
 6230SOL    HW119589   1.135   1.707   3.680
 6230SOL    HW219590   1.193   1.593   3.782
 6231SOL     OW19591   6.331   5.922   1.260
 6231SOL    HW119592   6.323   5.969   1.348
 6231SOL    HW219593   6.248   5.936   1.207
 6232SOL     OW19594   6.797   0.399   1.068
 6232SOL    HW119595   6.831   0.454   0.992
 6232SOL    HW219596   6.699   0.415   1.079
 6233SOL     OW19597   6.653   0.684   1.127
 6233SOL    HW119598   6.724   0.661   1.193
 6233SOL    HW219599   6.587   0.609   1.122
 6234SOL     OW19600   6.190   1.432   5.731
 6234SOL    HW119601   6.266   1.483   5.693
 6234SOL    HW219602   6.224   1.349   5.777
 6235SOL     OW19603   0.988   6.574   1.531
 6235SOL    HW119604   0.949   6.512   1.599
 6235SOL    HW219605   0.933   6.572   1.447
 6236SOL     OW19606   0.617   3.592   0.762
 6236SOL    HW119607   0.554   3.540   0.820
 6236SOL    HW219608   0.689   3.532   0.727
 6237SOL     OW19609   3.506   0.002   6.537
 6237SOL    HW119610   3.498   0.076   6.604
 6237SOL    HW219611   3.423   6.970   6.539
 6238SOL     OW19612   3.809   4.890   2.639
 6238SOL    HW119613   3.767   4.839   2.714
 6238SOL    HW219614   3.908   4.889   2.649
 6239SOL     OW19615   2.243   0.642   1.794
 6239SOL    HW119616   2.144   0.637   1.807
 6239SOL    HW219617   2.289   0.614   1.878
 6240SOL     OW19618   1.823   2.790   5.559
 6240SOL    HW119619   1.855   2.696   5.571
 6240SOL    HW219620   1.882   2.852   5.609
 6241SOL     OW19621   3.695   6.971   1.632
 6241SOL    HW119622   3.608   7.016   1.651
 6241SOL    HW219623   3.679   6.873   1.616
 6242SOL     OW19624   4.673   0.290   3.946
 6242SOL    HW119625   4.754   0.299   3.888
 6242SOL    HW219626   4.599   0.246   3.894
 6243SOL     OW19627   6.351   6.371   4.232
 6243SOL    HW119628   6.363   6.359   4.133
 6243SOL    HW219629   6.254   6.377   4.253
 6244SOL     OW19630   0.131   2.781   1.726
 6244SOL    HW119631   0.132   2.681   1.725
 6244SOL    HW219632   0.155   2.815   1.635
 6245SOL     OW19633   1.722   3.841   0.132
 6245SOL    HW119634   1.676   3.815   0.047
 6245SOL    HW219635   1.785   3.916   0.114
 6246SOL     OW19636   2.353   2.202   5.777
 6246SOL    HW119637   2.415   2.181   5.852
 6246SOL    HW219638   2.310   2.118   5.744
 6247SOL     OW19639   0.818   6.262   4.673
 6247SOL    HW119640   0.870   6.185   4.709
 6247SOL    HW219641   0.744   6.285   4.736
 6248SOL     OW19642   4.095   3.046   0.603
 6248SOL    HW119643   3.998   3.035   0.624
 6248SOL    HW219644   4.145   2.965   0.633
 6249SOL     OW19645   0.996   4.062   0.906
 6249SOL    HW119646   0.951   4.021   0.985
 6249SOL    HW219647   0.952   4.029   0.822
 6250SOL     OW19648   6.812   6.595   0.090
 6250SOL    HW119649   6.768   6.507   0.072
 6250SOL    HW219650   6.907   6.580   0.117
 6251SOL     OW19651   4.215   5.533   6.378
 6251SOL    HW119652   4.242   5.448   6.423
 6251SOL    HW219653   4.220   5.521   6.279
 6252SOL     OW19654   1.860   6.165   5.559
 6252SOL    HW119655   1.924   6.096   5.593
 6252SOL    HW219656   1.775   6.120   5.532
 6253SOL     OW19657   2.320   4.419   3.341
 6253SOL    HW119658   2.314   4.319   3.343
 6253SOL    HW219659   2.337   4.449   3.247
 6254SOL     OW19660   5.382   1.840   1.236
 6254SOL    HW119661   5.381   1.755   1.289
 6254SOL    HW219662   5.446   1.905   1.278
 6255SOL     OW19663   3.346   0.372   1.019
 6255SOL    HW119664   3.352   0.458   1.071
 6255SOL    HW219665   3.264   0.373   0.963
 6256SOL     OW19666   3.338   5.313   1.815
 6256SOL    HW119667   3.364   5.402   1.778
 6256SOL    HW219668   3.335   5.246   1.740
 6257SOL     OW19669   5.074   2.120   0.935
 6257SOL    HW119670   5.019   2.192   0.894
 6257SOL    HW219671   5.045   2.104   1.029
 6258SOL     OW19672   3.873   0.114   3.963
 6258SOL    HW119673   3.941   0.093   4.034
 6258SOL    HW219674   3.782   0.117   4.004
 6259SOL     OW19675   2.338   2.487   0.091
 6259SOL    HW119676   2.321   2.495   7.017
 6259SOL    HW219677   2.265   2.532   0.141
 6260SOL     OW19678   3.136   5.305   6.966
 6260SOL    HW119679   3.204   5.237   6.990
 6260SOL    HW219680   3.082   5.329   0.022
 6261SOL     OW19681   3.455   1.055   6.805
 6261SOL    HW119682   3.388   1.029   6.734
 6261SOL    HW219683   3.424   1.138   6.851
 6262SOL     OW19684   2.604   6.485   1.262
 6262SOL    HW119685   2.601   6.409   1.197
 6262SOL    HW219686   2.652   6.456   1.345
 6263SOL     OW19687   6.567   0.752   5.343
 6263SOL    HW119688   6.520   0.836   5.316
 6263SOL    HW219689   6.650   0.741   5.288
 6264SOL     OW19690   1.349   6.843   2.282
 6264SOL    HW119691   1.382   6.796   2.364
 6264SOL    HW219692   1.400   6.927   2.267
 6265SOL     OW19693   3.839   3.655   0.262
 6265SOL    HW119694   3.930   3.681   0.294
 6265SOL    HW219695   3.770   3.697   0.321
 6266SOL     OW19696   4.034   0.991   4.756
 6266SOL    HW119697   3.989   0.944   4.831
 6266SOL    HW219698   3.966   1.031   4.695
 6267SOL     OW19699   2.502   0.282   6.233
 6267SOL    HW119700   2.428   0.232   6.278
 6267SOL    HW219701   2.589   0.238   6.254
 6268SOL     OW19702   2.481   0.463   3.454
 6268SOL    HW119703   2.514   0.436   3.364
 6268SOL    HW219704   2.381   0.476   3.451
 6269SOL     OW19705   6.854   6.558   1.899
 6269SOL    HW119706   6.953   6.556   1.914
 6269SOL    HW219707   6.834   6.528   1.806
 6270SOL     OW19708   1.926   0.084   5.271
 6270SOL    HW119709   2.024   0.106   5.265
 6270SOL    HW219710   1.876   0.164   5.304
 6271SOL     OW19711   6.589   2.219   6.747
 6271SOL    HW119712   6.509   2.159   6.753
 6271SOL    HW219713   6.611   2.253   6.839
 6272SOL     OW19714   0.380   2.780   0.174
 6272SOL    HW119715   0.411   2.727   0.095
 6272SOL    HW219716   0.339   2.719   0.242
 6273SOL     OW19717   1.133   6.414   2.526
 6273SOL    HW119718   1.122   6.498   2.473
 6273SOL    HW219719   1.045   6.368   2.535
 6274SOL     OW19720   3.239   5.443   5.641
 6274SOL    HW119721   3.332   5.439   5.677
 6274SOL    HW219722   3.184   5.370   5.682
 6275SOL     OW19723   2.424   6.248   6.417
 6275SOL    HW119724   2.497   6.230   6.483
 6275SOL    HW219725   2.413   6.168   6.358
 6276SOL     OW19726   1.612   4.070   3.067
 6276SOL    HW119727   1.559   4.057   2.984
 6276SOL    HW219728   1.561   4.126   3.132
 6277SOL     OW19729   5.369   3.861   2.237
 6277SOL    HW119730   5.355   3.802   2.157
 6277SOL    HW219731   5.334   3.953   2.217
 6278SOL     OW19732   5.045   6.122   4.895
 6278SOL    HW119733   5.116   6.070   4.942
 6278SOL    HW219734   4.956   6.097   4.931
 6279SOL     OW19735   3.932   0.156   6.842
 6279SOL    HW119736   3.991   0.111   6.909
 6279SOL    HW219737   3.959   0.128   6.750
 6280SOL     OW19738   1.080   1.945   5.336
 6280SOL    HW119739   1.146   1.887   5.384
 6280SOL    HW219740   1.109   1.956   5.241
 6281SOL     OW19741   0.822   5.416   4.040
 6281SOL    HW119742   0.752   5.348   4.066
 6281SOL    HW219743   0.826   5.488   4.109
 6282SOL     OW19744   0.818   6.074   5.361
 6282SOL    HW119745   0.789   6.064   5.266
 6282SOL    HW219746   0.913   6.106   5.362
 6283SOL     OW19747   6.071   3.366   5.299
 6283SOL    HW119748   6.137   3.322   5.360
 6283SOL    HW219749   6.083   3.465   5.304
 6284SOL     OW19750   1.017   5.503   4.819
 6284SOL    HW119751   1.079   5.483   4.895
 6284SOL    HW219752   1.029   5.433   4.748
 6285SOL     OW19753   0.545   3.445   4.931
 6285SOL    HW119754   0.557   3.541   4.954
 6285SOL    HW219755   0.471   3.406   4.987
 6286SOL     OW19756   5.773   1.725   3.488
 6286SOL    HW119757   5.846   1.681   3.435
 6286SOL    HW219758   5.781   1.700   3.584
 6287SOL     OW19759   3.721   5.087   4.170
 6287SOL    HW119760   3.763   5.010   4.125
 6287SOL    HW219761   3.639   5.116   4.120
 6288SOL     OW19762   4.761   4.525   2.866
 6288SOL    HW119763   4.802   4.441   2.829
 6288SOL    HW219764   4.723   4.507   2.956
 6289SOL     OW19765   2.217   4.689   1.022
 6289SOL    HW119766   2.125   4.674   1.056
 6289SOL    HW219767   2.278   4.711   1.098
 6290SOL     OW19768   6.770   4.819   5.593
 6290SOL    HW119769   6.677   4.786   5.610
 6290SOL    HW219770   6.782   4.909   5.634
 6291SOL     OW19771   4.121   3.478   4.542
 6291SOL    HW119772   4.140   3.471   4.640
 6291SOL    HW219773   4.043   3.420   4.518
 6292SOL     OW19774   1.640   1.939   4.517
 6292SOL    HW119775   1.563   1.988   4.476
 6292SOL    HW219776   1.710   2.004   4.545
 6293SOL     OW19777   3.500   0.864   0.387
 6293SOL    HW119778   3.405   0.844   0.411
 6293SOL    HW219779   3.506   0.956   0.349
 6294SOL     OW19780   4.274   5.791   4.099
 6294SOL    HW119781   4.222   5.809   4.183
 6294SOL    HW219782   4.337   5.715   4.114
 6295SOL     OW19783   5.317   4.640   6.237
 6295SOL    HW119784   5.252   4.651   6.313
 6295SOL    HW219785   5.289   4.700   6.162
 6296SOL     OW19786   0.669   6.584   5.758
 6296SOL    HW119787   0.710   6.531   5.684
 6296SOL    HW219788   0.615   6.660   5.720
 6297SOL     OW19789   4.666   6.971   3.916
 6297SOL    HW119790   4.743   7.022   3.878
 6297SOL    HW219791   4.673   6.970   4.016
 6298SOL     OW19792   1.416   2.401   6.568
 6298SOL    HW119793   1.351   2.469   6.601
 6298SOL    HW219794   1.444   2.342   6.643
 6299SOL     OW19795   5.478   2.318   0.176
 6299SOL    HW119796   5.498   2.402   0.126
 6299SOL    HW219797   5.446   2.340   0.268
 6300SOL     OW19798   6.365   0.678   0.351
 6300SOL    HW119799   6.336   0.595   0.398
 6300SOL    HW219800   6.284   0.724   0.313
 6301SOL     OW19801   4.029   6.995   7.012
 6301SOL    HW119802   3.987   7.023   0.074
 6301SOL    HW219803   4.111   6.941   0.005
 6302SOL     OW19804   1.706   0.985   3.143
 6302SOL    HW119805   1.783   1.030   3.100
 6302SOL    HW219806   1.646   0.947   3.072
 6303SOL     OW19807   2.177   1.280   4.296
 6303SOL    HW119808   2.215   1.370   4.319
 6303SOL    HW219809   2.149   1.279   4.200
 6304SOL     OW19810   2.290   0.437   1.323
 6304SOL    HW119811   2.251   0.520   1.285
 6304SOL    HW219812   2.256   0.422   1.415
 6305SOL     OW19813   6.699   6.828   1.297
 6305SOL    HW119814   6.617   6.841   1.241
 6305SOL    HW219815   6.778   6.814   1.238
 6306SOL     OW19816   0.782   4.277   3.996
 6306SOL    HW119817   0.722   4.240   4.067
 6306SOL    HW219818   0.808   4.371   4.019
 6307SOL     OW19819   3.619   4.367   5.297
 6307SOL    HW119820   3.666   4.280   5.290
 6307SOL    HW219821   3.524   4.352   5.325
 6308SOL     OW19822   2.093   2.162   4.591
 6308SOL    HW119823   2.122   2.256   4.572
 6308SOL    HW219824   2.113   2.139   4.686
 6309SOL     OW19825   5.353   4.723   5.320
 6309SOL    HW119826   5.279   4.705   5.386
 6309SOL    HW219827   5.441   4.698   5.360
 6310SOL     OW19828   1.783   6.072   2.500
 6310SOL    HW119829   1.724   6.146   2.466
 6310SOL    HW219830   1.769   5.990   2.444
 6311SOL     OW19831   4.696   1.057   6.050
 6311SOL    HW119832   4.613   1.112   6.061
 6311SOL    HW219833   4.688   1.000   5.968
 6312SOL     OW19834   6.098   6.251   5.460
 6312SOL    HW119835   6.143   6.337   5.485
 6312SOL    HW219836   6.104   6.238   5.361
 6313SOL     OW19837   0.631   6.310   4.841
 6313SOL    HW119838   0.600   6.370   4.914
 6313SOL    HW219839   0.575   6.227   4.839
 6314SOL     OW19840   3.740   6.650   1.880
 6314SOL    HW119841   3.650   6.692   1.885
 6314SOL    HW219842   3.808   6.711   1.919
 6315SOL     OW19843   1.937   2.251   5.367
 6315SOL    HW119844   1.913   2.336   5.320
 6315SOL    HW219845   2.036   2.246   5.380
 6316SOL     OW19846   5.006   1.711   7.001
 6316SOL    HW119847   4.974   1.673   6.914
 6316SOL    HW219848   5.064   1.790   6.983
 6317SOL     OW19849   4.558   5.407   1.724
 6317SOL    HW119850   4.469   5.386   1.683
 6317SOL    HW219851   4.623   5.336   1.700
 6318SOL     OW19852   3.552   1.107   5.503
 6318SOL    HW119853   3.553   1.067   5.411
 6318SOL    HW219854   3.601   1.046   5.566
 6319SOL     OW19855   6.191   1.377   4.713
 6319SOL    HW119856   6.132   1.337   4.644
 6319SOL    HW219857   6.148   1.459   4.752
 6320SOL     OW19858   5.735   6.377   5.167
 6320SOL    HW119859   5.741   6.301   5.102
 6320SOL    HW219860   5.640   6.394   5.190
 6321SOL     OW19861   3.052   3.130   1.217
 6321SOL    HW119862   3.081   3.054   1.274
 6321SOL    HW219863   3.131   3.170   1.172
 6322SOL     OW19864   1.630   2.387   0.577
 6322SOL    HW119865   1.661   2.323   0.507
 6322SOL    HW219866   1.683   2.472   0.572
 6323SOL     OW19867   3.081   2.715   1.796
 6323SOL    HW119868   3.023   2.696   1.717
 6323SOL    HW219869   3.040   2.673   1.878
 6324SOL     OW19870   5.449   0.244   6.738
 6324SOL    HW119871   5.430   0.335   6.700
 6324SOL    HW219872   5.443   0.176   6.666
 6325SOL     OW19873   1.935   2.126   2.333
 6325SOL    HW119874   1.900   2.151   2.423
 6325SOL    HW219875   1.875   2.164   2.262
 6326SOL     OW19876   4.674   5.125   1.731
 6326SOL    HW119877   4.664   5.101   1.635
 6326SOL    HW219878   4.678   5.041   1.786
 6327SOL     OW19879   6.671   0.571   4.717
 6327SOL    HW119880   6.739   0.634   4.678
 6327SOL    HW219881   6.683   0.481   4.675
 6328SOL     OW19882   3.434   3.492   0.687
 6328SOL    HW119883   3.338   3.465   0.682
 6328SOL    HW219884   3.486   3.417   0.729
 6329SOL     OW19885   2.239   2.232   3.689
 6329SOL    HW119886   2.200   2.290   3.617
 6329SOL    HW219887   2.300   2.287   3.745
 6330SOL     OW19888   5.097   0.861   1.267
 6330SOL    HW119889   5.125   0.935   1.207
 6330SOL    HW219890   5.175   0.830   1.321
 6331SOL     OW19891   6.622   2.732   5.326
 6331SOL    HW119892   6.652   2.719   5.420
 6331SOL    HW219893   6.700   2.756   5.269
 6332SOL     OW19894   6.878   3.718   1.213
 6332SOL    HW119895   6.860   3.816   1.204
 6332SOL    HW219896   6.858   3.689   1.307
 6333SOL     OW19897   4.491   6.012   4.984
 6333SOL    HW119898   4.522   5.920   5.008
 6333SOL    HW219899   4.425   6.045   5.051
 6334SOL     OW19900   3.033   0.483   2.112
 6334SOL    HW119901   3.063   0.550   2.179
 6334SOL    HW219902   2.993   0.530   2.033
 6335SOL     OW19903   3.647   0.565   0.628
 6335SOL    HW119904   3.660   0.662   0.647
 6335SOL    HW219905   3.595   0.554   0.543
 6336SOL     OW19906   0.730   1.995   6.003
 6336SOL    HW119907   0.674   2.073   6.033
 6336SOL    HW219908   0.824   2.025   5.989
 6337SOL     OW19909   5.188   4.770   5.989
 6337SOL    HW119910   5.159   4.822   6.069
 6337SOL    HW219911   5.182   4.828   5.907
 6338SOL     OW19912   3.585   1.818   4.638
 6338SOL    HW119913   3.577   1.854   4.731
 6338SOL    HW219914   3.657   1.749   4.635
 6339SOL     OW19915   1.242   3.743   3.130
 6339SOL    HW119916   1.174   3.812   3.156
 6339SOL    HW219917   1.296   3.777   3.053
 6340SOL     OW19918   1.359   5.106   2.600
 6340SOL    HW119919   1.405   5.027   2.640
 6340SOL    HW219920   1.423   5.157   2.543
 6341SOL     OW19921   0.941   4.509   4.404
 6341SOL    HW119922   0.872   4.516   4.476
 6341SOL    HW219923   1.005   4.435   4.425
 6342SOL     OW19924   1.788   1.654   1.805
 6342SOL    HW119925   1.780   1.686   1.711
 6342SOL    HW219926   1.873   1.687   1.845
 6343SOL     OW19927   5.134   2.451   6.963
 6343SOL    HW119928   5.054   2.508   6.941
 6343SOL    HW219929   5.127   2.418   0.032
 6344SOL     OW19930   5.796   3.337   4.550
 6344SOL    HW119931   5.781   3.409   4.482
 6344SOL    HW219932   5.847   3.262   4.509
 6345SOL     OW19933   5.828   2.798   2.136
 6345SOL    HW119934   5.862   2.888   2.163
 6345SOL    HW219935   5.802   2.800   2.040
 6346SOL     OW19936   6.409   5.362   3.903
 6346SOL    HW119937   6.393   5.263   3.898
 6346SOL    HW219938   6.388   5.394   3.995
 6347SOL     OW19939   2.153   0.031   0.297
 6347SOL    HW119940   2.131   6.960   0.317
 6347SOL    HW219941   2.081   0.070   0.239
 6348SOL     OW19942   0.527   3.875   5.480
 6348SOL    HW119943   0.444   3.889   5.427
 6348SOL    HW219944   0.544   3.954   5.538
 6349SOL     OW19945   2.260   0.392   1.622
 6349SOL    HW119946   2.168   0.357   1.606
 6349SOL    HW219947   2.255   0.476   1.676
 6350SOL     OW19948   1.121   5.538   4.137
 6350SOL    HW119949   1.207   5.515   4.183
 6350SOL    HW219950   1.092   5.460   4.081
 6351SOL     OW19951   6.504   3.936   3.686
 6351SOL    HW119952   6.490   4.033   3.668
 6351SOL    HW219953   6.516   3.888   3.599
 6352SOL     OW19954   3.987   6.157   4.692
 6352SOL    HW119955   4.030   6.101   4.763
 6352SOL    HW219956   4.024   6.250   4.696
 6353SOL     OW19957   0.628   0.010   5.969
 6353SOL    HW119958   0.559   0.061   6.021
 6353SOL    HW219959   0.714   0.007   6.021
 6354SOL     OW19960   2.109   5.764   2.873
 6354SOL    HW119961   2.186   5.827   2.884
 6354SOL    HW219962   2.042   5.805   2.811
 6355SOL     OW19963   0.904   5.334   6.839
 6355SOL    HW119964   0.825   5.371   6.888
 6355SOL    HW219965   0.873   5.263   6.775
 6356SOL     OW19966   4.490   5.689   2.066
 6356SOL    HW119967   4.480   5.727   1.974
 6356SOL    HW219968   4.403   5.698   2.115
 6357SOL     OW19969   5.954   3.375   3.095
 6357SOL    HW119970   5.887   3.364   3.022
 6357SOL    HW219971   6.043   3.398   3.056
 6358SOL     OW19972   0.614   2.185   6.390
 6358SOL    HW119973   0.522   2.172   6.427
 6358SOL    HW219974   0.673   2.110   6.418
 6359SOL     OW19975   5.628   6.713   6.746
 6359SOL    HW119976   5.696   6.683   6.680
 6359SOL    HW219977   5.664   6.790   6.799
 6360SOL     OW19978   1.340   4.351   3.784
 6360SOL    HW119979   1.389   4.319   3.865
 6360SOL    HW219980   1.394   4.420   3.736
 6361SOL     OW19981   0.602   0.144   1.697
 6361SOL    HW119982   0.575   0.129   1.602
 6361SOL    HW219983   0.654   0.229   1.704
 6362SOL     OW19984   6.615   6.162   0.178
 6362SOL    HW119985   6.597   6.243   0.122
 6362SOL    HW219986   6.702   6.122   0.150
 6363SOL     OW19987   1.823   4.754   3.442
 6363SOL    HW119988   1.805   4.777   3.537
 6363SOL    HW219989   1.816   4.837   3.386
 6364SOL     OW19990   2.796   1.234   6.139
 6364SOL    HW119991   2.723   1.240   6.207
 6364SOL    HW219992   2.757   1.221   6.048
 6365SOL     OW19993   5.542   0.179   4.109
 6365SOL    HW119994   5.558   0.263   4.160
 6365SOL    HW219995   5.446   0.174   4.081
 6366SOL     OW19996   0.697   6.257   6.116
 6366SOL    HW119997   0.755   6.332   6.147
 6366SOL    HW219998   0.624   6.293   6.058
 6367SOL     OW19999   4.510   1.404   5.404
 6367SOL    HW120000   4.455   1.482   5.432
 6367SOL    HW220001   4.451   1.334   5.364
 6368SOL     OW20002   3.947   4.865   3.434
 6368SOL    HW120003   3.923   4.962   3.440
 6368SOL    HW220004   3.876   4.810   3.476
 6369SOL     OW20005   2.259   5.630   3.254
 6369SOL    HW120006   2.216   5.689   3.322
 6369SOL    HW220007   2.359   5.637   3.263
 6370SOL     OW20008   0.569   3.175   3.396
 6370SOL    HW120009   0.515   3.232   3.458
 6370SOL    HW220010   0.652   3.146   3.442
 6371SOL     OW20011   4.905   4.547   3.892
 6371SOL    HW120012   4.976   4.616   3.881
 6371SOL    HW220013   4.844   4.548   3.813
 6372SOL     OW20014   1.988   0.696   2.179
 6372SOL    HW120015   2.081   0.662   2.190
 6372SOL    HW220016   1.983   0.752   2.095
 6373SOL     OW20017   4.932   3.722   2.743
 6373SOL    HW120018   4.932   3.626   2.716
 6373SOL    HW220019   4.863   3.772   2.691
 6374SOL     OW20020   3.298   4.168   3.657
 6374SOL    HW120021   3.340   4.222   3.584
 6374SOL    HW220022   3.199   4.184   3.658
 6375SOL     OW20023   6.980   2.209   3.755
 6375SOL    HW120024   6.941   2.292   3.714
 6375SOL    HW220025   6.921   2.178   3.830
 6376SOL     OW20026   6.116   2.620   4.668
 6376SOL    HW120027   6.120   2.618   4.768
 6376SOL    HW220028   6.114   2.527   4.632
 6377SOL     OW20029   6.145   1.968   5.367
 6377SOL    HW120030   6.159   2.021   5.283
 6377SOL    HW220031   6.061   1.998   5.412
 6378SOL     OW20032   4.295   5.409   3.947
 6378SOL    HW120033   4.380   5.430   3.995
 6378SOL    HW220034   4.304   5.434   3.851
 6379SOL     OW20035   1.653   3.970   4.123
 6379SOL    HW120036   1.660   4.067   4.147
 6379SOL    HW220037   1.556   3.944   4.121
 6380SOL     OW20038   0.375   1.696   5.539
 6380SOL    HW120039   0.437   1.620   5.517
 6380SOL    HW220040   0.282   1.674   5.508
 6381SOL     OW20041   3.967   3.361   1.657
 6381SOL    HW120042   4.024   3.291   1.700
 6381SOL    HW220043   3.973   3.351   1.557
 6382SOL     OW20044   1.403   2.018   0.954
 6382SOL    HW120045   1.440   1.937   0.908
 6382SOL    HW220046   1.398   2.001   1.052
 6383SOL     OW20047   1.524   1.972   2.627
 6383SOL    HW120048   1.515   1.874   2.647
 6383SOL    HW220049   1.497   2.025   2.707
 6384SOL     OW20050   6.008   4.272   1.801
 6384SOL    HW120051   6.025   4.178   1.773
 6384SOL    HW220052   6.014   4.280   1.900
 6385SOL     OW20053   0.118   4.482   4.020
 6385SOL    HW120054   0.039   4.536   3.990
 6385SOL    HW220055   0.195   4.498   3.957
 6386SOL     OW20056   2.254   4.495   6.015
 6386SOL    HW120057   2.337   4.514   5.963
 6386SOL    HW220058   2.195   4.433   5.963
 6387SOL     OW20059   0.278   1.744   6.468
 6387SOL    HW120060   0.199   1.687   6.489
 6387SOL    HW220061   0.312   1.723   6.376
 6388SOL     OW20062   3.575   4.974   1.538
 6388SOL    HW120063   3.608   4.884   1.567
 6388SOL    HW220064   3.608   4.993   1.446
 6389SOL     OW20065   0.585   5.865   2.174
 6389SOL    HW120066   0.596   5.963   2.191
 6389SOL    HW220067   0.671   5.818   2.193
 6390SOL     OW20068   1.027   1.016   5.984
 6390SOL    HW120069   1.031   1.114   6.005
 6390SOL    HW220070   1.039   0.964   6.068
 6391SOL     OW20071   2.367   0.102   5.790
 6391SOL    HW120072   2.393   0.049   5.871
 6391SOL    HW220073   2.303   0.175   5.817
 6392SOL     OW20074   2.481   5.685   2.467
 6392SOL    HW120075   2.480   5.740   2.384
 6392SOL    HW220076   2.501   5.745   2.546
 6393SOL     OW20077   6.548   0.148   2.408
 6393SOL    HW120078   6.613   0.074   2.399
 6393SOL    HW220079   6.465   0.114   2.454
 6394SOL     OW20080   2.053   5.254   0.890
 6394SOL    HW120081   2.049   5.218   0.983
 6394SOL    HW220082   2.142   5.298   0.876
 6395SOL     OW20083   6.901   2.048   0.843
 6395SOL    HW120084   6.927   1.967   0.791
 6395SOL    HW220085   6.820   2.090   0.802
 6396SOL     OW20086   4.513   3.256   5.975
 6396SOL    HW120087   4.465   3.174   5.943
 6396SOL    HW220088   4.570   3.292   5.901
 6397SOL     OW20089   5.536   2.334   6.852
 6397SOL    HW120090   5.482   2.417   6.868
 6397SOL    HW220091   5.623   2.359   6.811
 6398SOL     OW20092   2.276   6.772   1.449
 6398SOL    HW120093   2.298   6.835   1.374
 6398SOL    HW220094   2.341   6.696   1.449
 6399SOL     OW20095   1.412   6.343   6.646
 6399SOL    HW120096   1.457   6.359   6.558
 6399SOL    HW220097   1.425   6.248   6.673
 6400SOL     OW20098   2.341   6.670   2.112
 6400SOL    HW120099   2.409   6.689   2.182
 6400SOL    HW220100   2.315   6.573   2.116
 6401SOL     OW20101   5.827   4.819   3.485
 6401SOL    HW120102   5.844   4.913   3.513
 6401SOL    HW220103   5.732   4.810   3.456
 6402SOL     OW20104   3.404   1.945   3.140
 6402SOL    HW120105   3.372   1.972   3.230
 6402SOL    HW220106   3.329   1.952   3.074
 6403SOL     OW20107   6.633   6.216   6.733
 6403SOL    HW120108   6.727   6.248   6.736
 6403SOL    HW220109   6.573   6.289   6.701
 6404SOL     OW20110   4.355   1.593   2.142
 6404SOL    HW120111   4.432   1.618   2.084
 6404SOL    HW220112   4.378   1.513   2.197
 6405SOL     OW20113   2.895   0.349   3.840
 6405SOL    HW120114   2.804   0.391   3.847
 6405SOL    HW220115   2.934   0.338   3.931
 6406SOL     OW20116   1.046   2.646   2.818
 6406SOL    HW120117   0.983   2.673   2.890
 6406SOL    HW220118   1.059   2.546   2.821
 6407SOL     OW20119   2.838   5.954   4.151
 6407SOL    HW120120   2.890   6.026   4.104
 6407SOL    HW220121   2.783   5.904   4.084
 6408SOL     OW20122   5.775   2.248   0.132
 6408SOL    HW120123   5.679   2.233   0.153
 6408SOL    HW220124   5.785   2.274   0.036
 6409SOL     OW20125   0.024   4.734   3.448
 6409SOL    HW120126   0.111   4.714   3.493
 6409SOL    HW220127   0.022   4.830   3.421
 6410SOL     OW20128   1.394   1.745   0.408
 6410SOL    HW120129   1.401   1.830   0.354
 6410SOL    HW220130   1.360   1.672   0.350
 6411SOL     OW20131   0.985   2.579   3.307
 6411SOL    HW120132   1.052   2.639   3.262
 6411SOL    HW220133   1.021   2.548   3.395
 6412SOL     OW20134   1.010   2.231   5.436
 6412SOL    HW120135   1.083   2.261   5.373
 6412SOL    HW220136   1.033   2.141   5.473
 6413SOL     OW20137   4.234   4.915   3.944
 6413SOL    HW120138   4.184   4.997   3.973
 6413SOL    HW220139   4.183   4.870   3.871
 6414SOL     OW20140   6.011   1.038   0.687
 6414SOL    HW120141   5.911   1.042   0.677
 6414SOL    HW220142   6.052   1.014   0.599
 6415SOL     OW20143   1.985   2.885   3.258
 6415SOL    HW120144   1.991   2.948   3.335
 6415SOL    HW220145   2.075   2.877   3.215
 6416SOL     OW20146   1.056   1.170   6.747
 6416SOL    HW120147   1.055   1.270   6.745
 6416SOL    HW220148   1.131   1.137   6.690
 6417SOL     OW20149   6.702   5.124   1.315
 6417SOL    HW120150   6.744   5.213   1.335
 6417SOL    HW220151   6.759   5.075   1.249
 6418SOL     OW20152   4.666   4.116   1.734
 6418SOL    HW120153   4.741   4.159   1.786
 6418SOL    HW220154   4.579   4.137   1.778
 6419SOL     OW20155   2.005   4.552   3.248
 6419SOL    HW120156   2.043   4.568   3.339
 6419SOL    HW220157   1.930   4.616   3.231
 6420SOL     OW20158   3.250   4.978   4.680
 6420SOL    HW120159   3.215   5.003   4.590
 6420SOL    HW220160   3.339   5.022   4.695
 6421SOL     OW20161   4.903   0.462   2.911
 6421SOL    HW120162   4.895   0.377   2.964
 6421SOL    HW220163   4.950   0.531   2.967
 6422SOL     OW20164   6.979   1.088   4.495
 6422SOL    HW120165   6.885   1.074   4.465
 6422SOL    HW220166   6.982   1.092   4.595
 6423SOL     OW20167   4.427   5.439   2.793
 6423SOL    HW120168   4.366   5.500   2.844
 6423SOL    HW220169   4.509   5.489   2.765
 6424SOL     OW20170   6.924   6.232   6.239
 6424SOL    HW120171   6.847   6.170   6.223
 6424SOL    HW220172   6.994   6.186   6.294
 6425SOL     OW20173   6.548   6.308   2.864
 6425SOL    HW120174   6.645   6.290   2.849
 6425SOL    HW220175   6.514   6.368   2.792
 6426SOL     OW20176   1.099   5.218   2.767
 6426SOL    HW120177   1.088   5.131   2.814
 6426SOL    HW220178   1.160   5.207   2.689
 6427SOL     OW20179   3.480   3.173   4.824
 6427SOL    HW120180   3.388   3.212   4.819
 6427SOL    HW220181   3.547   3.246   4.828
 6428SOL     OW20182   5.752   3.485   6.314
 6428SOL    HW120183   5.683   3.552   6.289
 6428SOL    HW220184   5.795   3.448   6.232
 6429SOL     OW20185   2.043   1.754   6.285
 6429SOL    HW120186   2.124   1.812   6.276
 6429SOL    HW220187   1.996   1.775   6.371
 6430SOL     OW20188   5.947   0.961   2.163
 6430SOL    HW120189   5.950   0.928   2.068
 6430SOL    HW220190   5.891   0.898   2.217
 6431SOL     OW20191   5.249   6.819   3.833
 6431SOL    HW120192   5.160   6.780   3.859
 6431SOL    HW220193   5.257   6.911   3.870
 6432SOL     OW20194   4.040   3.973   6.676
 6432SOL    HW120195   4.106   3.952   6.604
 6432SOL    HW220196   4.004   3.888   6.715
 6433SOL     OW20197   2.470   4.534   6.836
 6433SOL    HW120198   2.417   4.454   6.809
 6433SOL    HW220199   2.415   4.617   6.823
 6434SOL     OW20200   2.235   4.593   0.294
 6434SOL    HW120201   2.284   4.581   0.379
 6434SOL    HW220202   2.264   4.523   0.228
 6435SOL     OW20203   4.639   6.776   0.264
 6435SOL    HW120204   4.681   6.705   0.320
 6435SOL    HW220205   4.542   6.757   0.252
 6436SOL     OW20206   2.197   3.053   3.443
 6436SOL    HW120207   2.253   3.019   3.366
 6436SOL    HW220208   2.235   3.018   3.529
 6437SOL     OW20209   2.348   1.769   1.064
 6437SOL    HW120210   2.414   1.788   0.992
 6437SOL    HW220211   2.309   1.856   1.097
 6438SOL     OW20212   6.862   4.588   6.294
 6438SOL    HW120213   6.952   4.555   6.266
 6438SOL    HW220214   6.808   4.608   6.212
 6439SOL     OW20215   5.588   1.101   1.521
 6439SOL    HW120216   5.623   1.177   1.576
 6439SOL    HW220217   5.527   1.045   1.576
 6440SOL     OW20218   2.376   1.651   6.459
 6440SOL    HW120219   2.410   1.634   6.551
 6440SOL    HW220220   2.318   1.732   6.459
 6441SOL     OW20221   0.089   6.529   1.990
 6441SOL    HW120222   0.080   6.469   2.070
 6441SOL    HW220223   0.138   6.612   2.017
 6442SOL     OW20224   2.260   0.866   4.362
 6442SOL    HW120225   2.323   0.800   4.320
 6442SOL    HW220226   2.292   0.959   4.342
 6443SOL     OW20227   4.109   2.375   5.363
 6443SOL    HW120228   4.125   2.464   5.321
 6443SOL    HW220229   4.074   2.311   5.295
 6444SOL     OW20230   6.473   3.105   4.004
 6444SOL    HW120231   6.572   3.098   4.019
 6444SOL    HW220232   6.427   3.111   4.092
 6445SOL     OW20233   4.291   3.391   5.549
 6445SOL    HW120234   4.251   3.463   5.607
 6445SOL    HW220235   4.361   3.432   5.490
 6446SOL     OW20236   1.756   1.261   6.469
 6446SOL    HW120237   1.678   1.253   6.530
 6446SOL    HW220238   1.724   1.267   6.374
 6447SOL     OW20239   5.500   4.889   3.156
 6447SOL    HW120240   5.537   4.871   3.065
 6447SOL    HW220241   5.467   4.983   3.162
 6448SOL     OW20242   4.078   5.977   2.149
 6448SOL    HW120243   4.149   5.906   2.150
 6448SOL    HW220244   4.012   5.957   2.077
 6449SOL     OW20245   2.871   5.014   0.389
 6449SOL    HW120246   2.934   5.092   0.385
 6449SOL    HW220247   2.876   4.963   0.303
 6450SOL     OW20248   1.237   3.957   0.964
 6450SOL    HW120249   1.323   3.982   0.920
 6450SOL    HW220250   1.165   4.018   0.934
 6451SOL     OW20251   2.821   0.482   4.770
 6451SOL    HW120252   2.852   0.389   4.788
 6451SOL    HW220253   2.890   0.531   4.719
 6452SOL     OW20254   3.891   6.553   4.558
 6452SOL    HW120255   3.942   6.491   4.617
 6452SOL    HW220256   3.924   6.646   4.571
 6453SOL     OW20257   2.611   6.272   1.060
 6453SOL    HW120258   2.661   6.258   0.974
 6453SOL    HW220259   2.617   6.189   1.116
 6454SOL     OW20260   2.191   1.665   3.553
 6454SOL    HW120261   2.259   1.672   3.481
 6454SOL    HW220262   2.204   1.579   3.603
 6455SOL     OW20263   0.258   2.839   3.904
 6455SOL    HW120264   0.341   2.895   3.908
 6455SOL    HW220265   0.179   2.898   3.893
 6456SOL     OW20266   1.547   0.975   3.655
 6456SOL    HW120267   1.637   0.984   3.612
 6456SOL    HW220268   1.520   0.879   3.657
 6457SOL     OW20269   5.553   1.535   0.801
 6457SOL    HW120270   5.461   1.571   0.820
 6457SOL    HW220271   5.619   1.583   0.858
 6458SOL     OW20272   0.852   6.879   3.775
 6458SOL    HW120273   0.808   6.941   3.839
 6458SOL    HW220274   0.890   6.801   3.824
 6459SOL     OW20275   6.176   3.925   0.439
 6459SOL    HW120276   6.238   3.998   0.470
 6459SOL    HW220277   6.133   3.953   0.353
 6460SOL     OW20278   5.124   6.397   5.854
 6460SOL    HW120279   5.076   6.311   5.871
 6460SOL    HW220280   5.143   6.443   5.941
 6461SOL     OW20281   2.289   4.776   5.746
 6461SOL    HW120282   2.222   4.836   5.702
 6461SOL    HW220283   2.358   4.832   5.792
 6462SOL     OW20284   2.521   2.540   4.811
 6462SOL    HW120285   2.609   2.495   4.823
 6462SOL    HW220286   2.452   2.495   4.869
 6463SOL     OW20287   6.492   3.539   6.676
 6463SOL    HW120288   6.435   3.581   6.746
 6463SOL    HW220289   6.522   3.449   6.706
 6464SOL     OW20290   1.290   5.852   4.407
 6464SOL    HW120291   1.388   5.870   4.407
 6464SOL    HW220292   1.260   5.830   4.314
 6465SOL     OW20293   6.521   2.908   3.145
 6465SOL    HW120294   6.532   2.810   3.132
 6465SOL    HW220295   6.589   2.957   3.089
 6466SOL     OW20296   1.365   1.584   6.433
 6466SOL    HW120297   1.300   1.580   6.357
 6466SOL    HW220298   1.457   1.569   6.399
 6467SOL     OW20299   2.895   1.427   6.897
 6467SOL    HW120300   2.964   1.360   6.869
 6467SOL    HW220301   2.931   1.482   6.973
 6468SOL     OW20302   3.572   6.173   0.248
 6468SOL    HW120303   3.517   6.235   0.192
 6468SOL    HW220304   3.666   6.172   0.213
 6469SOL     OW20305   5.192   0.989   4.759
 6469SOL    HW120306   5.241   1.042   4.829
 6469SOL    HW220307   5.213   1.026   4.669
 6470SOL     OW20308   6.155   4.252   0.631
 6470SOL    HW120309   6.140   4.346   0.602
 6470SOL    HW220310   6.241   4.218   0.591
 6471SOL     OW20311   6.538   6.606   5.691
 6471SOL    HW120312   6.545   6.626   5.789
 6471SOL    HW220313   6.443   6.585   5.668
 6472SOL     OW20314   0.637   5.955   1.190
 6472SOL    HW120315   0.628   5.960   1.290
 6472SOL    HW220316   0.720   5.903   1.167
 6473SOL     OW20317   3.367   1.274   4.733
 6473SOL    HW120318   3.390   1.307   4.641
 6473SOL    HW220319   3.379   1.348   4.799
 6474SOL     OW20320   2.079   4.318   5.875
 6474SOL    HW120321   1.990   4.280   5.902
 6474SOL    HW220322   2.086   4.319   5.776
 6475SOL     OW20323   6.053   5.144   4.046
 6475SOL    HW120324   6.120   5.092   4.098
 6475SOL    HW220325   6.013   5.086   3.975
 6476SOL     OW20326   4.619   3.572   1.119
 6476SOL    HW120327   4.557   3.561   1.197
 6476SOL    HW220328   4.705   3.611   1.150
 6477SOL     OW20329   6.195   5.048   1.281
 6477SOL    HW120330   6.278   5.050   1.336
 6477SOL    HW220331   6.117   5.076   1.337
 6478SOL     OW20332   3.294   6.893   2.145
 6478SOL    HW120333   3.322   6.952   2.069
 6478SOL    HW220334   3.373   6.877   2.204
 6479SOL     OW20335   4.172   5.509   4.209
 6479SOL    HW120336   4.240   5.461   4.153
 6479SOL    HW220337   4.101   5.546   4.150
 6480SOL     OW20338   2.584   2.607   5.944
 6480SOL    HW120339   2.509   2.555   5.902
 6480SOL    HW220340   2.670   2.585   5.899
 6481SOL     OW20341   3.734   2.015   1.828
 6481SOL    HW120342   3.728   2.094   1.890
 6481SOL    HW220343   3.721   2.046   1.734
 6482SOL     OW20344   0.358   0.842   5.824
 6482SOL    HW120345   0.262   0.822   5.802
 6482SOL    HW220346   0.403   0.758   5.854
 6483SOL     OW20347   0.704   6.290   1.542
 6483SOL    HW120348   0.754   6.354   1.484
 6483SOL    HW220349   0.648   6.230   1.485
 6484SOL     OW20350   3.227   6.883   1.558
 6484SOL    HW120351   3.240   6.982   1.551
 6484SOL    HW220352   3.226   6.856   1.654
 6485SOL     OW20353   2.129   5.148   3.750
 6485SOL    HW120354   2.125   5.156   3.650
 6485SOL    HW220355   2.172   5.061   3.775
 6486SOL     OW20356   2.515   5.001   3.765
 6486SOL    HW120357   2.423   4.962   3.766
 6486SOL    HW220358   2.546   5.015   3.859
 6487SOL     OW20359   0.029   6.632   4.950
 6487SOL    HW120360   0.035   6.729   4.927
 6487SOL    HW220361   0.110   6.606   5.004
 6488SOL     OW20362   3.697   6.394   4.399
 6488SOL    HW120363   3.754   6.388   4.317
 6488SOL    HW220364   3.750   6.434   4.474
 6489SOL     OW20365   3.004   2.404   6.978
 6489SOL    HW120366   2.931   2.443   6.922
 6489SOL    HW220367   2.963   2.348   0.027
 6490SOL     OW20368   3.963   1.221   6.347
 6490SOL    HW120369   4.036   1.286   6.324
 6490SOL    HW220370   3.975   1.190   6.442
 6491SOL     OW20371   3.739   0.830   0.726
 6491SOL    HW120372   3.810   0.801   0.791
 6491SOL    HW220373   3.773   0.909   0.674
 6492SOL     OW20374   5.048   5.106   0.669
 6492SOL    HW120375   4.976   5.160   0.713
 6492SOL    HW220376   5.069   5.146   0.580
 6493SOL     OW20377   1.048   5.252   4.711
 6493SOL    HW120378   1.136   5.226   4.670
 6493SOL    HW220379   0.986   5.174   4.707
 6494SOL     OW20380   0.173   0.980   3.431
 6494SOL    HW120381   0.141   0.910   3.496
 6494SOL    HW220382   0.114   1.060   3.437
 6495SOL     OW20383   5.301   6.519   4.527
 6495SOL    HW120384   5.345   6.549   4.612
 6495SOL    HW220385   5.355   6.445   4.486
 6496SOL     OW20386   6.811   0.797   3.096
 6496SOL    HW120387   6.864   0.733   3.041
 6496SOL    HW220388   6.713   0.784   3.078
 6497SOL     OW20389   2.425   2.698   1.067
 6497SOL    HW120390   2.356   2.716   0.998
 6497SOL    HW220391   2.416   2.764   1.142
 6498SOL     OW20392   2.338   4.231   3.637
 6498SOL    HW120393   2.330   4.191   3.546
 6498SOL    HW220394   2.375   4.324   3.629
 6499SOL     OW20395   5.055   2.763   5.003
 6499SOL    HW120396   5.108   2.846   4.985
 6499SOL    HW220397   5.028   2.761   5.099
 6500SOL     OW20398   6.958   4.033   3.957
 6500SOL    HW120399   6.962   4.030   4.056
 6500SOL    HW220400   0.027   4.036   3.920
 6501SOL     OW20401   6.687   2.329   7.002
 6501SOL    HW120402   6.732   2.392   6.938
 6501SOL    HW220403   6.692   2.367   0.070
 6502SOL     OW20404   6.182   2.829   1.590
 6502SOL    HW120405   6.277   2.838   1.620
 6502SOL    HW220406   6.127   2.789   1.664
 6503SOL     OW20407   4.737   1.286   3.122
 6503SOL    HW120408   4.768   1.265   3.214
 6503SOL    HW220409   4.640   1.308   3.123
 6504SOL     OW20410   4.774   6.060   5.661
 6504SOL    HW120411   4.735   6.152   5.668
 6504SOL    HW220412   4.806   6.031   5.751
 6505SOL     OW20413   5.654   6.169   1.430
 6505SOL    HW120414   5.723   6.205   1.493
 6505SOL    HW220415   5.563   6.191   1.463
 6506SOL     OW20416   6.473   2.660   1.953
 6506SOL    HW120417   6.411   2.701   2.020
 6506SOL    HW220418   6.423   2.639   1.869
 6507SOL     OW20419   2.109   4.946   5.366
 6507SOL    HW120420   2.190   4.887   5.376
 6507SOL    HW220421   2.045   4.905   5.302
 6508SOL     OW20422   1.542   1.045   2.582
 6508SOL    HW120423   1.513   1.114   2.648
 6508SOL    HW220424   1.467   1.025   2.519
 6509SOL     OW20425   3.236   2.182   4.583
 6509SOL    HW120426   3.162   2.174   4.516
 6509SOL    HW220427   3.305   2.245   4.548
 6510SOL     OW20428   6.962   4.630   7.023
 6510SOL    HW120429   6.919   4.600   6.938
 6510SOL    HW220430   6.915   4.711   0.033
 6511SOL     OW20431   4.461   1.342   4.485
 6511SOL    HW120432   4.454   1.435   4.521
 6511SOL    HW220433   4.523   1.341   4.407
 6512SOL     OW20434   4.815   6.503   1.597
 6512SOL    HW120435   4.749   6.507   1.672
 6512SOL    HW220436   4.854   6.411   1.592
 6513SOL     OW20437   3.106   5.413   3.226
 6513SOL    HW120438   3.149   5.366   3.148
 6513SOL    HW220439   3.142   5.374   3.311
 6514SOL     OW20440   5.502   1.099   4.052
 6514SOL    HW120441   5.496   0.999   4.055
 6514SOL    HW220442   5.529   1.128   3.960
 6515SOL     OW20443   0.213   5.202   4.700
 6515SOL    HW120444   0.153   5.283   4.699
 6515SOL    HW220445   0.296   5.222   4.648
 6516SOL     OW20446   0.218   3.352   1.853
 6516SOL    HW120447   0.213   3.294   1.773
 6516SOL    HW220448   0.171   3.439   1.835
 6517SOL     OW20449   6.250   0.492   0.495
 6517SOL    HW120450   6.199   0.413   0.526
 6517SOL    HW220451   6.190   0.572   0.491
 6518SOL     OW20452   6.706   6.554   6.733
 6518SOL    HW120453   6.703   6.568   6.634
 6518SOL    HW220454   6.801   6.555   6.764
 6519SOL     OW20455   2.107   1.368   3.487
 6519SOL    HW120456   2.110   1.421   3.571
 6519SOL    HW220457   2.198   1.329   3.469
 6520SOL     OW20458   5.277   5.502   2.343
 6520SOL    HW120459   5.285   5.541   2.251
 6520SOL    HW220460   5.184   5.468   2.357
 6521SOL     OW20461   2.107   3.279   4.555
 6521SOL    HW120462   2.112   3.329   4.469
 6521SOL    HW220463   2.186   3.218   4.563
 6522SOL     OW20464   4.099   4.444   0.177
 6522SOL    HW120465   4.082   4.486   0.088
 6522SOL    HW220466   4.180   4.486   0.218
 6523SOL     OW20467   4.050   1.125   6.607
 6523SOL    HW120468   4.014   1.198   6.666
 6523SOL    HW220469   4.149   1.136   6.597
 6524SOL     OW20470   2.791   4.002   1.619
 6524SOL    HW120471   2.794   3.988   1.520
 6524SOL    HW220472   2.852   4.077   1.643
 6525SOL     OW20473   1.792   4.874   2.469
 6525SOL    HW120474   1.870   4.876   2.407
 6525SOL    HW220475   1.800   4.947   2.536
 6526SOL     OW20476   2.135   6.750   6.443
 6526SOL    HW120477   2.187   6.757   6.358
 6526SOL    HW220478   2.192   6.783   6.519
 6527SOL     OW20479   0.633   2.700   4.443
 6527SOL    HW120480   0.649   2.605   4.469
 6527SOL    HW220481   0.643   2.758   4.524
 6528SOL     OW20482   6.952   0.826   4.773
 6528SOL    HW120483   6.891   0.899   4.742
 6528SOL    HW220484   6.979   0.770   4.694
 6529SOL     OW20485   0.938   1.516   2.664
 6529SOL    HW120486   0.987   1.438   2.624
 6529SOL    HW220487   0.958   1.598   2.610
 6530SOL     OW20488   0.179   3.667   0.598
 6530SOL    HW120489   0.107   3.597   0.594
 6530SOL    HW220490   0.268   3.623   0.591
 6531SOL     OW20491   5.539   3.301   4.646
 6531SOL    HW120492   5.483   3.340   4.573
 6531SOL    HW220493   5.635   3.324   4.630
 6532SOL     OW20494   6.302   0.667   0.054
 6532SOL    HW120495   6.228   0.735   0.056
 6532SOL    HW220496   6.387   0.709   0.087
 6533SOL     OW20497   4.444   6.946   1.397
 6533SOL    HW120498   4.504   6.941   1.317
 6533SOL    HW220499   4.427   6.854   1.432
 6534SOL     OW20500   3.325   4.264   1.350
 6534SOL    HW120501   3.266   4.246   1.428
 6534SOL    HW220502   3.271   4.261   1.265
 6535SOL     OW20503   6.207   4.031   4.570
 6535SOL    HW120504   6.180   4.069   4.481
 6535SOL    HW220505   6.238   3.937   4.557
 6536SOL     OW20506   1.080   1.301   5.657
 6536SOL    HW120507   0.994   1.327   5.701
 6536SOL    HW220508   1.155   1.355   5.695
 6537SOL     OW20509   6.664   5.092   0.149
 6537SOL    HW120510   6.638   5.188   0.160
 6537SOL    HW220511   6.693   5.077   0.054
 6538SOL     OW20512   2.725   3.184   6.555
 6538SOL    HW120513   2.665   3.193   6.635
 6538SOL    HW220514   2.689   3.238   6.480
 6539SOL     OW20515   3.309   0.723   6.395
 6539SOL    HW120516   3.399   0.758   6.370
 6539SOL    HW220517   3.319   0.637   6.444
 6540SOL     OW20518   4.962   1.496   5.225
 6540SOL    HW120519   4.890   1.446   5.273
 6540SOL    HW220520   5.040   1.509   5.286
 6541SOL     OW20521   4.731   1.677   5.427
 6541SOL    HW120522   4.644   1.632   5.408
 6541SOL    HW220523   4.726   1.773   5.401
 6542SOL     OW20524   6.377   4.449   4.213
 6542SOL    HW120525   6.456   4.510   4.210
 6542SOL    HW220526   6.368   4.401   4.126
 6543SOL     OW20527   5.809   3.079   5.828
 6543SOL    HW120528   5.829   3.177   5.836
 6543SOL    HW220529   5.777   3.059   5.736
 6544SOL     OW20530   0.438   5.948   2.516
 6544SOL    HW120531   0.483   5.975   2.431
 6544SOL    HW220532   0.501   5.893   2.571
 6545SOL     OW20533   4.919   1.806   0.329
 6545SOL    HW120534   4.968   1.865   0.264
 6545SOL    HW220535   4.898   1.719   0.284
 6546SOL     OW20536   3.754   4.551   6.864
 6546SOL    HW120537   3.737   4.619   6.935
 6546SOL    HW220538   3.668   4.505   6.841
 6547SOL     OW20539   4.767   1.410   5.951
 6547SOL    HW120540   4.770   1.492   5.894
 6547SOL    HW220541   4.711   1.428   6.032
 6548SOL     OW20542   1.037   4.387   6.873
 6548SOL    HW120543   1.075   4.309   6.822
 6548SOL    HW220544   0.952   4.416   6.830
 6549SOL     OW20545   4.711   0.594   1.233
 6549SOL    HW120546   4.615   0.569   1.244
 6549SOL    HW220547   4.768   0.523   1.275
 6550SOL     OW20548   0.656   6.855   4.230
 6550SOL    HW120549   0.597   6.825   4.156
 6550SOL    HW220550   0.668   6.781   4.297
 6551SOL     OW20551   1.074   4.929   2.840
 6551SOL    HW120552   1.095   4.931   2.742
 6551SOL    HW220553   1.139   4.868   2.886
 6552SOL     OW20554   1.937   6.903   5.478
 6552SOL    HW120555   1.899   6.976   5.421
 6552SOL    HW220556   1.957   6.940   5.569
 6553SOL     OW20557   0.347   1.806   3.080
 6553SOL    HW120558   0.338   1.723   3.135
 6553SOL    HW220559   0.424   1.860   3.113
 6554SOL     OW20560   6.053   1.216   5.101
 6554SOL    HW120561   6.136   1.178   5.142
 6554SOL    HW220562   5.999   1.262   5.172
 6555SOL     OW20563   0.134   1.996   2.310
 6555SOL    HW120564   0.058   2.054   2.339
 6555SOL    HW220565   0.169   1.945   2.388
 6556SOL     OW20566   5.129   4.093   4.933
 6556SOL    HW120567   5.045   4.050   4.900
 6556SOL    HW220568   5.112   4.138   5.021
 6557SOL     OW20569   3.349   5.972   1.253
 6557SOL    HW120570   3.398   6.054   1.283
 6557SOL    HW220571   3.334   5.976   1.154
 6558SOL     OW20572   6.236   4.648   0.136
 6558SOL    HW120573   6.184   4.563   0.127
 6558SOL    HW220574   6.253   4.687   0.045
 6559SOL     OW20575   0.844   4.141   6.030
 6559SOL    HW120576   0.940   4.167   6.044
 6559SOL    HW220577   0.788   4.223   6.022
 6560SOL     OW20578   4.092   4.689   0.863
 6560SOL    HW120579   4.119   4.759   0.930
 6560SOL    HW220580   3.993   4.694   0.848
 6561SOL     OW20581   3.748   3.911   2.264
 6561SOL    HW120582   3.693   3.849   2.319
 6561SOL    HW220583   3.709   4.003   2.267
 6562SOL     OW20584   5.563   4.018   0.767
 6562SOL    HW120585   5.628   4.089   0.792
 6562SOL    HW220586   5.584   3.986   0.674
 6563SOL     OW20587   6.228   6.789   0.639
 6563SOL    HW120588   6.191   6.844   0.564
 6563SOL    HW220589   6.327   6.782   0.630
 6564SOL     OW20590   7.006   4.287   3.000
 6564SOL    HW120591   0.051   4.232   2.954
 6564SOL    HW220592   7.015   4.383   2.972
 6565SOL     OW20593   6.661   2.645   3.994
 6565SOL    HW120594   6.731   2.659   3.924
 6565SOL    HW220595   6.675   2.558   4.040
 6566SOL     OW20596   3.302   6.284   2.883
 6566SOL    HW120597   3.208   6.309   2.861
 6566SOL    HW220598   3.322   6.193   2.848
 6567SOL     OW20599   4.085   1.409   1.481
 6567SOL    HW120600   4.115   1.469   1.556
 6567SOL    HW220601   4.035   1.331   1.519
 6568SOL     OW20602   4.282   0.818   3.571
 6568SOL    HW120603   4.253   0.736   3.621
 6568SOL    HW220604   4.205   0.855   3.520
 6569SOL     OW20605   2.987   3.512   6.544
 6569SOL    HW120606   2.928   3.527   6.464
 6569SOL    HW220607   3.026   3.599   6.572
 6570SOL     OW20608   3.866   0.040   2.370
 6570SOL    HW120609   3.877   6.981   2.317
 6570SOL    HW220610   3.905   0.118   2.320
 6571SOL     OW20611   2.370   5.539   2.170
 6571SOL    HW120612   2.372   5.592   2.086
 6571SOL    HW220613   2.464   5.515   2.196
 6572SOL     OW20614   6.811   5.104   5.694
 6572SOL    HW120615   6.814   5.179   5.628
 6572SOL    HW220616   6.780   5.138   5.782
 6573SOL     OW20617   2.603   1.428   2.048
 6573SOL    HW120618   2.540   1.418   2.126
 6573SOL    HW220619   2.554   1.467   1.970
 6574SOL     OW20620   3.315   6.045   2.746
 6574SOL    HW120621   3.384   5.975   2.764
 6574SOL    HW220622   3.343   6.101   2.669
 6575SOL     OW20623   1.212   0.216   2.143
 6575SOL    HW120624   1.200   0.300   2.090
 6575SOL    HW220625   1.128   0.162   2.139
 6576SOL     OW20626   2.330   5.956   6.474
 6576SOL    HW120627   2.281   6.028   6.523
 6576SOL    HW220628   2.336   5.981   6.377
 6577SOL     OW20629   0.818   1.126   4.118
 6577SOL    HW120630   0.793   1.045   4.065
 6577SOL    HW220631   0.835   1.203   4.056
 6578SOL     OW20632   0.809   4.150   3.149
 6578SOL    HW120633   0.884   4.092   3.114
 6578SOL    HW220634   0.833   4.246   3.135
 6579SOL     OW20635   0.302   3.399   5.034
 6579SOL    HW120636   0.235   3.329   5.058
 6579SOL    HW220637   0.258   3.468   4.976
 6580SOL     OW20638   6.318   2.119   1.005
 6580SOL    HW120639   6.228   2.118   0.961
 6580SOL    HW220640   6.323   2.195   1.069
 6581SOL     OW20641   2.515   1.600   0.335
 6581SOL    HW120642   2.585   1.628   0.400
 6581SOL    HW220643   2.473   1.514   0.365
 6582SOL     OW20644   1.227   1.340   1.640
 6582SOL    HW120645   1.287   1.402   1.691
 6582SOL    HW220646   1.134   1.376   1.642
 6583SOL     OW20647   3.684   6.965   4.695
 6583SOL    HW120648   3.717   6.953   4.789
 6583SOL    HW220649   3.592   6.927   4.687
 6584SOL     OW20650   4.478   2.001   0.133
 6584SOL    HW120651   4.504   1.945   0.054
 6584SOL    HW220652   4.404   2.063   0.108
 6585SOL     OW20653   6.538   6.573   0.305
 6585SOL    HW120654   6.469   6.595   0.374
 6585SOL    HW220655   6.547   6.650   0.242
 6586SOL     OW20656   6.319   2.118   5.807
 6586SOL    HW120657   6.355   2.104   5.899
 6586SOL    HW220658   6.268   2.038   5.777
 6587SOL     OW20659   2.821   5.955   5.196
 6587SOL    HW120660   2.736   6.006   5.192
 6587SOL    HW220661   2.866   5.957   5.107
 6588SOL     OW20662   1.316   3.989   1.891
 6588SOL    HW120663   1.357   3.913   1.841
 6588SOL    HW220664   1.261   3.953   1.967
 6589SOL     OW20665   5.252   0.342   0.636
 6589SOL    HW120666   5.214   0.296   0.716
 6589SOL    HW220667   5.189   0.331   0.559
 6590SOL     OW20668   0.978   1.162   5.327
 6590SOL    HW120669   0.923   1.231   5.281
 6590SOL    HW220670   1.070   1.198   5.343
 6591SOL     OW20671   5.436   5.955   1.644
 6591SOL    HW120672   5.431   6.006   1.731
 6591SOL    HW220673   5.454   5.859   1.663
 6592SOL     OW20674   6.075   7.023   4.113
 6592SOL    HW120675   6.156   0.057   4.116
 6592SOL    HW220676   6.042   7.006   4.206
 6593SOL     OW20677   2.617   1.966   3.000
 6593SOL    HW120678   2.625   1.916   3.086
 6593SOL    HW220679   2.702   1.957   2.948
 6594SOL     OW20680   3.925   1.832   0.193
 6594SOL    HW120681   4.003   1.776   0.221
 6594SOL    HW220682   3.843   1.774   0.190
 6595SOL     OW20683   0.836   3.227   0.278
 6595SOL    HW120684   0.906   3.241   0.348
 6595SOL    HW220685   0.843   3.298   0.209
 6596SOL     OW20686   3.355   6.600   4.284
 6596SOL    HW120687   3.291   6.665   4.324
 6596SOL    HW220688   3.446   6.614   4.323
 6597SOL     OW20689   2.754   6.345   2.210
 6597SOL    HW120690   2.724   6.404   2.285
 6597SOL    HW220691   2.853   6.355   2.197
 6598SOL     OW20692   1.074   6.742   3.927
 6598SOL    HW120693   1.064   6.645   3.908
 6598SOL    HW220694   1.162   6.760   3.970
 6599SOL     OW20695   5.019   6.619   5.362
 6599SOL    HW120696   5.084   6.549   5.390
 6599SOL    HW220697   5.033   6.702   5.416
 6600SOL     OW20698   5.177   5.139   6.031
 6600SOL    HW120699   5.100   5.092   5.987
 6600SOL    HW220700   5.146   5.228   6.065
 6601SOL     OW20701   1.039   1.975   5.631
 6601SOL    HW120702   0.955   1.948   5.584
 6601SOL    HW220703   1.108   1.904   5.619
 6602SOL     OW20704   0.710   1.706   1.637
 6602SOL    HW120705   0.767   1.664   1.565
 6602SOL    HW220706   0.679   1.635   1.700
 6603SOL     OW20707   0.519   2.975   3.875
 6603SOL    HW120708   0.534   2.963   3.973
 6603SOL    HW220709   0.472   3.062   3.859
 6604SOL     OW20710   2.157   6.930   1.031
 6604SOL    HW120711   2.083   6.865   1.011
 6604SOL    HW220712   2.179   6.982   0.948
 6605SOL     OW20713   5.842   4.229   1.557
 6605SOL    HW120714   5.899   4.263   1.632
 6605SOL    HW220715   5.820   4.133   1.572
 6606SOL     OW20716   6.748   6.382   2.512
 6606SOL    HW120717   6.785   6.289   2.504
 6606SOL    HW220718   6.670   6.382   2.575
 6607SOL     OW20719   1.516   2.929   2.454
 6607SOL    HW120720   1.548   3.018   2.421
 6607SOL    HW220721   1.589   2.884   2.505
 6608SOL     OW20722   6.066   6.413   1.871
 6608SOL    HW120723   6.154   6.367   1.872
 6608SOL    HW220724   6.013   6.385   1.952
 6609SOL     OW20725   4.899   1.191   5.887
 6609SOL    HW120726   4.820   1.136   5.915
 6609SOL    HW220727   4.877   1.288   5.895
 6610SOL     OW20728   2.365   0.754   6.793
 6610SOL    HW120729   2.275   0.721   6.764
 6610SOL    HW220730   2.359   0.788   6.887
 6611SOL     OW20731   6.259   3.033   3.773
 6611SOL    HW120732   6.244   2.984   3.687
 6611SOL    HW220733   6.352   3.016   3.806
 6612SOL     OW20734   6.120   1.955   6.795
 6612SOL    HW120735   6.149   1.999   6.710
 6612SOL    HW220736   6.073   2.021   6.853
 6613SOL     OW20737   6.710   6.603   5.227
 6613SOL    HW120738   6.647   6.671   5.264
 6613SOL    HW220739   6.740   6.541   5.299
 6614SOL     OW20740   5.553   5.893   0.670
 6614SOL    HW120741   5.603   5.820   0.717
 6614SOL    HW220742   5.610   5.975   0.665
 6615SOL     OW20743   1.051   4.837   2.563
 6615SOL    HW120744   0.975   4.772   2.554
 6615SOL    HW220745   1.100   4.841   2.476
 6616SOL     OW20746   3.861   1.282   5.997
 6616SOL    HW120747   3.831   1.188   6.015
 6616SOL    HW220748   3.952   1.296   6.036
 6617SOL     OW20749   3.300   5.253   2.736
 6617SOL    HW120750   3.315   5.168   2.685
 6617SOL    HW220751   3.256   5.320   2.677
 6618SOL     OW20752   1.182   2.865   2.901
 6618SOL    HW120753   1.233   2.877   2.817
 6618SOL    HW220754   1.132   2.779   2.898
 6619SOL     OW20755   6.187   0.239   4.374
 6619SOL    HW120756   6.106   0.236   4.433
 6619SOL    HW220757   6.223   0.332   4.371
 6620SOL     OW20758   1.706   2.779   5.306
 6620SOL    HW120759   1.647   2.859   5.293
 6620SOL    HW220760   1.736   2.775   5.401
 6621SOL     OW20761   2.055   3.330   6.180
 6621SOL    HW120762   2.116   3.279   6.120
 6621SOL    HW220763   2.064   3.297   6.273
 6622SOL     OW20764   6.123   0.206   1.806
 6622SOL    HW120765   6.124   0.306   1.796
 6622SOL    HW220766   6.192   0.166   1.745
 6623SOL     OW20767   2.220   3.064   6.249
 6623SOL    HW120768   2.228   3.121   6.167
 6623SOL    HW220769   2.283   3.097   6.319
 6624SOL     OW20770   0.870   6.129   4.396
 6624SOL    HW120771   0.948   6.070   4.416
 6624SOL    HW220772   0.862   6.199   4.467
 6625SOL     OW20773   5.063   1.911   5.434
 6625SOL    HW120774   5.024   1.930   5.524
 6625SOL    HW220775   4.992   1.922   5.364
 6626SOL     OW20776   4.613   5.348   5.679
 6626SOL    HW120777   4.541   5.402   5.722
 6626SOL    HW220778   4.586   5.324   5.585
 6627SOL     OW20779   2.465   0.465   5.411
 6627SOL    HW120780   2.525   0.433   5.338
 6627SOL    HW220781   2.403   0.392   5.438
 6628SOL     OW20782   4.470   4.581   4.569
 6628SOL    HW120783   4.504   4.561   4.661
 6628SOL    HW220784   4.536   4.548   4.502
 6629SOL     OW20785   4.288   6.106   0.263
 6629SOL    HW120786   4.337   6.032   0.308
 6629SOL    HW220787   4.321   6.194   0.297
 6630SOL     OW20788   3.920   1.211   1.707
 6630SOL    HW120789   3.870   1.124   1.708
 6630SOL    HW220790   3.917   1.252   1.798
 6631SOL     OW20791   2.658   6.133   2.729
 6631SOL    HW120792   2.612   6.220   2.713
 6631SOL    HW220793   2.751   6.150   2.760
 6632SOL     OW20794   0.717   5.948   1.444
 6632SOL    HW120795   0.812   5.969   1.421
 6632SOL    HW220796   0.714   5.889   1.524
 6633SOL     OW20797   0.734   4.238   6.548
 6633SOL    HW120798   0.785   4.230   6.462
 6633SOL    HW220799   0.637   4.224   6.531
 6634SOL     OW20800   5.969   2.297   4.019
 6634SOL    HW120801   5.911   2.278   3.940
 6634SOL    HW220802   6.033   2.222   4.034
 6635SOL     OW20803   3.789   4.869   3.065
 6635SOL    HW120804   3.774   4.964   3.038
 6635SOL    HW220805   3.726   4.809   3.015
 6636SOL     OW20806   5.083   2.541   5.522
 6636SOL    HW120807   5.014   2.537   5.595
 6636SOL    HW220808   5.094   2.636   5.492
 6637SOL     OW20809   1.562   7.019   6.262
 6637SOL    HW120810   1.502   6.980   6.192
 6637SOL    HW220811   1.509   0.050   6.326
 6638SOL     OW20812   3.314   3.974   4.002
 6638SOL    HW120813   3.286   3.920   4.081
 6638SOL    HW220814   3.390   4.034   4.028
 6639SOL     OW20815   5.810   4.819   6.427
 6639SOL    HW120816   5.868   4.901   6.430
 6639SOL    HW220817   5.866   4.740   6.402
 6640SOL     OW20818   1.324   1.757   5.361
 6640SOL    HW120819   1.393   1.685   5.360
 6640SOL    HW220820   1.345   1.824   5.290
 6641SOL     OW20821   2.240   2.221   0.095
 6641SOL    HW120822   2.267   2.314   0.070
 6641SOL    HW220823   2.313   2.158   0.071
 6642SOL     OW20824   3.111   4.909   6.248
 6642SOL    HW120825   3.187   4.899   6.312
 6642SOL    HW220826   3.059   4.991   6.271
 6643SOL     OW20827   6.606   5.428   0.415
 6643SOL    HW120828   6.629   5.385   0.327
 6643SOL    HW220829   6.512   5.404   0.440
 6644SOL     OW20830   2.673   4.698   2.147
 6644SOL    HW120831   2.714   4.658   2.065
 6644SOL    HW220832   2.632   4.627   2.203
 6645SOL     OW20833   6.635   5.087   0.467
 6645SOL    HW120834   6.672   5.004   0.509
 6645SOL    HW220835   6.697   5.118   0.395
 6646SOL     OW20836   3.854   0.045   5.171
 6646SOL    HW120837   3.940   0.002   5.200
 6646SOL    HW220838   3.802   7.006   5.114
 6647SOL     OW20839   4.148   0.937   2.082
 6647SOL    HW120840   4.188   1.001   2.147
 6647SOL    HW220841   4.194   0.947   1.993
 6648SOL     OW20842   4.069   6.778   2.731
 6648SOL    HW120843   4.023   6.860   2.698
 6648SOL    HW220844   4.027   6.747   2.816
 6649SOL     OW20845   5.666   0.825   6.707
 6649SOL    HW120846   5.588   0.864   6.658
 6649SOL    HW220847   5.641   0.735   6.742
 6650SOL     OW20848   3.220   1.696   5.250
 6650SOL    HW120849   3.292   1.637   5.287
 6650SOL    HW220850   3.261   1.783   5.220
 6651SOL     OW20851   2.072   1.565   6.077
 6651SOL    HW120852   2.171   1.560   6.083
 6651SOL    HW220853   2.038   1.638   6.135
 6652SOL     OW20854   6.970   4.036   0.653
 6652SOL    HW120855   0.010   3.969   0.689
 6652SOL    HW220856   6.876   4.006   0.672
 6653SOL     OW20857   3.474   2.862   2.341
 6653SOL    HW120858   3.434   2.914   2.266
 6653SOL    HW220859   3.416   2.783   2.362
 6654SOL     OW20860   1.665   3.675   1.660
 6654SOL    HW120861   1.675   3.661   1.562
 6654SOL    HW220862   1.745   3.637   1.708
 6655SOL     OW20863   1.844   6.997   2.358
 6655SOL    HW120864   1.922   6.979   2.418
 6655SOL    HW220865   1.800   0.058   2.386
 6656SOL     OW20866   5.651   1.869   2.413
 6656SOL    HW120867   5.660   1.772   2.437
 6656SOL    HW220868   5.575   1.881   2.350
 6657SOL     OW20869   5.880   5.992   6.483
 6657SOL    HW120870   5.939   5.994   6.564
 6657SOL    HW220871   5.891   5.904   6.437
 6658SOL     OW20872   5.918   1.311   5.313
 6658SOL    HW120873   5.977   1.377   5.359
 6658SOL    HW220874   5.824   1.346   5.312
 6659SOL     OW20875   2.138   2.670   0.607
 6659SOL    HW120876   2.072   2.745   0.614
 6659SOL    HW220877   2.089   2.584   0.593
 6660SOL     OW20878   0.987   5.596   0.410
 6660SOL    HW120879   1.053   5.666   0.435
 6660SOL    HW220880   0.908   5.601   0.471
 6661SOL     OW20881   1.138   6.358   4.898
 6661SOL    HW120882   1.056   6.409   4.927
 6661SOL    HW220883   1.157   6.377   4.802
 6662SOL     OW20884   0.919   1.453   0.350
 6662SOL    HW120885   0.861   1.429   0.428
 6662SOL    HW220886   0.956   1.545   0.364
 6663SOL     OW20887   0.124   5.453   3.922
 6663SOL    HW120888   0.033   5.414   3.936
 6663SOL    HW220889   0.178   5.445   4.006
 6664SOL     OW20890   2.784   6.053   7.012
 6664SOL    HW120891   2.686   6.069   0.000
 6664SOL    HW220892   2.829   6.140   6.993
 6665SOL     OW20893   1.582   6.816   3.712
 6665SOL    HW120894   1.505   6.835   3.651
 6665SOL    HW220895   1.656   6.881   3.692
 6666SOL     OW20896   5.385   6.906   5.732
 6666SOL    HW120897   5.319   6.980   5.720
 6666SOL    HW220898   5.385   6.876   5.828
 6667SOL     OW20899   6.376   5.800   6.534
 6667SOL    HW120900   6.315   5.831   6.607
 6667SOL    HW220901   6.328   5.733   6.477
 6668SOL     OW20902   6.876   5.690   1.740
 6668SOL    HW120903   6.888   5.733   1.830
 6668SOL    HW220904   6.957   5.636   1.717
 6669SOL     OW20905   2.023   2.366   3.862
 6669SOL    HW120906   2.045   2.449   3.811
 6669SOL    HW220907   2.104   2.333   3.911
 6670SOL     OW20908   4.054   2.480   5.609
 6670SOL    HW120909   4.086   2.403   5.664
 6670SOL    HW220910   4.059   2.455   5.512
 6671SOL     OW20911   5.643   5.707   1.353
 6671SOL    HW120912   5.670   5.802   1.335
 6671SOL    HW220913   5.543   5.701   1.356
 6672SOL     OW20914   6.711   1.779   6.153
 6672SOL    HW120915   6.613   1.793   6.168
 6672SOL    HW220916   6.738   1.690   6.189
 6673SOL     OW20917   5.203   5.797   3.752
 6673SOL    HW120918   5.152   5.880   3.778
 6673SOL    HW220919   5.244   5.810   3.662
 6674SOL     OW20920   0.990   4.790   5.523
 6674SOL    HW120921   0.982   4.693   5.497
 6674SOL    HW220922   1.000   4.846   5.441
 6675SOL     OW20923   4.770   3.387   1.796
 6675SOL    HW120924   4.671   3.404   1.792
 6675SOL    HW220925   4.792   3.303   1.746
 6676SOL     OW20926   6.697   4.601   5.810
 6676SOL    HW120927   6.619   4.580   5.751
 6676SOL    HW220928   6.754   4.671   5.766
 6677SOL     OW20929   0.764   1.835   6.243
 6677SOL    HW120930   0.744   1.880   6.156
 6677SOL    HW220931   0.809   1.747   6.225
 6678SOL     OW20932   2.918   3.278   6.716
 6678SOL    HW120933   2.860   3.218   6.661
 6678SOL    HW220934   2.936   3.362   6.665
 6679SOL     OW20935   2.337   1.763   3.778
 6679SOL    HW120936   2.306   1.735   3.687
 6679SOL    HW220937   2.308   1.857   3.795
 6680SOL     OW20938   4.699   0.505   6.279
 6680SOL    HW120939   4.759   0.583   6.261
 6680SOL    HW220940   4.607   0.525   6.245
 6681SOL     OW20941   4.426   5.423   0.706
 6681SOL    HW120942   4.363   5.381   0.641
 6681SOL    HW220943   4.414   5.379   0.796
 6682SOL     OW20944   1.715   4.527   3.348
 6682SOL    HW120945   1.763   4.597   3.401
 6682SOL    HW220946   1.705   4.444   3.404
 6683SOL     OW20947   5.883   2.972   5.158
 6683SOL    HW120948   5.865   3.021   5.073
 6683SOL    HW220949   5.828   2.888   5.160
 6684SOL     OW20950   2.450   6.580   1.507
 6684SOL    HW120951   2.438   6.490   1.464
 6684SOL    HW220952   2.542   6.614   1.487
 6685SOL     OW20953   5.976   2.935   6.206
 6685SOL    HW120954   5.904   3.001   6.184
 6685SOL    HW220955   6.004   2.887   6.122
 6686SOL     OW20956   5.308   5.751   4.846
 6686SOL    HW120957   5.395   5.781   4.886
 6686SOL    HW220958   5.323   5.719   4.753
 6687SOL     OW20959   1.163   2.835   0.091
 6687SOL    HW120960   1.079   2.878   0.123
 6687SOL    HW220961   1.214   2.799   0.170
 6688SOL     OW20962   6.878   4.479   1.605
 6688SOL    HW120963   6.960   4.534   1.621
 6688SOL    HW220964   6.904   4.394   1.559
 6689SOL     OW20965   4.648   3.283   6.909
 6689SOL    HW120966   4.605   3.230   6.982
 6689SOL    HW220967   4.639   3.381   6.929
 6690SOL     OW20968   2.521   0.586   1.251
 6690SOL    HW120969   2.565   0.570   1.163
 6690SOL    HW220970   2.446   0.522   1.263
 6691SOL     OW20971   2.977   6.431   1.148
 6691SOL    HW120972   2.901   6.416   1.210
 6691SOL    HW220973   3.001   6.528   1.148
 6692SOL     OW20974   3.925   3.884   5.498
 6692SOL    HW120975   3.965   3.865   5.588
 6692SOL    HW220976   3.979   3.838   5.427
 6693SOL     OW20977   4.357   3.905   5.715
 6693SOL    HW120978   4.391   3.923   5.623
 6693SOL    HW220979   4.427   3.856   5.768
 6694SOL     OW20980   5.077   5.117   0.962
 6694SOL    HW120981   5.146   5.137   0.892
 6694SOL    HW220982   5.060   5.019   0.964
 6695SOL     OW20983   2.548   1.345   6.760
 6695SOL    HW120984   2.483   1.324   6.687
 6695SOL    HW220985   2.640   1.352   6.721
 6696SOL     OW20986   0.959   3.054   6.012
 6696SOL    HW120987   0.882   3.112   5.986
 6696SOL    HW220988   1.043   3.108   6.012
 6697SOL     OW20989   4.529   2.558   2.598
 6697SOL    HW120990   4.538   2.587   2.503
 6697SOL    HW220991   4.619   2.548   2.639
 6698SOL     OW20992   3.008   2.748   1.060
 6698SOL    HW120993   3.040   2.722   1.151
 6698SOL    HW220994   2.961   2.836   1.065
 6699SOL     OW20995   3.195   5.042   6.017
 6699SOL    HW120996   3.123   5.099   5.979
 6699SOL    HW220997   3.161   4.994   6.098
 6700SOL     OW20998   6.816   6.806   0.591
 6700SOL    HW120999   6.892   6.868   0.614
 6700SOL    HW221000   6.816   6.729   0.654
 6701SOL     OW21001   5.594   2.609   1.503
 6701SOL    HW121002   5.508   2.594   1.454
 6701SOL    HW221003   5.583   2.585   1.599
 6702SOL     OW21004   2.494   2.360   1.594
 6702SOL    HW121005   2.506   2.280   1.536
 6702SOL    HW221006   2.570   2.367   1.658
 6703SOL     OW21007   6.418   2.140   0.059
 6703SOL    HW121008   6.494   2.203   0.042
 6703SOL    HW221009   6.379   2.159   0.149
 6704SOL     OW21010   3.468   2.069   2.813
 6704SOL    HW121011   3.371   2.079   2.789
 6704SOL    HW221012   3.479   2.084   2.911
 6705SOL     OW21013   6.680   1.958   1.275
 6705SOL    HW121014   6.692   1.992   1.182
 6705SOL    HW221015   6.761   1.982   1.330
 6706SOL     OW21016   1.184   3.814   2.058
 6706SOL    HW121017   1.120   3.787   1.986
 6706SOL    HW221018   1.157   3.771   2.144
 6707SOL     OW21019   0.247   6.112   3.629
 6707SOL    HW121020   0.206   6.201   3.607
 6707SOL    HW221021   0.233   6.092   3.725
 6708SOL     OW21022   0.230   5.364   2.071
 6708SOL    HW121023   0.238   5.426   2.150
 6708SOL    HW221024   0.317   5.363   2.021
 6709SOL     OW21025   2.710   0.038   2.013
 6709SOL    HW121026   2.737   0.100   1.939
 6709SOL    HW221027   2.712   0.087   2.100
 6710SOL     OW21028   2.999   0.877   5.633
 6710SOL    HW121029   2.926   0.883   5.701
 6710SOL    HW221030   2.960   0.866   5.542
 6711SOL     OW21031   5.097   5.142   0.394
 6711SOL    HW121032   5.016   5.139   0.335
 6711SOL    HW221033   5.175   5.176   0.341
 6712SOL     OW21034   4.656   5.225   0.404
 6712SOL    HW121035   4.714   5.278   0.466
 6712SOL    HW221036   4.650   5.271   0.316
 6713SOL     OW21037   2.719   1.189   1.962
 6713SOL    HW121038   2.696   1.274   2.008
 6713SOL    HW221039   2.802   1.150   2.002
 6714SOL     OW21040   6.265   1.154   6.915
 6714SOL    HW121041   6.332   1.172   6.843
 6714SOL    HW221042   6.303   1.088   6.980
 6715SOL     OW21043   6.985   0.079   6.182
 6715SOL    HW121044   6.925   0.088   6.261
 6715SOL    HW221045   0.056   0.084   6.211
 6716SOL     OW21046   0.532   5.651   1.486
 6716SOL    HW121047   0.534   5.728   1.550
 6716SOL    HW221048   0.565   5.569   1.531
 6717SOL     OW21049   4.477   2.692   0.619
 6717SOL    HW121050   4.440   2.744   0.542
 6717SOL    HW221051   4.411   2.622   0.646
 6718SOL     OW21052   4.853   0.026   6.183
 6718SOL    HW121053   4.941   0.056   6.145
 6718SOL    HW221054   4.785   0.025   6.110
 6719SOL     OW21055   1.631   6.846   6.459
 6719SOL    HW121056   1.606   6.916   6.392
 6719SOL    HW221057   1.730   6.837   6.463
 6720SOL     OW21058   0.560   5.613   3.685
 6720SOL    HW121059   0.513   5.701   3.680
 6720SOL    HW221060   0.643   5.622   3.739
 6721SOL     OW21061   6.246   0.651   5.712
 6721SOL    HW121062   6.188   0.726   5.744
 6721SOL    HW221063   6.267   0.590   5.789
 6722SOL     OW21064   6.794   3.616   1.445
 6722SOL    HW121065   6.792   3.668   1.530
 6722SOL    HW221066   6.704   3.578   1.426
 6723SOL     OW21067   1.686   6.892   2.847
 6723SOL    HW121068   1.587   6.882   2.845
 6723SOL    HW221069   1.715   6.920   2.938
 6724SOL     OW21070   0.979   4.088   5.472
 6724SOL    HW121071   0.926   4.153   5.417
 6724SOL    HW221072   1.067   4.071   5.428
 6725SOL     OW21073   1.096   4.033   1.220
 6725SOL    HW121074   1.039   3.959   1.183
 6725SOL    HW221075   1.171   4.051   1.157
 6726SOL     OW21076   0.607   2.453   4.905
 6726SOL    HW121077   0.524   2.399   4.894
 6726SOL    HW221078   0.634   2.492   4.817
 6727SOL     OW21079   6.365   3.600   5.603
 6727SOL    HW121080   6.424   3.519   5.603
 6727SOL    HW221081   6.275   3.574   5.639
 6728SOL     OW21082   4.350   1.325   3.996
 6728SOL    HW121083   4.389   1.268   4.068
 6728SOL    HW221084   4.413   1.399   3.974
 6729SOL     OW21085   0.057   1.546   2.337
 6729SOL    HW121086   0.127   1.475   2.344
 6729SOL    HW221087   0.060   1.604   2.418
 6730SOL     OW21088   2.732   6.353   6.849
 6730SOL    HW121089   2.803   6.361   6.779
 6730SOL    HW221090   2.654   6.410   6.825
 6731SOL     OW21091   1.330   4.984   1.400
 6731SOL    HW121092   1.333   5.041   1.318
 6731SOL    HW221093   1.247   4.929   1.399
 6732SOL     OW21094   4.618   5.074   5.891
 6732SOL    HW121095   4.541   5.136   5.875
 6732SOL    HW221096   4.702   5.127   5.900
 6733SOL     OW21097   4.095   4.872   0.558
 6733SOL    HW121098   4.054   4.784   0.532
 6733SOL    HW221099   4.185   4.857   0.597
 6734SOL     OW21100   6.582   2.459   4.759
 6734SOL    HW121101   6.570   2.550   4.719
 6734SOL    HW221102   6.607   2.394   4.687
 6735SOL     OW21103   6.984   4.742   4.390
 6735SOL    HW121104   0.047   4.742   4.439
 6735SOL    HW221105   6.909   4.753   4.456
 6736SOL     OW21106   3.483   3.689   0.327
 6736SOL    HW121107   3.423   3.621   0.368
 6736SOL    HW221108   3.561   3.706   0.387
 6737SOL     OW21109   2.233   2.782   0.869
 6737SOL    HW121110   2.300   2.843   0.828
 6737SOL    HW221111   2.181   2.736   0.798
 6738SOL     OW21112   1.970   3.942   2.735
 6738SOL    HW121113   1.933   4.029   2.768
 6738SOL    HW221114   2.033   3.905   2.803
 6739SOL     OW21115   3.600   4.522   5.630
 6739SOL    HW121116   3.574   4.527   5.534
 6739SOL    HW221117   3.679   4.581   5.646
 6740SOL     OW21118   1.836   1.404   4.694
 6740SOL    HW121119   1.782   1.482   4.723
 6740SOL    HW221120   1.934   1.425   4.703
 6741SOL     OW21121   4.559   1.291   5.783
 6741SOL    HW121122   4.642   1.311   5.731
 6741SOL    HW221123   4.486   1.353   5.754
 6742SOL     OW21124   6.402   5.621   2.664
 6742SOL    HW121125   6.313   5.581   2.687
 6742SOL    HW221126   6.458   5.553   2.617
 6743SOL     OW21127   4.251   4.238   0.675
 6743SOL    HW121128   4.223   4.333   0.691
 6743SOL    HW221129   4.336   4.220   0.723
 6744SOL     OW21130   5.262   5.939   5.983
 6744SOL    HW121131   5.284   6.028   6.023
 6744SOL    HW221132   5.196   5.952   5.909
 6745SOL     OW21133   0.828   6.536   2.084
 6745SOL    HW121134   0.828   6.636   2.077
 6745SOL    HW221135   0.811   6.509   2.178
 6746SOL     OW21136   0.720   1.189   3.245
 6746SOL    HW121137   0.796   1.197   3.180
 6746SOL    HW221138   0.645   1.139   3.203
 6747SOL     OW21139   5.394   0.440   5.019
 6747SOL    HW121140   5.333   0.400   5.088
 6747SOL    HW221141   5.412   0.371   4.948
 6748SOL     OW21142   1.193   0.341   3.318
 6748SOL    HW121143   1.225   0.433   3.337
 6748SOL    HW221144   1.106   0.345   3.270
 6749SOL     OW21145   2.838   5.613   0.435
 6749SOL    HW121146   2.824   5.523   0.393
 6749SOL    HW221147   2.930   5.646   0.413
 6750SOL     OW21148   4.503   1.005   5.206
 6750SOL    HW121149   4.416   1.019   5.160
 6750SOL    HW221150   4.578   1.013   5.141
 6751SOL     OW21151   3.675   1.279   3.542
 6751SOL    HW121152   3.654   1.194   3.590
 6751SOL    HW221153   3.606   1.348   3.565
 6752SOL     OW21154   6.706   2.985   2.929
 6752SOL    HW121155   6.699   3.085   2.928
 6752SOL    HW221156   6.728   2.952   2.837
 6753SOL     OW21157   4.494   1.009   6.347
 6753SOL    HW121158   4.509   1.107   6.346
 6753SOL    HW221159   4.457   0.980   6.259
 6754SOL     OW21160   6.808   1.099   6.801
 6754SOL    HW121161   6.750   1.101   6.882
 6754SOL    HW221162   6.774   1.165   6.734
 6755SOL     OW21163   4.606   1.668   3.254
 6755SOL    HW121164   4.546   1.718   3.315
 6755SOL    HW221165   4.555   1.594   3.210
 6756SOL     OW21166   4.398   4.570   4.206
 6756SOL    HW121167   4.318   4.629   4.198
 6756SOL    HW221168   4.412   4.544   4.301
 6757SOL     OW21169   4.397   0.123   1.579
 6757SOL    HW121170   4.410   0.079   1.490
 6757SOL    HW221171   4.436   0.215   1.577
 6758SOL     OW21172   6.445   3.433   0.943
 6758SOL    HW121173   6.514   3.361   0.931
 6758SOL    HW221174   6.441   3.460   1.039
 6759SOL     OW21175   0.856   3.748   4.747
 6759SOL    HW121176   0.944   3.704   4.730
 6759SOL    HW221177   0.841   3.821   4.680
 6760SOL     OW21178   6.749   5.087   4.203
 6760SOL    HW121179   6.828   5.123   4.252
 6760SOL    HW221180   6.666   5.131   4.238
 6761SOL     OW21181   6.275   2.581   6.425
 6761SOL    HW121182   6.261   2.604   6.328
 6761SOL    HW221183   6.370   2.600   6.450
 6762SOL     OW21184   6.756   5.499   3.221
 6762SOL    HW121185   6.838   5.460   3.264
 6762SOL    HW221186   6.749   5.595   3.247
 6763SOL     OW21187   6.687   5.751   3.723
 6763SOL    HW121188   6.633   5.834   3.736
 6763SOL    HW221189   6.633   5.683   3.672
 6764SOL     OW21190   3.360   4.959   6.380
 6764SOL    HW121191   3.319   4.925   6.464
 6764SOL    HW221192   3.411   4.885   6.336
 6765SOL     OW21193   4.959   4.865   3.703
 6765SOL    HW121194   5.037   4.817   3.741
 6765SOL    HW221195   4.915   4.808   3.633
 6766SOL     OW21196   4.374   0.096   6.590
 6766SOL    HW121197   4.301   0.034   6.560
 6766SOL    HW221198   4.369   0.108   6.689
 6767SOL     OW21199   0.627   2.595   0.603
 6767SOL    HW121200   0.573   2.547   0.672
 6767SOL    HW221201   0.615   2.551   0.514
 6768SOL     OW21202   0.664   6.594   3.939
 6768SOL    HW121203   0.644   6.590   3.841
 6768SOL    HW221204   0.729   6.522   3.963
 6769SOL     OW21205   2.943   0.752   5.128
 6769SOL    HW121206   2.932   0.793   5.037
 6769SOL    HW221207   3.038   0.723   5.141
 6770SOL     OW21208   6.770   2.332   3.385
 6770SOL    HW121209   6.672   2.319   3.392
 6770SOL    HW221210   6.808   2.269   3.318
 6771SOL     OW21211   3.308   1.490   2.989
 6771SOL    HW121212   3.335   1.568   2.933
 6771SOL    HW221213   3.305   1.408   2.932
 6772SOL     OW21214   5.436   2.009   2.772
 6772SOL    HW121215   5.413   2.102   2.743
 6772SOL    HW221216   5.384   1.944   2.718
 6773SOL     OW21217   0.112   6.955   1.445
 6773SOL    HW121218   0.106   0.027   1.471
 6773SOL    HW221219   0.126   6.948   1.346
 6774SOL     OW21220   1.729   2.302   4.646
 6774SOL    HW121221   1.825   2.279   4.631
 6774SOL    HW221222   1.723   2.389   4.695
 6775SOL     OW21223   0.370   2.350   3.420
 6775SOL    HW121224   0.465   2.372   3.398
 6775SOL    HW221225   0.342   2.398   3.503
 6776SOL     OW21226   4.006   3.338   1.396
 6776SOL    HW121227   3.908   3.318   1.393
 6776SOL    HW221228   4.056   3.254   1.417
 6777SOL     OW21229   4.325   5.439   1.107
 6777SOL    HW121230   4.334   5.363   1.043
 6777SOL    HW221231   4.384   5.514   1.078
 6778SOL     OW21232   5.986   3.240   2.403
 6778SOL    HW121233   5.996   3.228   2.502
 6778SOL    HW221234   5.909   3.302   2.385
 6779SOL     OW21235   5.139   4.874   6.846
 6779SOL    HW121236   5.098   4.873   6.937
 6779SOL    HW221237   5.225   4.925   6.849
 6780SOL     OW21238   2.114   3.465   2.602
 6780SOL    HW121239   2.196   3.410   2.589
 6780SOL    HW221240   2.098   3.477   2.700
 6781SOL     OW21241   6.803   1.372   3.369
 6781SOL    HW121242   6.704   1.354   3.363
 6781SOL    HW221243   6.818   1.465   3.402
 6782SOL     OW21244   0.891   0.889   3.710
 6782SOL    HW121245   0.850   0.799   3.695
 6782SOL    HW221246   0.868   0.949   3.634
 6783SOL     OW21247   0.705   3.685   4.969
 6783SOL    HW121248   0.724   3.733   5.054
 6783SOL    HW221249   0.759   3.725   4.895
 6784SOL     OW21250   2.158   4.209   2.047
 6784SOL    HW121251   2.202   4.186   1.960
 6784SOL    HW221252   2.059   4.207   2.035
 6785SOL     OW21253   5.674   5.264   5.646
 6785SOL    HW121254   5.636   5.241   5.736
 6785SOL    HW221255   5.661   5.361   5.628
 6786SOL     OW21256   6.571   3.221   6.637
 6786SOL    HW121257   6.578   3.156   6.712
 6786SOL    HW221258   6.661   3.259   6.617
 6787SOL     OW21259   2.864   2.259   1.159
 6787SOL    HW121260   2.866   2.164   1.128
 6787SOL    HW221261   2.949   2.304   1.132
 6788SOL     OW21262   0.221   3.999   2.583
 6788SOL    HW121263   0.173   4.086   2.574
 6788SOL    HW221264   0.187   3.950   2.664
 6789SOL     OW21265   0.112   4.964   4.216
 6789SOL    HW121266   0.134   5.057   4.245
 6789SOL    HW221267   0.095   4.907   4.296
 6790SOL     OW21268   0.297   4.344   6.752
 6790SOL    HW121269   0.274   4.393   6.836
 6790SOL    HW221270   0.375   4.387   6.707
 6791SOL     OW21271   3.881   1.871   3.384
 6791SOL    HW121272   3.813   1.872   3.310
 6791SOL    HW221273   3.959   1.815   3.357
 6792SOL     OW21274   4.377   0.116   5.594
 6792SOL    HW121275   4.374   0.117   5.694
 6792SOL    HW221276   4.327   0.195   5.558
 6793SOL     OW21277   3.241   2.035   6.822
 6793SOL    HW121278   3.198   1.955   6.780
 6793SOL    HW221279   3.170   2.096   6.858
 6794SOL     OW21280   4.738   1.350   5.603
 6794SOL    HW121281   4.671   1.400   5.549
 6794SOL    HW221282   4.741   1.255   5.572
 6795SOL     OW21283   0.824   6.779   7.018
 6795SOL    HW121284   0.886   6.772   0.071
 6795SOL    HW221285   0.730   6.770   0.026
 6796SOL     OW21286   5.676   0.704   2.674
 6796SOL    HW121287   5.670   0.693   2.773
 6796SOL    HW221288   5.644   0.796   2.649
 6797SOL     OW21289   6.758   1.596   0.699
 6797SOL    HW121290   6.768   1.517   0.759
 6797SOL    HW221291   6.762   1.565   0.603
 6798SOL     OW21292   6.253   0.060   1.574
 6798SOL    HW121293   6.255   0.153   1.539
 6798SOL    HW221294   6.346   0.027   1.587
 6799SOL     OW21295   5.057   0.484   2.620
 6799SOL    HW121296   5.087   0.447   2.708
 6799SOL    HW221297   5.089   0.578   2.611
 6800SOL     OW21298   2.094   2.542   1.546
 6800SOL    HW121299   2.030   2.618   1.535
 6800SOL    HW221300   2.154   2.537   1.467
 6801SOL     OW21301   0.519   0.034   3.639
 6801SOL    HW121302   0.512   0.047   3.540
 6801SOL    HW221303   0.427   0.036   3.679
 6802SOL     OW21304   3.459   5.825   0.239
 6802SOL    HW121305   3.480   5.922   0.247
 6802SOL    HW221306   3.439   5.803   0.143
 6803SOL     OW21307   4.848   3.666   0.138
 6803SOL    HW121308   4.913   3.600   0.175
 6803SOL    HW221309   4.790   3.700   0.212
 6804SOL     OW21310   3.111   4.872   2.600
 6804SOL    HW121311   3.057   4.876   2.516
 6804SOL    HW221312   3.181   4.943   2.598
 6805SOL     OW21313   0.738   5.117   0.018
 6805SOL    HW121314   0.706   5.211   0.008
 6805SOL    HW221315   0.828   5.107   7.000
 6806SOL     OW21316   6.726   0.656   4.099
 6806SOL    HW121317   6.822   0.677   4.080
 6806SOL    HW221318   6.711   0.558   4.088
 6807SOL     OW21319   3.451   3.674   3.084
 6807SOL    HW121320   3.525   3.665   3.018
 6807SOL    HW221321   3.392   3.594   3.080
 6808SOL     OW21322   5.548   1.076   5.141
 6808SOL    HW121323   5.631   1.099   5.090
 6808SOL    HW221324   5.521   1.153   5.198
 6809SOL     OW21325   6.179   3.876   1.048
 6809SOL    HW121326   6.083   3.867   1.072
 6809SOL    HW221327   6.198   3.828   0.962
 6810SOL     OW21328   3.518   1.004   3.356
 6810SOL    HW121329   3.530   1.060   3.274
 6810SOL    HW221330   3.588   0.933   3.358
 6811SOL     OW21331   6.875   3.104   2.357
 6811SOL    HW121332   6.842   3.010   2.346
 6811SOL    HW221333   6.857   3.135   2.450
 6812SOL     OW21334   3.591   3.424   4.756
 6812SOL    HW121335   3.622   3.481   4.680
 6812SOL    HW221336   3.548   3.482   4.825
 6813SOL     OW21337   5.760   3.304   2.894
 6813SOL    HW121338   5.734   3.212   2.867
 6813SOL    HW221339   5.678   3.361   2.900
 6814SOL     OW21340   4.894   1.548   6.780
 6814SOL    HW121341   4.942   1.468   6.745
 6814SOL    HW221342   4.902   1.623   6.715
 6815SOL     OW21343   1.641   5.681   6.748
 6815SOL    HW121344   1.563   5.743   6.738
 6815SOL    HW221345   1.619   5.593   6.707
 6816SOL     OW21346   6.863   1.488   4.300
 6816SOL    HW121347   6.770   1.496   4.263
 6816SOL    HW221348   6.928   1.499   4.225
 6817SOL     OW21349   2.786   2.327   4.184
 6817SOL    HW121350   2.723   2.251   4.203
 6817SOL    HW221351   2.811   2.372   4.270
 6818SOL     OW21352   1.756   6.451   6.990
 6818SOL    HW121353   1.656   6.440   6.986
 6818SOL    HW221354   1.783   6.531   6.936
 6819SOL     OW21355   4.215   0.120   2.191
 6819SOL    HW121356   4.291   0.185   2.192
 6819SOL    HW221357   4.129   0.171   2.197
 6820SOL     OW21358   1.257   5.709   1.374
 6820SOL    HW121359   1.201   5.640   1.420
 6820SOL    HW221360   1.199   5.786   1.345
 6821SOL     OW21361   4.475   2.652   6.049
 6821SOL    HW121362   4.460   2.659   6.148
 6821SOL    HW221363   4.539   2.724   6.021
 6822SOL     OW21364   6.918   2.768   6.723
 6822SOL    HW121365   6.989   2.805   6.662
 6822SOL    HW221366   6.950   2.680   6.759
 6823SOL     OW21367   4.850   4.410   6.195
 6823SOL    HW121368   4.950   4.412   6.205
 6823SOL    HW221369   4.818   4.499   6.161
 6824SOL     OW21370   1.784   1.351   0.232
 6824SOL    HW121371   1.695   1.374   0.273
 6824SOL    HW221372   1.783   1.376   0.135
 6825SOL     OW21373   6.334   5.945   0.632
 6825SOL    HW121374   6.431   5.921   0.620
 6825SOL    HW221375   6.285   5.928   0.547
 6826SOL     OW21376   0.832   3.586   3.442
 6826SOL    HW121377   0.926   3.600   3.475
 6826SOL    HW221378   0.798   3.497   3.472
 6827SOL     OW21379   4.865   5.230   5.746
 6827SOL    HW121380   4.783   5.275   5.711
 6827SOL    HW221381   4.908   5.177   5.672
 6828SOL     OW21382   3.676   1.594   2.427
 6828SOL    HW121383   3.743   1.594   2.353
 6828SOL    HW221384   3.608   1.666   2.411
 6829SOL     OW21385   5.374   0.085   5.441
 6829SOL    HW121386   5.302   0.019   5.463
 6829SOL    HW221387   5.445   0.040   5.387
 6830SOL     OW21388   6.025   1.300   3.649
 6830SOL    HW121389   6.071   1.388   3.638
 6830SOL    HW221390   6.046   1.262   3.739
 6831SOL     OW21391   1.344   1.117   6.114
 6831SOL    HW121392   1.293   1.048   6.164
 6831SOL    HW221393   1.281   1.175   6.063
 6832SOL     OW21394   2.364   3.369   0.189
 6832SOL    HW121395   2.340   3.456   0.145
 6832SOL    HW221396   2.461   3.351   0.176
 6833SOL     OW21397   3.399   5.198   5.883
 6833SOL    HW121398   3.468   5.238   5.943
 6833SOL    HW221399   3.329   5.152   5.938
 6834SOL     OW21400   5.417   7.020   1.010
 6834SOL    HW121401   5.380   0.033   0.925
 6834SOL    HW221402   5.491   6.956   0.989
 6835SOL     OW21403   3.987   1.897   4.660
 6835SOL    HW121404   4.082   1.916   4.636
 6835SOL    HW221405   3.933   1.886   4.577
 6836SOL     OW21406   2.068   4.331   6.319
 6836SOL    HW121407   2.062   4.315   6.417
 6836SOL    HW221408   2.024   4.254   6.271
 6837SOL     OW21409   0.493   0.980   2.849
 6837SOL    HW121410   0.501   1.027   2.937
 6837SOL    HW221411   0.584   0.971   2.808
 6838SOL     OW21412   2.442   4.394   5.381
 6838SOL    HW121413   2.408   4.438   5.464
 6838SOL    HW221414   2.405   4.301   5.375
 6839SOL     OW21415   5.756   2.104   3.488
 6839SOL    HW121416   5.727   2.159   3.566
 6839SOL    HW221417   5.687   2.034   3.469
 6840SOL     OW21418   2.768   6.297   5.512
 6840SOL    HW121419   2.718   6.234   5.572
 6840SOL    HW221420   2.706   6.334   5.443
 6841SOL     OW21421   3.742   4.809   1.144
 6841SOL    HW121422   3.752   4.906   1.167
 6841SOL    HW221423   3.668   4.769   1.198
 6842SOL     OW21424   1.698   2.414   6.481
 6842SOL    HW121425   1.599   2.413   6.495
 6842SOL    HW221426   1.744   2.392   6.568
 6843SOL     OW21427   5.073   1.062   1.627
 6843SOL    HW121428   5.030   0.992   1.684
 6843SOL    HW221429   5.040   1.152   1.655
 6844SOL     OW21430   5.295   5.849   4.114
 6844SOL    HW121431   5.327   5.851   4.209
 6844SOL    HW221432   5.342   5.776   4.065
 6845SOL     OW21433   5.181   4.125   2.165
 6845SOL    HW121434   5.182   4.169   2.075
 6845SOL    HW221435   5.143   4.188   2.232
 6846SOL     OW21436   4.155   3.055   1.389
 6846SOL    HW121437   4.249   3.085   1.402
 6846SOL    HW221438   4.139   2.971   1.441
 6847SOL     OW21439   5.649   3.951   2.219
 6847SOL    HW121440   5.570   3.894   2.239
 6847SOL    HW221441   5.729   3.894   2.203
 6848SOL     OW21442   2.030   5.917   3.270
 6848SOL    HW121443   1.984   5.930   3.357
 6848SOL    HW221444   1.962   5.906   3.197
 6849SOL     OW21445   3.222   5.470   4.164
 6849SOL    HW121446   3.188   5.514   4.081
 6849SOL    HW221447   3.311   5.508   4.188
 6850SOL     OW21448   5.562   2.776   2.856
 6850SOL    HW121449   5.600   2.857   2.900
 6850SOL    HW221450   5.493   2.803   2.789
 6851SOL     OW21451   1.361   3.699   4.434
 6851SOL    HW121452   1.453   3.660   4.438
 6851SOL    HW221453   1.346   3.740   4.344
 6852SOL     OW21454   1.118   4.973   0.743
 6852SOL    HW121455   1.078   5.065   0.742
 6852SOL    HW221456   1.158   4.953   0.654
 6853SOL     OW21457   6.671   3.735   6.976
 6853SOL    HW121458   6.646   3.796   6.901
 6853SOL    HW221459   6.719   3.655   6.939
 6854SOL     OW21460   5.848   0.957   5.943
 6854SOL    HW121461   5.755   0.951   5.979
 6854SOL    HW221462   5.911   0.983   6.017
 6855SOL     OW21463   3.570   6.317   2.606
 6855SOL    HW121464   3.522   6.241   2.562
 6855SOL    HW221465   3.669   6.300   2.604
 6856SOL     OW21466   4.574   4.244   5.475
 6856SOL    HW121467   4.591   4.166   5.536
 6856SOL    HW221468   4.491   4.292   5.504
 6857SOL     OW21469   3.328   1.344   6.649
 6857SOL    HW121470   3.425   1.332   6.630
 6857SOL    HW221471   3.312   1.341   6.748
 6858SOL     OW21472   4.187   3.523   4.823
 6858SOL    HW121473   4.174   3.602   4.883
 6858SOL    HW221474   4.280   3.487   4.835
 6859SOL     OW21475   1.320   6.780   0.984
 6859SOL    HW121476   1.393   6.817   0.927
 6859SOL    HW221477   1.308   6.838   1.064
 6860SOL     OW21478   5.646   5.216   1.890
 6860SOL    HW121479   5.663   5.181   1.798
 6860SOL    HW221480   5.612   5.143   1.948
 6861SOL     OW21481   5.629   4.258   1.761
 6861SOL    HW121482   5.686   4.292   1.835
 6861SOL    HW221483   5.687   4.230   1.684
 6862SOL     OW21484   2.307   4.238   4.633
 6862SOL    HW121485   2.384   4.297   4.609
 6862SOL    HW221486   2.265   4.270   4.717
 6863SOL     OW21487   5.608   1.578   4.242
 6863SOL    HW121488   5.659   1.664   4.242
 6863SOL    HW221489   5.673   1.501   4.244
 6864SOL     OW21490   3.454   5.796   3.886
 6864SOL    HW121491   3.456   5.817   3.788
 6864SOL    HW221492   3.395   5.863   3.933
 6865SOL     OW21493   6.259   5.373   3.007
 6865SOL    HW121494   6.344   5.406   3.049
 6865SOL    HW221495   6.245   5.420   2.920
 6866SOL     OW21496   6.177   3.895   2.382
 6866SOL    HW121497   6.251   3.961   2.372
 6866SOL    HW221498   6.095   3.941   2.417
 6867SOL     OW21499   1.066   4.866   1.417
 6867SOL    HW121500   1.015   4.928   1.477
 6867SOL    HW221501   1.075   4.777   1.462
 6868SOL     OW21502   1.693   5.382   5.076
 6868SOL    HW121503   1.728   5.462   5.028
 6868SOL    HW221504   1.730   5.380   5.169
 6869SOL     OW21505   5.995   2.571   5.488
 6869SOL    HW121506   6.085   2.593   5.527
 6869SOL    HW221507   5.976   2.632   5.411
 6870SOL     OW21508   6.624   3.297   2.494
 6870SOL    HW121509   6.579   3.242   2.423
 6870SOL    HW221510   6.558   3.319   2.566
 6871SOL     OW21511   6.090   4.929   2.518
 6871SOL    HW121512   6.152   4.873   2.463
 6871SOL    HW221513   6.110   4.915   2.615
 6872SOL     OW21514   1.712   3.475   0.787
 6872SOL    HW121515   1.721   3.408   0.861
 6872SOL    HW221516   1.640   3.445   0.724
 6873SOL     OW21517   5.967   3.829   4.901
 6873SOL    HW121518   5.924   3.771   4.971
 6873SOL    HW221519   5.906   3.906   4.881
 6874SOL     OW21520   0.371   4.650   3.267
 6874SOL    HW121521   0.392   4.744   3.241
 6874SOL    HW221522   0.395   4.588   3.193
 6875SOL     OW21523   1.720   2.414   3.360
 6875SOL    HW121524   1.800   2.355   3.370
 6875SOL    HW221525   1.748   2.502   3.323
 6876SOL     OW21526   4.180   5.065   5.857
 6876SOL    HW121527   4.095   5.114   5.873
 6876SOL    HW221528   4.257   5.129   5.856
 6877SOL     OW21529   2.409   4.239   6.493
 6877SOL    HW121530   2.349   4.182   6.437
 6877SOL    HW221531   2.374   4.332   6.495
 6878SOL     OW21532   2.220   2.255   5.112
 6878SOL    HW121533   2.283   2.324   5.076
 6878SOL    HW221534   2.228   2.251   5.211
 6879SOL     OW21535   1.041   1.688   0.366
 6879SOL    HW121536   0.989   1.774   0.366
 6879SOL    HW221537   1.095   1.683   0.450
 6880SOL     OW21538   2.192   3.342   5.130
 6880SOL    HW121539   2.168   3.301   5.042
 6880SOL    HW221540   2.287   3.322   5.152
 6881SOL     OW21541   6.862   3.587   2.554
 6881SOL    HW121542   6.899   3.544   2.471
 6881SOL    HW221543   6.767   3.559   2.565
 6882SOL     OW21544   2.634   0.168   5.740
 6882SOL    HW121545   2.638   0.233   5.815
 6882SOL    HW221546   2.539   0.137   5.729
 6883SOL     OW21547   3.642   1.350   1.475
 6883SOL    HW121548   3.725   1.295   1.467
 6883SOL    HW221549   3.579   1.306   1.539
 6884SOL     OW21550   1.771   3.306   4.504
 6884SOL    HW121551   1.830   3.225   4.516
 6884SOL    HW221552   1.810   3.364   4.432
 6885SOL     OW21553   3.690   5.454   4.807
 6885SOL    HW121554   3.636   5.421   4.729
 6885SOL    HW221555   3.781   5.482   4.776
 6886SOL     OW21556   0.074   0.890   3.161
 6886SOL    HW121557   0.019   0.909   3.242
 6886SOL    HW221558   0.168   0.871   3.188
 6887SOL     OW21559   4.872   6.911   5.753
 6887SOL    HW121560   4.955   6.965   5.773
 6887SOL    HW221561   4.830   6.947   5.669
 6888SOL     OW21562   5.924   6.365   6.553
 6888SOL    HW121563   5.896   6.388   6.460
 6888SOL    HW221564   5.920   6.446   6.611
 6889SOL     OW21565   0.829   2.356   6.305
 6889SOL    HW121566   0.798   2.430   6.246
 6889SOL    HW221567   0.751   2.297   6.328
 6890SOL     OW21568   3.009   6.188   1.013
 6890SOL    HW121569   3.005   6.282   1.049
 6890SOL    HW221570   2.974   6.125   1.082
 6891SOL     OW21571   2.059   3.723   4.689
 6891SOL    HW121572   2.035   3.629   4.712
 6891SOL    HW221573   2.078   3.774   4.773
 6892SOL     OW21574   3.286   0.855   3.704
 6892SOL    HW121575   3.300   0.951   3.727
 6892SOL    HW221576   3.361   0.823   3.645
 6893SOL     OW21577   5.524   5.739   1.021
 6893SOL    HW121578   5.577   5.665   1.061
 6893SOL    HW221579   5.541   5.824   1.072
 6894SOL     OW21580   6.255   5.488   6.711
 6894SOL    HW121581   6.281   5.392   6.695
 6894SOL    HW221582   6.332   5.537   6.753
 6895SOL     OW21583   2.948   5.185   6.812
 6895SOL    HW121584   2.914   5.108   6.867
 6895SOL    HW221585   3.009   5.241   6.868
 6896SOL     OW21586   2.831   6.823   4.149
 6896SOL    HW121587   2.926   6.849   4.134
 6896SOL    HW221588   2.796   6.772   4.071
 6897SOL     OW21589   2.211   3.557   0.062
 6897SOL    HW121590   2.211   3.648   0.021
 6897SOL    HW221591   2.133   3.505   0.028
 6898SOL     OW21592   3.452   1.645   1.807
 6898SOL    HW121593   3.376   1.695   1.849
 6898SOL    HW221594   3.421   1.603   1.721
 6899SOL     OW21595   4.908   6.872   0.723
 6899SOL    HW121596   4.833   6.824   0.768
 6899SOL    HW221597   4.968   6.913   0.791
 6900SOL     OW21598   5.907   0.533   6.196
 6900SOL    HW121599   5.810   0.510   6.204
 6900SOL    HW221600   5.945   0.492   6.113
 6901SOL     OW21601   0.769   0.366   6.200
 6901SOL    HW121602   0.751   0.431   6.273
 6901SOL    HW221603   0.781   0.415   6.114
 6902SOL     OW21604   7.016   6.109   0.624
 6902SOL    HW121605   0.087   6.129   0.645
 6902SOL    HW221606   6.959   6.130   0.704
 6903SOL     OW21607   4.139   4.593   5.635
 6903SOL    HW121608   4.166   4.541   5.717
 6903SOL    HW221609   4.059   4.649   5.656
 6904SOL     OW21610   6.184   1.414   4.063
 6904SOL    HW121611   6.151   1.347   3.997
 6904SOL    HW221612   6.129   1.497   4.058
 6905SOL     OW21613   6.180   6.638   0.194
 6905SOL    HW121614   6.253   6.668   0.255
 6905SOL    HW221615   6.169   6.706   0.121
 6906SOL     OW21616   4.223   0.952   3.823
 6906SOL    HW121617   4.274   0.952   3.736
 6906SOL    HW221618   4.161   0.873   3.825
 6907SOL     OW21619   4.847   0.789   1.348
 6907SOL    HW121620   4.946   0.780   1.334
 6907SOL    HW221621   4.799   0.717   1.298
 6908SOL     OW21622   1.225   6.538   5.402
 6908SOL    HW121623   1.167   6.606   5.447
 6908SOL    HW221624   1.309   6.582   5.370
 6909SOL     OW21625   5.455   4.890   1.197
 6909SOL    HW121626   5.451   4.943   1.281
 6909SOL    HW221627   5.542   4.906   1.151
 6910SOL     OW21628   6.582   2.629   3.090
 6910SOL    HW121629   6.621   2.596   3.004
 6910SOL    HW221630   6.645   2.608   3.165
 6911SOL     OW21631   3.766   6.923   3.203
 6911SOL    HW121632   3.860   6.933   3.236
 6911SOL    HW221633   3.704   6.976   3.262
 6912SOL     OW21634   4.773   4.478   1.538
 6912SOL    HW121635   4.763   4.473   1.637
 6912SOL    HW221636   4.713   4.411   1.495
 6913SOL     OW21637   4.801   4.851   5.833
 6913SOL    HW121638   4.833   4.822   5.743
 6913SOL    HW221639   4.725   4.915   5.823
 6914SOL     OW21640   6.188   4.612   6.872
 6914SOL    HW121641   6.188   4.659   6.783
 6914SOL    HW221642   6.094   4.589   6.897
 6915SOL     OW21643   6.719   4.375   1.829
 6915SOL    HW121644   6.783   4.408   1.759
 6915SOL    HW221645   6.755   4.397   1.920
 6916SOL     OW21646   6.034   4.086   0.233
 6916SOL    HW121647   6.017   4.180   0.261
 6916SOL    HW221648   6.002   4.072   0.139
 6917SOL     OW21649   3.330   5.049   0.380
 6917SOL    HW121650   3.327   5.147   0.401
 6917SOL    HW221651   3.338   4.997   0.465
 6918SOL     OW21652   1.176   3.869   4.629
 6918SOL    HW121653   1.254   3.835   4.576
 6918SOL    HW221654   1.126   3.937   4.576
 6919SOL     OW21655   0.598   5.680   3.426
 6919SOL    HW121656   0.610   5.658   3.523
 6919SOL    HW221657   0.584   5.779   3.416
 6920SOL     OW21658   3.699   5.930   5.887
 6920SOL    HW121659   3.656   6.012   5.847
 6920SOL    HW221660   3.727   5.950   5.981
 6921SOL     OW21661   4.859   5.602   3.089
 6921SOL    HW121662   4.841   5.566   3.180
 6921SOL    HW221663   4.903   5.532   3.032
 6922SOL     OW21664   1.822   5.652   6.957
 6922SOL    HW121665   1.732   5.651   7.001
 6922SOL    HW221666   1.811   5.640   6.858
 6923SOL     OW21667   5.654   6.427   3.405
 6923SOL    HW121668   5.579   6.489   3.429
 6923SOL    HW221669   5.725   6.431   3.474
 6924SOL     OW21670   0.427   4.115   6.917
 6924SOL    HW121671   0.503   4.154   6.969
 6924SOL    HW221672   0.355   4.184   6.907
 6925SOL     OW21673   3.480   6.231   4.434
 6925SOL    HW121674   3.555   6.293   4.414
 6925SOL    HW221675   3.507   6.169   4.508
 6926SOL     OW21676   2.919   3.300   2.181
 6926SOL    HW121677   2.866   3.354   2.115
 6926SOL    HW221678   2.958   3.361   2.250
 6927SOL     OW21679   5.478   4.247   5.770
 6927SOL    HW121680   5.572   4.254   5.738
 6927SOL    HW221681   5.470   4.289   5.860
 6928SOL     OW21682   6.292   6.509   0.458
 6928SOL    HW121683   6.213   6.448   0.466
 6928SOL    HW221684   6.262   6.604   0.461
 6929SOL     OW21685   4.821   5.648   1.012
 6929SOL    HW121686   4.777   5.620   1.098
 6929SOL    HW221687   4.800   5.744   0.994
 6930SOL     OW21688   6.904   6.873   1.734
 6930SOL    HW121689   6.880   6.841   1.826
 6930SOL    HW221690   6.990   6.923   1.739
 6931SOL     OW21691   1.215   0.535   2.202
 6931SOL    HW121692   1.140   0.579   2.252
 6931SOL    HW221693   1.301   0.553   2.249
 6932SOL     OW21694   3.946   0.715   0.877
 6932SOL    HW121695   4.026   0.764   0.843
 6932SOL    HW221696   3.937   0.628   0.829
 6933SOL     OW21697   4.102   6.403   4.689
 6933SOL    HW121698   4.135   6.365   4.603
 6933SOL    HW221699   4.177   6.448   4.737
 6934SOL     OW21700   4.776   4.271   5.733
 6934SOL    HW121701   4.767   4.174   5.709
 6934SOL    HW221702   4.860   4.307   5.692
 6935SOL     OW21703   4.368   6.028   3.262
 6935SOL    HW121704   4.433   5.954   3.247
 6935SOL    HW221705   4.314   6.009   3.345
 6936SOL     OW21706   6.730   2.796   2.339
 6936SOL    HW121707   6.800   2.752   2.394
 6936SOL    HW221708   6.658   2.730   2.317
 6937SOL     OW21709   6.371   6.195   0.287
 6937SOL    HW121710   6.344   6.102   0.313
 6937SOL    HW221711   6.462   6.192   0.246
 6938SOL     OW21712   5.045   3.727   5.182
 6938SOL    HW121713   5.036   3.768   5.273
 6938SOL    HW221714   4.955   3.704   5.146
 6939SOL     OW21715   6.737   4.560   1.129
 6939SOL    HW121716   6.718   4.514   1.042
 6939SOL    HW221717   6.670   4.529   1.198
 6940SOL     OW21718   5.154   1.431   0.643
 6940SOL    HW121719   5.104   1.388   0.567
 6940SOL    HW221720   5.095   1.434   0.724
 6941SOL     OW21721   3.625   2.907   2.890
 6941SOL    HW121722   3.711   2.942   2.926
 6941SOL    HW221723   3.642   2.852   2.808
 6942SOL     OW21724   6.742   2.583   0.667
 6942SOL    HW121725   6.744   2.678   0.699
 6942SOL    HW221726   6.719   2.581   0.570
 6943SOL     OW21727   4.661   6.531   0.035
 6943SOL    HW121728   4.732   6.601   0.027
 6943SOL    HW221729   4.695   6.454   0.088
 6944SOL     OW21730   1.359   4.472   5.679
 6944SOL    HW121731   1.413   4.504   5.757
 6944SOL    HW221732   1.298   4.545   5.648
 6945SOL     OW21733   6.421   2.969   6.441
 6945SOL    HW121734   6.501   2.989   6.497
 6945SOL    HW221735   6.452   2.942   6.349
 6946SOL     OW21736   6.359   6.169   2.336
 6946SOL    HW121737   6.447   6.131   2.306
 6946SOL    HW221738   6.286   6.103   2.319
 6947SOL     OW21739   3.102   6.635   5.266
 6947SOL    HW121740   3.078   6.660   5.360
 6947SOL    HW221741   3.092   6.536   5.255
 6948SOL     OW21742   6.562   0.811   0.057
 6948SOL    HW121743   6.583   0.713   0.060
 6948SOL    HW221744   6.629   0.860   0.113
 6949SOL     OW21745   5.268   0.038   3.996
 6949SOL    HW121746   5.212   0.042   4.079
 6949SOL    HW221747   5.255   0.122   3.944
 6950SOL     OW21748   2.230   0.480   3.722
 6950SOL    HW121749   2.222   0.513   3.628
 6950SOL    HW221750   2.273   0.551   3.779
 6951SOL     OW21751   5.975   6.197   5.903
 6951SOL    HW121752   5.879   6.172   5.892
 6951SOL    HW221753   6.029   6.114   5.919
 6952SOL     OW21754   6.962   5.804   3.730
 6952SOL    HW121755   7.022   5.724   3.724
 6952SOL    HW221756   6.867   5.774   3.738
 6953SOL     OW21757   4.933   0.302   6.815
 6953SOL    HW121758   4.879   0.221   6.793
 6953SOL    HW221759   4.877   0.384   6.806
 6954SOL     OW21760   0.754   3.716   4.289
 6954SOL    HW121761   0.661   3.749   4.273
 6954SOL    HW221762   0.765   3.625   4.249
 6955SOL     OW21763   7.008   0.399   3.069
 6955SOL    HW121764   6.956   0.352   2.998
 6955SOL    HW221765   0.027   0.480   3.031
 6956SOL     OW21766   4.894   6.602   1.998
 6956SOL    HW121767   4.808   6.583   2.045
 6956SOL    HW221768   4.917   6.524   1.939
 6957SOL     OW21769   5.507   4.931   1.507
 6957SOL    HW121770   5.429   4.924   1.568
 6957SOL    HW221771   5.537   5.026   1.500
 6958SOL     OW21772   3.040   4.053   5.189
 6958SOL    HW121773   2.966   4.001   5.144
 6958SOL    HW221774   3.022   4.059   5.287
 6959SOL     OW21775   2.843   0.940   4.570
 6959SOL    HW121776   2.938   0.926   4.544
 6959SOL    HW221777   2.836   1.017   4.633
 6960SOL     OW21778   1.129   5.305   1.297
 6960SOL    HW121779   1.070   5.282   1.220
 6960SOL    HW221780   1.190   5.380   1.270
 6961SOL     OW21781   6.565   2.854   4.191
 6961SOL    HW121782   6.644   2.848   4.131
 6961SOL    HW221783   6.585   2.913   4.269
 6962SOL     OW21784   5.009   5.412   2.420
 6962SOL    HW121785   4.996   5.508   2.446
 6962SOL    HW221786   5.009   5.404   2.320
 6963SOL     OW21787   6.868   5.338   0.826
 6963SOL    HW121788   6.785   5.327   0.770
 6963SOL    HW221789   6.859   5.418   0.884
 6964SOL     OW21790   4.512   4.829   4.226
 6964SOL    HW121791   4.583   4.850   4.159
 6964SOL    HW221792   4.489   4.732   4.222
 6965SOL     OW21793   0.802   3.521   6.134
 6965SOL    HW121794   0.730   3.475   6.184
 6965SOL    HW221795   0.859   3.573   6.197
 6966SOL     OW21796   6.606   2.257   2.985
 6966SOL    HW121797   6.603   2.185   2.916
 6966SOL    HW221798   6.522   2.254   3.039
 6967SOL     OW21799   1.716   0.543   5.643
 6967SOL    HW121800   1.743   0.581   5.732
 6967SOL    HW221801   1.723   0.614   5.573
 6968SOL     OW21802   3.511   6.799   2.306
 6968SOL    HW121803   3.572   6.722   2.293
 6968SOL    HW221804   3.564   6.883   2.314
 6969SOL     OW21805   3.454   2.078   1.512
 6969SOL    HW121806   3.490   2.159   1.558
 6969SOL    HW221807   3.407   2.020   1.579
 6970SOL     OW21808   4.537   3.995   0.349
 6970SOL    HW121809   4.544   4.094   0.359
 6970SOL    HW221810   4.475   3.959   0.418
 6971SOL     OW21811   6.671   4.106   1.880
 6971SOL    HW121812   6.666   4.205   1.865
 6971SOL    HW221813   6.717   4.063   1.803
 6972SOL     OW21814   5.134   5.180   4.134
 6972SOL    HW121815   5.112   5.222   4.046
 6972SOL    HW221816   5.162   5.085   4.120
 6973SOL     OW21817   0.765   3.871   5.164
 6973SOL    HW121818   0.765   3.802   5.237
 6973SOL    HW221819   0.856   3.913   5.159
 6974SOL     OW21820   3.506   2.899   3.268
 6974SOL    HW121821   3.594   2.908   3.221
 6974SOL    HW221822   3.522   2.895   3.367
 6975SOL     OW21823   2.421   6.284   6.016
 6975SOL    HW121824   2.501   6.341   6.036
 6975SOL    HW221825   2.393   6.236   6.099
 6976SOL     OW21826   4.272   5.038   5.364
 6976SOL    HW121827   4.175   5.042   5.387
 6976SOL    HW221828   4.296   4.944   5.338
 6977SOL     OW21829   4.418   2.443   1.911
 6977SOL    HW121830   4.424   2.468   2.007
 6977SOL    HW221831   4.403   2.525   1.855
 6978SOL     OW21832   6.177   2.371   1.575
 6978SOL    HW121833   6.143   2.344   1.485
 6978SOL    HW221834   6.276   2.380   1.572
 6979SOL     OW21835   1.365   5.292   0.448
 6979SOL    HW121836   1.406   5.363   0.391
 6979SOL    HW221837   1.360   5.206   0.396
 6980SOL     OW21838   1.788   0.974   3.557
 6980SOL    HW121839   1.841   0.950   3.639
 6980SOL    HW221840   1.846   1.024   3.494
 6981SOL     OW21841   2.846   2.744   6.539
 6981SOL    HW121842   2.929   2.778   6.493
 6981SOL    HW221843   2.872   2.681   6.612
 6982SOL     OW21844   1.190   1.181   4.051
 6982SOL    HW121845   1.097   1.210   4.027
 6982SOL    HW221846   1.192   1.081   4.061
 6983SOL     OW21847   5.140   1.977   3.069
 6983SOL    HW121848   5.189   1.890   3.070
 6983SOL    HW221849   5.131   2.011   3.163
 6984SOL     OW21850   2.633   2.100   4.253
 6984SOL    HW121851   2.582   2.062   4.175
 6984SOL    HW221852   2.606   2.053   4.337
 6985SOL     OW21853   3.832   5.544   1.760
 6985SOL    HW121854   3.799   5.580   1.847
 6985SOL    HW221855   3.847   5.620   1.697
 6986SOL     OW21856   2.028   6.506   6.432
 6986SOL    HW121857   2.076   6.443   6.371
 6986SOL    HW221858   2.070   6.597   6.426
 6987SOL     OW21859   0.106   1.714   5.856
 6987SOL    HW121860   0.115   1.805   5.813
 6987SOL    HW221861   0.011   1.684   5.847
 6988SOL     OW21862   6.665   1.053   5.686
 6988SOL    HW121863   6.640   1.011   5.598
 6988SOL    HW221864   6.709   0.984   5.744
 6989SOL     OW21865   0.326   3.480   3.240
 6989SOL    HW121866   0.354   3.572   3.214
 6989SOL    HW221867   0.390   3.413   3.203
 6990SOL     OW21868   5.345   2.250   1.186
 6990SOL    HW121869   5.344   2.236   1.087
 6990SOL    HW221870   5.254   2.275   1.218
 6991SOL     OW21871   2.921   4.831   3.925
 6991SOL    HW121872   2.997   4.852   3.863
 6991SOL    HW221873   2.837   4.820   3.871
 6992SOL     OW21874   5.264   6.358   4.995
 6992SOL    HW121875   5.168   6.354   4.969
 6992SOL    HW221876   5.318   6.394   4.919
 6993SOL     OW21877   6.791   0.913   2.788
 6993SOL    HW121878   6.707   0.922   2.842
 6993SOL    HW221879   6.869   0.935   2.846
 6994SOL     OW21880   0.841   3.383   5.058
 6994SOL    HW121881   0.907   3.362   4.986
 6994SOL    HW221882   0.775   3.450   5.025
 6995SOL     OW21883   6.471   5.333   6.172
 6995SOL    HW121884   6.420   5.316   6.088
 6995SOL    HW221885   6.560   5.374   6.150
 6996SOL     OW21886   2.530   0.643   6.055
 6996SOL    HW121887   2.552   0.698   6.135
 6996SOL    HW221888   2.567   0.686   5.973
 6997SOL     OW21889   5.837   6.179   5.393
 6997SOL    HW121890   5.920   6.211   5.439
 6997SOL    HW221891   5.795   6.256   5.345
 6998SOL     OW21892   2.528   2.570   1.362
 6998SOL    HW121893   2.434   2.596   1.339
 6998SOL    HW221894   2.530   2.528   1.453
 6999SOL     OW21895   2.107   2.536   6.212
 6999SOL    HW121896   2.047   2.563   6.137
 6999SOL    HW221897   2.103   2.604   6.285
 7000SOL     OW21898   6.122   5.796   1.881
 7000SOL    HW121899   6.201   5.755   1.835
 7000SOL    HW221900   6.149   5.880   1.928
 7001SOL     OW21901   2.702   3.186   5.298
 7001SOL    HW121902   2.612   3.147   5.277
 7001SOL    HW221903   2.769   3.112   5.305
 7002SOL     OW21904   1.797   5.229   2.844
 7002SOL    HW121905   1.786   5.328   2.841
 7002SOL    HW221906   1.762   5.194   2.932
 7003SOL     OW21907   3.863   5.234   0.063
 7003SOL    HW121908   3.929   5.308   0.069
 7003SOL    HW221909   3.897   5.154   0.114
 7004SOL     OW21910   1.736   4.725   1.573
 7004SOL    HW121911   1.689   4.802   1.530
 7004SOL    HW221912   1.792   4.758   1.649
 7005SOL     OW21913   1.451   6.755   6.658
 7005SOL    HW121914   1.525   6.783   6.597
 7005SOL    HW221915   1.490   6.715   6.741
 7006SOL     OW21916   5.036   4.559   4.759
 7006SOL    HW121917   4.977   4.509   4.823
 7006SOL    HW221918   5.105   4.497   4.721
 7007SOL     OW21919   4.751   6.955   3.472
 7007SOL    HW121920   4.721   6.903   3.552
 7007SOL    HW221921   4.687   0.006   3.457
 7008SOL     OW21922   1.624   5.096   5.089
 7008SOL    HW121923   1.673   5.179   5.113
 7008SOL    HW221924   1.546   5.085   5.150
 7009SOL     OW21925   6.025   5.480   2.414
 7009SOL    HW121926   5.981   5.484   2.504
 7009SOL    HW221927   5.980   5.412   2.358
 7010SOL     OW21928   4.366   4.217   6.091
 7010SOL    HW121929   4.336   4.204   5.997
 7010SOL    HW221930   4.318   4.153   6.151
 7011SOL     OW21931   2.323   0.698   6.362
 7011SOL    HW121932   2.378   0.689   6.446
 7011SOL    HW221933   2.345   0.623   6.300
 7012SOL     OW21934   1.716   1.356   2.467
 7012SOL    HW121935   1.661   1.283   2.428
 7012SOL    HW221936   1.768   1.401   2.394
 7013SOL     OW21937   0.178   6.998   0.397
 7013SOL    HW121938   0.081   6.975   0.388
 7013SOL    HW221939   0.196   0.061   0.354
 7014SOL     OW21940   5.108   3.036   1.628
 7014SOL    HW121941   5.096   3.025   1.727
 7014SOL    HW221942   5.204   3.021   1.605
 7015SOL     OW21943   5.658   4.819   2.899
 7015SOL    HW121944   5.559   4.824   2.901
 7015SOL    HW221945   5.693   4.875   2.824
 7016SOL     OW21946   3.713   4.740   1.587
 7016SOL    HW121947   3.739   4.666   1.525
 7016SOL    HW221948   3.695   4.703   1.678
 7017SOL     OW21949   2.206   6.672   2.377
 7017SOL    HW121950   2.204   6.676   2.277
 7017SOL    HW221951   2.250   6.587   2.406
 7018SOL     OW21952   5.932   4.505   5.021
 7018SOL    HW121953   5.963   4.462   4.936
 7018SOL    HW221954   5.960   4.448   5.098
 7019SOL     OW21955   2.425   3.372   6.463
 7019SOL    HW121956   2.520   3.344   6.446
 7019SOL    HW221957   2.413   3.466   6.431
 7020SOL     OW21958   6.247   0.134   6.920
 7020SOL    HW121959   6.173   0.200   6.934
 7020SOL    HW221960   6.325   0.180   6.876
 7021SOL     OW21961   1.978   1.328   5.771
 7021SOL    HW121962   2.062   1.292   5.813
 7021SOL    HW221963   1.915   1.252   5.754
 7022SOL     OW21964   4.550   5.626   0.813
 7022SOL    HW121965   4.514   5.547   0.763
 7022SOL    HW221966   4.625   5.667   0.762
 7023SOL     OW21967   0.435   2.065   3.463
 7023SOL    HW121968   0.337   2.063   3.443
 7023SOL    HW221969   0.463   2.159   3.481
 7024SOL     OW21970   1.289   4.761   5.568
 7024SOL    HW121971   1.220   4.800   5.629
 7024SOL    HW221972   1.252   4.752   5.476
 7025SOL     OW21973   2.525   1.315   0.179
 7025SOL    HW121974   2.456   1.353   0.118
 7025SOL    HW221975   2.495   1.325   0.274
 7026SOL     OW21976   2.902   1.736   2.147
 7026SOL    HW121977   2.928   1.647   2.110
 7026SOL    HW221978   2.803   1.749   2.137
 7027SOL     OW21979   2.709   4.810   3.764
 7027SOL    HW121980   2.636   4.877   3.755
 7027SOL    HW221981   2.672   4.718   3.755
 7028SOL     OW21982   5.498   6.432   4.284
 7028SOL    HW121983   5.454   6.504   4.231
 7028SOL    HW221984   5.440   6.350   4.284
 7029SOL     OW21985   4.218   6.143   6.206
 7029SOL    HW121986   4.149   6.180   6.143
 7029SOL    HW221987   4.305   6.190   6.191
 7030SOL     OW21988   6.898   2.382   5.211
 7030SOL    HW121989   6.914   2.288   5.182
 7030SOL    HW221990   6.976   2.439   5.185
 7031SOL     OW21991   2.213   6.499   5.003
 7031SOL    HW121992   2.169   6.422   5.049
 7031SOL    HW221993   2.191   6.496   4.905
 7032SOL     OW21994   3.626   6.747   3.745
 7032SOL    HW121995   3.574   6.825   3.708
 7032SOL    HW221996   3.564   6.685   3.793
 7033SOL     OW21997   0.480   1.813   3.803
 7033SOL    HW121998   0.487   1.713   3.797
 7033SOL    HW221999   0.491   1.841   3.899
 7034SOL     OW22000   5.537   0.187   3.028
 7034SOL    HW122001   5.589   0.102   3.040
 7034SOL    HW222002   5.555   0.249   3.104
 7035SOL     OW22003   1.393   6.661   1.852
 7035SOL    HW122004   1.459   6.595   1.818
 7035SOL    HW222005   1.320   6.674   1.784
 7036SOL     OW22006   0.053   0.833   2.273
 7036SOL    HW122007   0.151   0.851   2.288
 7036SOL    HW222008   7.023   0.894   2.330
 7037SOL     OW22009   1.535   0.532   6.326
 7037SOL    HW122010   1.615   0.576   6.367
 7037SOL    HW222011   1.455   0.591   6.335
 7038SOL     OW22012   1.600   3.102   4.181
 7038SOL    HW122013   1.547   3.151   4.250
 7038SOL    HW222014   1.537   3.057   4.117
 7039SOL     OW22015   2.923   5.355   1.448
 7039SOL    HW122016   2.836   5.360   1.496
 7039SOL    HW222017   2.912   5.300   1.365
 7040SOL     OW22018   6.100   2.157   4.699
 7040SOL    HW122019   6.107   2.061   4.671
 7040SOL    HW222020   6.029   2.167   4.769
 7041SOL     OW22021   0.716   2.259   2.157
 7041SOL    HW122022   0.737   2.259   2.059
 7041SOL    HW222023   0.717   2.352   2.191
 7042SOL     OW22024   5.375   5.499   6.795
 7042SOL    HW122025   5.285   5.456   6.792
 7042SOL    HW222026   5.427   5.474   6.714
 7043SOL     OW22027   2.272   2.895   3.225
 7043SOL    HW122028   2.338   2.865   3.156
 7043SOL    HW222029   2.287   2.843   3.309
 7044SOL     OW22030   4.601   5.201   2.266
 7044SOL    HW122031   4.629   5.244   2.352
 7044SOL    HW222032   4.658   5.121   2.249
 7045SOL     OW22033   4.715   5.690   2.558
 7045SOL    HW122034   4.784   5.755   2.592
 7045SOL    HW222035   4.702   5.617   2.626
 7046SOL     OW22036   3.689   1.882   3.159
 7046SOL    HW122037   3.600   1.926   3.173
 7046SOL    HW222038   3.676   1.791   3.120
 7047SOL     OW22039   0.962   2.713   2.443
 7047SOL    HW122040   1.044   2.722   2.499
 7047SOL    HW222041   0.975   2.766   2.358
 7048SOL     OW22042   0.217   5.809   1.864
 7048SOL    HW122043   0.233   5.905   1.843
 7048SOL    HW222044   0.122   5.798   1.894
 7049SOL     OW22045   2.406   1.571   1.226
 7049SOL    HW122046   2.384   1.482   1.186
 7049SOL    HW222047   2.370   1.644   1.168
 7050SOL     OW22048   4.131   3.387   2.507
 7050SOL    HW122049   4.116   3.377   2.408
 7050SOL    HW222050   4.166   3.479   2.525
 7051SOL     OW22051   6.961   0.294   1.248
 7051SOL    HW122052   6.926   0.340   1.167
 7051SOL    HW222053   6.914   0.206   1.260
 7052SOL     OW22054   6.021   2.608   3.458
 7052SOL    HW122055   6.053   2.672   3.388
 7052SOL    HW222056   6.033   2.649   3.548
 7053SOL     OW22057   0.740   3.485   4.738
 7053SOL    HW122058   0.768   3.581   4.743
 7053SOL    HW222059   0.665   3.469   4.802
 7054SOL     OW22060   0.581   6.457   0.795
 7054SOL    HW122061   0.531   6.534   0.833
 7054SOL    HW222062   0.672   6.488   0.767
 7055SOL     OW22063   3.845   5.794   5.314
 7055SOL    HW122064   3.898   5.870   5.275
 7055SOL    HW222065   3.829   5.812   5.411
 7056SOL     OW22066   5.305   5.781   2.442
 7056SOL    HW122067   5.353   5.750   2.361
 7056SOL    HW222068   5.344   5.737   2.523
 7057SOL     OW22069   1.252   6.108   3.514
 7057SOL    HW122070   1.323   6.178   3.508
 7057SOL    HW222071   1.206   6.099   3.425
 7058SOL     OW22072   6.705   5.627   6.345
 7058SOL    HW122073   6.763   5.619   6.426
 7058SOL    HW222074   6.615   5.590   6.364
 7059SOL     OW22075   6.756   0.955   3.402
 7059SOL    HW122076   6.701   0.891   3.348
 7059SOL    HW222077   6.792   0.908   3.482
 7060SOL     OW22078   4.025   0.307   1.841
 7060SOL    HW122079   3.981   0.285   1.754
 7060SOL    HW222080   4.014   0.404   1.860
 7061SOL     OW22081   0.269   3.226   4.175
 7061SOL    HW122082   0.286   3.159   4.247
 7061SOL    HW222083   0.340   3.218   4.105
 7062SOL     OW22084   5.456   1.678   5.376
 7062SOL    HW122085   5.429   1.628   5.459
 7062SOL    HW222086   5.397   1.650   5.300
 7063SOL     OW22087   0.506   0.553   1.411
 7063SOL    HW122088   0.410   0.554   1.439
 7063SOL    HW222089   0.511   0.555   1.311
 7064SOL     OW22090   4.286   1.872   2.272
 7064SOL    HW122091   4.380   1.894   2.247
 7064SOL    HW222092   4.260   1.785   2.231
 7065SOL     OW22093   3.973   3.118   6.184
 7065SOL    HW122094   3.883   3.110   6.228
 7065SOL    HW222095   3.962   3.150   6.091
 7066SOL     OW22096   4.400   0.421   0.521
 7066SOL    HW122097   4.370   0.444   0.614
 7066SOL    HW222098   4.329   0.447   0.456
 7067SOL     OW22099   1.658   1.581   5.824
 7067SOL    HW122100   1.629   1.599   5.918
 7067SOL    HW222101   1.720   1.654   5.794
 7068SOL     OW22102   0.686   4.351   4.271
 7068SOL    HW122103   0.682   4.265   4.321
 7068SOL    HW222104   0.767   4.403   4.301
 7069SOL     OW22105   6.157   2.073   3.656
 7069SOL    HW122106   6.234   2.135   3.671
 7069SOL    HW222107   6.149   2.011   3.733
 7070SOL     OW22108   6.886   6.304   4.412
 7070SOL    HW122109   6.944   6.367   4.361
 7070SOL    HW222110   6.808   6.277   4.356
 7071SOL     OW22111   1.712   6.645   5.916
 7071SOL    HW122112   1.666   6.731   5.894
 7071SOL    HW222113   1.801   6.642   5.871
 7072SOL     OW22114   0.741   6.358   6.443
 7072SOL    HW122115   0.758   6.398   6.353
 7072SOL    HW222116   0.756   6.427   6.513
 7073SOL     OW22117   5.469   6.886   4.898
 7073SOL    HW122118   5.500   6.800   4.937
 7073SOL    HW222119   5.503   6.895   4.805
 7074SOL     OW22120   4.289   2.111   1.615
 7074SOL    HW122121   4.309   2.061   1.530
 7074SOL    HW222122   4.215   2.064   1.664
 7075SOL     OW22123   1.518   5.442   5.508
 7075SOL    HW122124   1.436   5.466   5.456
 7075SOL    HW222125   1.514   5.346   5.535
 7076SOL     OW22126   5.439   2.172   6.271
 7076SOL    HW122127   5.440   2.267   6.240
 7076SOL    HW222128   5.533   2.138   6.276
 7077SOL     OW22129   2.349   4.222   4.295
 7077SOL    HW122130   2.410   4.174   4.359
 7077SOL    HW222131   2.274   4.161   4.269
 7078SOL     OW22132   6.459   0.675   1.557
 7078SOL    HW122133   6.384   0.652   1.618
 7078SOL    HW222134   6.535   0.612   1.573
 7079SOL     OW22135   6.571   6.451   5.046
 7079SOL    HW122136   6.545   6.363   5.087
 7079SOL    HW222137   6.603   6.513   5.117
 7080SOL     OW22138   3.027   2.140   4.428
 7080SOL    HW122139   3.003   2.146   4.331
 7080SOL    HW222140   2.957   2.185   4.483
 7081SOL     OW22141   2.572   1.746   6.917
 7081SOL    HW122142   2.630   1.827   6.917
 7081SOL    HW222143   2.600   1.684   6.990
 7082SOL     OW22144   6.214   4.360   6.693
 7082SOL    HW122145   6.228   4.339   6.790
 7082SOL    HW222146   6.121   4.392   6.679
 7083SOL     OW22147   3.032   0.567   0.358
 7083SOL    HW122148   2.961   0.521   0.305
 7083SOL    HW222149   3.112   0.509   0.364
 7084SOL     OW22150   0.234   6.314   5.675
 7084SOL    HW122151   0.233   6.222   5.715
 7084SOL    HW222152   0.270   6.379   5.741
 7085SOL     OW22153   1.504   2.132   1.810
 7085SOL    HW122154   1.524   2.107   1.715
 7085SOL    HW222155   1.580   2.185   1.847
 7086SOL     OW22156   5.178   1.506   5.388
 7086SOL    HW122157   5.235   1.476   5.311
 7086SOL    HW222158   5.236   1.527   5.466
 7087SOL     OW22159   5.940   4.439   3.847
 7087SOL    HW122160   5.881   4.365   3.879
 7087SOL    HW222161   5.883   4.516   3.816
 7088SOL     OW22162   5.566   2.446   3.617
 7088SOL    HW122163   5.643   2.479   3.562
 7088SOL    HW222164   5.480   2.463   3.568
 7089SOL     OW22165   3.397   2.182   5.176
 7089SOL    HW122166   3.314   2.230   5.149
 7089SOL    HW222167   3.476   2.227   5.137
 7090SOL     OW22168   2.193   1.025   6.927
 7090SOL    HW122169   2.137   0.964   6.871
 7090SOL    HW222170   2.136   1.069   6.996
 7091SOL     OW22171   0.358   1.717   6.788
 7091SOL    HW122172   0.285   1.660   6.827
 7091SOL    HW222173   0.341   1.730   6.690
 7092SOL     OW22174   4.453   2.496   6.386
 7092SOL    HW122175   4.409   2.580   6.355
 7092SOL    HW222176   4.441   2.487   6.485
 7093SOL     OW22177   2.884   3.564   3.229
 7093SOL    HW122178   2.911   3.604   3.317
 7093SOL    HW222179   2.925   3.617   3.155
 7094SOL     OW22180   1.027   5.789   5.827
 7094SOL    HW122181   1.102   5.826   5.882
 7094SOL    HW222182   1.017   5.692   5.846
 7095SOL     OW22183   2.887   4.000   5.767
 7095SOL    HW122184   2.821   3.973   5.697
 7095SOL    HW222185   2.940   3.920   5.796
 7096SOL     OW22186   6.119   0.742   3.689
 7096SOL    HW122187   6.093   0.833   3.659
 7096SOL    HW222188   6.107   0.735   3.788
 7097SOL     OW22189   6.037   1.543   1.296
 7097SOL    HW122190   6.134   1.560   1.315
 7097SOL    HW222191   5.999   1.483   1.366
 7098SOL     OW22192   0.692   0.686   4.785
 7098SOL    HW122193   0.722   0.750   4.857
 7098SOL    HW222194   0.754   0.692   4.707
 7099SOL     OW22195   2.790   1.122   4.781
 7099SOL    HW122196   2.846   1.199   4.811
 7099SOL    HW222197   2.707   1.119   4.836
 7100SOL     OW22198   5.630   2.989   1.016
 7100SOL    HW122199   5.698   2.950   1.079
 7100SOL    HW222200   5.644   2.950   0.925
 7101SOL     OW22201   2.324   0.847   4.677
 7101SOL    HW122202   2.313   0.879   4.772
 7101SOL    HW222203   2.399   0.896   4.634
 7102SOL     OW22204   4.629   0.468   1.021
 7102SOL    HW122205   4.692   0.464   0.944
 7102SOL    HW222206   4.671   0.521   1.095
 7103SOL     OW22207   4.414   4.827   1.696
 7103SOL    HW122208   4.420   4.913   1.746
 7103SOL    HW222209   4.499   4.775   1.709
 7104SOL     OW22210   1.066   3.256   4.431
 7104SOL    HW122211   1.011   3.232   4.511
 7104SOL    HW222212   1.128   3.331   4.454
 7105SOL     OW22213   2.937   2.722   5.384
 7105SOL    HW122214   2.929   2.637   5.435
 7105SOL    HW222215   3.034   2.747   5.376
 7106SOL     OW22216   2.953   3.803   3.068
 7106SOL    HW122217   2.863   3.841   3.045
 7106SOL    HW222218   3.024   3.867   3.039
 7107SOL     OW22219   2.774   2.023   0.563
 7107SOL    HW122220   2.683   2.022   0.520
 7107SOL    HW222221   2.788   2.110   0.610
 7108SOL     OW22222   3.753   6.686   2.714
 7108SOL    HW122223   3.825   6.674   2.782
 7108SOL    HW222224   3.720   6.597   2.684
 7109SOL     OW22225   3.442   0.542   6.632
 7109SOL    HW122226   3.486   0.479   6.568
 7109SOL    HW222227   3.483   0.633   6.624
 7110SOL     OW22228   3.578   5.854   4.175
 7110SOL    HW122229   3.597   5.821   4.082
 7110SOL    HW222230   3.537   5.780   4.228
 7111SOL     OW22231   2.203   1.852   4.257
 7111SOL    HW122232   2.161   1.784   4.317
 7111SOL    HW222233   2.258   1.806   4.187
 7112SOL     OW22234   1.520   5.893   4.078
 7112SOL    HW122235   1.601   5.950   4.062
 7112SOL    HW222236   1.540   5.826   4.150
 7113SOL     OW22237   3.519   4.145   4.899
 7113SOL    HW122238   3.614   4.142   4.929
 7113SOL    HW222239   3.498   4.236   4.863
 7114SOL     OW22240   4.047   6.310   1.487
 7114SOL    HW122241   3.996   6.231   1.521
 7114SOL    HW222242   3.989   6.365   1.427
 7115SOL     OW22243   5.340   3.551   2.267
 7115SOL    HW122244   5.285   3.620   2.220
 7115SOL    HW222245   5.371   3.482   2.201
 7116SOL     OW22246   5.766   3.968   3.269
 7116SOL    HW122247   5.768   4.064   3.297
 7116SOL    HW222248   5.849   3.946   3.219
 7117SOL     OW22249   6.746   6.450   4.635
 7117SOL    HW122250   6.775   6.457   4.730
 7117SOL    HW222251   6.822   6.416   4.580
 7118SOL     OW22252   2.783   3.593   1.148
 7118SOL    HW122253   2.707   3.652   1.177
 7118SOL    HW222254   2.778   3.507   1.198
 7119SOL     OW22255   4.897   1.566   2.950
 7119SOL    HW122256   4.851   1.486   2.990
 7119SOL    HW222257   4.853   1.589   2.863
 7120SOL     OW22258   4.031   2.143   2.560
 7120SOL    HW122259   4.001   2.109   2.649
 7120SOL    HW222260   3.951   2.160   2.503
 7121SOL     OW22261   1.678   6.752   2.454
 7121SOL    HW122262   1.756   6.690   2.451
 7121SOL    HW222263   1.704   6.840   2.414
 7122SOL     OW22264   0.951   0.342   5.856
 7122SOL    HW122265   0.966   0.345   5.757
 7122SOL    HW222266   1.029   0.383   5.902
 7123SOL     OW22267   2.312   4.653   3.062
 7123SOL    HW122268   2.226   4.674   3.016
 7123SOL    HW222269   2.317   4.702   3.148
 7124SOL     OW22270   0.082   2.224   0.766
 7124SOL    HW122271   0.056   2.313   0.730
 7124SOL    HW222272   0.004   2.182   0.811
 7125SOL     OW22273   6.323   6.681   0.915
 7125SOL    HW122274   6.401   6.620   0.926
 7125SOL    HW222275   6.304   6.693   0.818
 7126SOL     OW22276   3.590   4.282   0.153
 7126SOL    HW122277   3.662   4.271   0.221
 7126SOL    HW222278   3.621   4.246   0.065
 7127SOL     OW22279   1.714   5.980   4.866
 7127SOL    HW122280   1.727   5.960   4.963
 7127SOL    HW222281   1.769   6.060   4.841
 7128SOL     OW22282   3.087   4.641   6.947
 7128SOL    HW122283   3.176   4.594   6.950
 7128SOL    HW222284   3.102   4.739   6.938
 7129SOL     OW22285   2.219   1.617   0.175
 7129SOL    HW122286   2.216   1.691   0.242
 7129SOL    HW222287   2.171   1.537   0.212
 7130SOL     OW22288   3.987   5.321   5.530
 7130SOL    HW122289   3.941   5.370   5.456
 7130SOL    HW222290   3.986   5.377   5.613
 7131SOL     OW22291   2.345   1.273   0.674
 7131SOL    HW122292   2.370   1.178   0.690
 7131SOL    HW222293   2.307   1.313   0.758
 7132SOL     OW22294   3.816   3.438   6.698
 7132SOL    HW122295   3.761   3.518   6.724
 7132SOL    HW222296   3.754   3.364   6.671
 7133SOL     OW22297   5.164   5.521   5.126
 7133SOL    HW122298   5.255   5.489   5.100
 7133SOL    HW222299   5.131   5.468   5.204
 7134SOL     OW22300   5.584   6.864   2.195
 7134SOL    HW122301   5.498   6.818   2.216
 7134SOL    HW222302   5.635   6.880   2.279
 7135SOL     OW22303   1.077   3.275   2.926
 7135SOL    HW122304   1.017   3.227   2.990
 7135SOL    HW222305   1.130   3.343   2.975
 7136SOL     OW22306   1.856   2.856   1.102
 7136SOL    HW122307   1.782   2.851   1.035
 7136SOL    HW222308   1.834   2.797   1.180
 7137SOL     OW22309   4.228   0.421   6.906
 7137SOL    HW122310   4.244   0.397   6.810
 7137SOL    HW222311   4.132   0.444   6.919
 7138SOL     OW22312   1.671   2.971   6.866
 7138SOL    HW122313   1.649   2.908   6.792
 7138SOL    HW222314   1.596   3.037   6.877
 7139SOL     OW22315   5.521   3.763   2.471
 7139SOL    HW122316   5.478   3.799   2.388
 7139SOL    HW222317   5.472   3.682   2.501
 7140SOL     OW22318   5.578   4.672   4.632
 7140SOL    HW122319   5.631   4.628   4.705
 7140SOL    HW222320   5.482   4.646   4.639
 7141SOL     OW22321   3.469   6.209   1.313
 7141SOL    HW122322   3.426   6.298   1.329
 7141SOL    HW222323   3.540   6.193   1.381
 7142SOL     OW22324   4.005   6.986   3.377
 7142SOL    HW122325   4.072   0.002   3.439
 7142SOL    HW222326   3.935   6.938   3.430
 7143SOL     OW22327   1.289   2.876   6.168
 7143SOL    HW122328   1.254   2.883   6.075
 7143SOL    HW222329   1.389   2.874   6.167
 7144SOL     OW22330   1.857   1.813   2.969
 7144SOL    HW122331   1.950   1.778   2.960
 7144SOL    HW222332   1.793   1.737   2.970
 7145SOL     OW22333   4.297   0.066   0.164
 7145SOL    HW122334   4.264   0.152   0.202
 7145SOL    HW222335   4.229   7.019   0.180
 7146SOL     OW22336   2.366   0.500   0.498
 7146SOL    HW122337   2.425   0.466   0.424
 7146SOL    HW222338   2.367   0.600   0.496
 7147SOL     OW22339   6.889   6.523   3.205
 7147SOL    HW122340   6.847   6.524   3.115
 7147SOL    HW222341   6.986   6.547   3.198
 7148SOL     OW22342   0.889   6.621   6.799
 7148SOL    HW122343   0.882   6.686   6.875
 7148SOL    HW222344   0.850   6.662   6.717
 7149SOL     OW22345   5.862   6.782   2.815
 7149SOL    HW122346   5.776   6.762   2.863
 7149SOL    HW222347   5.928   6.819   2.880
 7150SOL     OW22348   3.223   1.526   2.220
 7150SOL    HW122349   3.200   1.459   2.149
 7150SOL    HW222350   3.276   1.600   2.179
 7151SOL     OW22351   1.906   6.295   0.478
 7151SOL    HW122352   1.842   6.225   0.509
 7151SOL    HW222353   1.960   6.260   0.402
 7152SOL     OW22354   1.198   1.524   4.677
 7152SOL    HW122355   1.152   1.435   4.689
 7152SOL    HW222356   1.295   1.509   4.660
 7153SOL     OW22357   3.302   5.629   1.956
 7153SOL    HW122358   3.338   5.703   2.013
 7153SOL    HW222359   3.215   5.597   1.994
 7154SOL     OW22360   3.383   0.413   4.026
 7154SOL    HW122361   3.386   0.382   4.121
 7154SOL    HW222362   3.404   0.511   4.023
 7155SOL     OW22363   2.102   3.665   1.845
 7155SOL    HW122364   2.180   3.727   1.838
 7155SOL    HW222365   2.132   3.578   1.885
 7156SOL     OW22366   0.482   4.208   4.484
 7156SOL    HW122367   0.463   4.303   4.461
 7156SOL    HW222368   0.447   4.188   4.575
 7157SOL     OW22369   6.012   4.293   2.065
 7157SOL    HW122370   6.101   4.258   2.095
 7157SOL    HW222371   5.958   4.321   2.144
 7158SOL     OW22372   1.370   0.035   2.590
 7158SOL    HW122373   1.384   6.964   2.564
 7158SOL    HW222374   1.318   0.040   2.675
 7159SOL     OW22375   0.515   4.496   2.447
 7159SOL    HW122376   0.610   4.497   2.415
 7159SOL    HW222377   0.470   4.582   2.422
 7160SOL     OW22378   5.143   0.627   3.226
 7160SOL    HW122379   5.177   0.658   3.315
 7160SOL    HW222380   5.169   0.531   3.213
 7161SOL     OW22381   2.821   3.439   5.265
 7161SOL    HW122382   2.767   3.363   5.229
 7161SOL    HW222383   2.895   3.403   5.323
 7162SOL     OW22384   2.102   5.663   5.625
 7162SOL    HW122385   2.198   5.674   5.651
 7162SOL    HW222386   2.089   5.572   5.585
 7163SOL     OW22387   2.800   6.754   3.080
 7163SOL    HW122388   2.898   6.736   3.085
 7163SOL    HW222389   2.756   6.685   3.024
 7164SOL     OW22390   1.881   0.945   4.543
 7164SOL    HW122391   1.859   1.040   4.569
 7164SOL    HW222392   1.888   0.939   4.444
 7165SOL     OW22393   6.832   1.399   2.073
 7165SOL    HW122394   6.849   1.309   2.031
 7165SOL    HW222395   6.909   1.460   2.053
 7166SOL     OW22396   5.550   3.247   0.332
 7166SOL    HW122397   5.456   3.252   0.365
 7166SOL    HW222398   5.558   3.175   0.264
 7167SOL     OW22399   4.947   3.506   4.123
 7167SOL    HW122400   5.006   3.455   4.062
 7167SOL    HW222401   4.890   3.443   4.176
 7168SOL     OW22402   1.771   2.144   3.679
 7168SOL    HW122403   1.761   2.054   3.721
 7168SOL    HW222404   1.692   2.201   3.702
 7169SOL     OW22405   6.790   3.298   4.982
 7169SOL    HW122406   6.842   3.236   4.923
 7169SOL    HW222407   6.695   3.266   4.989
 7170SOL     OW22408   4.997   5.838   3.136
 7170SOL    HW122409   5.091   5.829   3.104
 7170SOL    HW222410   4.950   5.750   3.127
 7171SOL     OW22411   4.769   4.299   6.648
 7171SOL    HW122412   4.670   4.304   6.666
 7171SOL    HW222413   4.816   4.367   6.705
 7172SOL     OW22414   1.421   0.742   5.350
 7172SOL    HW122415   1.454   0.790   5.432
 7172SOL    HW222416   1.498   0.721   5.291
 7173SOL     OW22417   0.209   4.400   5.912
 7173SOL    HW122418   0.113   4.422   5.927
 7173SOL    HW222419   0.216   4.314   5.860
 7174SOL     OW22420   0.551   4.268   0.834
 7174SOL    HW122421   0.510   4.326   0.905
 7174SOL    HW222422   0.537   4.310   0.744
 7175SOL     OW22423   4.662   2.797   6.603
 7175SOL    HW122424   4.633   2.834   6.692
 7175SOL    HW222425   4.669   2.698   6.609
 7176SOL     OW22426   1.276   5.856   2.925
 7176SOL    HW122427   1.235   5.770   2.894
 7176SOL    HW222428   1.348   5.884   2.862
 7177SOL     OW22429   1.853   6.171   4.390
 7177SOL    HW122430   1.938   6.154   4.440
 7177SOL    HW222431   1.868   6.244   4.323
 7178SOL     OW22432   2.011   2.569   5.517
 7178SOL    HW122433   2.017   2.473   5.541
 7178SOL    HW222434   2.032   2.625   5.598
 7179SOL     OW22435   1.748   3.729   4.249
 7179SOL    HW122436   1.814   3.761   4.317
 7179SOL    HW222437   1.684   3.803   4.227
 7180SOL     OW22438   1.729   4.564   0.000
 7180SOL    HW122439   1.813   4.551   0.054
 7180SOL    HW222440   1.666   4.623   0.050
 7181SOL     OW22441   2.122   6.272   0.287
 7181SOL    HW122442   2.138   6.335   0.211
 7181SOL    HW222443   2.165   6.184   0.268
 7182SOL     OW22444   1.660   2.545   5.183
 7182SOL    HW122445   1.754   2.511   5.183
 7182SOL    HW222446   1.659   2.638   5.219
 7183SOL     OW22447   2.524   6.146   0.011
 7183SOL    HW122448   2.512   6.053   0.045
 7183SOL    HW222449   2.534   6.210   0.088
 7184SOL     OW22450   0.251   1.211   3.098
 7184SOL    HW122451   0.216   1.258   3.178
 7184SOL    HW222452   0.178   1.156   3.057
 7185SOL     OW22453   5.546   0.489   5.377
 7185SOL    HW122454   5.524   0.576   5.423
 7185SOL    HW222455   5.605   0.507   5.299
 7186SOL     OW22456   6.214   0.398   0.074
 7186SOL    HW122457   6.260   0.342   0.142
 7186SOL    HW222458   6.248   0.492   0.079
 7187SOL     OW22459   3.551   3.846   0.013
 7187SOL    HW122460   3.580   3.895   6.955
 7187SOL    HW222461   3.547   3.910   0.090
 7188SOL     OW22462   6.115   0.291   0.963
 7188SOL    HW122463   6.108   0.229   0.885
 7188SOL    HW222464   6.024   0.324   0.987
 7189SOL     OW22465   0.429   1.036   6.004
 7189SOL    HW122466   0.368   1.111   5.976
 7189SOL    HW222467   0.396   0.951   5.963
 7190SOL     OW22468   6.844   3.672   3.283
 7190SOL    HW122469   6.781   3.607   3.240
 7190SOL    HW222470   6.809   3.699   3.372
 7191SOL     OW22471   0.192   4.541   2.971
 7191SOL    HW122472   0.270   4.479   2.963
 7191SOL    HW222473   0.152   4.534   3.062
 7192SOL     OW22474   3.351   4.453   5.783
 7192SOL    HW122475   3.449   4.436   5.780
 7192SOL    HW222476   3.318   4.447   5.877
 7193SOL     OW22477   1.986   2.785   2.515
 7193SOL    HW122478   2.055   2.853   2.488
 7193SOL    HW222479   1.945   2.745   2.433
 7194SOL     OW22480   3.089   2.346   1.008
 7194SOL    HW122481   3.025   2.414   0.972
 7194SOL    HW222482   3.180   2.387   1.016
 7195SOL     OW22483   6.898   4.559   6.765
 7195SOL    HW122484   6.828   4.564   6.694
 7195SOL    HW222485   6.932   4.465   6.771
 7196SOL     OW22486   3.198   4.239   1.085
 7196SOL    HW122487   3.159   4.295   1.012
 7196SOL    HW222488   3.135   4.164   1.107
 7197SOL     OW22489   0.036   2.254   5.904
 7197SOL    HW122490   7.000   2.282   5.829
 7197SOL    HW222491   7.016   2.275   5.992
 7198SOL     OW22492   0.813   0.952   6.537
 7198SOL    HW122493   0.737   0.909   6.584
 7198SOL    HW222494   0.782   0.985   6.447
 7199SOL     OW22495   2.214   1.144   2.427
 7199SOL    HW122496   2.151   1.067   2.437
 7199SOL    HW222497   2.222   1.168   2.330
 7200SOL     OW22498   2.925   2.228   0.794
 7200SOL    HW122499   2.905   2.308   0.737
 7200SOL    HW222500   2.950   2.257   0.886
 7201SOL     OW22501   1.016   5.903   4.453
 7201SOL    HW122502   1.115   5.899   4.438
 7201SOL    HW222503   0.992   5.850   4.534
 7202SOL     OW22504   4.328   0.715   6.133
 7202SOL    HW122505   4.425   0.738   6.137
 7202SOL    HW222506   4.288   0.751   6.048
 7203SOL     OW22507   0.207   1.904   0.864
 7203SOL    HW122508   0.135   1.920   0.796
 7203SOL    HW222509   0.183   1.949   0.950
 7204SOL     OW22510   0.295   6.833   5.425
 7204SOL    HW122511   0.342   6.921   5.428
 7204SOL    HW222512   0.196   6.848   5.430
 7205SOL     OW22513   0.810   5.508   3.058
 7205SOL    HW122514   0.898   5.471   3.027
 7205SOL    HW222515   0.756   5.434   3.099
 7206SOL     OW22516   2.198   0.297   1.016
 7206SOL    HW122517   2.206   0.213   0.962
 7206SOL    HW222518   2.263   0.295   1.091
 7207SOL     OW22519   3.654   0.183   2.104
 7207SOL    HW122520   3.751   0.163   2.093
 7207SOL    HW222521   3.639   0.281   2.092
 7208SOL     OW22522   3.951   6.421   3.463
 7208SOL    HW122523   4.043   6.456   3.482
 7208SOL    HW222524   3.922   6.361   3.538
 7209SOL     OW22525   2.973   3.897   2.453
 7209SOL    HW122526   2.986   3.989   2.492
 7209SOL    HW222527   3.029   3.887   2.372
 7210SOL     OW22528   4.517   0.441   4.140
 7210SOL    HW122529   4.602   0.405   4.102
 7210SOL    HW222530   4.534   0.529   4.185
 7211SOL     OW22531   2.224   5.625   4.235
 7211SOL    HW122532   2.208   5.715   4.193
 7211SOL    HW222533   2.319   5.620   4.266
 7212SOL     OW22534   0.371   6.792   4.426
 7212SOL    HW122535   0.350   6.827   4.334
 7212SOL    HW222536   0.456   6.739   4.422
 7213SOL     OW22537   5.537   0.424   6.481
 7213SOL    HW122538   5.634   0.402   6.485
 7213SOL    HW222539   5.523   0.519   6.511
 7214SOL     OW22540   0.677   5.302   5.115
 7214SOL    HW122541   0.615   5.331   5.187
 7214SOL    HW222542   0.680   5.373   5.044
 7215SOL     OW22543   0.463   3.046   5.154
 7215SOL    HW122544   0.493   3.080   5.065
 7215SOL    HW222545   0.390   2.980   5.142
 7216SOL     OW22546   3.041   5.812   6.993
 7216SOL    HW122547   2.955   5.845   6.953
 7216SOL    HW222548   3.073   5.879   0.035
 7217SOL     OW22549   2.269   4.229   2.801
 7217SOL    HW122550   2.294   4.168   2.726
 7217SOL    HW222551   2.190   4.285   2.774
 7218SOL     OW22552   5.079   2.492   5.231
 7218SOL    HW122553   5.056   2.482   5.327
 7218SOL    HW222554   5.174   2.520   5.221
 7219SOL     OW22555   4.645   6.533   4.630
 7219SOL    HW122556   4.593   6.544   4.715
 7219SOL    HW222557   4.738   6.504   4.652
 7220SOL     OW22558   0.632   5.973   4.724
 7220SOL    HW122559   0.721   6.006   4.756
 7220SOL    HW222560   0.646   5.905   4.652
 7221SOL     OW22561   4.318   5.196   4.619
 7221SOL    HW122562   4.291   5.104   4.593
 7221SOL    HW222563   4.301   5.259   4.543
 7222SOL     OW22564   6.112   0.449   3.016
 7222SOL    HW122565   6.020   0.411   3.006
 7222SOL    HW222566   6.126   0.520   2.947
 7223SOL     OW22567   2.561   2.107   1.458
 7223SOL    HW122568   2.521   2.142   1.373
 7223SOL    HW222569   2.518   2.020   1.482
 7224SOL     OW22570   5.922   2.246   4.312
 7224SOL    HW122571   5.948   2.337   4.344
 7224SOL    HW222572   5.916   2.246   4.212
 7225SOL     OW22573   0.738   6.068   6.540
 7225SOL    HW122574   0.824   6.051   6.587
 7225SOL    HW222575   0.737   6.161   6.504
 7226SOL     OW22576   0.249   0.946   0.678
 7226SOL    HW122577   0.227   1.034   0.635
 7226SOL    HW222578   0.195   0.874   0.636
 7227SOL     OW22579   0.545   2.412   1.153
 7227SOL    HW122580   0.552   2.478   1.228
 7227SOL    HW222581   0.451   2.414   1.117
 7228SOL     OW22582   0.846   1.045   2.249
 7228SOL    HW122583   0.860   1.130   2.299
 7228SOL    HW222584   0.749   1.032   2.231
 7229SOL     OW22585   1.252   6.952   4.854
 7229SOL    HW122586   1.240   6.853   4.859
 7229SOL    HW222587   1.214   6.995   4.936
 7230SOL     OW22588   4.880   5.083   4.223
 7230SOL    HW122589   4.974   5.114   4.207
 7230SOL    HW222590   4.825   5.160   4.255
 7231SOL     OW22591   4.887   0.084   0.318
 7231SOL    HW122592   4.820   0.037   0.375
 7231SOL    HW222593   4.840   0.126   0.240
 7232SOL     OW22594   5.154   5.281   3.052
 7232SOL    HW122595   5.079   5.271   3.118
 7232SOL    HW222596   5.231   5.225   3.081
 7233SOL     OW22597   0.546   2.514   4.111
 7233SOL    HW122598   0.456   2.558   4.122
 7233SOL    HW222599   0.613   2.582   4.084
 7234SOL     OW22600   5.207   3.085   3.886
 7234SOL    HW122601   5.280   3.056   3.948
 7234SOL    HW222602   5.228   3.054   3.794
 7235SOL     OW22603   6.809   3.886   2.551
 7235SOL    HW122604   6.879   3.956   2.568
 7235SOL    HW222605   6.824   3.846   2.460
 7236SOL     OW22606   2.478   1.523   2.530
 7236SOL    HW122607   2.447   1.481   2.445
 7236SOL    HW222608   2.487   1.453   2.601
 7237SOL     OW22609   6.267   7.010   5.011
 7237SOL    HW122610   6.170   7.016   4.987
 7237SOL    HW222611   6.311   6.940   4.954
 7238SOL     OW22612   3.010   2.019   1.378
 7238SOL    HW122613   2.954   2.097   1.408
 7238SOL    HW222614   3.092   2.053   1.332
 7239SOL     OW22615   2.219   1.699   2.683
 7239SOL    HW122616   2.295   1.734   2.737
 7239SOL    HW222617   2.168   1.775   2.643
 7240SOL     OW22618   2.093   4.921   6.035
 7240SOL    HW122619   2.112   5.010   5.992
 7240SOL    HW222620   2.179   4.872   6.049
 7241SOL     OW22621   2.947   0.796   0.447
 7241SOL    HW122622   2.855   0.780   0.483
 7241SOL    HW222623   2.987   0.710   0.417
 7242SOL     OW22624   6.283   5.923   0.340
 7242SOL    HW122625   6.330   5.839   0.312
 7242SOL    HW222626   6.199   5.934   0.287
 7243SOL     OW22627   7.002   4.590   5.953
 7243SOL    HW122628   6.934   4.663   5.948
 7243SOL    HW222629   7.000   4.536   5.869
 7244SOL     OW22630   5.883   0.538   0.934
 7244SOL    HW122631   5.812   0.585   0.880
 7244SOL    HW222632   5.841   0.463   0.986
 7245SOL     OW22633   0.485   2.229   5.284
 7245SOL    HW122634   0.569   2.221   5.338
 7245SOL    HW222635   0.501   2.191   5.193
 7246SOL     OW22636   6.132   0.232   4.803
 7246SOL    HW122637   6.089   0.156   4.851
 7246SOL    HW222638   6.151   0.305   4.869
 7247SOL     OW22639   3.115   6.747   3.859
 7247SOL    HW122640   3.148   6.654   3.844
 7247SOL    HW222641   3.187   6.812   3.835
 7248SOL     OW22642   3.655   0.768   3.329
 7248SOL    HW122643   3.644   0.725   3.239
 7248SOL    HW222644   3.749   0.757   3.360
 7249SOL     OW22645   5.327   4.773   1.689
 7249SOL    HW122646   5.229   4.780   1.708
 7249SOL    HW222647   5.374   4.739   1.770
 7250SOL     OW22648   3.811   6.016   6.135
 7250SOL    HW122649   3.865   6.099   6.144
 7250SOL    HW222650   3.859   5.940   6.180
 7251SOL     OW22651   0.493   6.635   5.386
 7251SOL    HW122652   0.565   6.657   5.319
 7251SOL    HW222653   0.428   6.710   5.391
 7252SOL     OW22654   3.873   3.003   3.676
 7252SOL    HW122655   3.817   2.963   3.749
 7252SOL    HW222656   3.819   3.010   3.593
 7253SOL     OW22657   1.669   6.141   6.856
 7253SOL    HW122658   1.729   6.202   6.907
 7253SOL    HW222659   1.723   6.070   6.811
 7254SOL     OW22660   4.676   5.567   4.858
 7254SOL    HW122661   4.622   5.622   4.921
 7254SOL    HW222662   4.636   5.476   4.851
 7255SOL     OW22663   3.838   3.522   1.101
 7255SOL    HW122664   3.912   3.456   1.110
 7255SOL    HW222665   3.788   3.529   1.187
 7256SOL     OW22666   4.713   4.556   4.398
 7256SOL    HW122667   4.734   4.628   4.465
 7256SOL    HW222668   4.776   4.562   4.321
 7257SOL     OW22669   4.704   2.699   3.778
 7257SOL    HW122670   4.690   2.761   3.856
 7257SOL    HW222671   4.734   2.610   3.812
 7258SOL     OW22672   4.036   1.360   3.250
 7258SOL    HW122673   4.020   1.448   3.205
 7258SOL    HW222674   3.948   1.318   3.273
 7259SOL     OW22675   3.502   3.332   1.814
 7259SOL    HW122676   3.425   3.271   1.797
 7259SOL    HW222677   3.505   3.357   1.910
 7260SOL     OW22678   2.732   2.378   2.877
 7260SOL    HW122679   2.725   2.403   2.781
 7260SOL    HW222680   2.822   2.338   2.894
 7261SOL     OW22681   2.383   3.211   0.835
 7261SOL    HW122682   2.297   3.227   0.787
 7261SOL    HW222683   2.430   3.134   0.792
 7262SOL     OW22684   5.621   2.164   4.004
 7262SOL    HW122685   5.595   2.228   3.932
 7262SOL    HW222686   5.643   2.216   4.087
 7263SOL     OW22687   6.854   6.134   2.498
 7263SOL    HW122688   6.911   6.150   2.578
 7263SOL    HW222689   6.906   6.156   2.415
 7264SOL     OW22690   6.223   1.432   6.749
 7264SOL    HW122691   6.285   1.498   6.791
 7264SOL    HW222692   6.191   1.367   6.818
 7265SOL     OW22693   5.477   5.729   5.856
 7265SOL    HW122694   5.574   5.739   5.879
 7265SOL    HW222695   5.424   5.798   5.906
 7266SOL     OW22696   4.135   0.057   0.960
 7266SOL    HW122697   4.045   0.041   1.000
 7266SOL    HW222698   4.203   0.061   1.033
 7267SOL     OW22699   0.033   5.329   5.731
 7267SOL    HW122700   0.019   5.262   5.659
 7267SOL    HW222701   6.973   5.341   5.783
 7268SOL     OW22702   4.379   4.933   2.852
 7268SOL    HW122703   4.440   4.857   2.826
 7268SOL    HW222704   4.313   4.901   2.919
 7269SOL     OW22705   6.840   6.155   0.881
 7269SOL    HW122706   6.751   6.152   0.926
 7269SOL    HW222707   6.869   6.251   0.871
 7270SOL     OW22708   1.253   2.705   4.399
 7270SOL    HW122709   1.308   2.776   4.443
 7270SOL    HW222710   1.163   2.701   4.442
 7271SOL     OW22711   0.375   4.716   3.994
 7271SOL    HW122712   0.354   4.661   3.913
 7271SOL    HW222713   0.411   4.657   4.066
 7272SOL     OW22714   5.598   4.810   1.866
 7272SOL    HW122715   5.622   4.725   1.913
 7272SOL    HW222716   5.569   4.878   1.934
 7273SOL     OW22717   5.460   4.962   2.595
 7273SOL    HW122718   5.475   4.864   2.594
 7273SOL    HW222719   5.412   4.988   2.679
 7274SOL     OW22720   1.150   6.390   6.010
 7274SOL    HW122721   1.231   6.349   6.053
 7274SOL    HW222722   1.158   6.489   6.011
 7275SOL     OW22723   6.654   1.030   2.484
 7275SOL    HW122724   6.625   0.944   2.441
 7275SOL    HW222725   6.617   1.107   2.432
 7276SOL     OW22726   3.472   1.455   3.551
 7276SOL    HW122727   3.499   1.548   3.525
 7276SOL    HW222728   3.377   1.455   3.582
 7277SOL     OW22729   5.487   1.352   4.453
 7277SOL    HW122730   5.450   1.429   4.402
 7277SOL    HW222731   5.540   1.293   4.391
 7278SOL     OW22732   2.990   1.832   2.373
 7278SOL    HW122733   2.951   1.794   2.289
 7278SOL    HW222734   3.048   1.763   2.417
 7279SOL     OW22735   4.240   3.168   6.364
 7279SOL    HW122736   4.304   3.116   6.419
 7279SOL    HW222737   4.171   3.107   6.326
 7280SOL     OW22738   6.612   2.314   4.525
 7280SOL    HW122739   6.645   2.283   4.436
 7280SOL    HW222740   6.520   2.352   4.515
 7281SOL     OW22741   2.368   0.331   0.287
 7281SOL    HW122742   2.271   0.315   0.275
 7281SOL    HW222743   2.419   0.246   0.267
 7282SOL     OW22744   6.464   6.513   0.721
 7282SOL    HW122745   6.406   6.553   0.650
 7282SOL    HW222746   6.485   6.418   0.697
 7283SOL     OW22747   2.219   6.869   1.939
 7283SOL    HW122748   2.166   6.798   1.986
 7283SOL    HW222749   2.289   6.904   2.001
 7284SOL     OW22750   0.356   3.036   4.431
 7284SOL    HW122751   0.258   3.017   4.434
 7284SOL    HW222752   0.374   3.128   4.467
 7285SOL     OW22753   5.514   3.661   1.580
 7285SOL    HW122754   5.566   3.636   1.499
 7285SOL    HW222755   5.544   3.750   1.613
 7286SOL     OW22756   0.957   0.635   0.612
 7286SOL    HW122757   0.928   0.539   0.616
 7286SOL    HW222758   1.051   0.642   0.645
 7287SOL     OW22759   0.066   3.399   4.735
 7287SOL    HW122760   0.064   3.476   4.798
 7287SOL    HW222761   0.161   3.374   4.716
 7288SOL     OW22762   0.985   2.830   2.149
 7288SOL    HW122763   1.011   2.740   2.115
 7288SOL    HW222764   1.061   2.894   2.134
 7289SOL     OW22765   6.538   2.606   2.570
 7289SOL    HW122766   6.488   2.615   2.484
 7289SOL    HW222767   6.479   2.563   2.638
 7290SOL     OW22768   3.237   0.930   5.467
 7290SOL    HW122769   3.330   0.896   5.482
 7290SOL    HW222770   3.174   0.885   5.531
 7291SOL     OW22771   3.092   6.927   0.518
 7291SOL    HW122772   3.141   6.906   0.433
 7291SOL    HW222773   3.108   6.854   0.585
 7292SOL     OW22774   2.247   0.128   3.053
 7292SOL    HW122775   2.265   0.127   3.151
 7292SOL    HW222776   2.322   0.082   3.005
 7293SOL     OW22777   1.758   1.076   5.908
 7293SOL    HW122778   1.743   1.175   5.910
 7293SOL    HW222779   1.688   1.031   5.963
 7294SOL     OW22780   2.927   4.423   0.367
 7294SOL    HW122781   2.962   4.331   0.382
 7294SOL    HW222782   2.991   4.490   0.404
 7295SOL     OW22783   6.971   4.280   1.471
 7295SOL    HW122784   0.029   4.322   1.431
 7295SOL    HW222785   6.898   4.278   1.403
 7296SOL     OW22786   4.336   5.156   2.417
 7296SOL    HW122787   4.315   5.092   2.491
 7296SOL    HW222788   4.434   5.176   2.418
 7297SOL     OW22789   2.462   6.744   2.784
 7297SOL    HW122790   2.363   6.734   2.783
 7297SOL    HW222791   2.501   6.704   2.702
 7298SOL     OW22792   5.319   5.288   0.287
 7298SOL    HW122793   5.341   5.316   0.380
 7298SOL    HW222794   5.351   5.358   0.223
 7299SOL     OW22795   0.779   1.798   0.712
 7299SOL    HW122796   0.828   1.724   0.663
 7299SOL    HW222797   0.682   1.776   0.715
 7300SOL     OW22798   0.771   5.421   1.985
 7300SOL    HW122799   0.842   5.461   2.044
 7300SOL    HW222800   0.804   5.333   1.949
 7301SOL     OW22801   6.804   1.661   5.922
 7301SOL    HW122802   6.770   1.716   5.999
 7301SOL    HW222803   6.854   1.582   5.958
 7302SOL     OW22804   0.335   1.906   5.341
 7302SOL    HW122805   0.344   1.821   5.393
 7302SOL    HW222806   0.399   1.904   5.264
 7303SOL     OW22807   3.201   0.933   6.637
 7303SOL    HW122808   3.145   0.887   6.568
 7303SOL    HW222809   3.165   0.912   6.728
 7304SOL     OW22810   2.137   5.701   1.695
 7304SOL    HW122811   2.109   5.778   1.753
 7304SOL    HW222812   2.063   5.681   1.630
 7305SOL     OW22813   6.040   2.326   1.329
 7305SOL    HW122814   6.025   2.420   1.298
 7305SOL    HW222815   5.953   2.286   1.359
 7306SOL     OW22816   3.718   1.586   1.759
 7306SOL    HW122817   3.749   1.628   1.674
 7306SOL    HW222818   3.619   1.598   1.768
 7307SOL     OW22819   4.251   6.862   2.252
 7307SOL    HW122820   4.243   6.959   2.228
 7307SOL    HW222821   4.160   6.821   2.259
 7308SOL     OW22822   0.168   1.681   3.368
 7308SOL    HW122823   0.267   1.693   3.380
 7308SOL    HW222824   0.151   1.621   3.289
 7309SOL     OW22825   2.284   6.441   1.832
 7309SOL    HW122826   2.361   6.386   1.797
 7309SOL    HW222827   2.287   6.531   1.790
 7310SOL     OW22828   1.592   3.589   6.011
 7310SOL    HW122829   1.675   3.597   5.955
 7310SOL    HW222830   1.535   3.515   5.975
 7311SOL     OW22831   0.845   0.041   0.458
 7311SOL    HW122832   0.752   0.039   0.495
 7311SOL    HW222833   0.875   0.135   0.445
 7312SOL     OW22834   0.821   1.919   5.189
 7312SOL    HW122835   0.823   1.999   5.128
 7312SOL    HW222836   0.895   1.926   5.255
 7313SOL     OW22837   2.715   1.757   0.433
 7313SOL    HW122838   2.754   1.758   0.341
 7313SOL    HW222839   2.724   1.848   0.474
 7314SOL     OW22840   6.832   3.859   6.294
 7314SOL    HW122841   6.890   3.939   6.308
 7314SOL    HW222842   6.889   3.781   6.267
 7315SOL     OW22843   5.667   5.210   2.429
 7315SOL    HW122844   5.647   5.129   2.375
 7315SOL    HW222845   5.743   5.191   2.492
 7316SOL     OW22846   3.360   2.245   6.403
 7316SOL    HW122847   3.281   2.219   6.347
 7316SOL    HW222848   3.416   2.310   6.352
 7317SOL     OW22849   3.628   1.274   2.240
 7317SOL    HW122850   3.663   1.212   2.170
 7317SOL    HW222851   3.610   1.364   2.200
 7318SOL     OW22852   3.228   6.512   2.444
 7318SOL    HW122853   3.317   6.544   2.477
 7318SOL    HW222854   3.179   6.589   2.403
 7319SOL     OW22855   5.981   3.876   6.170
 7319SOL    HW122856   5.905   3.815   6.147
 7319SOL    HW222857   6.058   3.858   6.109
 7320SOL     OW22858   0.575   3.238   6.981
 7320SOL    HW122859   0.544   3.305   0.024
 7320SOL    HW222860   0.627   3.284   6.910
 7321SOL     OW22861   1.921   6.732   6.128
 7321SOL    HW122862   1.894   6.824   6.154
 7321SOL    HW222863   1.840   6.673   6.124
 7322SOL     OW22864   7.014   2.848   2.963
 7322SOL    HW122865   6.948   2.897   2.906
 7322SOL    HW222866   0.081   2.885   2.947
 7323SOL     OW22867   2.626   2.037   1.034
 7323SOL    HW122868   2.716   2.020   1.073
 7323SOL    HW222869   2.579   2.106   1.088
 7324SOL     OW22870   6.112   4.504   2.469
 7324SOL    HW122871   6.205   4.470   2.480
 7324SOL    HW222872   6.056   4.472   2.545
 7325SOL     OW22873   2.788   0.109   5.313
 7325SOL    HW122874   2.779   0.165   5.395
 7325SOL    HW222875   2.784   0.013   5.337
 7326SOL     OW22876   3.748   0.851   6.301
 7326SOL    HW122877   3.740   0.812   6.392
 7326SOL    HW222878   3.818   0.923   6.302
 7327SOL     OW22879   5.530   3.751   3.718
 7327SOL    HW122880   5.589   3.800   3.654
 7327SOL    HW222881   5.585   3.719   3.796
 7328SOL     OW22882   4.681   6.426   6.212
 7328SOL    HW122883   4.753   6.460   6.273
 7328SOL    HW222884   4.674   6.486   6.132
 7329SOL     OW22885   1.008   2.654   6.928
 7329SOL    HW122886   1.068   2.574   6.932
 7329SOL    HW222887   1.062   2.737   6.938
 7330SOL     OW22888   2.880   2.855   1.392
 7330SOL    HW122889   2.833   2.767   1.377
 7330SOL    HW222890   2.978   2.843   1.378
 7331SOL     OW22891   4.981   6.338   1.902
 7331SOL    HW122892   5.060   6.399   1.891
 7331SOL    HW222893   5.012   6.246   1.924
 7332SOL     OW22894   4.059   4.202   6.875
 7332SOL    HW122895   3.996   4.197   6.953
 7332SOL    HW222896   4.033   4.133   6.807
 7333SOL     OW22897   6.001   3.128   3.178
 7333SOL    HW122898   5.978   3.218   3.140
 7333SOL    HW222899   6.021   3.065   3.103
 7334SOL     OW22900   3.100   5.256   5.739
 7334SOL    HW122901   3.042   5.226   5.815
 7334SOL    HW222902   3.087   5.195   5.660
 7335SOL     OW22903   0.248   2.868   3.238
 7335SOL    HW122904   0.212   2.959   3.258
 7335SOL    HW222905   0.270   2.862   3.140
 7336SOL     OW22906   2.354   6.236   1.099
 7336SOL    HW122907   2.452   6.250   1.090
 7336SOL    HW222908   2.313   6.233   1.008
 7337SOL     OW22909   2.632   2.992   1.359
 7337SOL    HW122910   2.719   2.948   1.336
 7337SOL    HW222911   2.642   3.091   1.357
 7338SOL     OW22912   6.362   2.021   1.573
 7338SOL    HW122913   6.462   2.022   1.561
 7338SOL    HW222914   6.321   2.086   1.510
 7339SOL     OW22915   0.065   6.628   5.742
 7339SOL    HW122916   7.019   6.632   5.812
 7339SOL    HW222917   0.104   6.720   5.730
 7340SOL     OW22918   4.308   1.783   6.978
 7340SOL    HW122919   4.302   1.713   6.907
 7340SOL    HW222920   4.404   1.806   6.994
 7341SOL     OW22921   1.179   5.081   4.922
 7341SOL    HW122922   1.273   5.047   4.919
 7341SOL    HW222923   1.166   5.149   4.850
 7342SOL     OW22924   6.109   6.963   0.458
 7342SOL    HW122925   6.172   6.969   0.381
 7342SOL    HW222926   6.017   6.941   0.425
 7343SOL     OW22927   5.489   3.061   2.187
 7343SOL    HW122928   5.514   3.004   2.265
 7343SOL    HW222929   5.564   3.062   2.121
 7344SOL     OW22930   1.893   0.093   6.520
 7344SOL    HW122931   1.894   0.122   6.616
 7344SOL    HW222932   1.861   0.169   6.463
 7345SOL     OW22933   4.796   5.560   5.626
 7345SOL    HW122934   4.751   5.648   5.643
 7345SOL    HW222935   4.737   5.486   5.660
 7346SOL     OW22936   3.952   3.754   1.009
 7346SOL    HW122937   3.916   3.662   1.027
 7346SOL    HW222938   4.041   3.763   1.054
 7347SOL     OW22939   6.805   2.408   1.678
 7347SOL    HW122940   6.881   2.344   1.689
 7347SOL    HW222941   6.792   2.427   1.580
 7348SOL     OW22942   1.562   3.424   3.688
 7348SOL    HW122943   1.543   3.518   3.660
 7348SOL    HW222944   1.499   3.397   3.761
 7349SOL     OW22945   3.305   1.786   1.371
 7349SOL    HW122946   3.336   1.877   1.396
 7349SOL    HW222947   3.268   1.787   1.278
 7350SOL     OW22948   1.204   3.064   3.890
 7350SOL    HW122949   1.125   3.080   3.949
 7350SOL    HW222950   1.172   3.047   3.797
 7351SOL     OW22951   4.322   5.193   6.189
 7351SOL    HW122952   4.409   5.144   6.201
 7351SOL    HW222953   4.272   5.151   6.113
 7352SOL     OW22954   2.142   2.400   3.499
 7352SOL    HW122955   2.099   2.476   3.546
 7352SOL    HW222956   2.125   2.407   3.401
 7353SOL     OW22957   0.523   0.479   5.683
 7353SOL    HW122958   0.472   0.477   5.598
 7353SOL    HW222959   0.575   0.394   5.694
 7354SOL     OW22960   0.343   1.147   6.243
 7354SOL    HW122961   0.422   1.202   6.270
 7354SOL    HW222962   0.371   1.077   6.177
 7355SOL     OW22963   1.483   6.691   0.008
 7355SOL    HW122964   1.413   6.667   6.965
 7355SOL    HW222965   1.438   6.721   0.093
 7356SOL     OW22966   5.322   2.955   6.033
 7356SOL    HW122967   5.249   2.918   5.975
 7356SOL    HW222968   5.350   2.885   6.100
 7357SOL     OW22969   4.785   1.332   1.109
 7357SOL    HW122970   4.700   1.289   1.138
 7357SOL    HW222971   4.860   1.297   1.165
 7358SOL     OW22972   2.097   2.323   2.136
 7358SOL    HW122973   2.076   2.353   2.229
 7358SOL    HW222974   2.075   2.225   2.127
 7359SOL     OW22975   3.445   2.144   1.051
 7359SOL    HW122976   3.421   2.241   1.055
 7359SOL    HW222977   3.466   2.111   1.143
 7360SOL     OW22978   3.123   2.170   6.230
 7360SOL    HW122979   3.026   2.194   6.231
 7360SOL    HW222980   3.146   2.130   6.141
 7361SOL     OW22981   4.240   6.503   1.824
 7361SOL    HW122982   4.284   6.413   1.824
 7361SOL    HW222983   4.179   6.510   1.903
 7362SOL     OW22984   0.699   0.055   4.905
 7362SOL    HW122985   0.635   0.121   4.945
 7362SOL    HW222986   0.726   0.085   4.814
 7363SOL     OW22987   3.937   1.638   1.331
 7363SOL    HW122988   3.980   1.592   1.409
 7363SOL    HW222989   3.850   1.594   1.309
 7364SOL     OW22990   4.019   6.811   1.392
 7364SOL    HW122991   4.011   6.741   1.322
 7364SOL    HW222992   4.057   6.771   1.475
 7365SOL     OW22993   1.441   5.839   2.126
 7365SOL    HW122994   1.364   5.897   2.101
 7365SOL    HW222995   1.521   5.896   2.144
 7366SOL     OW22996   1.709   5.623   0.403
 7366SOL    HW122997   1.669   5.590   0.488
 7366SOL    HW222998   1.651   5.695   0.364
 7367SOL     OW22999   4.238   3.825   1.434
 7367SOL    HW123000   4.186   3.911   1.434
 7367SOL    HW223001   4.315   3.833   1.371
 7368SOL     OW23002   3.681   2.990   4.388
 7368SOL    HW123003   3.691   3.049   4.468
 7368SOL    HW223004   3.595   2.940   4.394
 7369SOL     OW23005   5.356   3.198   0.922
 7369SOL    HW123006   5.368   3.154   1.010
 7369SOL    HW223007   5.422   3.273   0.913
 7370SOL     OW23008   2.145   0.794   5.359
 7370SOL    HW123009   2.121   0.707   5.403
 7370SOL    HW223010   2.166   0.862   5.430
 7371SOL     OW23011   2.364   5.394   3.712
 7371SOL    HW123012   2.408   5.481   3.693
 7371SOL    HW223013   2.267   5.399   3.689
 7372SOL     OW23014   3.040   0.597   5.560
 7372SOL    HW123015   2.975   0.655   5.510
 7372SOL    HW223016   3.041   0.624   5.656
 7373SOL     OW23017   5.218   1.271   3.474
 7373SOL    HW123018   5.145   1.203   3.477
 7373SOL    HW223019   5.277   1.259   3.554
 7374SOL     OW23020   2.873   2.468   5.510
 7374SOL    HW123021   2.969   2.461   5.540
 7374SOL    HW223022   2.850   2.388   5.455
 7375SOL     OW23023   2.029   2.101   3.567
 7375SOL    HW123024   1.941   2.121   3.610
 7375SOL    HW223025   2.103   2.128   3.628
 7376SOL     OW23026   3.798   1.516   0.320
 7376SOL    HW123027   3.707   1.558   0.326
 7376SOL    HW223028   3.860   1.561   0.384
 7377SOL     OW23029   5.023   6.071   1.896
 7377SOL    HW123030   5.000   6.102   1.803
 7377SOL    HW223031   5.030   5.971   1.896
 7378SOL     OW23032   0.369   2.360   4.824
 7378SOL    HW123033   0.307   2.430   4.859
 7378SOL    HW223034   0.324   2.308   4.752
 7379SOL     OW23035   3.994   2.199   3.047
 7379SOL    HW123036   4.055   2.244   2.983
 7379SOL    HW223037   4.043   2.181   3.132
 7380SOL     OW23038   6.552   3.642   5.182
 7380SOL    HW123039   6.630   3.636   5.244
 7380SOL    HW223040   6.576   3.700   5.104
 7381SOL     OW23041   4.883   3.774   2.399
 7381SOL    HW123042   4.909   3.696   2.343
 7381SOL    HW223043   4.836   3.842   2.343
 7382SOL     OW23044   0.208   5.768   6.137
 7382SOL    HW123045   0.267   5.838   6.175
 7382SOL    HW223046   0.264   5.695   6.097
 7383SOL     OW23047   0.467   6.929   2.102
 7383SOL    HW123048   0.550   6.873   2.101
 7383SOL    HW223049   0.486   7.018   2.059
 7384SOL     OW23050   4.872   0.763   2.027
 7384SOL    HW123051   4.924   0.749   2.112
 7384SOL    HW223052   4.774   0.758   2.047
 7385SOL     OW23053   4.071   6.470   2.035
 7385SOL    HW123054   4.011   6.430   1.966
 7385SOL    HW223055   4.057   6.423   2.122
 7386SOL     OW23056   0.491   2.635   5.515
 7386SOL    HW123057   0.589   2.656   5.519
 7386SOL    HW223058   0.463   2.627   5.419
 7387SOL     OW23059   4.097   0.042   4.652
 7387SOL    HW123060   4.015   0.025   4.707
 7387SOL    HW223061   4.150   6.982   4.646
 7388SOL     OW23062   6.531   5.510   3.701
 7388SOL    HW123063   6.477   5.499   3.618
 7388SOL    HW223064   6.490   5.456   3.775
 7389SOL     OW23065   1.020   5.114   6.970
 7389SOL    HW123066   0.991   5.200   6.929
 7389SOL    HW223067   1.116   5.097   6.948
 7390SOL     OW23068   1.606   1.343   7.009
 7390SOL    HW123069   1.514   1.310   0.007
 7390SOL    HW223070   1.599   1.420   6.946
 7391SOL     OW23071   4.550   4.548   4.842
 7391SOL    HW123072   4.474   4.568   4.903
 7391SOL    HW223073   4.604   4.472   4.880
 7392SOL     OW23074   3.324   5.684   6.247
 7392SOL    HW123075   3.346   5.667   6.343
 7392SOL    HW223076   3.310   5.782   6.233
 7393SOL     OW23077   6.148   5.661   1.542
 7393SOL    HW123078   6.207   5.696   1.469
 7393SOL    HW223079   6.080   5.731   1.566
 7394SOL     OW23080   3.249   2.871   6.642
 7394SOL    HW123081   3.272   2.936   6.715
 7394SOL    HW223082   3.234   2.921   6.557
 7395SOL     OW23083   1.983   0.831   0.099
 7395SOL    HW123084   1.972   0.928   0.120
 7395SOL    HW223085   1.895   0.791   0.074
 7396SOL     OW23086   0.965   0.259   0.398
 7396SOL    HW123087   0.906   0.338   0.382
 7396SOL    HW223088   1.031   0.251   0.323
 7397SOL     OW23089   5.041   5.273   4.618
 7397SOL    HW123090   4.943   5.281   4.600
 7397SOL    HW223091   5.063   5.320   4.703
 7398SOL     OW23092   3.256   5.107   3.657
 7398SOL    HW123093   3.197   5.048   3.713
 7398SOL    HW223094   3.266   5.195   3.702
 7399SOL     OW23095   0.233   3.326   5.541
 7399SOL    HW123096   0.200   3.410   5.584
 7399SOL    HW223097   0.265   3.347   5.449
 7400SOL     OW23098   2.747   3.551   6.766
 7400SOL    HW123099   2.815   3.533   6.695
 7400SOL    HW223100   2.666   3.593   6.724
 7401SOL     OW23101   0.736   0.932   3.916
 7401SOL    HW123102   0.803   0.949   3.844
 7401SOL    HW223103   0.694   0.842   3.903
 7402SOL     OW23104   1.819   5.594   4.912
 7402SOL    HW123105   1.872   5.679   4.912
 7402SOL    HW223106   1.843   5.539   4.832
 7403SOL     OW23107   1.865   3.306   3.387
 7403SOL    HW123108   1.829   3.398   3.368
 7403SOL    HW223109   1.953   3.314   3.433
 7404SOL     OW23110   2.541   6.210   1.573
 7404SOL    HW123111   2.580   6.127   1.534
 7404SOL    HW223112   2.485   6.256   1.504
 7405SOL     OW23113   1.992   5.045   4.555
 7405SOL    HW123114   1.949   4.968   4.507
 7405SOL    HW223115   2.089   5.024   4.570
 7406SOL     OW23116   1.449   3.647   3.297
 7406SOL    HW123117   1.382   3.702   3.247
 7406SOL    HW223118   1.506   3.597   3.232
 7407SOL     OW23119   6.728   6.039   4.956
 7407SOL    HW123120   6.686   5.954   4.923
 7407SOL    HW223121   6.755   6.095   4.878
 7408SOL     OW23122   0.868   3.752   5.503
 7408SOL    HW123123   0.830   3.842   5.524
 7408SOL    HW223124   0.815   3.710   5.430
 7409SOL     OW23125   0.328   1.157   5.014
 7409SOL    HW123126   0.230   1.146   4.996
 7409SOL    HW223127   0.355   1.250   4.991
 7410SOL     OW23128   6.842   4.378   0.906
 7410SOL    HW123129   6.799   4.465   0.881
 7410SOL    HW223130   6.914   4.396   0.973
 7411SOL     OW23131   3.240   6.398   4.167
 7411SOL    HW123132   3.285   6.477   4.210
 7411SOL    HW223133   3.142   6.404   4.181
 7412SOL     OW23134   4.106   0.739   2.255
 7412SOL    HW123135   4.123   0.805   2.183
 7412SOL    HW223136   4.052   0.663   2.218
 7413SOL     OW23137   5.941   5.476   4.672
 7413SOL    HW123138   5.942   5.556   4.612
 7413SOL    HW223139   5.991   5.401   4.629
 7414SOL     OW23140   0.255   6.894   3.555
 7414SOL    HW123141   0.217   6.808   3.520
 7414SOL    HW223142   0.202   6.971   3.518
 7415SOL     OW23143   0.930   3.947   2.941
 7415SOL    HW123144   0.922   4.023   2.877
 7415SOL    HW223145   0.841   3.903   2.953
 7416SOL     OW23146   2.980   0.322   4.089
 7416SOL    HW123147   2.907   0.282   4.145
 7416SOL    HW223148   3.015   0.404   4.134
 7417SOL     OW23149   2.344   0.453   6.095
 7417SOL    HW123150   2.392   0.541   6.094
 7417SOL    HW223151   2.408   0.380   6.121
 7418SOL     OW23152   3.853   5.322   1.018
 7418SOL    HW123153   3.906   5.296   1.099
 7418SOL    HW223154   3.903   5.296   0.936
 7419SOL     OW23155   6.643   2.611   4.345
 7419SOL    HW123156   6.628   2.649   4.254
 7419SOL    HW223157   6.562   2.560   4.373
 7420SOL     OW23158   6.639   6.278   2.273
 7420SOL    HW123159   6.701   6.278   2.195
 7420SOL    HW223160   6.688   6.309   2.355
 7421SOL     OW23161   3.239   3.544   1.781
 7421SOL    HW123162   3.246   3.598   1.697
 7421SOL    HW223163   3.314   3.568   1.842
 7422SOL     OW23164   0.258   4.018   1.887
 7422SOL    HW123165   0.224   4.098   1.937
 7422SOL    HW223166   0.182   3.973   1.841
 7423SOL     OW23167   6.569   4.126   6.165
 7423SOL    HW123168   6.661   4.166   6.176
 7423SOL    HW223169   6.573   4.028   6.185
 7424SOL     OW23170   6.438   0.767   4.387
 7424SOL    HW123171   6.480   0.678   4.372
 7424SOL    HW223172   6.339   0.757   4.398
 7425SOL     OW23173   4.187   5.916   6.667
 7425SOL    HW123174   4.242   5.889   6.746
 7425SOL    HW223175   4.134   5.998   6.689
 7426SOL     OW23176   1.191   1.944   6.204
 7426SOL    HW123177   1.117   1.974   6.142
 7426SOL    HW223178   1.203   2.013   6.276
 7427SOL     OW23179   3.721   6.093   4.714
 7427SOL    HW123180   3.704   6.008   4.664
 7427SOL    HW223181   3.818   6.118   4.704
 7428SOL     OW23182   4.000   1.654   5.170
 7428SOL    HW123183   3.951   1.697   5.246
 7428SOL    HW223184   3.990   1.709   5.087
 7429SOL     OW23185   5.258   0.636   3.492
 7429SOL    HW123186   5.293   0.616   3.584
 7429SOL    HW223187   5.312   0.586   3.424
 7430SOL     OW23188   0.429   3.865   6.768
 7430SOL    HW123189   0.444   3.943   6.828
 7430SOL    HW223190   0.516   3.839   6.725
 7431SOL     OW23191   0.457   3.823   1.844
 7431SOL    HW123192   0.410   3.745   1.803
 7431SOL    HW223193   0.395   3.901   1.848
 7432SOL     OW23194   0.386   6.728   3.158
 7432SOL    HW123195   0.478   6.761   3.139
 7432SOL    HW223196   0.328   6.805   3.186
 7433SOL     OW23197   6.399   5.244   0.872
 7433SOL    HW123198   6.451   5.289   0.944
 7433SOL    HW223199   6.306   5.227   0.904
 7434SOL     OW23200   4.505   0.999   6.618
 7434SOL    HW123201   4.495   0.971   6.522
 7434SOL    HW223202   4.576   0.944   6.661
 7435SOL     OW23203   3.552   5.862   6.697
 7435SOL    HW123204   3.643   5.821   6.689
 7435SOL    HW223205   3.561   5.956   6.730
 7436SOL     OW23206   5.874   3.353   6.068
 7436SOL    HW123207   5.875   3.361   5.968
 7436SOL    HW223208   5.846   3.260   6.093
 7437SOL     OW23209   0.228   5.798   6.981
 7437SOL    HW123210   0.258   5.796   0.052
 7437SOL    HW223211   0.134   5.765   6.975
 7438SOL     OW23212   0.936   5.335   0.836
 7438SOL    HW123213   0.881   5.419   0.835
 7438SOL    HW223214   0.955   5.306   0.742
 7439SOL     OW23215   1.518   6.405   4.692
 7439SOL    HW123216   1.565   6.372   4.773
 7439SOL    HW223217   1.460   6.333   4.655
 7440SOL     OW23218   0.975   3.080   4.159
 7440SOL    HW123219   1.069   3.110   4.177
 7440SOL    HW223220   0.917   3.102   4.238
 7441SOL     OW23221   5.226   6.167   4.707
 7441SOL    HW123222   5.171   6.174   4.790
 7441SOL    HW223223   5.320   6.144   4.733
 7442SOL     OW23224   1.350   1.405   6.624
 7442SOL    HW123225   1.356   1.479   6.557
 7442SOL    HW223226   1.318   1.322   6.579
 7443SOL     OW23227   0.146   0.908   1.091
 7443SOL    HW123228   0.085   0.976   1.132
 7443SOL    HW223229   0.235   0.950   1.072
 7444SOL     OW23230   6.905   3.942   4.967
 7444SOL    HW123231   6.856   4.020   5.006
 7444SOL    HW223232   6.967   3.974   4.896
 7445SOL     OW23233   3.674   0.282   1.366
 7445SOL    HW123234   3.720   0.367   1.339
 7445SOL    HW223235   3.667   0.221   1.287
 7446SOL     OW23236   5.686   4.507   0.733
 7446SOL    HW123237   5.664   4.540   0.825
 7446SOL    HW223238   5.671   4.409   0.728
 7447SOL     OW23239   1.586   3.269   5.448
 7447SOL    HW123240   1.577   3.301   5.354
 7447SOL    HW223241   1.521   3.319   5.506
 7448SOL     OW23242   5.673   6.978   5.051
 7448SOL    HW123243   5.590   6.945   5.006
 7448SOL    HW223244   5.748   6.913   5.034
 7449SOL     OW23245   6.386   2.293   2.029
 7449SOL    HW123246   6.319   2.241   2.082
 7449SOL    HW223247   6.404   2.380   2.075
 7450SOL     OW23248   5.322   2.041   4.148
 7450SOL    HW123249   5.253   2.080   4.087
 7450SOL    HW223250   5.405   2.098   4.145
 7451SOL     OW23251   1.701   0.464   2.782
 7451SOL    HW123252   1.751   0.379   2.763
 7451SOL    HW223253   1.609   0.442   2.815
 7452SOL     OW23254   0.371   6.477   4.735
 7452SOL    HW123255   0.283   6.487   4.688
 7452SOL    HW223256   0.411   6.389   4.712
 7453SOL     OW23257   4.886   5.812   6.165
 7453SOL    HW123258   4.904   5.754   6.086
 7453SOL    HW223259   4.962   5.806   6.229
 7454SOL     OW23260   1.070   2.829   1.853
 7454SOL    HW123261   0.983   2.798   1.890
 7454SOL    HW223262   1.056   2.867   1.761
 7455SOL     OW23263   0.143   1.425   2.093
 7455SOL    HW123264   0.120   1.378   2.007
 7455SOL    HW223265   0.096   1.513   2.096
 7456SOL     OW23266   0.661   2.303   4.237
 7456SOL    HW123267   0.613   2.387   4.208
 7456SOL    HW223268   0.754   2.305   4.202
 7457SOL     OW23269   3.581   0.552   5.470
 7457SOL    HW123270   3.629   0.493   5.405
 7457SOL    HW223271   3.491   0.512   5.491
 7458SOL     OW23272   2.197   0.291   5.850
 7458SOL    HW123273   2.129   0.326   5.785
 7458SOL    HW223274   2.258   0.365   5.877
 7459SOL     OW23275   5.012   0.715   0.572
 7459SOL    HW123276   5.081   0.649   0.602
 7459SOL    HW223277   5.047   0.808   0.584
 7460SOL     OW23278   1.587   4.635   1.054
 7460SOL    HW123279   1.573   4.537   1.068
 7460SOL    HW223280   1.510   4.686   1.094
 7461SOL     OW23281   6.088   1.332   6.472
 7461SOL    HW123282   6.142   1.346   6.554
 7461SOL    HW223283   6.009   1.275   6.493
 7462SOL     OW23284   1.948   3.288   2.795
 7462SOL    HW123285   1.897   3.339   2.725
 7462SOL    HW223286   1.996   3.353   2.855
 7463SOL     OW23287   3.300   4.780   1.432
 7463SOL    HW123288   3.254   4.700   1.393
 7463SOL    HW223289   3.307   4.770   1.531
 7464SOL     OW23290   3.243   6.899   6.482
 7464SOL    HW123291   3.212   6.824   6.540
 7464SOL    HW223292   3.271   6.862   6.393
 7465SOL     OW23293   1.324   6.890   0.173
 7465SOL    HW123294   1.368   6.962   0.227
 7465SOL    HW223295   1.310   6.809   0.230
 7466SOL     OW23296   0.347   0.197   6.501
 7466SOL    HW123297   0.424   0.146   6.539
 7466SOL    HW223298   0.270   0.134   6.487
 7467SOL     OW23299   6.808   1.247   1.016
 7467SOL    HW123300   6.783   1.312   0.944
 7467SOL    HW223301   6.905   1.223   1.007
 7468SOL     OW23302   6.071   2.937   2.447
 7468SOL    HW123303   6.060   3.010   2.515
 7468SOL    HW223304   6.035   2.967   2.359
 7469SOL     OW23305   6.701   6.935   0.321
 7469SOL    HW123306   6.767   6.864   0.299
 7469SOL    HW223307   6.679   6.931   0.419
 7470SOL     OW23308   0.804   3.116   4.375
 7470SOL    HW123309   0.852   3.086   4.457
 7470SOL    HW223310   0.751   3.199   4.396
 7471SOL     OW23311   5.721   6.035   5.804
 7471SOL    HW123312   5.678   6.105   5.748
 7471SOL    HW223313   5.806   6.005   5.759
 7472SOL     OW23314   5.699   6.475   4.452
 7472SOL    HW123315   5.628   6.436   4.395
 7472SOL    HW223316   5.754   6.539   4.399
 7473SOL     OW23317   0.270   4.268   2.417
 7473SOL    HW123318   0.348   4.317   2.456
 7473SOL    HW223319   0.301   4.184   2.373
 7474SOL     OW23320   2.352   1.493   5.546
 7474SOL    HW123321   2.441   1.520   5.507
 7474SOL    HW223322   2.338   1.395   5.532
 7475SOL     OW23323   3.574   1.520   2.116
 7475SOL    HW123324   3.490   1.570   2.092
 7475SOL    HW223325   3.637   1.581   2.163
 7476SOL     OW23326   3.384   5.511   4.413
 7476SOL    HW123327   3.426   5.464   4.335
 7476SOL    HW223328   3.448   5.577   4.451
 7477SOL     OW23329   6.226   1.275   4.357
 7477SOL    HW123330   6.324   1.265   4.373
 7477SOL    HW223331   6.210   1.347   4.289
 7478SOL     OW23332   4.434   4.811   6.838
 7478SOL    HW123333   4.438   4.893   6.781
 7478SOL    HW223334   4.384   4.739   6.789
 7479SOL     OW23335   4.037   2.670   1.135
 7479SOL    HW123336   3.979   2.588   1.143
 7479SOL    HW223337   4.012   2.735   1.207
 7480SOL     OW23338   6.580   4.265   1.593
 7480SOL    HW123339   6.619   4.182   1.634
 7480SOL    HW223340   6.603   4.344   1.650
 7481SOL     OW23341   5.937   5.140   2.542
 7481SOL    HW123342   5.996   5.060   2.554
 7481SOL    HW223343   5.946   5.175   2.449
 7482SOL     OW23344   5.486   1.849   2.985
 7482SOL    HW123345   5.483   1.904   2.901
 7482SOL    HW223346   5.394   1.824   3.012
 7483SOL     OW23347   4.595   2.343   5.053
 7483SOL    HW123348   4.694   2.356   5.050
 7483SOL    HW223349   4.570   2.262   5.002
 7484SOL     OW23350   0.646   6.833   3.121
 7484SOL    HW123351   0.689   6.872   3.040
 7484SOL    HW223352   0.715   6.816   3.191
 7485SOL     OW23353   2.990   6.661   4.872
 7485SOL    HW123354   2.958   6.584   4.928
 7485SOL    HW223355   2.920   6.733   4.871
 7486SOL     OW23356   2.983   0.431   6.215
 7486SOL    HW123357   2.910   0.479   6.265
 7486SOL    HW223358   2.943   0.384   6.136
 7487SOL     OW23359   2.601   6.563   2.480
 7487SOL    HW123360   2.692   6.535   2.449
 7487SOL    HW223361   2.570   6.642   2.428
 7488SOL     OW23362   1.942   6.945   4.596
 7488SOL    HW123363   1.888   7.017   4.639
 7488SOL    HW223364   1.964   6.971   4.502
 7489SOL     OW23365   5.397   2.520   4.658
 7489SOL    HW123366   5.456   2.442   4.677
 7489SOL    HW223367   5.381   2.571   4.743
 7490SOL     OW23368   0.824   1.914   0.956
 7490SOL    HW123369   0.834   1.868   0.868
 7490SOL    HW223370   0.745   1.975   0.953
 7491SOL     OW23371   6.800   3.462   6.979
 7491SOL    HW123372   6.736   3.385   6.969
 7491SOL    HW223373   6.859   3.467   6.899
 7492SOL     OW23374   2.911   1.292   4.393
 7492SOL    HW123375   2.909   1.350   4.475
 7492SOL    HW223376   2.981   1.221   4.404
 7493SOL     OW23377   6.859   4.139   6.833
 7493SOL    HW123378   6.771   4.182   6.857
 7493SOL    HW223379   6.921   4.209   6.797
 7494SOL     OW23380   6.080   0.882   2.568
 7494SOL    HW123381   6.043   0.790   2.579
 7494SOL    HW223382   6.004   0.948   2.560
 7495SOL     OW23383   2.427   0.997   0.703
 7495SOL    HW123384   2.443   0.927   0.772
 7495SOL    HW223385   2.480   0.975   0.621
 7496SOL     OW23386   0.330   3.619   6.938
 7496SOL    HW123387   0.372   3.697   6.891
 7496SOL    HW223388   0.246   3.649   6.983
 7497SOL     OW23389   2.889   4.003   0.193
 7497SOL    HW123390   2.855   3.930   0.253
 7497SOL    HW223391   2.889   3.970   0.098
 7498SOL     OW23392   2.271   1.252   5.388
 7498SOL    HW123393   2.230   1.325   5.333
 7498SOL    HW223394   2.340   1.204   5.333
 7499SOL     OW23395   4.809   0.801   3.568
 7499SOL    HW123396   4.732   0.741   3.588
 7499SOL    HW223397   4.892   0.746   3.555
 7500SOL     OW23398   3.842   5.782   4.251
 7500SOL    HW123399   3.938   5.812   4.246
 7500SOL    HW223400   3.782   5.860   4.243
 7501SOL     OW23401   6.575   4.626   4.172
 7501SOL    HW123402   6.607   4.592   4.084
 7501SOL    HW223403   6.647   4.680   4.215
 7502SOL     OW23404   1.304   0.415   4.713
 7502SOL    HW123405   1.237   0.341   4.725
 7502SOL    HW223406   1.355   0.401   4.629
 7503SOL     OW23407   2.073   1.292   0.620
 7503SOL    HW123408   2.169   1.277   0.646
 7503SOL    HW223409   2.044   1.383   0.649
 7504SOL     OW23410   2.348   0.145   3.317
 7504SOL    HW123411   2.295   0.196   3.384
 7504SOL    HW223412   2.354   0.049   3.345
 7505SOL     OW23413   2.567   1.800   5.659
 7505SOL    HW123414   2.487   1.852   5.690
 7505SOL    HW223415   2.547   1.757   5.571
 7506SOL     OW23416   4.721   6.455   2.759
 7506SOL    HW123417   4.703   6.485   2.853
 7506SOL    HW223418   4.687   6.361   2.747
 7507SOL     OW23419   0.542   0.716   1.638
 7507SOL    HW123420   0.511   0.661   1.561
 7507SOL    HW223421   0.576   0.657   1.711
 7508SOL     OW23422   6.879   6.769   2.153
 7508SOL    HW123423   6.948   6.809   2.093
 7508SOL    HW223424   6.824   6.702   2.102
 7509SOL     OW23425   5.777   4.453   1.419
 7509SOL    HW123426   5.765   4.519   1.493
 7509SOL    HW223427   5.792   4.362   1.458
 7510SOL     OW23428   2.639   4.670   5.266
 7510SOL    HW123429   2.698   4.614   5.207
 7510SOL    HW223430   2.550   4.682   5.221
 7511SOL     OW23431   1.947   6.692   3.360
 7511SOL    HW123432   1.880   6.621   3.380
 7511SOL    HW223433   1.996   6.668   3.276
 7512SOL     OW23434   3.402   4.679   6.674
 7512SOL    HW123435   3.308   4.689   6.643
 7512SOL    HW223436   3.463   4.673   6.594
 7513SOL     OW23437   2.081   2.102   1.775
 7513SOL    HW123438   2.075   2.140   1.867
 7513SOL    HW223439   2.141   2.159   1.719
 7514SOL     OW23440   2.264   5.224   1.787
 7514SOL    HW123441   2.283   5.318   1.815
 7514SOL    HW223442   2.168   5.202   1.807
 7515SOL     OW23443   0.507   5.702   1.956
 7515SOL    HW123444   0.410   5.725   1.953
 7515SOL    HW223445   0.555   5.764   2.018
 7516SOL     OW23446   6.490   6.050   4.321
 7516SOL    HW123447   6.409   6.094   4.357
 7516SOL    HW223448   6.510   5.967   4.374
 7517SOL     OW23449   6.969   3.350   1.377
 7517SOL    HW123450   0.040   3.380   1.378
 7517SOL    HW223451   6.911   3.421   1.416
 7518SOL     OW23452   4.158   5.484   3.304
 7518SOL    HW123453   4.252   5.514   3.320
 7518SOL    HW223454   4.107   5.487   3.389
 7519SOL     OW23455   0.513   6.825   3.977
 7519SOL    HW123456   0.563   6.739   3.962
 7519SOL    HW223457   0.576   6.902   3.973
 7520SOL     OW23458   3.140   6.977   1.816
 7520SOL    HW123459   3.183   0.031   1.772
 7520SOL    HW223460   3.089   7.007   1.896
 7521SOL     OW23461   4.521   4.510   6.366
 7521SOL    HW123462   4.498   4.471   6.278
 7521SOL    HW223463   4.618   4.537   6.367
 7522SOL     OW23464   2.615   6.663   6.296
 7522SOL    HW123465   2.640   6.757   6.318
 7522SOL    HW223466   2.531   6.638   6.343
 7523SOL     OW23467   5.666   0.414   6.223
 7523SOL    HW123468   5.661   0.315   6.209
 7523SOL    HW223469   5.577   0.447   6.256
 7524SOL     OW23470   1.913   2.336   6.640
 7524SOL    HW123471   1.956   2.423   6.666
 7524SOL    HW223472   1.973   2.287   6.578
 7525SOL     OW23473   2.698   0.352   6.632
 7525SOL    HW123474   2.605   0.329   6.604
 7525SOL    HW223475   2.699   0.444   6.670
 7526SOL     OW23476   3.198   3.277   2.376
 7526SOL    HW123477   3.172   3.232   2.461
 7526SOL    HW223478   3.140   3.357   2.361
 7527SOL     OW23479   4.014   5.850   2.954
 7527SOL    HW123480   3.925   5.834   2.997
 7527SOL    HW223481   4.078   5.886   3.022
 7528SOL     OW23482   4.409   1.660   6.699
 7528SOL    HW123483   4.484   1.602   6.730
 7528SOL    HW223484   4.441   1.717   6.623
 7529SOL     OW23485   5.831   0.770   4.733
 7529SOL    HW123486   5.858   0.745   4.827
 7529SOL    HW223487   5.848   0.693   4.672
 7530SOL     OW23488   6.905   4.069   2.104
 7530SOL    HW123489   6.841   4.059   2.028
 7530SOL    HW223490   6.923   3.980   2.145
 7531SOL     OW23491   4.913   2.035   3.990
 7531SOL    HW123492   4.872   2.066   4.076
 7531SOL    HW223493   5.004   2.074   3.980
 7532SOL     OW23494   5.492   5.242   1.435
 7532SOL    HW123495   5.426   5.301   1.481
 7532SOL    HW223496   5.582   5.254   1.477
 7533SOL     OW23497   2.644   1.691   2.703
 7533SOL    HW123498   2.688   1.705   2.791
 7533SOL    HW223499   2.651   1.595   2.676
 7534SOL     OW23500   4.252   6.772   6.313
 7534SOL    HW123501   4.292   6.692   6.358
 7534SOL    HW223502   4.301   6.790   6.227
 7535SOL     OW23503   3.143   0.573   5.857
 7535SOL    HW123504   3.045   0.589   5.873
 7535SOL    HW223505   3.192   0.661   5.859
 7536SOL     OW23506   5.127   5.245   5.222
 7536SOL    HW123507   5.028   5.256   5.234
 7536SOL    HW223508   5.145   5.199   5.135
 7537SOL     OW23509   2.500   5.568   3.542
 7537SOL    HW123510   2.541   5.657   3.558
 7537SOL    HW223511   2.562   5.496   3.574
 7538SOL     OW23512   3.543   3.396   2.104
 7538SOL    HW123513   3.498   3.342   2.175
 7538SOL    HW223514   3.632   3.427   2.137
 7539SOL     OW23515   2.489   2.591   4.021
 7539SOL    HW123516   2.520   2.508   3.974
 7539SOL    HW223517   2.393   2.579   4.048
 7540SOL     OW23518   3.176   6.806   5.855
 7540SOL    HW123519   3.124   6.889   5.873
 7540SOL    HW223520   3.174   6.747   5.936
 7541SOL     OW23521   0.199   4.144   4.357
 7541SOL    HW123522   0.206   4.237   4.394
 7541SOL    HW223523   0.118   4.099   4.394
 7542SOL     OW23524   0.664   5.376   6.997
 7542SOL    HW123525   0.679   5.470   0.002
 7542SOL    HW223526   0.595   5.375   6.924
 7543SOL     OW23527   4.082   1.793   1.129
 7543SOL    HW123528   4.027   1.730   1.183
 7543SOL    HW223529   4.178   1.785   1.156
 7544SOL     OW23530   0.278   2.652   3.455
 7544SOL    HW123531   0.372   2.619   3.462
 7544SOL    HW223532   0.273   2.724   3.385
 7545SOL     OW23533   5.982   6.424   2.336
 7545SOL    HW123534   6.029   6.507   2.368
 7545SOL    HW223535   6.014   6.403   2.243
 7546SOL     OW23536   3.430   0.404   2.136
 7546SOL    HW123537   3.404   0.394   2.232
 7546SOL    HW223538   3.371   0.347   2.080
 7547SOL     OW23539   4.469   0.150   0.459
 7547SOL    HW123540   4.474   0.248   0.439
 7547SOL    HW223541   4.544   0.103   0.413
 7548SOL     OW23542   3.828   2.001   0.371
 7548SOL    HW123543   3.821   2.099   0.349
 7548SOL    HW223544   3.882   1.955   0.301
 7549SOL     OW23545   5.556   1.895   0.497
 7549SOL    HW123546   5.460   1.898   0.522
 7549SOL    HW223547   5.567   1.845   0.411
 7550SOL     OW23548   2.390   4.528   2.097
 7550SOL    HW123549   2.381   4.506   2.194
 7550SOL    HW223550   2.307   4.499   2.049
 7551SOL     OW23551   4.988   3.682   6.409
 7551SOL    HW123552   4.916   3.701   6.476
 7551SOL    HW223553   5.008   3.584   6.409
 7552SOL     OW23554   1.833   5.925   3.085
 7552SOL    HW123555   1.741   5.921   3.123
 7552SOL    HW223556   1.840   6.003   3.022
 7553SOL     OW23557   4.542   5.275   5.436
 7553SOL    HW123558   4.625   5.259   5.383
 7553SOL    HW223559   4.466   5.293   5.375
 7554SOL     OW23560   4.641   0.692   1.510
 7554SOL    HW123561   4.602   0.654   1.427
 7554SOL    HW223562   4.733   0.727   1.491
 7555SOL     OW23563   1.715   4.858   5.038
 7555SOL    HW123564   1.692   4.954   5.056
 7555SOL    HW223565   1.639   4.800   5.069
 7556SOL     OW23566   0.713   2.897   5.734
 7556SOL    HW123567   0.710   2.983   5.684
 7556SOL    HW223568   0.687   2.913   5.829
 7557SOL     OW23569   4.992   2.637   5.976
 7557SOL    HW123570   5.011   2.716   5.918
 7557SOL    HW223571   5.074   2.611   6.026
 7558SOL     OW23572   2.323   2.759   3.852
 7558SOL    HW123573   2.273   2.799   3.930
 7558SOL    HW223574   2.410   2.722   3.884
 7559SOL     OW23575   6.341   4.897   6.923
 7559SOL    HW123576   6.275   4.875   6.851
 7559SOL    HW223577   6.431   4.915   6.883
 7560SOL     OW23578   5.398   6.528   0.638
 7560SOL    HW123579   5.435   6.501   0.549
 7560SOL    HW223580   5.435   6.618   0.663
 7561SOL     OW23581   1.008   3.081   6.770
 7561SOL    HW123582   0.967   2.990   6.780
 7561SOL    HW223583   0.936   3.149   6.758
 7562SOL     OW23584   5.687   6.056   5.135
 7562SOL    HW123585   5.754   6.034   5.206
 7562SOL    HW223586   5.729   6.120   5.069
 7563SOL     OW23587   2.658   5.953   0.617
 7563SOL    HW123588   2.714   5.871   0.608
 7563SOL    HW223589   2.626   5.962   0.711
 7564SOL     OW23590   5.161   1.444   2.902
 7564SOL    HW123591   5.178   1.382   2.978
 7564SOL    HW223592   5.072   1.488   2.914
 7565SOL     OW23593   5.267   4.319   0.253
 7565SOL    HW123594   5.172   4.349   0.242
 7565SOL    HW223595   5.320   4.390   0.299
 7566SOL     OW23596   6.829   5.443   3.775
 7566SOL    HW123597   6.857   5.424   3.869
 7566SOL    HW223598   6.740   5.487   3.774
 7567SOL     OW23599   1.860   2.089   4.992
 7567SOL    HW123600   1.776   2.125   4.950
 7567SOL    HW223601   1.838   2.051   5.082
 7568SOL     OW23602   5.508   5.856   3.204
 7568SOL    HW123603   5.548   5.770   3.239
 7568SOL    HW223604   5.513   5.926   3.276
 7569SOL     OW23605   4.174   4.962   6.545
 7569SOL    HW123606   4.127   4.989   6.461
 7569SOL    HW223607   4.246   4.896   6.524
 7570SOL     OW23608   5.402   5.037   5.268
 7570SOL    HW123609   5.466   5.062   5.195
 7570SOL    HW223610   5.364   4.947   5.249
 7571SOL     OW23611   4.577   5.735   3.137
 7571SOL    HW123612   4.567   5.820   3.084
 7571SOL    HW223613   4.670   5.701   3.128
 7572SOL     OW23614   4.481   1.306   3.174
 7572SOL    HW123615   4.440   1.272   3.089
 7572SOL    HW223616   4.434   1.265   3.252
 7573SOL     OW23617   6.695   6.809   4.981
 7573SOL    HW123618   6.701   6.731   5.042
 7573SOL    HW223619   6.739   6.787   4.894
 7574SOL     OW23620   6.512   0.933   4.568
 7574SOL    HW123621   6.489   0.866   4.497
 7574SOL    HW223622   6.442   0.931   4.639
 7575SOL     OW23623   4.199   0.767   5.891
 7575SOL    HW123624   4.102   0.747   5.902
 7575SOL    HW223625   4.233   0.721   5.808
 7576SOL     OW23626   6.053   5.332   0.275
 7576SOL    HW123627   6.094   5.258   0.328
 7576SOL    HW223628   5.967   5.301   0.236
 7577SOL     OW23629   0.080   6.395   5.948
 7577SOL    HW123630   0.056   6.487   5.916
 7577SOL    HW223631   0.150   6.402   6.019
 7578SOL     OW23632   2.925   6.078   2.594
 7578SOL    HW123633   2.825   6.084   2.589
 7578SOL    HW223634   2.965   6.152   2.540
 7579SOL     OW23635   5.575   2.400   2.022
 7579SOL    HW123636   5.650   2.372   1.962
 7579SOL    HW223637   5.591   2.494   2.054
 7580SOL     OW23638   1.560   4.435   3.993
 7580SOL    HW123639   1.638   4.497   3.984
 7580SOL    HW223640   1.588   4.341   3.975
 7581SOL     OW23641   6.513   7.014   1.485
 7581SOL    HW123642   6.507   6.915   1.496
 7581SOL    HW223643   6.598   0.023   1.526
 7582SOL     OW23644   2.629   0.844   0.196
 7582SOL    HW123645   2.654   0.798   0.111
 7582SOL    HW223646   2.547   0.900   0.181
 7583SOL     OW23647   6.268   3.043   0.836
 7583SOL    HW123648   6.347   3.032   0.896
 7583SOL    HW223649   6.200   3.103   0.880
 7584SOL     OW23650   2.098   6.649   1.037
 7584SOL    HW123651   2.083   6.562   0.990
 7584SOL    HW223652   2.193   6.654   1.069
 7585SOL     OW23653   1.933   2.960   6.025
 7585SOL    HW123654   2.025   2.942   5.990
 7585SOL    HW223655   1.868   2.956   5.949
 7586SOL     OW23656   3.776   0.607   3.733
 7586SOL    HW123657   3.797   0.510   3.738
 7586SOL    HW223658   3.685   0.623   3.773
 7587SOL     OW23659   2.991   2.114   6.643
 7587SOL    HW123660   2.910   2.160   6.680
 7587SOL    HW223661   3.070   2.176   6.648
 7588SOL     OW23662   1.419   3.448   2.819
 7588SOL    HW123663   1.423   3.384   2.742
 7588SOL    HW223664   1.367   3.407   2.893
 7589SOL     OW23665   6.929   0.114   1.893
 7589SOL    HW123666   6.995   0.131   1.820
 7589SOL    HW223667   6.871   0.195   1.905
 7590SOL     OW23668   4.298   2.123   6.616
 7590SOL    HW123669   4.227   2.086   6.676
 7590SOL    HW223670   4.287   2.086   6.524
 7591SOL     OW23671   0.020   4.225   0.353
 7591SOL    HW123672   0.110   4.206   0.312
 7591SOL    HW223673   7.014   4.317   0.326
 7592SOL     OW23674   6.207   4.009   6.582
 7592SOL    HW123675   6.299   4.038   6.555
 7592SOL    HW223676   6.170   3.947   6.513
 7593SOL     OW23677   5.629   2.524   0.981
 7593SOL    HW123678   5.652   2.549   1.075
 7593SOL    HW223679   5.550   2.578   0.951
 7594SOL     OW23680   0.168   4.715   1.873
 7594SOL    HW123681   0.195   4.780   1.944
 7594SOL    HW223682   0.072   4.688   1.886
 7595SOL     OW23683   6.971   3.056   6.040
 7595SOL    HW123684   0.020   3.014   6.093
 7595SOL    HW223685   7.004   3.079   5.949
 7596SOL     OW23686   4.880   5.976   3.579
 7596SOL    HW123687   4.830   6.059   3.604
 7596SOL    HW223688   4.924   5.938   3.661
 7597SOL     OW23689   3.032   6.314   2.491
 7597SOL    HW123690   3.104   6.384   2.488
 7597SOL    HW223691   3.047   6.247   2.419
 7598SOL     OW23692   7.020   1.582   3.624
 7598SOL    HW123693   0.018   1.495   3.668
 7598SOL    HW223694   0.061   1.600   3.550
 7599SOL     OW23695   5.529   1.655   2.750
 7599SOL    HW123696   5.482   1.722   2.808
 7599SOL    HW223697   5.517   1.563   2.788
 7600SOL     OW23698   1.255   1.468   2.427
 7600SOL    HW123699   1.217   1.551   2.387
 7600SOL    HW223700   1.353   1.464   2.408
 7601SOL     OW23701   1.949   5.435   2.363
 7601SOL    HW123702   2.029   5.377   2.382
 7601SOL    HW223703   1.979   5.516   2.312
 7602SOL     OW23704   0.977   4.286   0.085
 7602SOL    HW123705   1.006   4.315   7.019
 7602SOL    HW223706   0.908   4.214   0.077
 7603SOL     OW23707   1.751   5.063   5.579
 7603SOL    HW123708   1.822   5.061   5.648
 7603SOL    HW223709   1.763   4.986   5.517
 7604SOL     OW23710   1.881   4.848   4.426
 7604SOL    HW123711   1.936   4.776   4.383
 7604SOL    HW223712   1.822   4.807   4.495
 7605SOL     OW23713   0.480   7.011   0.801
 7605SOL    HW123714   0.539   0.001   0.721
 7605SOL    HW223715   0.399   0.044   0.795
 7606SOL     OW23716   6.558   3.250   3.555
 7606SOL    HW123717   6.506   3.331   3.579
 7606SOL    HW223718   6.504   3.191   3.496
 7607SOL     OW23719   4.775   5.258   0.722
 7607SOL    HW123720   4.755   5.160   0.726
 7607SOL    HW223721   4.689   5.309   0.726
 7608SOL     OW23722   3.424   3.859   3.288
 7608SOL    HW123723   3.440   3.778   3.232
 7608SOL    HW223724   3.497   3.868   3.356
 7609SOL     OW23725   0.684   3.866   3.834
 7609SOL    HW123726   0.642   3.870   3.743
 7609SOL    HW223727   0.770   3.918   3.833
 7610SOL     OW23728   5.648   6.227   0.253
 7610SOL    HW123729   5.610   6.152   0.199
 7610SOL    HW223730   5.727   6.266   0.205
 7611SOL     OW23731   0.590   1.664   6.896
 7611SOL    HW123732   0.516   1.676   6.830
 7611SOL    HW223733   0.581   1.733   6.969
 7612SOL     OW23734   5.138   3.465   5.350
 7612SOL    HW123735   5.042   3.478   5.325
 7612SOL    HW223736   5.151   3.495   5.444
 7613SOL     OW23737   6.170   3.361   1.151
 7613SOL    HW123738   6.152   3.262   1.148
 7613SOL    HW223739   6.264   3.378   1.122
 7614SOL     OW23740   5.325   4.065   0.903
 7614SOL    HW123741   5.337   4.147   0.958
 7614SOL    HW223742   5.411   4.042   0.857
 7615SOL     OW23743   4.435   3.529   6.216
 7615SOL    HW123744   4.520   3.580   6.232
 7615SOL    HW223745   4.454   3.431   6.213
 7616SOL     OW23746   6.416   5.001   5.406
 7616SOL    HW123747   6.440   4.917   5.358
 7616SOL    HW223748   6.451   5.080   5.356
 7617SOL     OW23749   3.506   5.659   2.579
 7617SOL    HW123750   3.462   5.573   2.553
 7617SOL    HW223751   3.603   5.643   2.597
 7618SOL     OW23752   0.675   1.510   6.220
 7618SOL    HW123753   0.621   1.543   6.142
 7618SOL    HW223754   0.770   1.537   6.208
 7619SOL     OW23755   5.892   3.163   5.380
 7619SOL    HW123756   5.950   3.238   5.347
 7619SOL    HW223757   5.901   3.084   5.319
 7620SOL     OW23758   3.948   5.157   0.539
 7620SOL    HW123759   3.889   5.209   0.478
 7620SOL    HW223760   3.986   5.079   0.490
 7621SOL     OW23761   6.760   1.532   0.439
 7621SOL    HW123762   6.828   1.469   0.477
 7621SOL    HW223763   6.707   1.485   0.369
 7622SOL     OW23764   5.368   5.525   1.492
 7622SOL    HW123765   5.378   5.597   1.424
 7622SOL    HW223766   5.274   5.490   1.490
 7623SOL     OW23767   4.656   3.583   6.662
 7623SOL    HW123768   4.609   3.515   6.605
 7623SOL    HW223769   4.610   3.589   6.751
 7624SOL     OW23770   0.094   2.923   4.697
 7624SOL    HW123771   0.021   2.989   4.717
 7624SOL    HW223772   0.181   2.960   4.730
 7625SOL     OW23773   4.936   0.429   1.286
 7625SOL    HW123774   4.890   0.343   1.310
 7625SOL    HW223775   5.014   0.442   1.348
 7626SOL     OW23776   5.987   6.950   4.370
 7626SOL    HW123777   6.032   6.940   4.459
 7626SOL    HW223778   5.920   6.877   4.358
 7627SOL     OW23779   5.395   2.880   6.904
 7627SOL    HW123780   5.484   2.876   6.949
 7627SOL    HW223781   5.391   2.961   6.846
 7628SOL     OW23782   3.974   0.019   2.635
 7628SOL    HW123783   4.061   0.004   2.590
 7628SOL    HW223784   3.899   7.023   2.572
 7629SOL     OW23785   6.795   0.085   3.108
 7629SOL    HW123786   6.800   0.177   3.070
 7629SOL    HW223787   6.812   0.018   3.036
 7630SOL     OW23788   6.363   0.480   2.007
 7630SOL    HW123789   6.281   0.434   2.041
 7630SOL    HW223790   6.439   0.414   2.005
 7631SOL     OW23791   0.834   0.754   6.087
 7631SOL    HW123792   0.786   0.776   6.172
 7631SOL    HW223793   0.812   0.823   6.018
 7632SOL     OW23794   3.695   2.597   1.776
 7632SOL    HW123795   3.660   2.656   1.848
 7632SOL    HW223796   3.693   2.502   1.806
 7633SOL     OW23797   5.131   1.411   1.096
 7633SOL    HW123798   5.124   1.340   1.166
 7633SOL    HW223799   5.116   1.500   1.138
 7634SOL     OW23800   0.454   1.882   2.772
 7634SOL    HW123801   0.379   1.943   2.799
 7634SOL    HW223802   0.493   1.839   2.852
 7635SOL     OW23803   3.320   5.390   5.129
 7635SOL    HW123804   3.361   5.475   5.164
 7635SOL    HW223805   3.269   5.345   5.203
 7636SOL     OW23806   1.301   2.757   4.138
 7636SOL    HW123807   1.309   2.737   4.236
 7636SOL    HW223808   1.204   2.758   4.113
 7637SOL     OW23809   2.704   5.358   2.037
 7637SOL    HW123810   2.803   5.371   2.032
 7637SOL    HW223811   2.683   5.291   2.109
 7638SOL     OW23812   3.975   6.439   0.960
 7638SOL    HW123813   3.914   6.501   0.909
 7638SOL    HW223814   3.993   6.358   0.904
 7639SOL     OW23815   1.390   1.996   0.295
 7639SOL    HW123816   1.322   2.065   0.274
 7639SOL    HW223817   1.418   2.005   0.391
 7640SOL     OW23818   3.350   1.665   6.432
 7640SOL    HW123819   3.269   1.626   6.476
 7640SOL    HW223820   3.368   1.616   6.346
 7641SOL     OW23821   1.118   4.347   1.480
 7641SOL    HW123822   1.041   4.290   1.510
 7641SOL    HW223823   1.156   4.310   1.396
 7642SOL     OW23824   4.085   0.341   2.876
 7642SOL    HW123825   4.029   0.401   2.820
 7642SOL    HW223826   4.174   0.327   2.832
 7643SOL     OW23827   4.841   3.121   4.599
 7643SOL    HW123828   4.851   3.216   4.571
 7643SOL    HW223829   4.827   3.064   4.518
 7644SOL     OW23830   5.873   2.303   2.290
 7644SOL    HW123831   5.871   2.209   2.256
 7644SOL    HW223832   5.780   2.334   2.310
 7645SOL     OW23833   4.164   4.148   5.529
 7645SOL    HW123834   4.117   4.088   5.595
 7645SOL    HW223835   4.207   4.092   5.458
 7646SOL     OW23836   1.544   3.008   2.786
 7646SOL    HW123837   1.642   3.013   2.767
 7646SOL    HW223838   1.530   2.989   2.883
 7647SOL     OW23839   6.754   3.453   2.317
 7647SOL    HW123840   6.831   3.404   2.276
 7647SOL    HW223841   6.709   3.394   2.385
 7648SOL     OW23842   3.348   1.749   3.603
 7648SOL    HW123843   3.267   1.734   3.658
 7648SOL    HW223844   3.430   1.730   3.658
 7649SOL     OW23845   0.695   0.806   3.363
 7649SOL    HW123846   0.596   0.820   3.363
 7649SOL    HW223847   0.725   0.776   3.453
 7650SOL     OW23848   4.872   2.856   1.449
 7650SOL    HW123849   4.780   2.819   1.464
 7650SOL    HW223850   4.866   2.941   1.397
 7651SOL     OW23851   2.589   0.368   4.439
 7651SOL    HW123852   2.536   0.432   4.382
 7651SOL    HW223853   2.575   0.390   4.535
 7652SOL     OW23854   6.703   3.792   4.224
 7652SOL    HW123855   6.619   3.832   4.262
 7652SOL    HW223856   6.726   3.708   4.272
 7653SOL     OW23857   2.771   1.838   0.186
 7653SOL    HW123858   2.690   1.893   0.162
 7653SOL    HW223859   2.777   1.760   0.124
 7654SOL     OW23860   4.978   2.795   3.690
 7654SOL    HW123861   4.895   2.784   3.744
 7654SOL    HW223862   5.047   2.729   3.720
 7655SOL     OW23863   3.817   0.351   3.766
 7655SOL    HW123864   3.798   0.279   3.833
 7655SOL    HW223865   3.849   0.310   3.681
 7656SOL     OW23866   2.006   5.360   5.770
 7656SOL    HW123867   2.065   5.367   5.690
 7656SOL    HW223868   1.947   5.441   5.776
 7657SOL     OW23869   2.526   2.423   3.733
 7657SOL    HW123870   2.549   2.385   3.823
 7657SOL    HW223871   2.493   2.517   3.743
 7658SOL     OW23872   3.148   0.315   5.781
 7658SOL    HW123873   3.151   0.410   5.813
 7658SOL    HW223874   3.160   0.313   5.681
 7659SOL     OW23875   6.091   5.191   0.001
 7659SOL    HW123876   6.151   5.227   0.072
 7659SOL    HW223877   5.996   5.200   0.030
 7660SOL     OW23878   0.454   6.157   3.436
 7660SOL    HW123879   0.511   6.213   3.496
 7660SOL    HW223880   0.384   6.111   3.491
 7661SOL     OW23881   6.021   2.492   4.314
 7661SOL    HW123882   6.090   2.512   4.244
 7661SOL    HW223883   5.980   2.578   4.346
 7662SOL     OW23884   0.898   2.936   2.812
 7662SOL    HW123885   0.966   2.882   2.764
 7662SOL    HW223886   0.888   2.902   2.906
 7663SOL     OW23887   1.436   6.223   5.431
 7663SOL    HW123888   1.499   6.298   5.415
 7663SOL    HW223889   1.363   6.224   5.362
 7664SOL     OW23890   3.548   0.030   1.918
 7664SOL    HW123891   3.595   0.077   1.993
 7664SOL    HW223892   3.560   0.082   1.833
 7665SOL     OW23893   4.142   0.228   5.014
 7665SOL    HW123894   4.209   0.270   4.953
 7665SOL    HW223895   4.139   0.278   5.100
 7666SOL     OW23896   0.651   6.636   1.482
 7666SOL    HW123897   0.704   6.710   1.523
 7666SOL    HW223898   0.695   6.607   1.398
 7667SOL     OW23899   4.830   5.269   2.037
 7667SOL    HW123900   4.894   5.292   1.964
 7667SOL    HW223901   4.758   5.338   2.041
 7668SOL     OW23902   3.332   4.480   1.102
 7668SOL    HW123903   3.351   4.518   1.012
 7668SOL    HW223904   3.341   4.380   1.099
 7669SOL     OW23905   5.708   1.761   5.296
 7669SOL    HW123906   5.611   1.749   5.317
 7669SOL    HW223907   5.747   1.831   5.355
 7670SOL     OW23908   0.796   5.118   6.723
 7670SOL    HW123909   0.725   5.137   6.656
 7670SOL    HW223910   0.795   5.020   6.745
 7671SOL     OW23911   4.385   1.068   3.332
 7671SOL    HW123912   4.448   1.098   3.403
 7671SOL    HW223913   4.417   0.982   3.293
 7672SOL     OW23914   6.346   6.718   3.061
 7672SOL    HW123915   6.420   6.725   3.127
 7672SOL    HW223916   6.382   6.728   2.968
 7673SOL     OW23917   1.539   5.420   0.255
 7673SOL    HW123918   1.585   5.383   0.175
 7673SOL    HW223919   1.604   5.471   0.311
 7674SOL     OW23920   5.836   1.600   3.792
 7674SOL    HW123921   5.782   1.681   3.814
 7674SOL    HW223922   5.912   1.592   3.856
 7675SOL     OW23923   5.993   6.947   2.599
 7675SOL    HW123924   5.936   6.900   2.666
 7675SOL    HW223925   6.046   7.018   2.646
 7676SOL     OW23926   2.033   2.438   0.552
 7676SOL    HW123927   2.050   2.354   0.603
 7676SOL    HW223928   2.039   2.419   0.454
 7677SOL     OW23929   0.555   4.699   1.966
 7677SOL    HW123930   0.565   4.798   1.960
 7677SOL    HW223931   0.631   4.655   1.918
 7678SOL     OW23932   2.471   1.745   5.004
 7678SOL    HW123933   2.463   1.844   5.014
 7678SOL    HW223934   2.549   1.712   5.057
 7679SOL     OW23935   3.088   5.542   6.427
 7679SOL    HW123936   3.048   5.461   6.470
 7679SOL    HW223937   3.184   5.526   6.407
 7680SOL     OW23938   1.838   2.046   0.659
 7680SOL    HW123939   1.903   2.045   0.736
 7680SOL    HW223940   1.768   2.115   0.675
 7681SOL     OW23941   2.538   6.638   0.532
 7681SOL    HW123942   2.615   6.678   0.583
 7681SOL    HW223943   2.538   6.674   0.438
 7682SOL     OW23944   2.933   0.289   2.314
 7682SOL    HW123945   2.950   0.368   2.254
 7682SOL    HW223946   2.956   0.314   2.409
 7683SOL     OW23947   6.544   1.647   3.680
 7683SOL    HW123948   6.512   1.554   3.664
 7683SOL    HW223949   6.644   1.649   3.680
 7684SOL     OW23950   4.187   2.169   2.153
 7684SOL    HW123951   4.227   2.080   2.127
 7684SOL    HW223952   4.088   2.166   2.141
 7685SOL     OW23953   3.462   2.391   0.119
 7685SOL    HW123954   3.520   2.454   0.068
 7685SOL    HW223955   3.463   2.302   0.073
 7686SOL     OW23956   6.383   0.124   3.032
 7686SOL    HW123957   6.465   0.093   3.079
 7686SOL    HW223958   6.324   0.046   3.011
 7687SOL     OW23959   5.797   4.829   4.560
 7687SOL    HW123960   5.713   4.778   4.581
 7687SOL    HW223961   5.876   4.770   4.579
 7688SOL     OW23962   0.643   5.910   5.690
 7688SOL    HW123963   0.701   5.929   5.769
 7688SOL    HW223964   0.596   5.994   5.662
 7689SOL     OW23965   5.401   6.287   2.992
 7689SOL    HW123966   5.315   6.244   3.021
 7689SOL    HW223967   5.468   6.215   2.974
 7690SOL     OW23968   6.430   5.003   0.680
 7690SOL    HW123969   6.435   5.073   0.751
 7690SOL    HW223970   6.488   5.028   0.604
 7691SOL     OW23971   4.934   2.748   4.663
 7691SOL    HW123972   4.908   2.830   4.714
 7691SOL    HW223973   5.030   2.727   4.679
 7692SOL     OW23974   0.566   6.132   2.182
 7692SOL    HW123975   0.561   6.183   2.096
 7692SOL    HW223976   0.655   6.149   2.225
 7693SOL     OW23977   3.682   0.138   1.136
 7693SOL    HW123978   3.747   0.067   1.109
 7693SOL    HW223979   3.642   0.179   1.055
 7694SOL     OW23980   0.046   4.635   4.764
 7694SOL    HW123981   6.984   4.630   4.713
 7694SOL    HW223982   0.050   4.722   4.812
 7695SOL     OW23983   4.365   6.158   0.890
 7695SOL    HW123984   4.325   6.081   0.840
 7695SOL    HW223985   4.300   6.191   0.958
 7696SOL     OW23986   6.707   1.512   4.704
 7696SOL    HW123987   6.756   1.566   4.636
 7696SOL    HW223988   6.710   1.559   4.793
 7697SOL     OW23989   3.363   6.394   2.006
 7697SOL    HW123990   3.454   6.414   2.043
 7697SOL    HW223991   3.335   6.467   1.944
 7698SOL     OW23992   6.514   2.324   3.439
 7698SOL    HW123993   6.462   2.271   3.372
 7698SOL    HW223994   6.451   2.370   3.501
 7699SOL     OW23995   3.728   5.981   6.918
 7699SOL    HW123996   3.744   6.034   7.001
 7699SOL    HW223997   3.754   5.886   6.934
 7700SOL     OW23998   4.962   6.271   4.281
 7700SOL    HW123999   5.023   6.203   4.322
 7700SOL    HW224000   4.966   6.355   4.335
 7701SOL     OW24001   6.966   1.334   0.124
 7701SOL    HW124002   6.989   1.254   0.068
 7701SOL    HW224003   0.021   1.362   0.176
 7702SOL     OW24004   3.296   6.276   6.162
 7702SOL    HW124005   3.285   6.375   6.171
 7702SOL    HW224006   3.295   6.251   6.065
 7703SOL     OW24007   6.280   0.455   5.490
 7703SOL    HW124008   6.265   0.513   5.410
 7703SOL    HW224009   6.256   0.505   5.573
 7704SOL     OW24010   5.333   5.123   5.543
 7704SOL    HW124011   5.344   5.051   5.612
 7704SOL    HW224012   5.356   5.087   5.453
 7705SOL     OW24013   3.581   5.336   6.040
 7705SOL    HW124014   3.658   5.389   6.073
 7705SOL    HW224015   3.498   5.362   6.091
 7706SOL     OW24016   4.671   2.886   5.309
 7706SOL    HW124017   4.729   2.830   5.368
 7706SOL    HW224018   4.676   2.852   5.215
 7707SOL     OW24019   0.576   5.764   6.274
 7707SOL    HW124020   0.629   5.678   6.274
 7707SOL    HW224021   0.639   5.841   6.284
 7708SOL     OW24022   6.284   0.085   5.895
 7708SOL    HW124023   6.328   0.129   5.974
 7708SOL    HW224024   6.345   0.090   5.816
 7709SOL     OW24025   5.475   4.465   1.381
 7709SOL    HW124026   5.574   4.454   1.393
 7709SOL    HW224027   5.427   4.419   1.456
 7710SOL     OW24028   3.131   0.336   0.547
 7710SOL    HW124029   3.038   0.313   0.574
 7710SOL    HW224030   3.153   0.428   0.579
 7711SOL     OW24031   6.508   6.227   5.247
 7711SOL    HW124032   6.508   6.310   5.302
 7711SOL    HW224033   6.597   6.181   5.255
 7712SOL     OW24034   5.076   5.943   2.547
 7712SOL    HW124035   5.158   5.901   2.508
 7712SOL    HW224036   5.009   5.959   2.475
 7713SOL     OW24037   1.489   4.723   0.269
 7713SOL    HW124038   1.515   4.704   0.364
 7713SOL    HW224039   1.539   4.803   0.237
 7714SOL     OW24040   6.288   4.076   5.657
 7714SOL    HW124041   6.283   3.993   5.601
 7714SOL    HW224042   6.344   4.144   5.611
 7715SOL     OW24043   4.136   1.957   6.809
 7715SOL    HW124044   4.091   1.994   6.891
 7715SOL    HW224045   4.208   1.894   6.838
 7716SOL     OW24046   6.637   4.119   3.957
 7716SOL    HW124047   6.725   4.077   3.976
 7716SOL    HW224048   6.636   4.155   3.863
 7717SOL     OW24049   1.512   0.985   4.958
 7717SOL    HW124050   1.598   1.022   4.923
 7717SOL    HW224051   1.453   0.960   4.881
 7718SOL     OW24052   1.511   1.849   3.381
 7718SOL    HW124053   1.540   1.871   3.288
 7718SOL    HW224054   1.482   1.753   3.385
 7719SOL     OW24055   0.165   3.706   4.687
 7719SOL    HW124056   0.147   3.682   4.592
 7719SOL    HW224057   0.137   3.801   4.703
 7720SOL     OW24058   0.554   0.650   0.008
 7720SOL    HW124059   0.466   0.608   7.011
 7720SOL    HW224060   0.544   0.711   0.086
 7721SOL     OW24061   0.285   5.173   2.629
 7721SOL    HW124062   0.343   5.235   2.576
 7721SOL    HW224063   0.284   5.202   2.725
 7722SOL     OW24064   0.636   5.959   3.356
 7722SOL    HW124065   0.657   5.973   3.259
 7722SOL    HW224066   0.586   6.038   3.391
 7723SOL     OW24067   5.418   3.119   6.754
 7723SOL    HW124068   5.427   3.146   6.658
 7723SOL    HW224069   5.361   3.186   6.802
 7724SOL     OW24070   3.083   4.350   1.499
 7724SOL    HW124071   3.010   4.379   1.562
 7724SOL    HW224072   3.124   4.431   1.457
 7725SOL     OW24073   5.892   2.726   3.039
 7725SOL    HW124074   5.808   2.728   3.092
 7725SOL    HW224075   5.876   2.677   2.953
 7726SOL     OW24076   1.993   6.012   5.170
 7726SOL    HW124077   1.924   6.046   5.235
 7726SOL    HW224078   2.054   5.948   5.217
 7727SOL     OW24079   0.131   0.551   2.546
 7727SOL    HW124080   0.160   0.581   2.637
 7727SOL    HW224081   0.056   0.608   2.515
 7728SOL     OW24082   0.981   4.939   3.644
 7728SOL    HW124083   1.071   4.899   3.624
 7728SOL    HW224084   0.934   4.959   3.558
 7729SOL     OW24085   5.923   2.646   0.927
 7729SOL    HW124086   5.854   2.575   0.918
 7729SOL    HW224087   5.879   2.733   0.952
 7730SOL     OW24088   5.934   6.253   1.129
 7730SOL    HW124089   5.945   6.298   1.218
 7730SOL    HW224090   6.010   6.276   1.070
 7731SOL     OW24091   6.966   0.354   0.592
 7731SOL    HW124092   6.939   0.279   0.652
 7731SOL    HW224093   6.884   0.403   0.560
 7732SOL     OW24094   4.216   6.225   0.553
 7732SOL    HW124095   4.312   6.199   0.559
 7732SOL    HW224096   4.162   6.144   0.528
 7733SOL     OW24097   4.665   6.927   2.331
 7733SOL    HW124098   4.608   6.871   2.271
 7733SOL    HW224099   4.606   6.982   2.390
 7734SOL     OW24100   2.607   5.412   3.087
 7734SOL    HW124101   2.685   5.402   3.149
 7734SOL    HW224102   2.600   5.331   3.029
 7735SOL     OW24103   4.560   6.033   6.756
 7735SOL    HW124104   4.610   6.026   6.670
 7735SOL    HW224105   4.494   6.107   6.751
 7736SOL     OW24106   3.713   3.636   6.891
 7736SOL    HW124107   3.646   3.569   6.860
 7736SOL    HW224108   3.668   3.705   6.948
 7737SOL     OW24109   3.586   0.750   2.546
 7737SOL    HW124110   3.518   0.796   2.604
 7737SOL    HW224111   3.620   0.669   2.594
 7738SOL     OW24112   2.633   5.600   6.843
 7738SOL    HW124113   2.654   5.555   6.756
 7738SOL    HW224114   2.634   5.699   6.830
 7739SOL     OW24115   0.812   2.063   1.433
 7739SOL    HW124116   0.820   1.981   1.378
 7739SOL    HW224117   0.725   2.061   1.483
 7740SOL     OW24118   2.096   1.091   3.253
 7740SOL    HW124119   2.052   1.092   3.163
 7740SOL    HW224120   2.026   1.099   3.325
 7741SOL     OW24121   0.420   4.793   5.264
 7741SOL    HW124122   0.430   4.892   5.260
 7741SOL    HW224123   0.387   4.766   5.354
 7742SOL     OW24124   5.996   1.896   3.141
 7742SOL    HW124125   6.016   1.943   3.227
 7742SOL    HW224126   6.081   1.860   3.102
 7743SOL     OW24127   5.735   1.471   0.371
 7743SOL    HW124128   5.799   1.452   0.297
 7743SOL    HW224129   5.644   1.438   0.345
 7744SOL     OW24130   0.881   5.978   3.502
 7744SOL    HW124131   0.957   5.939   3.450
 7744SOL    HW224132   0.796   5.966   3.452
 7745SOL     OW24133   3.100   1.119   5.769
 7745SOL    HW124134   3.131   1.035   5.725
 7745SOL    HW224135   3.095   1.192   5.700
 7746SOL     OW24136   2.602   6.343   0.192
 7746SOL    HW124137   2.571   6.402   0.267
 7746SOL    HW224138   2.696   6.367   0.169
 7747SOL     OW24139   5.045   6.077   1.599
 7747SOL    HW124140   5.087   6.023   1.527
 7747SOL    HW224141   4.945   6.070   1.592
 7748SOL     OW24142   3.035   3.323   5.371
 7748SOL    HW124143   3.076   3.377   5.445
 7748SOL    HW224144   2.973   3.255   5.411
 7749SOL     OW24145   2.782   2.870   5.709
 7749SOL    HW124146   2.748   2.799   5.647
 7749SOL    HW224147   2.880   2.860   5.721
 7750SOL     OW24148   0.357   6.438   1.389
 7750SOL    HW124149   0.274   6.383   1.391
 7750SOL    HW224150   0.386   6.459   1.483
 7751SOL     OW24151   1.220   2.503   2.332
 7751SOL    HW124152   1.192   2.538   2.422
 7751SOL    HW224153   1.138   2.476   2.281
 7752SOL     OW24154   5.188   0.556   5.839
 7752SOL    HW124155   5.264   0.491   5.830
 7752SOL    HW224156   5.224   0.643   5.873
 7753SOL     OW24157   2.694   1.134   4.291
 7753SOL    HW124158   2.762   1.201   4.321
 7753SOL    HW224159   2.704   1.118   4.193
 7754SOL     OW24160   3.397   5.800   0.907
 7754SOL    HW124161   3.338   5.868   0.952
 7754SOL    HW224162   3.390   5.713   0.956
 7755SOL     OW24163   1.855   2.526   5.896
 7755SOL    HW124164   1.833   2.431   5.919
 7755SOL    HW224165   1.770   2.578   5.890
 7756SOL     OW24166   2.706   0.156   2.262
 7756SOL    HW124167   2.783   0.220   2.258
 7756SOL    HW224168   2.673   0.150   2.357
 7757SOL     OW24169   5.861   5.132   1.338
 7757SOL    HW124170   5.839   5.165   1.247
 7757SOL    HW224171   5.831   5.037   1.347
 7758SOL     OW24172   2.288   0.049   6.265
 7758SOL    HW124173   2.223   0.099   6.322
 7758SOL    HW224174   2.261   6.977   6.260
 7759SOL     OW24175   1.776   1.405   5.310
 7759SOL    HW124176   1.834   1.363   5.240
 7759SOL    HW224177   1.824   1.404   5.397
 7760SOL     OW24178   5.666   3.070   2.745
 7760SOL    HW124179   5.701   2.990   2.696
 7760SOL    HW224180   5.633   3.043   2.835
 7761SOL     OW24181   6.498   6.301   4.635
 7761SOL    HW124182   6.525   6.209   4.608
 7761SOL    HW224183   6.578   6.350   4.671
 7762SOL     OW24184   2.331   0.068   4.003
 7762SOL    HW124185   2.233   0.054   4.016
 7762SOL    HW224186   2.379   7.005   4.009
 7763SOL     OW24187   2.427   0.188   6.619
 7763SOL    HW124188   2.399   0.261   6.556
 7763SOL    HW224189   2.438   0.103   6.568
 7764SOL     OW24190   3.285   3.993   5.563
 7764SOL    HW124191   3.188   4.010   5.541
 7764SOL    HW224192   3.342   4.050   5.505
 7765SOL     OW24193   5.879   2.916   4.256
 7765SOL    HW124194   5.870   3.011   4.284
 7765SOL    HW224195   5.907   2.860   4.334
 7766SOL     OW24196   0.110   3.862   0.800
 7766SOL    HW124197   0.071   3.801   0.868
 7766SOL    HW224198   0.160   3.809   0.731
 7767SOL     OW24199   4.497   6.345   2.101
 7767SOL    HW124200   4.592   6.342   2.135
 7767SOL    HW224201   4.453   6.429   2.133
 7768SOL     OW24202   5.009   4.514   3.233
 7768SOL    HW124203   5.049   4.451   3.299
 7768SOL    HW224204   5.081   4.568   3.190
 7769SOL     OW24205   5.111   1.320   4.370
 7769SOL    HW124206   5.192   1.361   4.412
 7769SOL    HW224207   5.030   1.371   4.399
 7770SOL     OW24208   0.598   3.154   4.928
 7770SOL    HW124209   0.691   3.117   4.928
 7770SOL    HW224210   0.602   3.254   4.937
 7771SOL     OW24211   3.128   1.509   5.495
 7771SOL    HW124212   3.159   1.545   5.408
 7771SOL    HW224213   3.175   1.556   5.570
 7772SOL     OW24214   5.295   6.787   1.390
 7772SOL    HW124215   5.220   6.844   1.422
 7772SOL    HW224216   5.269   6.741   1.305
 7773SOL     OW24217   1.684   5.285   5.340
 7773SOL    HW124218   1.646   5.372   5.372
 7773SOL    HW224219   1.613   5.215   5.343
 7774SOL     OW24220   4.753   2.889   4.017
 7774SOL    HW124221   4.747   2.896   4.117
 7774SOL    HW224222   4.848   2.893   3.988
 7775SOL     OW24223   4.543   0.004   0.028
 7775SOL    HW124224   4.453   0.002   0.071
 7775SOL    HW224225   4.574   6.935   0.012
 7776SOL     OW24226   0.965   5.573   6.721
 7776SOL    HW124227   0.957   5.480   6.756
 7776SOL    HW224228   0.875   5.608   6.699
 7777SOL     OW24229   5.863   5.493   4.216
 7777SOL    HW124230   5.777   5.544   4.211
 7777SOL    HW224231   5.852   5.413   4.274
 7778SOL     OW24232   5.781   3.641   2.468
 7778SOL    HW124233   5.794   3.550   2.429
 7778SOL    HW224234   5.683   3.661   2.475
 7779SOL     OW24235   2.830   0.937   1.844
 7779SOL    HW124236   2.847   0.996   1.923
 7779SOL    HW224237   2.731   0.925   1.834
 7780SOL     OW24238   0.984   5.030   5.105
 7780SOL    HW124239   1.068   5.042   5.053
 7780SOL    HW224240   0.998   5.060   5.199
 7781SOL     OW24241   0.864   4.110   1.376
 7781SOL    HW124242   0.784   4.067   1.334
 7781SOL    HW224243   0.937   4.118   1.308
 7782SOL     OW24244   5.042   5.268   3.880
 7782SOL    HW124245   5.050   5.362   3.846
 7782SOL    HW224246   4.953   5.231   3.852
 7783SOL     OW24247   0.770   0.523   5.969
 7783SOL    HW124248   0.847   0.484   5.919
 7783SOL    HW224249   0.797   0.611   6.008
 7784SOL     OW24250   3.235   2.401   1.427
 7784SOL    HW124251   3.149   2.352   1.441
 7784SOL    HW224252   3.275   2.425   1.515
 7785SOL     OW24253   2.086   6.242   4.143
 7785SOL    HW124254   2.133   6.314   4.092
 7785SOL    HW224255   2.151   6.168   4.163
 7786SOL     OW24256   3.840   0.438   0.167
 7786SOL    HW124257   3.867   0.485   0.083
 7786SOL    HW224258   3.848   0.501   0.245
 7787SOL     OW24259   2.154   2.961   0.178
 7787SOL    HW124260   2.208   2.903   0.116
 7787SOL    HW224261   2.160   3.056   0.148
 7788SOL     OW24262   1.343   4.717   1.713
 7788SOL    HW124263   1.273   4.703   1.783
 7788SOL    HW224264   1.367   4.630   1.672
 7789SOL     OW24265   3.135   0.342   6.417
 7789SOL    HW124266   3.215   0.297   6.376
 7789SOL    HW224267   3.074   0.374   6.345
 7790SOL     OW24268   5.282   5.801   2.788
 7790SOL    HW124269   5.264   5.826   2.883
 7790SOL    HW224270   5.379   5.780   2.777
 7791SOL     OW24271   2.202   5.058   2.305
 7791SOL    HW124272   2.123   5.029   2.251
 7791SOL    HW224273   2.286   5.027   2.261
 7792SOL     OW24274   1.497   6.474   3.953
 7792SOL    HW124275   1.573   6.413   3.929
 7792SOL    HW224276   1.411   6.432   3.922
 7793SOL     OW24277   4.064   0.700   0.059
 7793SOL    HW124278   4.025   0.611   0.036
 7793SOL    HW224279   4.129   0.690   0.135
 7794SOL     OW24280   0.606   4.172   2.022
 7794SOL    HW124281   0.602   4.197   1.926
 7794SOL    HW224282   0.568   4.080   2.035
 7795SOL     OW24283   2.586   5.167   5.091
 7795SOL    HW124284   2.667   5.181   5.148
 7795SOL    HW224285   2.504   5.171   5.148
 7796SOL     OW24286   3.810   2.581   5.456
 7796SOL    HW124287   3.838   2.595   5.551
 7796SOL    HW224288   3.882   2.613   5.395
 7797SOL     OW24289   0.736   6.469   1.278
 7797SOL    HW124290   0.675   6.394   1.251
 7797SOL    HW224291   0.826   6.456   1.237
 7798SOL     OW24292   0.948   2.300   3.208
 7798SOL    HW124293   0.936   2.299   3.109
 7798SOL    HW224294   1.010   2.373   3.234
 7799SOL     OW24295   1.712   5.373   2.248
 7799SOL    HW124296   1.650   5.441   2.287
 7799SOL    HW224297   1.806   5.393   2.277
 7800SOL     OW24298   1.046   5.600   3.267
 7800SOL    HW124299   0.954   5.567   3.289
 7800SOL    HW224300   1.062   5.590   3.169
 7801SOL     OW24301   1.499   1.707   2.723
 7801SOL    HW124302   1.449   1.642   2.780
 7801SOL    HW224303   1.595   1.678   2.717
 7802SOL     OW24304   6.354   3.353   0.218
 7802SOL    HW124305   6.386   3.384   0.307
 7802SOL    HW224306   6.337   3.432   0.159
 7803SOL     OW24307   4.272   2.204   0.060
 7803SOL    HW124308   4.181   2.163   0.061
 7803SOL    HW224309   4.274   2.283   0.122
 7804SOL     OW24310   4.943   2.055   4.800
 7804SOL    HW124311   4.930   2.154   4.803
 7804SOL    HW224312   4.948   2.020   4.894
 7805SOL     OW24313   5.165   3.370   2.674
 7805SOL    HW124314   5.068   3.394   2.667
 7805SOL    HW224315   5.213   3.440   2.728
 7806SOL     OW24316   5.875   1.560   6.458
 7806SOL    HW124317   5.850   1.464   6.448
 7806SOL    HW224318   5.910   1.575   6.550
 7807SOL     OW24319   0.762   4.618   4.916
 7807SOL    HW124320   0.820   4.699   4.905
 7807SOL    HW224321   0.667   4.647   4.925
 7808SOL     OW24322   5.635   3.111   3.506
 7808SOL    HW124323   5.677   3.021   3.496
 7808SOL    HW224324   5.630   3.134   3.603
 7809SOL     OW24325   5.081   5.467   4.856
 7809SOL    HW124326   4.990   5.431   4.875
 7809SOL    HW224327   5.136   5.465   4.940
 7810SOL     OW24328   2.766   6.631   5.526
 7810SOL    HW124329   2.700   6.576   5.576
 7810SOL    HW224330   2.850   6.578   5.513
 7811SOL     OW24331   1.088   5.732   1.969
 7811SOL    HW124332   1.166   5.727   2.032
 7811SOL    HW224333   1.082   5.647   1.917
 7812SOL     OW24334   2.191   2.441   4.529
 7812SOL    HW124335   2.177   2.534   4.496
 7812SOL    HW224336   2.288   2.417   4.520
 7813SOL     OW24337   4.472   2.536   1.209
 7813SOL    HW124338   4.550   2.544   1.270
 7813SOL    HW224339   4.422   2.452   1.230
 7814SOL     OW24340   6.980   3.368   3.392
 7814SOL    HW124341   6.935   3.336   3.475
 7814SOL    HW224342   0.029   3.431   3.416
 7815SOL     OW24343   5.991   1.933   4.358
 7815SOL    HW124344   5.938   2.017   4.370
 7815SOL    HW224345   6.071   1.934   4.418
 7816SOL     OW24346   0.763   2.473   6.669
 7816SOL    HW124347   0.752   2.548   6.734
 7816SOL    HW224348   0.836   2.495   6.604
 7817SOL     OW24349   4.610   4.197   5.218
 7817SOL    HW124350   4.549   4.122   5.195
 7817SOL    HW224351   4.597   4.224   5.313
 7818SOL     OW24352   4.280   0.435   3.193
 7818SOL    HW124353   4.236   0.522   3.219
 7818SOL    HW224354   4.346   0.452   3.120
 7819SOL     OW24355   0.350   3.569   3.664
 7819SOL    HW124356   0.434   3.536   3.706
 7819SOL    HW224357   0.315   3.647   3.716
 7820SOL     OW24358   1.830   1.152   5.622
 7820SOL    HW124359   1.910   1.131   5.565
 7820SOL    HW224360   1.818   1.079   5.690
 7821SOL     OW24361   5.726   6.117   0.722
 7821SOL    HW124362   5.819   6.083   0.722
 7821SOL    HW224363   5.712   6.179   0.799
 7822SOL     OW24364   1.217   1.525   0.037
 7822SOL    HW124365   1.120   1.546   0.045
 7822SOL    HW224366   1.253   1.566   6.977
 7823SOL     OW24367   2.266   4.059   6.321
 7823SOL    HW124368   2.290   3.962   6.320
 7823SOL    HW224369   2.167   4.070   6.310
 7824SOL     OW24370   5.448   0.746   4.848
 7824SOL    HW124371   5.503   0.713   4.925
 7824SOL    HW224372   5.435   0.845   4.857
 7825SOL     OW24373   1.389   3.568   0.489
 7825SOL    HW124374   1.414   3.609   0.577
 7825SOL    HW224375   1.321   3.496   0.504
 7826SOL     OW24376   5.652   2.065   6.683
 7826SOL    HW124377   5.607   2.073   6.772
 7826SOL    HW224378   5.665   1.969   6.661
 7827SOL     OW24379   3.323   4.292   0.736
 7827SOL    HW124380   3.392   4.325   0.801
 7827SOL    HW224381   3.327   4.192   0.731
 7828SOL     OW24382   0.342   5.258   0.646
 7828SOL    HW124383   0.415   5.326   0.657
 7828SOL    HW224384   0.272   5.273   0.715
 7829SOL     OW24385   1.962   2.824   0.341
 7829SOL    HW124386   2.001   2.874   0.263
 7829SOL    HW224387   1.961   2.883   0.421
 7830SOL     OW24388   5.029   3.731   5.947
 7830SOL    HW124389   5.128   3.726   5.939
 7830SOL    HW224390   4.997   3.819   5.910
 7831SOL     OW24391   1.476   5.303   0.707
 7831SOL    HW124392   1.451   5.279   0.614
 7831SOL    HW224393   1.399   5.286   0.768
 7832SOL     OW24394   3.619   1.068   4.390
 7832SOL    HW124395   3.650   1.060   4.485
 7832SOL    HW224396   3.675   1.136   4.343
 7833SOL     OW24397   0.558   0.451   6.686
 7833SOL    HW124398   0.582   0.508   6.607
 7833SOL    HW224399   0.467   0.478   6.719
 7834SOL     OW24400   0.626   1.855   3.559
 7834SOL    HW124401   0.587   1.919   3.492
 7834SOL    HW224402   0.562   1.842   3.634
 7835SOL     OW24403   1.994   2.468   4.816
 7835SOL    HW124404   2.068   2.536   4.813
 7835SOL    HW224405   2.032   2.377   4.798
 7836SOL     OW24406   3.753   2.246   6.198
 7836SOL    HW124407   3.771   2.261   6.295
 7836SOL    HW224408   3.674   2.187   6.187
 7837SOL     OW24409   6.328   6.306   1.883
 7837SOL    HW124410   6.379   6.347   1.959
 7837SOL    HW224411   6.391   6.277   1.812
 7838SOL     OW24412   4.058   6.097   0.131
 7838SOL    HW124413   4.041   6.002   0.107
 7838SOL    HW224414   4.144   6.104   0.181
 7839SOL     OW24415   6.447   4.865   5.795
 7839SOL    HW124416   6.469   4.930   5.723
 7839SOL    HW224417   6.446   4.772   5.758
 7840SOL     OW24418   5.195   3.697   4.486
 7840SOL    HW124419   5.241   3.609   4.475
 7840SOL    HW224420   5.224   3.739   4.572
 7841SOL     OW24421   5.807   1.088   0.196
 7841SOL    HW124422   5.746   1.161   0.226
 7841SOL    HW224423   5.798   1.075   0.097
 7842SOL     OW24424   2.309   1.630   3.053
 7842SOL    HW124425   2.367   1.671   3.123
 7842SOL    HW224426   2.346   1.652   2.962
 7843SOL     OW24427   5.156   4.468   1.703
 7843SOL    HW124428   5.087   4.399   1.726
 7843SOL    HW224429   5.246   4.423   1.694
 7844SOL     OW24430   4.431   0.676   3.980
 7844SOL    HW124431   4.459   0.767   4.010
 7844SOL    HW224432   4.494   0.607   4.017
 7845SOL     OW24433   6.454   1.374   4.130
 7845SOL    HW124434   6.358   1.399   4.113
 7845SOL    HW224435   6.463   1.275   4.124
 7846SOL     OW24436   1.530   0.714   1.491
 7846SOL    HW124437   1.495   0.687   1.580
 7846SOL    HW224438   1.480   0.794   1.458
 7847SOL     OW24439   6.856   1.670   1.677
 7847SOL    HW124440   6.949   1.634   1.669
 7847SOL    HW224441   6.791   1.604   1.641
 7848SOL     OW24442   3.413   3.976   1.261
 7848SOL    HW124443   3.382   4.045   1.327
 7848SOL    HW224444   3.336   3.917   1.236
 7849SOL     OW24445   5.533   4.248   3.891
 7849SOL    HW124446   5.548   4.199   3.805
 7849SOL    HW224447   5.619   4.252   3.942
 7850SOL     OW24448   0.171   1.642   3.898
 7850SOL    HW124449   0.125   1.571   3.844
 7850SOL    HW224450   0.265   1.651   3.867
 7851SOL     OW24451   6.789   0.109   0.990
 7851SOL    HW124452   6.690   0.118   0.985
 7851SOL    HW224453   6.827   0.184   1.045
 7852SOL     OW24454   2.983   0.349   5.490
 7852SOL    HW124455   2.891   0.319   5.515
 7852SOL    HW224456   2.995   0.445   5.515
 7853SOL     OW24457   4.128   1.584   1.694
 7853SOL    HW124458   4.063   1.647   1.739
 7853SOL    HW224459   4.169   1.525   1.763
 7854SOL     OW24460   3.586   3.967   1.062
 7854SOL    HW124461   3.518   3.967   1.135
 7854SOL    HW224462   3.576   3.884   1.007
 7855SOL     OW24463   3.168   5.952   5.600
 7855SOL    HW124464   3.074   5.984   5.610
 7855SOL    HW224465   3.216   6.012   5.535
 7856SOL     OW24466   5.534   4.801   3.744
 7856SOL    HW124467   5.503   4.865   3.673
 7856SOL    HW224468   5.474   4.809   3.824
 7857SOL     OW24469   6.539   3.161   5.077
 7857SOL    HW124470   6.518   3.235   5.141
 7857SOL    HW224471   6.525   3.073   5.122
 7858SOL     OW24472   4.418   5.316   3.535
 7858SOL    HW124473   4.332   5.310   3.483
 7858SOL    HW224474   4.482   5.248   3.499
 7859SOL     OW24475   6.719   4.225   5.699
 7859SOL    HW124476   6.654   4.250   5.771
 7859SOL    HW224477   6.803   4.190   5.741
 7860SOL     OW24478   4.241   0.075   3.243
 7860SOL    HW124479   4.265   0.105   3.335
 7860SOL    HW224480   4.155   0.025   3.246
 7861SOL     OW24481   3.806   5.276   1.730
 7861SOL    HW124482   3.816   5.375   1.726
 7861SOL    HW224483   3.821   5.237   1.639
 7862SOL     OW24484   3.088   4.650   1.752
 7862SOL    HW124485   3.049   4.562   1.777
 7862SOL    HW224486   3.187   4.641   1.742
 7863SOL     OW24487   6.820   6.399   3.874
 7863SOL    HW124488   6.773   6.373   3.958
 7863SOL    HW224489   6.831   6.498   3.871
 7864SOL     OW24490   6.916   6.278   5.765
 7864SOL    HW124491   6.982   6.334   5.815
 7864SOL    HW224492   6.825   6.319   5.772
 7865SOL     OW24493   4.768   6.772   4.170
 7865SOL    HW124494   4.714   6.850   4.201
 7865SOL    HW224495   4.740   6.689   4.219
 7866SOL     OW24496   2.461   2.055   6.988
 7866SOL    HW124497   2.513   2.115   6.927
 7866SOL    HW224498   2.523   1.992   0.009
 7867SOL     OW24499   4.993   6.092   2.749
 7867SOL    HW124500   5.035   6.033   2.679
 7867SOL    HW224501   4.951   6.171   2.704
 7868SOL     OW24502   5.747   6.891   2.454
 7868SOL    HW124503   5.689   6.966   2.487
 7868SOL    HW224504   5.842   6.912   2.474
 7869SOL     OW24505   5.572   3.945   0.465
 7869SOL    HW124506   5.512   4.019   0.433
 7869SOL    HW224507   5.664   3.959   0.428
 7870SOL     OW24508   4.979   5.482   4.177
 7870SOL    HW124509   4.889   5.438   4.186
 7870SOL    HW224510   5.040   5.446   4.248
 7871SOL     OW24511   5.948   3.758   2.613
 7871SOL    HW124512   5.874   3.713   2.563
 7871SOL    HW224513   5.961   3.850   2.577
 7872SOL     OW24514   2.026   4.701   2.557
 7872SOL    HW124515   2.037   4.635   2.483
 7872SOL    HW224516   1.940   4.751   2.545
 7873SOL     OW24517   5.298   0.242   5.229
 7873SOL    HW124518   5.254   0.320   5.275
 7873SOL    HW224519   5.359   0.196   5.293
 7874SOL     OW24520   4.774   1.410   0.569
 7874SOL    HW124521   4.832   1.329   0.565
 7874SOL    HW224522   4.815   1.478   0.630
 7875SOL     OW24523   4.377   2.521   6.671
 7875SOL    HW124524   4.469   2.505   6.707
 7875SOL    HW224525   4.321   2.563   6.742
 7876SOL     OW24526   0.017   0.328   5.266
 7876SOL    HW124527   7.014   0.353   5.173
 7876SOL    HW224528   6.966   0.282   5.312
 7877SOL     OW24529   0.364   2.882   2.515
 7877SOL    HW124530   0.434   2.852   2.449
 7877SOL    HW224531   0.273   2.872   2.473
 7878SOL     OW24532   4.892   4.806   4.174
 7878SOL    HW124533   4.826   4.781   4.104
 7878SOL    HW224534   4.897   4.906   4.181
 7879SOL     OW24535   4.689   5.359   3.692
 7879SOL    HW124536   4.601   5.331   3.654
 7879SOL    HW224537   4.697   5.325   3.786
 7880SOL     OW24538   0.747   5.117   0.724
 7880SOL    HW124539   0.828   5.149   0.674
 7880SOL    HW224540   0.679   5.189   0.728
 7881SOL     OW24541   6.042   3.726   4.670
 7881SOL    HW124542   5.993   3.644   4.699
 7881SOL    HW224543   6.049   3.789   4.747
 7882SOL     OW24544   1.514   2.744   3.312
 7882SOL    HW124545   1.470   2.783   3.392
 7882SOL    HW224546   1.457   2.672   3.273
 7883SOL     OW24547   1.719   6.807   1.096
 7883SOL    HW124548   1.670   6.894   1.105
 7883SOL    HW224549   1.800   6.809   1.154
 7884SOL     OW24550   1.840   4.486   3.928
 7884SOL    HW124551   1.939   4.502   3.923
 7884SOL    HW224552   1.822   4.388   3.932
 7885SOL     OW24553   6.462   6.295   2.581
 7885SOL    HW124554   6.448   6.283   2.483
 7885SOL    HW224555   6.375   6.285   2.629
 7886SOL     OW24556   4.328   4.041   1.118
 7886SOL    HW124557   4.241   3.994   1.106
 7886SOL    HW224558   4.376   4.004   1.198
 7887SOL     OW24559   3.533   2.546   5.388
 7887SOL    HW124560   3.631   2.540   5.410
 7887SOL    HW224561   3.492   2.455   5.396
 7888SOL     OW24562   0.121   0.572   5.353
 7888SOL    HW124563   0.157   0.612   5.269
 7888SOL    HW224564   0.092   0.478   5.335
 7889SOL     OW24565   0.750   4.738   0.170
 7889SOL    HW124566   0.839   4.750   0.214
 7889SOL    HW224567   0.702   4.661   0.213
 7890SOL     OW24568   0.623   3.627   3.990
 7890SOL    HW124569   0.569   3.660   4.067
 7890SOL    HW224570   0.647   3.703   3.931
 7891SOL     OW24571   1.379   3.865   4.083
 7891SOL    HW124572   1.423   3.841   3.997
 7891SOL    HW224573   1.315   3.793   4.109
 7892SOL     OW24574   1.303   2.327   4.133
 7892SOL    HW124575   1.384   2.272   4.114
 7892SOL    HW224576   1.221   2.277   4.103
 7893SOL     OW24577   6.043   7.001   2.334
 7893SOL    HW124578   6.048   6.962   2.426
 7893SOL    HW224579   6.051   6.928   2.266
 7894SOL     OW24580   2.917   0.759   1.063
 7894SOL    HW124581   2.944   0.856   1.059
 7894SOL    HW224582   2.987   0.707   1.113
 7895SOL     OW24583   4.920   6.675   5.118
 7895SOL    HW124584   4.953   6.645   5.207
 7895SOL    HW224585   4.905   6.774   5.119
 7896SOL     OW24586   5.779   3.479   1.008
 7896SOL    HW124587   5.683   3.484   1.039
 7896SOL    HW224588   5.799   3.557   0.950
 7897SOL     OW24589   3.482   2.861   1.301
 7897SOL    HW124590   3.523   2.930   1.241
 7897SOL    HW224591   3.432   2.906   1.375
 7898SOL     OW24592   3.551   0.106   3.879
 7898SOL    HW124593   3.492   0.026   3.889
 7898SOL    HW224594   3.572   0.144   3.969
 7899SOL     OW24595   5.955   0.092   1.977
 7899SOL    HW124596   5.874   0.044   1.944
 7899SOL    HW224597   6.012   0.117   1.899
 7900SOL     OW24598   0.870   5.011   1.572
 7900SOL    HW124599   0.835   4.945   1.639
 7900SOL    HW224600   0.796   5.039   1.510
 7901SOL     OW24601   4.676   0.808   6.409
 7901SOL    HW124602   4.631   0.880   6.356
 7901SOL    HW224603   4.738   0.757   6.349
 7902SOL     OW24604   6.275   6.021   3.053
 7902SOL    HW124605   6.293   6.041   2.956
 7902SOL    HW224606   6.349   6.061   3.108
 7903SOL     OW24607   4.526   2.201   2.842
 7903SOL    HW124608   4.440   2.213   2.792
 7903SOL    HW224609   4.550   2.287   2.887
 7904SOL     OW24610   5.452   0.300   2.802
 7904SOL    HW124611   5.542   0.329   2.772
 7904SOL    HW224612   5.460   0.251   2.889
 7905SOL     OW24613   5.281   2.078   0.346
 7905SOL    HW124614   5.273   2.030   0.434
 7905SOL    HW224615   5.282   2.176   0.362
 7906SOL     OW24616   1.030   6.209   0.683
 7906SOL    HW124617   0.941   6.232   0.643
 7906SOL    HW224618   1.037   6.110   0.694
 7907SOL     OW24619   6.612   1.042   2.959
 7907SOL    HW124620   6.557   1.086   2.887
 7907SOL    HW224621   6.700   1.089   2.966
 7908SOL     OW24622   0.896   1.374   5.875
 7908SOL    HW124623   0.824   1.322   5.922
 7908SOL    HW224624   0.862   1.466   5.854
 7909SOL     OW24625   4.964   4.045   3.566
 7909SOL    HW124626   4.957   4.127   3.623
 7909SOL    HW224627   5.056   4.007   3.573
 7910SOL     OW24628   1.741   3.052   0.308
 7910SOL    HW124629   1.773   3.012   0.222
 7910SOL    HW224630   1.806   3.123   0.338
 7911SOL     OW24631   0.982   4.793   0.893
 7911SOL    HW124632   1.031   4.706   0.897
 7911SOL    HW224633   1.026   4.853   0.826
 7912SOL     OW24634   6.012   4.593   1.434
 7912SOL    HW124635   5.933   4.534   1.418
 7912SOL    HW224636   6.089   4.560   1.378
 7913SOL     OW24637   1.719   3.955   1.819
 7913SOL    HW124638   1.620   3.949   1.829
 7913SOL    HW224639   1.763   3.893   1.884
 7914SOL     OW24640   0.034   4.494   1.073
 7914SOL    HW124641   6.977   4.535   1.113
 7914SOL    HW224642   0.096   4.566   1.041
 7915SOL     OW24643   5.013   1.968   2.652
 7915SOL    HW124644   4.963   1.882   2.640
 7915SOL    HW224645   4.956   2.033   2.702
 7916SOL     OW24646   0.562   6.306   5.766
 7916SOL    HW124647   0.659   6.303   5.742
 7916SOL    HW224648   0.530   6.401   5.762
 7917SOL     OW24649   4.231   3.148   5.595
 7917SOL    HW124650   4.316   3.104   5.624
 7917SOL    HW224651   4.247   3.246   5.584
 7918SOL     OW24652   6.496   0.993   4.261
 7918SOL    HW124653   6.484   0.906   4.310
 7918SOL    HW224654   6.523   0.974   4.167
 7919SOL     OW24655   1.463   4.878   2.683
 7919SOL    HW124656   1.453   4.825   2.767
 7919SOL    HW224657   1.474   4.816   2.605
 7920SOL     OW24658   6.378   6.690   1.630
 7920SOL    HW124659   6.299   6.747   1.607
 7920SOL    HW224660   6.392   6.691   1.729
 7921SOL     OW24661   5.725   5.707   2.034
 7921SOL    HW124662   5.667   5.786   2.015
 7921SOL    HW224663   5.781   5.725   2.114
 7922SOL     OW24664   0.652   6.189   6.887
 7922SOL    HW124665   0.584   6.212   6.956
 7922SOL    HW224666   0.660   6.265   6.822
 7923SOL     OW24667   4.384   1.528   6.254
 7923SOL    HW124668   4.361   1.496   6.346
 7923SOL    HW224669   4.414   1.623   6.258
 7924SOL     OW24670   4.807   0.070   1.267
 7924SOL    HW124671   4.786   0.028   1.356
 7924SOL    HW224672   4.905   0.068   1.251
 7925SOL     OW24673   0.698   0.066   0.208
 7925SOL    HW124674   0.705   0.151   0.155
 7925SOL    HW224675   0.784   0.051   0.258
 7926SOL     OW24676   5.220   1.499   6.558
 7926SOL    HW124677   5.282   1.535   6.488
 7926SOL    HW224678   5.213   1.566   6.633
 7927SOL     OW24679   4.913   0.020   2.366
 7927SOL    HW124680   4.827   6.995   2.379
 7927SOL    HW224681   4.955   0.038   2.455
 7928SOL     OW24682   0.793   1.929   4.031
 7928SOL    HW124683   0.713   1.870   4.019
 7928SOL    HW224684   0.779   2.015   3.983
 7929SOL     OW24685   3.797   3.519   5.536
 7929SOL    HW124686   3.849   3.539   5.619
 7929SOL    HW224687   3.747   3.601   5.508
 7930SOL     OW24688   4.528   5.011   5.607
 7930SOL    HW124689   4.524   5.105   5.572
 7930SOL    HW224690   4.556   5.013   5.703
 7931SOL     OW24691   3.847   2.968   0.685
 7931SOL    HW124692   3.752   2.957   0.653
 7931SOL    HW224693   3.879   2.881   0.724
 7932SOL     OW24694   1.055   5.769   6.354
 7932SOL    HW124695   1.018   5.843   6.299
 7932SOL    HW224696   1.153   5.758   6.333
 7933SOL     OW24697   6.431   0.628   6.323
 7933SOL    HW124698   6.512   0.632   6.381
 7933SOL    HW224699   6.352   0.661   6.374
 7934SOL     OW24700   1.592   5.427   6.673
 7934SOL    HW124701   1.514   5.403   6.731
 7934SOL    HW224702   1.645   5.344   6.653
 7935SOL     OW24703   5.684   6.460   1.292
 7935SOL    HW124704   5.617   6.385   1.295
 7935SOL    HW224705   5.776   6.423   1.297
 7936SOL     OW24706   2.980   6.020   3.047
 7936SOL    HW124707   2.911   5.957   3.082
 7936SOL    HW224708   3.003   5.996   2.953
 7937SOL     OW24709   0.681   6.079   4.102
 7937SOL    HW124710   0.633   6.026   4.032
 7937SOL    HW224711   0.733   6.152   4.059
 7938SOL     OW24712   6.211   6.366   5.216
 7938SOL    HW124713   6.307   6.380   5.241
 7938SOL    HW224714   6.206   6.318   5.129
 7939SOL     OW24715   1.660   2.157   5.838
 7939SOL    HW124716   1.719   2.185   5.913
 7939SOL    HW224717   1.685   2.206   5.755
 7940SOL     OW24718   2.344   2.557   2.532
 7940SOL    HW124719   2.282   2.619   2.484
 7940SOL    HW224720   2.410   2.520   2.468
 7941SOL     OW24721   5.629   5.949   1.939
 7941SOL    HW124722   5.661   5.996   2.021
 7941SOL    HW224723   5.550   5.997   1.902
 7942SOL     OW24724   0.502   3.974   2.629
 7942SOL    HW124725   0.540   4.049   2.683
 7942SOL    HW224726   0.409   3.999   2.600
 7943SOL     OW24727   0.548   4.508   5.846
 7943SOL    HW124728   0.469   4.547   5.892
 7943SOL    HW224729   0.587   4.575   5.782
 7944SOL     OW24730   0.739   3.018   0.562
 7944SOL    HW124731   0.780   2.947   0.505
 7944SOL    HW224732   0.664   2.978   0.616
 7945SOL     OW24733   6.563   6.120   1.428
 7945SOL    HW124734   6.463   6.123   1.422
 7945SOL    HW224735   6.598   6.051   1.365
 7946SOL     OW24736   3.406   0.624   5.772
 7946SOL    HW124737   3.383   0.569   5.853
 7946SOL    HW224738   3.484   0.683   5.793
 7947SOL     OW24739   2.794   1.483   5.509
 7947SOL    HW124740   2.842   1.531   5.435
 7947SOL    HW224741   2.702   1.458   5.478
 7948SOL     OW24742   0.940   6.229   0.937
 7948SOL    HW124743   0.990   6.265   0.858
 7948SOL    HW224744   0.845   6.210   0.910
 7949SOL     OW24745   4.563   3.787   5.874
 7949SOL    HW124746   4.587   3.846   5.951
 7949SOL    HW224747   4.637   3.789   5.806
 7950SOL     OW24748   4.940   6.103   4.610
 7950SOL    HW124749   4.987   6.053   4.682
 7950SOL    HW224750   4.988   6.089   4.523
 7951SOL     OW24751   1.968   4.706   2.264
 7951SOL    HW124752   2.048   4.738   2.215
 7951SOL    HW224753   1.961   4.606   2.256
 7952SOL     OW24754   0.564   3.119   6.575
 7952SOL    HW124755   0.605   3.030   6.594
 7952SOL    HW224756   0.636   3.189   6.570
 7953SOL     OW24757   4.337   2.325   2.651
 7953SOL    HW124758   4.293   2.301   2.565
 7953SOL    HW224759   4.385   2.412   2.641
 7954SOL     OW24760   3.281   4.258   6.304
 7954SOL    HW124761   3.317   4.214   6.222
 7954SOL    HW224762   3.328   4.221   6.385
 7955SOL     OW24763   2.216   1.100   6.576
 7955SOL    HW124764   2.138   1.081   6.635
 7955SOL    HW224765   2.194   1.074   6.482
 7956SOL     OW24766   5.247   0.512   2.166
 7956SOL    HW124767   5.173   0.490   2.102
 7956SOL    HW224768   5.332   0.525   2.116
 7957SOL     OW24769   1.469   0.500   0.513
 7957SOL    HW124770   1.548   0.548   0.474
 7957SOL    HW224771   1.385   0.546   0.484
 7958SOL     OW24772   4.718   5.444   6.139
 7958SOL    HW124773   4.741   5.382   6.065
 7958SOL    HW224774   4.796   5.505   6.157
 7959SOL     OW24775   4.986   6.868   1.064
 7959SOL    HW124776   4.994   6.962   1.030
 7959SOL    HW224777   4.899   6.829   1.035
 7960SOL     OW24778   2.198   0.642   5.668
 7960SOL    HW124779   2.284   0.595   5.690
 7960SOL    HW224780   2.187   0.721   5.729
 7961SOL     OW24781   0.049   1.166   0.459
 7961SOL    HW124782   0.131   1.129   0.415
 7961SOL    HW224783   6.993   1.138   0.407
 7962SOL     OW24784   1.166   1.064   5.578
 7962SOL    HW124785   1.173   1.056   5.479
 7962SOL    HW224786   1.121   1.150   5.602
 7963SOL     OW24787   5.904   5.694   4.472
 7963SOL    HW124788   5.841   5.682   4.395
 7963SOL    HW224789   5.937   5.789   4.474
 7964SOL     OW24790   6.832   3.719   2.793
 7964SOL    HW124791   6.804   3.807   2.832
 7964SOL    HW224792   6.822   3.722   2.694
 7965SOL     OW24793   4.018   2.281   5.826
 7965SOL    HW124794   3.920   2.268   5.813
 7965SOL    HW224795   4.034   2.331   5.911
 7966SOL     OW24796   3.080   3.341   5.998
 7966SOL    HW124797   3.010   3.271   6.009
 7966SOL    HW224798   3.063   3.391   5.912
 7967SOL     OW24799   3.407   5.957   1.622
 7967SOL    HW124800   3.473   5.881   1.618
 7967SOL    HW224801   3.356   5.952   1.708
 7968SOL     OW24802   6.404   2.321   4.125
 7968SOL    HW124803   6.332   2.252   4.116
 7968SOL    HW224804   6.461   2.300   4.204
 7969SOL     OW24805   5.795   5.867   0.876
 7969SOL    HW124806   5.853   5.908   0.805
 7969SOL    HW224807   5.765   5.938   0.939
 7970SOL     OW24808   6.287   3.032   2.100
 7970SOL    HW124809   6.307   3.098   2.172
 7970SOL    HW224810   6.336   3.057   2.017
 7971SOL     OW24811   3.194   1.781   1.131
 7971SOL    HW124812   3.111   1.731   1.105
 7971SOL    HW224813   3.185   1.877   1.102
 7972SOL     OW24814   3.057   3.125   0.850
 7972SOL    HW124815   3.088   3.140   0.757
 7972SOL    HW224816   2.997   3.201   0.878
 7973SOL     OW24817   4.579   4.417   4.043
 7973SOL    HW124818   4.518   4.476   4.095
 7973SOL    HW224819   4.672   4.424   4.080
 7974SOL     OW24820   5.760   1.268   5.848
 7974SOL    HW124821   5.779   1.171   5.866
 7974SOL    HW224822   5.838   1.323   5.875
 7975SOL     OW24823   6.362   0.709   1.285
 7975SOL    HW124824   6.405   0.675   1.368
 7975SOL    HW224825   6.287   0.648   1.259
 7976SOL     OW24826   1.345   0.276   6.087
 7976SOL    HW124827   1.340   0.235   5.996
 7976SOL    HW224828   1.259   0.323   6.107
 7977SOL     OW24829   4.335   5.610   2.974
 7977SOL    HW124830   4.370   5.693   2.932
 7977SOL    HW224831   4.329   5.622   3.073
 7978SOL     OW24832   6.951   2.712   6.344
 7978SOL    HW124833   6.943   2.646   6.270
 7978SOL    HW224834   6.892   2.791   6.326
 7979SOL     OW24835   3.451   5.051   5.384
 7979SOL    HW124836   3.426   5.032   5.479
 7979SOL    HW224837   3.515   5.127   5.382
 7980SOL     OW24838   3.570   5.253   6.363
 7980SOL    HW124839   3.538   5.186   6.431
 7980SOL    HW224840   3.493   5.281   6.305
 7981SOL     OW24841   0.795   4.448   1.497
 7981SOL    HW124842   0.836   4.442   1.406
 7981SOL    HW224843   0.709   4.498   1.492
 7982SOL     OW24844   1.263   1.195   0.492
 7982SOL    HW124845   1.255   1.294   0.476
 7982SOL    HW224846   1.355   1.165   0.466
 7983SOL     OW24847   5.771   2.446   0.541
 7983SOL    HW124848   5.729   2.531   0.572
 7983SOL    HW224849   5.838   2.414   0.608
 7984SOL     OW24850   1.172   1.339   0.914
 7984SOL    HW124851   1.247   1.387   0.960
 7984SOL    HW224852   1.209   1.261   0.863
 7985SOL     OW24853   2.743   1.775   4.755
 7985SOL    HW124854   2.704   1.840   4.821
 7985SOL    HW224855   2.841   1.765   4.772
 7986SOL     OW24856   2.950   0.689   6.373
 7986SOL    HW124857   2.982   0.627   6.445
 7986SOL    HW224858   2.935   0.780   6.410
 7987SOL     OW24859   1.683   2.350   0.200
 7987SOL    HW124860   1.689   2.313   0.107
 7987SOL    HW224861   1.667   2.276   0.265
 7988SOL     OW24862   1.387   1.497   2.855
 7988SOL    HW124863   1.334   1.539   2.929
 7988SOL    HW224864   1.333   1.424   2.813
 7989SOL     OW24865   3.037   3.388   0.367
 7989SOL    HW124866   3.050   3.309   0.307
 7989SOL    HW224867   2.992   3.359   0.451
 7990SOL     OW24868   1.665   5.307   4.729
 7990SOL    HW124869   1.646   5.309   4.827
 7990SOL    HW224870   1.611   5.378   4.683
 7991SOL     OW24871   6.078   1.196   3.918
 7991SOL    HW124872   6.123   1.115   3.955
 7991SOL    HW224873   5.982   1.197   3.946
 7992SOL     OW24874   1.034   0.593   0.246
 7992SOL    HW124875   1.069   0.640   0.165
 7992SOL    HW224876   0.942   0.627   0.267
 7993SOL     OW24877   0.164   0.136   0.871
 7993SOL    HW124878   0.155   0.234   0.855
 7993SOL    HW224879   0.140   0.086   0.788
 7994SOL     OW24880   3.580   0.129   3.613
 7994SOL    HW124881   3.669   0.164   3.586
 7994SOL    HW224882   3.573   0.127   3.713
 7995SOL     OW24883   5.824   5.480   3.376
 7995SOL    HW124884   5.885   5.428   3.316
 7995SOL    HW224885   5.863   5.484   3.468
 7996SOL     OW24886   3.585   6.637   4.395
 7996SOL    HW124887   3.622   6.546   4.378
 7996SOL    HW224888   3.659   6.700   4.415
 7997SOL     OW24889   0.061   1.192   0.947
 7997SOL    HW124890   0.009   1.123   0.896
 7997SOL    HW224891   0.148   1.153   0.977
 7998SOL     OW24892   2.875   0.255   0.587
 7998SOL    HW124893   2.880   0.166   0.542
 7998SOL    HW224894   2.810   0.314   0.538
 7999SOL     OW24895   0.695   0.967   5.961
 7999SOL    HW124896   0.729   0.985   5.868
 7999SOL    HW224897   0.604   1.007   5.971
 8000SOL     OW24898   5.059   0.058   6.592
 8000SOL    HW124899   4.969   0.083   6.629
 8000SOL    HW224900   5.120   0.033   6.667
 8001SOL     OW24901   4.329   6.036   1.832
 8001SOL    HW124902   4.364   5.943   1.842
 8001SOL    HW224903   4.233   6.033   1.803
 8002SOL     OW24904   1.572   0.664   6.625
 8002SOL    HW124905   1.551   0.648   6.721
 8002SOL    HW224906   1.572   0.763   6.608
 8003SOL     OW24907   2.683   5.601   1.679
 8003SOL    HW124908   2.678   5.503   1.697
 8003SOL    HW224909   2.638   5.621   1.592
 8004SOL     OW24910   2.181   3.108   3.080
 8004SOL    HW124911   2.184   3.074   2.986
 8004SOL    HW224912   2.228   3.043   3.140
 8005SOL     OW24913   3.012   0.867   3.355
 8005SOL    HW124914   3.012   0.828   3.447
 8005SOL    HW224915   2.953   0.812   3.296
 8006SOL     OW24916   2.302   6.061   5.369
 8006SOL    HW124917   2.250   6.142   5.394
 8006SOL    HW224918   2.246   5.979   5.384
 8007SOL     OW24919   5.953   1.434   5.923
 8007SOL    HW124920   5.965   1.490   6.005
 8007SOL    HW224921   6.043   1.417   5.881
 8008SOL     OW24922   4.054   6.542   6.510
 8008SOL    HW124923   4.117   6.579   6.577
 8008SOL    HW224924   3.987   6.612   6.484
 8009SOL     OW24925   5.667   0.639   1.107
 8009SOL    HW124926   5.675   0.738   1.119
 8009SOL    HW224927   5.573   0.610   1.125
 8010SOL     OW24928   2.141   1.643   5.457
 8010SOL    HW124929   2.074   1.576   5.488
 8010SOL    HW224930   2.231   1.620   5.495
 8011SOL     OW24931   3.141   2.082   1.085
 8011SOL    HW124932   3.129   2.162   1.026
 8011SOL    HW224933   3.192   2.107   1.167
 8012SOL     OW24934   2.641   3.355   0.179
 8012SOL    HW124935   2.695   3.427   0.134
 8012SOL    HW224936   2.664   3.353   0.276
 8013SOL     OW24937   1.673   5.543   3.279
 8013SOL    HW124938   1.623   5.555   3.365
 8013SOL    HW224939   1.711   5.450   3.276
 8014SOL     OW24940   1.178   6.457   4.651
 8014SOL    HW124941   1.243   6.405   4.596
 8014SOL    HW224942   1.099   6.482   4.594
 8015SOL     OW24943   2.478   0.606   6.591
 8015SOL    HW124944   2.417   0.656   6.654
 8015SOL    HW224945   2.569   0.647   6.593
 8016SOL     OW24946   3.928   0.726   5.844
 8016SOL    HW124947   3.877   0.662   5.901
 8016SOL    HW224948   3.885   0.731   5.754
 8017SOL     OW24949   5.763   0.264   0.482
 8017SOL    HW124950   5.673   0.279   0.522
 8017SOL    HW224951   5.833   0.281   0.551
 8018SOL     OW24952   3.400   2.080   0.104
 8018SOL    HW124953   3.488   2.078   0.057
 8018SOL    HW224954   3.334   2.134   0.052
 8019SOL     OW24955   2.809   4.811   1.004
 8019SOL    HW124956   2.717   4.850   0.992
 8019SOL    HW224957   2.875   4.868   0.955
 8020SOL     OW24958   6.281   0.329   6.502
 8020SOL    HW124959   6.224   0.390   6.449
 8020SOL    HW224960   6.320   0.379   6.580
 8021SOL     OW24961   1.051   2.896   0.776
 8021SOL    HW124962   1.059   2.995   0.787
 8021SOL    HW224963   1.142   2.855   0.775
 8022SOL     OW24964   6.069   0.661   2.226
 8022SOL    HW124965   6.085   0.628   2.319
 8022SOL    HW224966   6.124   0.742   2.208
 8023SOL     OW24967   6.360   4.687   2.835
 8023SOL    HW124968   6.300   4.614   2.803
 8023SOL    HW224969   6.331   4.774   2.797
 8024SOL     OW24970   1.211   5.061   5.972
 8024SOL    HW124971   1.149   5.028   5.900
 8024SOL    HW224972   1.301   5.080   5.932
 8025SOL     OW24973   2.340   5.926   0.983
 8025SOL    HW124974   2.321   5.847   0.925
 8025SOL    HW224975   2.255   5.956   1.027
 8026SOL     OW24976   6.934   4.005   1.002
 8026SOL    HW124977   6.851   3.949   0.991
 8026SOL    HW224978   6.998   3.984   0.928
 8027SOL     OW24979   3.883   0.125   5.439
 8027SOL    HW124980   3.822   0.097   5.514
 8027SOL    HW224981   3.851   0.085   5.353
 8028SOL     OW24982   4.172   5.754   5.631
 8028SOL    HW124983   4.142   5.687   5.563
 8028SOL    HW224984   4.093   5.809   5.660
 8029SOL     OW24985   5.341   3.119   1.918
 8029SOL    HW124986   5.302   3.079   2.001
 8029SOL    HW224987   5.278   3.186   1.880
 8030SOL     OW24988   5.288   4.935   0.353
 8030SOL    HW124989   5.354   4.968   0.285
 8030SOL    HW224990   5.228   5.009   0.381
 8031SOL     OW24991   6.170   6.523   2.502
 8031SOL    HW124992   6.095   6.549   2.564
 8031SOL    HW224993   6.172   6.424   2.493
 8032SOL     OW24994   6.340   4.530   2.114
 8032SOL    HW124995   6.258   4.587   2.100
 8032SOL    HW224996   6.402   4.542   2.037
 8033SOL     OW24997   4.502   2.279   6.926
 8033SOL    HW124998   4.422   2.233   6.965
 8033SOL    HW224999   4.538   2.224   6.850
 8034SOL     OW25000   4.381   0.615   4.988
 8034SOL    HW125001   4.370   0.697   4.931
 8034SOL    HW225002   4.310   0.549   4.964
 8035SOL     OW25003   5.213   1.403   2.322
 8035SOL    HW125004   5.253   1.432   2.235
 8035SOL    HW225005   5.115   1.422   2.322
 8036SOL     OW25006   6.996   3.731   3.894
 8036SOL    HW125007   6.919   3.784   3.931
 8036SOL    HW225008   6.969   3.690   3.807
 8037SOL     OW25009   2.295   3.265   6.867
 8037SOL    HW125010   2.275   3.361   6.886
 8037SOL    HW225011   2.394   3.252   6.863
 8038SOL     OW25012   4.376   0.325   2.180
 8038SOL    HW125013   4.442   0.388   2.221
 8038SOL    HW225014   4.375   0.337   2.081
 8039SOL     OW25015   0.026   1.536   5.161
 8039SOL    HW125016   0.026   1.615   5.099
 8039SOL    HW225017   6.976   1.475   5.136
 8040SOL     OW25018   1.289   5.492   0.200
 8040SOL    HW125019   1.381   5.456   0.215
 8040SOL    HW225020   1.227   5.418   0.175
 8041SOL     OW25021   3.070   0.731   3.008
 8041SOL    HW125022   3.159   0.772   3.032
 8041SOL    HW225023   3.057   0.647   3.059
 8042SOL     OW25024   3.917   3.066   5.185
 8042SOL    HW125025   4.002   3.041   5.231
 8042SOL    HW225026   3.862   2.984   5.171
 8043SOL     OW25027   3.781   5.906   0.680
 8043SOL    HW125028   3.771   5.901   0.779
 8043SOL    HW225029   3.726   5.982   0.645
 8044SOL     OW25030   5.115   3.253   0.793
 8044SOL    HW125031   5.064   3.310   0.857
 8044SOL    HW225032   5.196   3.215   0.839
 8045SOL     OW25033   6.246   2.178   2.523
 8045SOL    HW125034   6.261   2.203   2.428
 8045SOL    HW225035   6.149   2.162   2.539
 8046SOL     OW25036   0.797   4.583   1.922
 8046SOL    HW125037   0.797   4.496   1.873
 8046SOL    HW225038   0.817   4.567   2.019
 8047SOL     OW25039   3.520   5.935   6.182
 8047SOL    HW125040   3.522   5.849   6.131
 8047SOL    HW225041   3.612   5.974   6.184
 8048SOL     OW25042   3.948   1.348   6.751
 8048SOL    HW125043   3.904   1.306   6.830
 8048SOL    HW225044   4.036   1.387   6.779
 8049SOL     OW25045   1.067   6.984   6.680
 8049SOL    HW125046   1.128   6.908   6.705
 8049SOL    HW225047   0.989   6.985   6.742
 8050SOL     OW25048   2.138   3.493   3.814
 8050SOL    HW125049   2.040   3.474   3.812
 8050SOL    HW225050   2.154   3.584   3.851
 8051SOL     OW25051   4.460   6.308   4.352
 8051SOL    HW125052   4.492   6.299   4.447
 8051SOL    HW225053   4.538   6.324   4.292
 8052SOL     OW25054   2.930   1.670   1.108
 8052SOL    HW125055   2.894   1.619   1.030
 8052SOL    HW225056   2.869   1.657   1.187
 8053SOL     OW25057   3.752   2.902   4.866
 8053SOL    HW125058   3.801   2.895   4.779
 8053SOL    HW225059   3.659   2.869   4.853
 8054SOL     OW25060   6.721   4.165   4.724
 8054SOL    HW125061   6.810   4.193   4.689
 8054SOL    HW225062   6.687   4.234   4.788
 8055SOL     OW25063   6.927   0.766   5.648
 8055SOL    HW125064   6.896   0.674   5.625
 8055SOL    HW225065   0.001   0.773   5.631
 8056SOL     OW25066   3.217   0.917   4.871
 8056SOL    HW125067   3.147   0.873   4.815
 8056SOL    HW225068   3.296   0.940   4.814
 8057SOL     OW25069   2.964   2.181   2.858
 8057SOL    HW125070   2.923   2.093   2.832
 8057SOL    HW225071   3.000   2.175   2.951
 8058SOL     OW25072   3.250   0.346   3.104
 8058SOL    HW125073   3.226   0.284   3.029
 8058SOL    HW225074   3.348   0.361   3.104
 8059SOL     OW25075   2.619   1.439   4.554
 8059SOL    HW125076   2.718   1.436   4.562
 8059SOL    HW225077   2.591   1.518   4.499
 8060SOL     OW25078   6.629   2.287   6.481
 8060SOL    HW125079   6.627   2.387   6.478
 8060SOL    HW225080   6.649   2.257   6.575
 8061SOL     OW25081   0.124   0.579   2.917
 8061SOL    HW125082   0.177   0.661   2.893
 8061SOL    HW225083   0.037   0.581   2.868
 8062SOL     OW25084   4.003   4.825   3.788
 8062SOL    HW125085   4.042   4.790   3.702
 8062SOL    HW225086   3.938   4.898   3.767
 8063SOL     OW25087   2.175   1.987   2.801
 8063SOL    HW125088   2.267   1.963   2.768
 8063SOL    HW225089   2.182   2.068   2.859
 8064SOL     OW25090   6.335   2.340   1.177
 8064SOL    HW125091   6.307   2.436   1.180
 8064SOL    HW225092   6.433   2.333   1.197
 8065SOL     OW25093   2.647   5.602   3.854
 8065SOL    HW125094   2.631   5.506   3.876
 8065SOL    HW225095   2.604   5.660   3.924
 8066SOL     OW25096   0.381   0.927   5.555
 8066SOL    HW125097   0.410   0.909   5.649
 8066SOL    HW225098   0.364   1.025   5.544
 8067SOL     OW25099   5.282   2.553   2.761
 8067SOL    HW125100   5.305   2.626   2.697
 8067SOL    HW225101   5.353   2.546   2.831
 8068SOL     OW25102   0.135   4.354   1.284
 8068SOL    HW125103   0.102   4.260   1.270
 8068SOL    HW225104   0.111   4.410   1.205
 8069SOL     OW25105   2.026   5.083   1.103
 8069SOL    HW125106   2.068   5.019   1.168
 8069SOL    HW225107   1.930   5.097   1.128
 8070SOL     OW25108   4.507   3.428   0.609
 8070SOL    HW125109   4.474   3.338   0.580
 8070SOL    HW225110   4.489   3.441   0.706
 8071SOL     OW25111   3.626   6.494   5.408
 8071SOL    HW125112   3.690   6.445   5.350
 8071SOL    HW225113   3.559   6.542   5.351
 8072SOL     OW25114   3.709   1.606   0.856
 8072SOL    HW125115   3.635   1.538   0.854
 8072SOL    HW225116   3.672   1.694   0.887
 8073SOL     OW25117   3.609   5.858   5.213
 8073SOL    HW125118   3.686   5.806   5.248
 8073SOL    HW225119   3.587   5.932   5.277
 8074SOL     OW25120   3.311   3.066   1.008
 8074SOL    HW125121   3.326   3.115   1.093
 8074SOL    HW225122   3.213   3.051   0.995
 8075SOL     OW25123   6.431   0.019   0.786
 8075SOL    HW125124   6.467   0.049   0.874
 8075SOL    HW225125   6.331   0.030   0.785
 8076SOL     OW25126   5.921   0.745   5.559
 8076SOL    HW125127   5.846   0.798   5.518
 8076SOL    HW225128   5.951   0.791   5.643
 8077SOL     OW25129   3.479   6.611   2.505
 8077SOL    HW125130   3.485   6.668   2.423
 8077SOL    HW225131   3.536   6.530   2.492
 8078SOL     OW25132   0.254   2.116   0.602
 8078SOL    HW125133   0.187   2.162   0.660
 8078SOL    HW225134   0.216   2.028   0.573
 8079SOL     OW25135   6.455   1.372   3.703
 8079SOL    HW125136   6.360   1.401   3.713
 8079SOL    HW225137   6.466   1.281   3.744
 8080SOL     OW25138   0.736   2.830   2.490
 8080SOL    HW125139   0.821   2.779   2.480
 8080SOL    HW225140   0.661   2.766   2.511
 8081SOL     OW25141   6.064   5.967   6.005
 8081SOL    HW125142   5.979   5.920   6.030
 8081SOL    HW225143   6.132   5.953   6.077
 8082SOL     OW25144   3.896   0.929   1.952
 8082SOL    HW125145   3.842   1.002   1.993
 8082SOL    HW225146   3.989   0.932   1.989
 8083SOL     OW25147   4.712   2.889   3.406
 8083SOL    HW125148   4.785   2.955   3.385
 8083SOL    HW225149   4.666   2.915   3.490
 8084SOL     OW25150   3.893   6.882   6.771
 8084SOL    HW125151   3.869   6.973   6.739
 8084SOL    HW225152   3.935   6.887   6.861
 8085SOL     OW25153   5.707   6.451   2.233
 8085SOL    HW125154   5.801   6.481   2.249
 8085SOL    HW225155   5.648   6.486   2.306
 8086SOL     OW25156   6.546   0.690   2.703
 8086SOL    HW125157   6.497   0.603   2.700
 8086SOL    HW225158   6.625   0.686   2.643
 8087SOL     OW25159   2.143   0.242   6.901
 8087SOL    HW125160   2.228   0.294   6.893
 8087SOL    HW225161   2.165   0.144   6.907
 8088SOL     OW25162   6.083   1.126   1.599
 8088SOL    HW125163   6.121   1.041   1.636
 8088SOL    HW225164   6.144   1.161   1.527
 8089SOL     OW25165   5.686   2.937   0.753
 8089SOL    HW125166   5.615   2.998   0.717
 8089SOL    HW225167   5.697   2.859   0.691
 8090SOL     OW25168   3.605   1.230   6.494
 8090SOL    HW125169   3.529   1.167   6.515
 8090SOL    HW225170   3.619   1.292   6.570
 8091SOL     OW25171   1.810   3.823   4.494
 8091SOL    HW125172   1.882   3.796   4.558
 8091SOL    HW225173   1.804   3.923   4.490
 8092SOL     OW25174   5.832   1.971   5.482
 8092SOL    HW125175   5.742   1.961   5.525
 8092SOL    HW225176   5.869   2.061   5.505
 8093SOL     OW25177   2.956   5.008   3.373
 8093SOL    HW125178   2.909   4.920   3.382
 8093SOL    HW225179   3.054   4.992   3.360
 8094SOL     OW25180   0.432   3.308   4.497
 8094SOL    HW125181   0.531   3.296   4.503
 8094SOL    HW225182   0.405   3.385   4.555
 8095SOL     OW25183   0.490   4.621   4.432
 8095SOL    HW125184   0.550   4.650   4.507
 8095SOL    HW225185   0.529   4.650   4.345
 8096SOL     OW25186   2.227   7.023   2.739
 8096SOL    HW125187   2.206   0.095   2.748
 8096SOL    HW225188   2.213   6.978   2.828
 8097SOL     OW25189   4.189   6.907   4.401
 8097SOL    HW125190   4.158   7.002   4.399
 8097SOL    HW225191   4.259   6.892   4.331
 8098SOL     OW25192   2.013   6.193   3.261
 8098SOL    HW125193   1.928   6.215   3.310
 8098SOL    HW225194   2.026   6.094   3.260
 8099SOL     OW25195   4.063   5.830   4.679
 8099SOL    HW125196   3.993   5.865   4.616
 8099SOL    HW225197   4.039   5.855   4.773
 8100SOL     OW25198   0.274   0.423   6.721
 8100SOL    HW125199   0.220   0.415   6.805
 8100SOL    HW225200   0.271   0.336   6.671
 8101SOL     OW25201   1.397   5.876   1.684
 8101SOL    HW125202   1.400   5.956   1.745
 8101SOL    HW225203   1.409   5.793   1.738
 8102SOL     OW25204   0.475   4.012   3.239
 8102SOL    HW125205   0.557   4.059   3.270
 8102SOL    HW225206   0.401   4.024   3.306
 8103SOL     OW25207   2.721   6.625   1.541
 8103SOL    HW125208   2.766   6.710   1.567
 8103SOL    HW225209   2.772   6.582   1.466
 8104SOL     OW25210   2.100   0.582   6.008
 8104SOL    HW125211   2.124   0.613   5.916
 8104SOL    HW225212   2.181   0.544   6.052
 8105SOL     OW25213   0.241   3.106   3.354
 8105SOL    HW125214   0.179   3.167   3.304
 8105SOL    HW225215   0.335   3.126   3.328
 8106SOL     OW25216   3.115   5.993   3.474
 8106SOL    HW125217   3.026   6.028   3.503
 8106SOL    HW225218   3.116   5.980   3.375
 8107SOL     OW25219   0.696   5.174   4.010
 8107SOL    HW125220   0.692   5.149   3.913
 8107SOL    HW225221   0.647   5.104   4.064
 8108SOL     OW25222   6.504   2.843   6.175
 8108SOL    HW125223   6.581   2.780   6.185
 8108SOL    HW225224   6.503   2.881   6.082
 8109SOL     OW25225   6.871   3.737   5.771
 8109SOL    HW125226   6.942   3.774   5.711
 8109SOL    HW225227   6.783   3.740   5.724
 8110SOL     OW25228   4.114   6.074   2.592
 8110SOL    HW125229   4.054   6.011   2.543
 8110SOL    HW225230   4.162   6.132   2.527
 8111SOL     OW25231   4.987   1.045   4.412
 8111SOL    HW125232   4.919   0.982   4.372
 8111SOL    HW225233   5.003   1.120   4.349
 8112SOL     OW25234   2.445   2.282   4.530
 8112SOL    HW125235   2.477   2.199   4.486
 8112SOL    HW225236   2.418   2.262   4.624
 8113SOL     OW25237   1.503   3.168   7.022
 8113SOL    HW125238   1.534   3.257   6.989
 8113SOL    HW225239   1.408   3.175   0.028
 8114SOL     OW25240   1.504   4.081   2.787
 8114SOL    HW125241   1.515   4.033   2.700
 8114SOL    HW225242   1.417   4.130   2.787
 8115SOL     OW25243   4.022   0.672   6.702
 8115SOL    HW125244   3.966   0.722   6.635
 8115SOL    HW225245   4.099   0.630   6.655
 8116SOL     OW25246   4.320   4.577   0.325
 8116SOL    HW125247   4.373   4.632   0.389
 8116SOL    HW225248   4.372   4.566   0.240
 8117SOL     OW25249   1.815   6.898   3.573
 8117SOL    HW125250   1.816   6.837   3.494
 8117SOL    HW225251   1.761   6.979   3.552
 8118SOL     OW25252   4.901   4.479   6.801
 8118SOL    HW125253   4.903   4.566   6.752
 8118SOL    HW225254   4.993   4.441   6.806
 8119SOL     OW25255   5.030   5.530   6.735
 8119SOL    HW125256   5.079   5.557   6.653
 8119SOL    HW225257   4.932   5.529   6.717
 8120SOL     OW25258   3.246   4.715   0.866
 8120SOL    HW125259   3.271   4.724   0.962
 8120SOL    HW225260   3.154   4.751   0.852
 8121SOL     OW25261   6.758   5.047   2.044
 8121SOL    HW125262   6.751   4.948   2.062
 8121SOL    HW225263   6.739   5.064   1.947
 8122SOL     OW25264   0.294   4.886   3.577
 8122SOL    HW125265   0.370   4.882   3.643
 8122SOL    HW225266   0.276   4.795   3.541
 8123SOL     OW25267   6.592   1.823   6.623
 8123SOL    HW125268   6.595   1.727   6.650
 8123SOL    HW225269   6.534   1.874   6.686
 8124SOL     OW25270   5.428   6.122   1.861
 8124SOL    HW125271   5.459   6.212   1.831
 8124SOL    HW225272   5.375   6.132   1.946
 8125SOL     OW25273   1.304   1.865   2.987
 8125SOL    HW125274   1.259   1.784   3.024
 8125SOL    HW225275   1.389   1.882   3.036
 8126SOL     OW25276   4.800   3.920   2.619
 8126SOL    HW125277   4.750   4.006   2.612
 8126SOL    HW225278   4.828   3.890   2.528
 8127SOL     OW25279   2.394   4.272   6.744
 8127SOL    HW125280   2.433   4.239   6.658
 8127SOL    HW225281   2.307   4.225   6.761
 8128SOL     OW25282   2.886   2.177   2.209
 8128SOL    HW125283   2.854   2.247   2.146
 8128SOL    HW225284   2.939   2.109   2.159
 8129SOL     OW25285   4.123   1.512   6.165
 8129SOL    HW125286   4.209   1.549   6.201
 8129SOL    HW225287   4.053   1.583   6.166
 8130SOL     OW25288   0.377   3.931   0.100
 8130SOL    HW125289   0.383   4.004   0.032
 8130SOL    HW225290   0.298   3.873   0.079
 8131SOL     OW25291   2.443   2.183   1.205
 8131SOL    HW125292   2.413   2.276   1.184
 8131SOL    HW225293   2.366   2.121   1.197
 8132SOL     OW25294   6.032   0.004   5.850
 8132SOL    HW125295   6.125   0.030   5.875
 8132SOL    HW225296   6.021   6.930   5.863
 8133SOL     OW25297   3.542   5.652   1.815
 8133SOL    HW125298   3.465   5.634   1.876
 8133SOL    HW225299   3.554   5.575   1.752
 8134SOL     OW25300   6.730   2.663   5.561
 8134SOL    HW125301   6.760   2.664   5.656
 8134SOL    HW225302   6.773   2.586   5.514
 8135SOL     OW25303   3.203   6.681   1.390
 8135SOL    HW125304   3.199   6.775   1.426
 8135SOL    HW225305   3.298   6.652   1.383
 8136SOL     OW25306   4.463   6.201   3.074
 8136SOL    HW125307   4.424   6.292   3.064
 8136SOL    HW225308   4.411   6.150   3.143
 8137SOL     OW25309   3.611   1.536   5.197
 8137SOL    HW125310   3.572   1.551   5.287
 8137SOL    HW225311   3.692   1.477   5.205
 8138SOL     OW25312   5.103   0.976   0.598
 8138SOL    HW125313   5.149   1.024   0.524
 8138SOL    HW225314   5.101   1.035   0.679
 8139SOL     OW25315   0.342   0.773   2.346
 8139SOL    HW125316   0.390   0.775   2.434
 8139SOL    HW225317   0.326   0.678   2.319
 8140SOL     OW25318   5.590   0.586   6.857
 8140SOL    HW125319   5.539   0.526   6.919
 8140SOL    HW225320   5.535   0.603   6.775
 8141SOL     OW25321   4.739   5.794   4.514
 8141SOL    HW125322   4.759   5.700   4.541
 8141SOL    HW225323   4.794   5.857   4.568
 8142SOL     OW25324   0.140   5.480   0.025
 8142SOL    HW125325   0.074   5.412   0.055
 8142SOL    HW225326   0.164   5.540   0.101
 8143SOL     OW25327   5.924   4.158   0.957
 8143SOL    HW125328   5.983   4.124   0.884
 8143SOL    HW225329   5.979   4.174   1.039
 8144SOL     OW25330   6.245   5.959   6.699
 8144SOL    HW125331   6.222   6.046   6.656
 8144SOL    HW225332   6.162   5.916   6.735
 8145SOL     OW25333   5.727   5.987   1.693
 8145SOL    HW125334   5.650   5.985   1.629
 8145SOL    HW225335   5.697   5.954   1.782
 8146SOL     OW25336   3.960   1.028   4.370
 8146SOL    HW125337   4.021   1.087   4.424
 8146SOL    HW225338   3.897   0.981   4.432
 8147SOL     OW25339   6.128   2.027   1.875
 8147SOL    HW125340   6.224   2.007   1.895
 8147SOL    HW225341   6.081   2.056   1.959
 8148SOL     OW25342   4.830   4.319   0.855
 8148SOL    HW125343   4.913   4.273   0.888
 8148SOL    HW225344   4.776   4.350   0.934
 8149SOL     OW25345   2.691   6.363   1.944
 8149SOL    HW125346   2.666   6.454   1.909
 8149SOL    HW225347   2.701   6.367   2.043
 8150SOL     OW25348   1.781   4.302   0.548
 8150SOL    HW125349   1.873   4.293   0.510
 8150SOL    HW225350   1.718   4.243   0.497
 8151SOL     OW25351   6.595   2.300   1.289
 8151SOL    HW125352   6.597   2.201   1.308
 8151SOL    HW225353   6.684   2.340   1.309
 8152SOL     OW25354   0.280   1.338   2.719
 8152SOL    HW125355   0.303   1.425   2.675
 8152SOL    HW225356   0.209   1.355   2.788
 8153SOL     OW25357   2.579   0.352   3.735
 8153SOL    HW125358   2.566   0.264   3.688
 8153SOL    HW225359   2.603   0.422   3.668
 8154SOL     OW25360   2.517   5.421   2.776
 8154SOL    HW125361   2.429   5.446   2.737
 8154SOL    HW225362   2.508   5.338   2.831
 8155SOL     OW25363   1.860   3.743   1.932
 8155SOL    HW125364   1.946   3.746   1.880
 8155SOL    HW225365   1.872   3.687   2.014
 8156SOL     OW25366   5.196   6.743   0.355
 8156SOL    HW125367   5.256   6.817   0.386
 8156SOL    HW225368   5.108   6.751   0.401
 8157SOL     OW25369   6.984   4.942   6.552
 8157SOL    HW125370   7.014   4.881   6.625
 8157SOL    HW225371   6.983   5.037   6.586
 8158SOL     OW25372   5.465   5.213   0.895
 8158SOL    HW125373   5.427   5.184   0.983
 8158SOL    HW225374   5.448   5.142   0.827
 8159SOL     OW25375   3.019   6.700   2.843
 8159SOL    HW125376   2.992   6.611   2.808
 8159SOL    HW225377   3.080   6.688   2.922
 8160SOL     OW25378   4.715   1.222   2.827
 8160SOL    HW125379   4.618   1.201   2.814
 8160SOL    HW225380   4.734   1.235   2.924
 8161SOL     OW25381   5.257   1.365   6.865
 8161SOL    HW125382   5.162   1.352   6.834
 8161SOL    HW225383   5.319   1.327   6.796
 8162SOL     OW25384   5.986   6.471   5.978
 8162SOL    HW125385   5.985   6.388   5.922
 8162SOL    HW225386   6.022   6.449   6.069
 8163SOL     OW25387   2.615   4.095   5.338
 8163SOL    HW125388   2.551   4.056   5.273
 8163SOL    HW225389   2.633   4.191   5.315
 8164SOL     OW25390   5.619   3.661   0.797
 8164SOL    HW125391   5.693   3.718   0.760
 8164SOL    HW225392   5.542   3.662   0.733
 8165SOL     OW25393   0.963   4.827   6.992
 8165SOL    HW125394   0.922   4.839   0.057
 8165SOL    HW225395   1.015   4.908   6.967
 8166SOL     OW25396   1.749   0.552   2.203
 8166SOL    HW125397   1.844   0.580   2.186
 8166SOL    HW225398   1.746   0.489   2.280
 8167SOL     OW25399   6.677   0.065   4.947
 8167SOL    HW125400   6.596   0.103   4.992
 8167SOL    HW225401   6.686   6.993   4.971
 8168SOL     OW25402   2.867   1.531   3.547
 8168SOL    HW125403   2.907   1.567   3.632
 8168SOL    HW225404   2.941   1.503   3.485
 8169SOL     OW25405   5.002   2.689   1.292
 8169SOL    HW125406   4.957   2.755   1.352
 8169SOL    HW225407   5.046   2.619   1.349
 8170SOL     OW25408   1.539   5.550   2.348
 8170SOL    HW125409   1.483   5.561   2.430
 8170SOL    HW225410   1.583   5.637   2.326
 8171SOL     OW25411   1.526   1.395   0.298
 8171SOL    HW125412   1.524   1.409   0.200
 8171SOL    HW225413   1.505   1.299   0.319
 8172SOL     OW25414   0.661   1.460   2.097
 8172SOL    HW125415   0.735   1.501   2.044
 8172SOL    HW225416   0.574   1.495   2.065
 8173SOL     OW25417   3.978   1.275   1.197
 8173SOL    HW125418   3.914   1.337   1.153
 8173SOL    HW225419   3.978   1.291   1.296
 8174SOL     OW25420   5.934   2.337   0.726
 8174SOL    HW125421   5.957   2.270   0.797
 8174SOL    HW225422   6.001   2.410   0.726
 8175SOL     OW25423   0.324   3.271   6.555
 8175SOL    HW125424   0.411   3.223   6.566
 8175SOL    HW225425   0.277   3.276   6.644
 8176SOL     OW25426   2.589   5.448   2.357
 8176SOL    HW125427   2.538   5.522   2.402
 8176SOL    HW225428   2.637   5.394   2.426
 8177SOL     OW25429   2.520   5.819   3.984
 8177SOL    HW125430   2.581   5.765   4.042
 8177SOL    HW225431   2.564   5.906   3.962
 8178SOL     OW25432   2.601   5.915   6.476
 8178SOL    HW125433   2.634   5.870   6.393
 8178SOL    HW225434   2.501   5.908   6.480
 8179SOL     OW25435   4.029   2.354   6.095
 8179SOL    HW125436   4.101   2.306   6.145
 8179SOL    HW225437   3.948   2.362   6.153
 8180SOL     OW25438   6.887   0.242   5.007
 8180SOL    HW125439   6.831   0.166   4.976
 8180SOL    HW225440   6.935   0.282   4.929
 8181SOL     OW25441   2.062   1.826   1.825
 8181SOL    HW125442   2.046   1.831   1.924
 8181SOL    HW225443   2.138   1.886   1.801
 8182SOL     OW25444   3.498   1.998   6.706
 8182SOL    HW125445   3.407   2.018   6.742
 8182SOL    HW225446   3.507   1.899   6.692
 8183SOL     OW25447   0.667   2.460   4.520
 8183SOL    HW125448   0.666   2.385   4.454
 8183SOL    HW225449   0.752   2.456   4.573
 8184SOL     OW25450   4.937   1.957   5.682
 8184SOL    HW125451   4.977   2.027   5.742
 8184SOL    HW225452   4.850   1.991   5.645
 8185SOL     OW25453   2.519   6.359   0.509
 8185SOL    HW125454   2.556   6.452   0.502
 8185SOL    HW225455   2.421   6.360   0.490
 8186SOL     OW25456   3.616   5.538   6.402
 8186SOL    HW125457   3.702   5.580   6.372
 8186SOL    HW225458   3.614   5.442   6.374
 8187SOL     OW25459   2.266   1.943   5.716
 8187SOL    HW125460   2.236   1.916   5.808
 8187SOL    HW225461   2.198   1.914   5.649
 8188SOL     OW25462   5.352   2.249   2.045
 8188SOL    HW125463   5.282   2.283   2.108
 8188SOL    HW225464   5.427   2.314   2.039
 8189SOL     OW25465   4.932   4.630   2.192
 8189SOL    HW125466   4.841   4.635   2.233
 8189SOL    HW225467   4.964   4.722   2.169
 8190SOL     OW25468   4.729   5.378   4.209
 8190SOL    HW125469   4.699   5.328   4.291
 8190SOL    HW225470   4.706   5.475   4.218
 8191SOL     OW25471   3.077   5.667   3.338
 8191SOL    HW125472   3.106   5.751   3.292
 8191SOL    HW225473   3.098   5.588   3.280
 8192SOL     OW25474   3.599   5.290   0.179
 8192SOL    HW125475   3.537   5.211   0.186
 8192SOL    HW225476   3.644   5.288   0.090
 8193SOL     OW25477   6.656   0.307   3.821
 8193SOL    HW125478   6.606   0.220   3.825
 8193SOL    HW225479   6.751   0.290   3.794
 8194SOL     OW25480   6.128   2.514   0.713
 8194SOL    HW125481   6.125   2.546   0.619
 8194SOL    HW225482   6.160   2.587   0.773
 8195SOL     OW25483   0.620   0.068   0.599
 8195SOL    HW125484   0.665   0.137   0.657
 8195SOL    HW225485   0.567   0.114   0.528
 8196SOL     OW25486   3.306   0.506   5.563
 8196SOL    HW125487   3.216   0.547   5.548
 8196SOL    HW225488   3.348   0.545   5.645
 8197SOL     OW25489   4.372   1.067   5.788
 8197SOL    HW125490   4.364   1.021   5.876
 8197SOL    HW225491   4.451   1.128   5.788
 8198SOL     OW25492   2.676   6.384   3.346
 8198SOL    HW125493   2.624   6.348   3.269
 8198SOL    HW225494   2.773   6.365   3.333
 8199SOL     OW25495   0.187   2.956   6.765
 8199SOL    HW125496   0.147   2.907   6.688
 8199SOL    HW225497   0.286   2.947   6.762
 8200SOL     OW25498   4.877   3.695   1.118
 8200SOL    HW125499   4.905   3.623   1.183
 8200SOL    HW225500   4.925   3.682   1.031
 8201SOL     OW25501   4.814   0.671   4.472
 8201SOL    HW125502   4.902   0.661   4.517
 8201SOL    HW225503   4.782   0.765   4.481
 8202SOL     OW25504   0.484   5.661   4.141
 8202SOL    HW125505   0.501   5.743   4.196
 8202SOL    HW225506   0.418   5.682   4.069
 8203SOL     OW25507   4.841   2.895   0.230
 8203SOL    HW125508   4.904   2.960   0.273
 8203SOL    HW225509   4.880   2.803   0.234
 8204SOL     OW25510   3.108   5.506   0.759
 8204SOL    HW125511   3.203   5.515   0.727
 8204SOL    HW225512   3.048   5.559   0.701
 8205SOL     OW25513   6.735   4.712   1.503
 8205SOL    HW125514   6.786   4.643   1.556
 8205SOL    HW225515   6.638   4.688   1.501
 8206SOL     OW25516   3.268   3.070   5.666
 8206SOL    HW125517   3.291   3.147   5.607
 8206SOL    HW225518   3.337   2.998   5.656
 8207SOL     OW25519   3.863   4.538   5.290
 8207SOL    HW125520   3.782   4.483   5.268
 8207SOL    HW225521   3.920   4.490   5.356
 8208SOL     OW25522   2.356   6.296   1.380
 8208SOL    HW125523   2.257   6.305   1.396
 8208SOL    HW225524   2.372   6.287   1.281
 8209SOL     OW25525   0.712   2.170   5.425
 8209SOL    HW125526   0.809   2.189   5.412
 8209SOL    HW225527   0.701   2.089   5.483
 8210SOL     OW25528   2.993   1.012   1.625
 8210SOL    HW125529   2.939   1.084   1.582
 8210SOL    HW225530   2.944   0.976   1.705
 8211SOL     OW25531   3.626   3.838   3.733
 8211SOL    HW125532   3.528   3.860   3.734
 8211SOL    HW225533   3.663   3.846   3.825
 8212SOL     OW25534   3.428   0.914   1.337
 8212SOL    HW125535   3.333   0.892   1.359
 8212SOL    HW225536   3.489   0.862   1.397
 8213SOL     OW25537   5.329   4.604   2.498
 8213SOL    HW125538   5.237   4.616   2.459
 8213SOL    HW225539   5.329   4.529   2.564
 8214SOL     OW25540   1.706   5.976   3.765
 8214SOL    HW125541   1.708   6.019   3.855
 8214SOL    HW225542   1.735   5.880   3.773
 8215SOL     OW25543   4.371   5.383   0.101
 8215SOL    HW125544   4.363   5.446   0.178
 8215SOL    HW225545   4.314   5.416   0.025
 8216SOL     OW25546   4.898   6.761   3.000
 8216SOL    HW125547   4.864   6.791   3.089
 8216SOL    HW225548   4.952   6.677   3.011
 8217SOL     OW25549   2.135   3.899   2.228
 8217SOL    HW125550   2.039   3.924   2.243
 8217SOL    HW225551   2.192   3.981   2.237
 8218SOL     OW25552   1.725   6.796   4.157
 8218SOL    HW125553   1.814   6.813   4.115
 8218SOL    HW225554   1.656   6.787   4.086
 8219SOL     OW25555   3.805   4.003   1.374
 8219SOL    HW125556   3.803   3.985   1.276
 8219SOL    HW225557   3.793   4.101   1.390
 8220SOL     OW25558   3.344   4.363   5.336
 8220SOL    HW125559   3.349   4.462   5.345
 8220SOL    HW225560   3.249   4.336   5.319
 8221SOL     OW25561   6.172   4.210   3.001
 8221SOL    HW125562   6.211   4.118   2.999
 8221SOL    HW225563   6.123   4.227   2.915
 8222SOL     OW25564   5.340   2.183   0.924
 8222SOL    HW125565   5.249   2.142   0.922
 8222SOL    HW225566   5.392   2.152   0.845
 8223SOL     OW25567   0.217   4.721   6.083
 8223SOL    HW125568   0.260   4.790   6.024
 8223SOL    HW225569   0.151   4.668   6.031
 8224SOL     OW25570   5.013   1.698   1.780
 8224SOL    HW125571   5.108   1.670   1.791
 8224SOL    HW225572   4.971   1.710   1.870
 8225SOL     OW25573   3.678   1.028   0.924
 8225SOL    HW125574   3.673   0.931   0.900
 8225SOL    HW225575   3.685   1.083   0.840
 8226SOL     OW25576   2.724   0.280   0.851
 8226SOL    HW125577   2.786   0.202   0.850
 8226SOL    HW225578   2.777   0.364   0.865
 8227SOL     OW25579   0.156   1.195   2.399
 8227SOL    HW125580   0.202   1.116   2.439
 8227SOL    HW225581   0.225   1.262   2.369
 8228SOL     OW25582   0.540   1.573   5.972
 8228SOL    HW125583   0.454   1.563   5.923
 8228SOL    HW225584   0.616   1.576   5.906
 8229SOL     OW25585   4.579   4.124   0.755
 8229SOL    HW125586   4.589   4.034   0.797
 8229SOL    HW225587   4.636   4.130   0.674
 8230SOL     OW25588   3.985   6.631   5.887
 8230SOL    HW125589   3.887   6.612   5.891
 8230SOL    HW225590   4.015   6.672   5.973
 8231SOL     OW25591   3.247   2.073   2.180
 8231SOL    HW125592   3.161   2.057   2.131
 8231SOL    HW225593   3.324   2.069   2.116
 8232SOL     OW25594   5.259   1.865   2.602
 8232SOL    HW125595   5.163   1.879   2.627
 8232SOL    HW225596   5.276   1.904   2.511
 8233SOL     OW25597   1.146   0.056   5.936
 8233SOL    HW125598   1.215   7.023   5.891
 8233SOL    HW225599   1.074   0.080   5.871
 8234SOL     OW25600   3.164   3.211   0.136
 8234SOL    HW125601   3.237   3.277   0.149
 8234SOL    HW225602   3.199   3.119   0.151
 8235SOL     OW25603   0.678   3.876   0.144
 8235SOL    HW125604   0.583   3.861   0.116
 8235SOL    HW225605   0.681   3.892   0.243
 8236SOL     OW25606   0.503   5.238   6.164
 8236SOL    HW125607   0.525   5.281   6.251
 8236SOL    HW225608   0.534   5.297   6.089
 8237SOL     OW25609   4.735   6.126   6.062
 8237SOL    HW125610   4.717   6.092   6.155
 8237SOL    HW225611   4.727   6.226   6.062
 8238SOL     OW25612   0.511   5.869   7.020
 8238SOL    HW125613   0.424   5.918   7.017
 8238SOL    HW225614   0.560   5.881   6.933
 8239SOL     OW25615   0.415   1.117   5.266
 8239SOL    HW125616   0.398   1.133   5.169
 8239SOL    HW225617   0.329   1.099   5.313
 8240SOL     OW25618   2.962   3.636   2.611
 8240SOL    HW125619   2.954   3.718   2.555
 8240SOL    HW225620   2.988   3.661   2.704
 8241SOL     OW25621   2.139   4.561   6.243
 8241SOL    HW125622   2.173   4.551   6.149
 8241SOL    HW225623   2.103   4.474   6.275
 8242SOL     OW25624   0.996   3.685   5.064
 8242SOL    HW125625   1.024   3.778   5.087
 8242SOL    HW225626   1.046   3.655   4.982
 8243SOL     OW25627   0.195   4.522   6.953
 8243SOL    HW125628   0.097   4.539   6.945
 8243SOL    HW225629   0.235   4.584   7.021
 8244SOL     OW25630   0.665   0.312   3.962
 8244SOL    HW125631   0.672   0.279   3.868
 8244SOL    HW225632   0.579   0.363   3.973
 8245SOL     OW25633   3.578   1.722   3.737
 8245SOL    HW125634   3.590   1.811   3.781
 8245SOL    HW225635   3.652   1.707   3.671
 8246SOL     OW25636   0.587   4.591   6.272
 8246SOL    HW125637   0.607   4.667   6.210
 8246SOL    HW225638   0.572   4.626   6.364
 8247SOL     OW25639   2.678   6.002   3.850
 8247SOL    HW125640   2.662   6.100   3.861
 8247SOL    HW225641   2.775   5.985   3.835
 8248SOL     OW25642   0.815   5.545   5.178
 8248SOL    HW125643   0.809   5.448   5.204
 8248SOL    HW225644   0.790   5.555   5.082
 8249SOL     OW25645   2.553   1.389   5.378
 8249SOL    HW125646   2.551   1.451   5.299
 8249SOL    HW225647   2.599   1.305   5.353
 8250SOL     OW25648   3.019   1.969   0.760
 8250SOL    HW125649   3.114   1.961   0.790
 8250SOL    HW225650   2.984   2.060   0.784
 8251SOL     OW25651   5.820   1.042   3.974
 8251SOL    HW125652   5.755   1.075   3.906
 8251SOL    HW225653   5.841   0.946   3.955
 8252SOL     OW25654   3.398   1.738   0.517
 8252SOL    HW125655   3.473   1.804   0.512
 8252SOL    HW225656   3.320   1.780   0.564
 8253SOL     OW25657   3.559   6.188   6.829
 8253SOL    HW125658   3.628   6.121   6.857
 8253SOL    HW225659   3.521   6.233   6.910
 8254SOL     OW25660   5.726   4.760   5.760
 8254SOL    HW125661   5.723   4.801   5.669
 8254SOL    HW225662   5.795   4.688   5.761
 8255SOL     OW25663   1.300   6.970   6.179
 8255SOL    HW125664   1.271   0.030   6.135
 8255SOL    HW225665   1.220   6.915   6.203
 8256SOL     OW25666   6.188   0.273   3.192
 8256SOL    HW125667   6.162   0.335   3.118
 8256SOL    HW225668   6.250   0.202   3.156
 8257SOL     OW25669   5.903   4.763   4.131
 8257SOL    HW125670   5.925   4.822   4.209
 8257SOL    HW225671   5.873   4.820   4.054
 8258SOL     OW25672   5.426   2.763   1.980
 8258SOL    HW125673   5.346   2.705   1.966
 8258SOL    HW225674   5.472   2.735   2.065
 8259SOL     OW25675   4.017   1.797   4.934
 8259SOL    HW125676   3.998   1.827   4.841
 8259SOL    HW225677   4.086   1.856   4.976
 8260SOL     OW25678   2.115   6.082   1.122
 8260SOL    HW125679   2.041   6.134   1.165
 8260SOL    HW225680   2.198   6.137   1.120
 8261SOL     OW25681   5.264   6.445   3.205
 8261SOL    HW125682   5.340   6.424   3.142
 8261SOL    HW225683   5.275   6.391   3.288
 8262SOL     OW25684   0.711   4.806   0.472
 8262SOL    HW125685   0.627   4.839   0.514
 8262SOL    HW225686   0.696   4.715   0.434
 8263SOL     OW25687   6.591   3.026   6.839
 8263SOL    HW125688   6.648   3.046   6.919
 8263SOL    HW225689   6.500   2.998   6.869
 8264SOL     OW25690   1.513   7.011   1.448
 8264SOL    HW125691   1.595   6.956   1.433
 8264SOL    HW225692   1.536   0.083   1.440
 8265SOL     OW25693   4.436   0.425   1.671
 8265SOL    HW125694   4.383   0.509   1.684
 8265SOL    HW225695   4.530   0.440   1.702
 8266SOL     OW25696   3.088   0.526   4.988
 8266SOL    HW125697   3.124   0.443   4.946
 8266SOL    HW225698   3.095   0.518   5.088
 8267SOL     OW25699   1.537   4.922   1.556
 8267SOL    HW125700   1.512   4.870   1.638
 8267SOL    HW225701   1.454   4.953   1.510
 8268SOL     OW25702   2.844   4.575   5.641
 8268SOL    HW125703   2.827   4.483   5.607
 8268SOL    HW225704   2.890   4.570   5.730
 8269SOL     OW25705   4.363   2.418   3.089
 8269SOL    HW125706   4.290   2.472   3.130
 8269SOL    HW225707   4.420   2.477   3.032
 8270SOL     OW25708   3.059   5.447   6.055
 8270SOL    HW125709   3.104   5.365   6.091
 8270SOL    HW225710   3.034   5.507   6.130
 8271SOL     OW25711   6.779   6.667   3.751
 8271SOL    HW125712   6.760   6.680   3.654
 8271SOL    HW225713   6.873   6.695   3.770
 8272SOL     OW25714   0.486   0.678   2.748
 8272SOL    HW125715   0.390   0.689   2.773
 8272SOL    HW225716   0.534   0.630   2.822
 8273SOL     OW25717   2.950   1.011   0.283
 8273SOL    HW125718   2.858   1.034   0.252
 8273SOL    HW225719   2.944   0.948   0.360
 8274SOL     OW25720   4.288   4.257   6.534
 8274SOL    HW125721   4.189   4.248   6.524
 8274SOL    HW225722   4.327   4.168   6.558
 8275SOL     OW25723   5.467   0.225   4.529
 8275SOL    HW125724   5.455   0.301   4.465
 8275SOL    HW225725   5.546   0.170   4.502
 8276SOL     OW25726   6.401   2.015   5.424
 8276SOL    HW125727   6.319   1.961   5.406
 8276SOL    HW225728   6.376   2.101   5.468
 8277SOL     OW25729   2.547   6.063   5.243
 8277SOL    HW125730   2.505   6.125   5.176
 8277SOL    HW225731   2.476   6.028   5.303
 8278SOL     OW25732   2.803   1.355   6.653
 8278SOL    HW125733   2.884   1.330   6.598
 8278SOL    HW225734   2.832   1.409   6.731
 8279SOL     OW25735   5.799   5.375   6.113
 8279SOL    HW125736   5.806   5.460   6.166
 8279SOL    HW225737   5.846   5.387   6.025
 8280SOL     OW25738   4.650   2.504   0.488
 8280SOL    HW125739   4.583   2.560   0.537
 8280SOL    HW225740   4.662   2.417   0.536
 8281SOL     OW25741   1.943   4.610   1.074
 8281SOL    HW125742   1.913   4.608   0.979
 8281SOL    HW225743   1.875   4.659   1.129
 8282SOL     OW25744   3.162   3.098   0.587
 8282SOL    HW125745   3.206   3.029   0.644
 8282SOL    HW225746   3.199   3.094   0.494
 8283SOL     OW25747   0.552   4.818   3.774
 8283SOL    HW125748   0.497   4.776   3.846
 8283SOL    HW225749   0.542   4.917   3.779
 8284SOL     OW25750   1.351   3.498   2.331
 8284SOL    HW125751   1.350   3.482   2.232
 8284SOL    HW225752   1.282   3.441   2.374
 8285SOL     OW25753   3.295   3.178   5.928
 8285SOL    HW125754   3.285   3.143   5.834
 8285SOL    HW225755   3.243   3.262   5.937
 8286SOL     OW25756   5.664   1.839   5.036
 8286SOL    HW125757   5.596   1.913   5.041
 8286SOL    HW225758   5.705   1.826   5.126
 8287SOL     OW25759   1.494   6.657   3.288
 8287SOL    HW125760   1.504   6.610   3.201
 8287SOL    HW225761   1.512   6.755   3.276
 8288SOL     OW25762   1.385   2.363   2.928
 8288SOL    HW125763   1.478   2.394   2.946
 8288SOL    HW225764   1.385   2.264   2.916
 8289SOL     OW25765   6.218   0.758   6.452
 8289SOL    HW125766   6.215   0.778   6.550
 8289SOL    HW225767   6.243   0.840   6.401
 8290SOL     OW25768   4.306   2.656   1.719
 8290SOL    HW125769   4.285   2.626   1.626
 8290SOL    HW225770   4.383   2.719   1.718
 8291SOL     OW25771   5.918   5.722   6.435
 8291SOL    HW125772   5.862   5.681   6.363
 8291SOL    HW225773   5.923   5.660   6.513
 8292SOL     OW25774   2.191   5.395   5.547
 8292SOL    HW125775   2.224   5.300   5.551
 8292SOL    HW225776   2.227   5.439   5.466
 8293SOL     OW25777   1.507   4.262   1.680
 8293SOL    HW125778   1.512   4.194   1.606
 8293SOL    HW225779   1.427   4.244   1.736
 8294SOL     OW25780   5.918   3.519   4.784
 8294SOL    HW125781   5.969   3.473   4.858
 8294SOL    HW225782   5.910   3.457   4.706
 8295SOL     OW25783   5.347   3.554   2.794
 8295SOL    HW125784   5.428   3.539   2.851
 8295SOL    HW225785   5.370   3.534   2.699
 8296SOL     OW25786   3.768   5.060   6.610
 8296SOL    HW125787   3.677   5.088   6.641
 8296SOL    HW225788   3.760   4.978   6.553
 8297SOL     OW25789   6.544   3.591   2.203
 8297SOL    HW125790   6.616   3.524   2.220
 8297SOL    HW225791   6.518   3.634   2.290
 8298SOL     OW25792   0.149   0.341   6.299
 8298SOL    HW125793   0.178   0.255   6.341
 8298SOL    HW225794   0.173   0.341   6.202
 8299SOL     OW25795   0.686   3.323   0.920
 8299SOL    HW125796   0.606   3.289   0.971
 8299SOL    HW225797   0.667   3.321   0.822
 8300SOL     OW25798   6.046   6.934   4.621
 8300SOL    HW125799   6.132   6.981   4.639
 8300SOL    HW225800   5.976   6.968   4.684
 8301SOL     OW25801   4.826   0.060   6.745
 8301SOL    HW125802   4.859   0.014   6.828
 8301SOL    HW225803   4.742   0.016   6.714
 8302SOL     OW25804   3.809   6.978   5.702
 8302SOL    HW125805   3.751   6.957   5.623
 8302SOL    HW225806   3.905   6.963   5.679
 8303SOL     OW25807   0.136   0.220   3.251
 8303SOL    HW125808   0.112   0.243   3.157
 8303SOL    HW225809   0.118   0.299   3.310
 8304SOL     OW25810   5.666   4.633   2.071
 8304SOL    HW125811   5.594   4.589   2.125
 8304SOL    HW225812   5.751   4.632   2.123
 8305SOL     OW25813   4.200   5.156   3.423
 8305SOL    HW125814   4.221   5.156   3.325
 8305SOL    HW225815   4.262   5.093   3.470
 8306SOL     OW25816   6.321   1.433   2.961
 8306SOL    HW125817   6.388   1.480   2.904
 8306SOL    HW225818   6.323   1.471   3.054
 8307SOL     OW25819   2.870   5.032   1.539
 8307SOL    HW125820   2.793   5.041   1.602
 8307SOL    HW225821   2.835   5.013   1.447
 8308SOL     OW25822   2.058   4.761   0.420
 8308SOL    HW125823   2.086   4.816   0.498
 8308SOL    HW225824   2.138   4.719   0.378
 8309SOL     OW25825   6.179   4.729   3.960
 8309SOL    HW125826   6.160   4.640   3.918
 8309SOL    HW225827   6.270   4.760   3.933
 8310SOL     OW25828   0.911   5.369   0.216
 8310SOL    HW125829   0.910   5.436   0.290
 8310SOL    HW225830   0.820   5.328   0.208
 8311SOL     OW25831   4.767   0.415   4.683
 8311SOL    HW125832   4.680   0.450   4.648
 8311SOL    HW225833   4.842   0.471   4.647
 8312SOL     OW25834   5.744   0.943   0.619
 8312SOL    HW125835   5.759   0.888   0.537
 8312SOL    HW225836   5.667   1.005   0.603
 8313SOL     OW25837   4.335   6.864   5.780
 8313SOL    HW125838   4.384   6.950   5.797
 8313SOL    HW225839   4.247   6.884   5.737
 8314SOL     OW25840   5.862   6.629   6.631
 8314SOL    HW125841   5.894   6.633   6.725
 8314SOL    HW225842   5.901   6.705   6.579
 8315SOL     OW25843   3.823   3.799   3.196
 8315SOL    HW125844   3.746   3.741   3.171
 8315SOL    HW225845   3.795   3.864   3.266
 8316SOL     OW25846   2.002   3.385   6.954
 8316SOL    HW125847   1.923   3.443   6.934
 8316SOL    HW225848   1.979   3.290   6.932
 8317SOL     OW25849   3.089   1.727   4.462
 8317SOL    HW125850   3.176   1.772   4.484
 8317SOL    HW225851   3.097   1.681   4.374
 8318SOL     OW25852   5.085   0.983   6.065
 8318SOL    HW125853   5.010   1.020   6.120
 8318SOL    HW225854   5.068   1.002   5.968
 8319SOL     OW25855   1.886   6.811   6.517
 8319SOL    HW125856   1.926   6.901   6.533
 8319SOL    HW225857   1.957   6.747   6.490
 8320SOL     OW25858   3.779   3.683   3.561
 8320SOL    HW125859   3.742   3.750   3.625
 8320SOL    HW225860   3.733   3.595   3.574
 8321SOL     OW25861   0.179   0.307   6.029
 8321SOL    HW125862   0.177   0.221   6.079
 8321SOL    HW225863   0.260   0.310   5.971
 8322SOL     OW25864   0.429   1.181   0.170
 8322SOL    HW125865   0.525   1.159   0.188
 8322SOL    HW225866   0.409   1.164   0.073
 8323SOL     OW25867   3.789   4.592   1.349
 8323SOL    HW125868   3.888   4.585   1.346
 8323SOL    HW225869   3.755   4.628   1.262
 8324SOL     OW25870   5.702   0.606   0.368
 8324SOL    HW125871   5.737   0.540   0.302
 8324SOL    HW225872   5.727   0.699   0.339
 8325SOL     OW25873   1.096   4.022   4.920
 8325SOL    HW125874   1.080   4.117   4.895
 8325SOL    HW225875   1.147   3.976   4.847
 8326SOL     OW25876   4.482   3.803   6.966
 8326SOL    HW125877   4.452   3.806   6.871
 8326SOL    HW225878   4.402   3.812   0.001
 8327SOL     OW25879   0.801   0.233   5.604
 8327SOL    HW125880   0.872   0.282   5.555
 8327SOL    HW225881   0.835   0.144   5.634
 8328SOL     OW25882   1.692   6.797   5.569
 8328SOL    HW125883   1.792   6.795   5.564
 8328SOL    HW225884   1.657   6.708   5.597
 8329SOL     OW25885   0.321   2.802   4.969
 8329SOL    HW125886   0.298   2.879   4.910
 8329SOL    HW225887   0.416   2.774   4.951
 8330SOL     OW25888   3.784   1.633   6.551
 8330SOL    HW125889   3.849   1.612   6.477
 8330SOL    HW225890   3.713   1.693   6.515
 8331SOL     OW25891   3.018   1.081   0.743
 8331SOL    HW125892   3.118   1.075   0.755
 8331SOL    HW225893   2.979   1.133   0.820
 8332SOL     OW25894   5.474   5.721   2.205
 8332SOL    HW125895   5.535   5.658   2.254
 8332SOL    HW225896   5.501   5.815   2.225
 8333SOL     OW25897   2.275   5.309   0.094
 8333SOL    HW125898   2.330   5.235   0.133
 8333SOL    HW225899   2.335   5.375   0.049
 8334SOL     OW25900   2.204   2.749   6.382
 8334SOL    HW125901   2.268   2.809   6.429
 8334SOL    HW225902   2.251   2.704   6.306
 8335SOL     OW25903   4.585   2.907   6.846
 8335SOL    HW125904   4.565   2.818   6.888
 8335SOL    HW225905   4.512   2.971   6.867
 8336SOL     OW25906   1.117   3.662   3.515
 8336SOL    HW125907   1.153   3.711   3.435
 8336SOL    HW225908   1.146   3.709   3.598
 8337SOL     OW25909   0.934   6.873   4.386
 8337SOL    HW125910   0.925   6.870   4.287
 8337SOL    HW225911   0.844   6.892   4.427
 8338SOL     OW25912   3.857   5.587   2.038
 8338SOL    HW125913   3.852   5.490   2.064
 8338SOL    HW225914   3.784   5.637   2.084
 8339SOL     OW25915   0.263   0.974   1.566
 8339SOL    HW125916   0.302   0.894   1.611
 8339SOL    HW225917   0.272   1.054   1.626
 8340SOL     OW25918   4.817   4.126   0.625
 8340SOL    HW125919   4.875   4.141   0.546
 8340SOL    HW225920   4.840   4.191   0.697
 8341SOL     OW25921   3.459   0.762   0.095
 8341SOL    HW125922   3.517   0.732   0.019
 8341SOL    HW225923   3.515   0.809   0.163
 8342SOL     OW25924   3.966   0.167   0.188
 8342SOL    HW125925   3.989   0.091   0.248
 8342SOL    HW225926   3.876   0.204   0.213
 8343SOL     OW25927   5.924   5.746   3.776
 8343SOL    HW125928   5.971   5.715   3.859
 8343SOL    HW225929   5.875   5.831   3.794
 8344SOL     OW25930   0.152   5.110   4.942
 8344SOL    HW125931   0.180   5.122   4.847
 8344SOL    HW225932   0.099   5.189   4.971
 8345SOL     OW25933   4.894   1.908   3.594
 8345SOL    HW125934   4.859   1.997   3.565
 8345SOL    HW225935   4.924   1.913   3.689
 8346SOL     OW25936   3.706   3.104   6.214
 8346SOL    HW125937   3.708   3.077   6.117
 8346SOL    HW225938   3.625   3.160   6.231
 8347SOL     OW25939   3.558   6.599   6.460
 8347SOL    HW125940   3.587   6.515   6.413
 8347SOL    HW225941   3.528   6.577   6.553
 8348SOL     OW25942   2.479   6.913   0.831
 8348SOL    HW125943   2.398   6.891   0.886
 8348SOL    HW225944   2.493   7.012   0.830
 8349SOL     OW25945   0.852   6.834   1.564
 8349SOL    HW125946   0.871   6.865   1.471
 8349SOL    HW225947   0.913   6.759   1.588
 8350SOL     OW25948   2.673   6.046   6.159
 8350SOL    HW125949   2.728   5.963   6.157
 8350SOL    HW225950   2.717   6.114   6.218
 8351SOL     OW25951   5.479   5.311   3.412
 8351SOL    HW125952   5.519   5.323   3.321
 8351SOL    HW225953   5.551   5.293   3.478
 8352SOL     OW25954   1.920   6.729   2.826
 8352SOL    HW125955   1.884   6.670   2.754
 8352SOL    HW225956   1.860   6.809   2.837
 8353SOL     OW25957   1.198   3.913   1.446
 8353SOL    HW125958   1.158   3.970   1.374
 8353SOL    HW225959   1.159   3.938   1.534
 8354SOL     OW25960   3.718   6.370   3.887
 8354SOL    HW125961   3.754   6.389   3.978
 8354SOL    HW225962   3.765   6.426   3.819
 8355SOL     OW25963   2.206   0.868   5.810
 8355SOL    HW125964   2.197   0.923   5.892
 8355SOL    HW225965   2.243   0.924   5.736
 8356SOL     OW25966   0.907   5.846   1.137
 8356SOL    HW125967   0.883   5.780   1.209
 8356SOL    HW225968   0.981   5.905   1.169
 8357SOL     OW25969   4.012   5.511   5.735
 8357SOL    HW125970   4.105   5.536   5.765
 8357SOL    HW225971   3.956   5.491   5.815
 8358SOL     OW25972   0.814   2.997   4.941
 8358SOL    HW125973   0.865   2.929   4.889
 8358SOL    HW225974   0.874   3.037   5.011
 8359SOL     OW25975   2.351   1.422   4.632
 8359SOL    HW125976   2.355   1.405   4.730
 8359SOL    HW225977   2.439   1.457   4.600
 8360SOL     OW25978   4.606   6.930   1.177
 8360SOL    HW125979   4.651   6.863   1.119
 8360SOL    HW225980   4.673   6.997   1.210
 8361SOL     OW25981   2.939   0.289   6.865
 8361SOL    HW125982   2.855   0.335   6.835
 8361SOL    HW225983   3.010   0.358   6.879
 8362SOL     OW25984   5.607   2.249   1.074
 8362SOL    HW125985   5.508   2.256   1.089
 8362SOL    HW225986   5.641   2.336   1.037
 8363SOL     OW25987   4.767   1.614   1.119
 8363SOL    HW125988   4.686   1.600   1.175
 8363SOL    HW225989   4.817   1.528   1.109
 8364SOL     OW25990   0.691   3.390   3.582
 8364SOL    HW125991   0.711   3.293   3.596
 8364SOL    HW225992   0.639   3.426   3.659
 8365SOL     OW25993   1.891   1.997   2.780
 8365SOL    HW125994   1.847   1.930   2.840
 8365SOL    HW225995   1.990   1.988   2.788
 8366SOL     OW25996   3.624   5.159   1.046
 8366SOL    HW125997   3.575   5.204   0.972
 8366SOL    HW225998   3.714   5.201   1.057
 8367SOL     OW25999   3.492   5.022   5.104
 8367SOL    HW126000   3.407   5.020   5.051
 8367SOL    HW226001   3.471   5.042   5.199
 8368SOL     OW26002   0.848   6.039   6.953
 8368SOL    HW126003   0.766   6.090   6.926
 8368SOL    HW226004   0.896   6.089   0.001
 8369SOL     OW26005   0.769   1.192   0.086
 8369SOL    HW126006   0.863   1.225   0.095
 8369SOL    HW226007   0.735   1.214   7.019
 8370SOL     OW26008   2.435   0.930   6.584
 8370SOL    HW126009   2.367   1.001   6.570
 8370SOL    HW226010   2.421   0.887   6.673
 8371SOL     OW26011   1.826   3.671   6.317
 8371SOL    HW126012   1.762   3.595   6.327
 8371SOL    HW226013   1.898   3.646   6.253
 8372SOL     OW26014   1.528   5.419   2.004
 8372SOL    HW126015   1.483   5.349   2.060
 8372SOL    HW226016   1.597   5.466   2.059
 8373SOL     OW26017   1.761   1.074   4.869
 8373SOL    HW126018   1.756   1.163   4.914
 8373SOL    HW226019   1.750   1.086   4.771
 8374SOL     OW26020   0.276   1.047   4.690
 8374SOL    HW126021   0.225   1.065   4.774
 8374SOL    HW226022   0.242   0.963   4.648
 8375SOL     OW26023   3.815   0.538   6.030
 8375SOL    HW126024   3.850   0.588   6.109
 8375SOL    HW226025   3.719   0.515   6.045
 8376SOL     OW26026   1.497   1.310   4.004
 8376SOL    HW126027   1.591   1.322   4.034
 8376SOL    HW226028   1.457   1.230   4.049
 8377SOL     OW26029   6.040   5.970   0.236
 8377SOL    HW126030   6.002   5.910   0.306
 8377SOL    HW226031   5.999   6.061   0.244
 8378SOL     OW26032   4.185   4.779   3.547
 8378SOL    HW126033   4.250   4.855   3.542
 8378SOL    HW226034   4.145   4.763   3.457
 8379SOL     OW26035   4.739   2.243   1.923
 8379SOL    HW126036   4.657   2.229   1.868
 8379SOL    HW226037   4.723   2.317   1.988
 8380SOL     OW26038   0.441   6.493   6.808
 8380SOL    HW126039   0.419   6.425   6.879
 8380SOL    HW226040   0.382   6.573   6.821
 8381SOL     OW26041   6.784   2.597   3.339
 8381SOL    HW126042   6.876   2.615   3.305
 8381SOL    HW226043   6.780   2.505   3.377
 8382SOL     OW26044   2.036   6.826   0.692
 8382SOL    HW126045   2.134   6.814   0.681
 8382SOL    HW226046   2.018   6.908   0.747
 8383SOL     OW26047   2.276   0.279   5.478
 8383SOL    HW126048   2.266   0.186   5.513
 8383SOL    HW226049   2.195   0.332   5.501
 8384SOL     OW26050   0.210   1.525   6.896
 8384SOL    HW126051   0.143   1.563   6.832
 8384SOL    HW226052   0.165   1.502   6.982
 8385SOL     OW26053   4.430   2.158   1.013
 8385SOL    HW126054   4.496   2.086   1.037
 8385SOL    HW226055   4.397   2.202   1.096
 8386SOL     OW26056   1.832   5.680   1.164
 8386SOL    HW126057   1.883   5.594   1.153
 8386SOL    HW226058   1.800   5.711   1.075
 8387SOL     OW26059   1.560   1.722   1.129
 8387SOL    HW126060   1.601   1.658   1.195
 8387SOL    HW226061   1.499   1.784   1.178
 8388SOL     OW26062   1.219   0.029   0.626
 8388SOL    HW126063   1.148   0.099   0.632
 8388SOL    HW226064   1.183   6.966   0.661
 8389SOL     OW26065   0.825   3.252   3.992
 8389SOL    HW126066   0.851   3.162   4.028
 8389SOL    HW226067   0.902   3.292   3.943
 8390SOL     OW26068   4.372   0.194   6.843
 8390SOL    HW126069   4.398   0.118   6.903
 8390SOL    HW226070   4.317   0.259   6.895
 8391SOL     OW26071   4.620   5.035   1.487
 8391SOL    HW126072   4.606   4.937   1.501
 8391SOL    HW226073   4.645   5.051   1.391
 8392SOL     OW26074   6.825   5.438   5.873
 8392SOL    HW126075   6.737   5.424   5.827
 8392SOL    HW226076   6.852   5.534   5.863
 8393SOL     OW26077   6.996   0.216   4.125
 8393SOL    HW126078   6.921   0.229   4.061
 8393SOL    HW226079   0.036   0.149   4.088
 8394SOL     OW26080   6.709   2.706   1.638
 8394SOL    HW126081   6.785   2.752   1.594
 8394SOL    HW226082   6.722   2.607   1.633
 8395SOL     OW26083   1.854   6.715   3.791
 8395SOL    HW126084   1.898   6.705   3.702
 8395SOL    HW226085   1.756   6.733   3.778
 8396SOL     OW26086   4.534   4.470   2.191
 8396SOL    HW126087   4.523   4.427   2.281
 8396SOL    HW226088   4.536   4.399   2.120
 8397SOL     OW26089   2.674   0.358   2.786
 8397SOL    HW126090   2.648   0.264   2.807
 8397SOL    HW226091   2.628   0.387   2.701
 8398SOL     OW26092   4.250   1.997   6.338
 8398SOL    HW126093   4.162   1.949   6.342
 8398SOL    HW226094   4.249   2.062   6.262
 8399SOL     OW26095   6.298   7.023   0.273
 8399SOL    HW126096   6.358   7.005   0.195
 8399SOL    HW226097   6.313   0.092   0.306
 8400SOL     OW26098   1.101   0.378   3.632
 8400SOL    HW126099   1.118   0.476   3.643
 8400SOL    HW226100   1.176   0.327   3.674
 8401SOL     OW26101   3.446   2.524   6.550
 8401SOL    HW126102   3.364   2.525   6.494
 8401SOL    HW226103   3.429   2.575   6.635
 8402SOL     OW26104   3.829   1.879   5.685
 8402SOL    HW126105   3.913   1.934   5.676
 8402SOL    HW226106   3.771   1.919   5.756
 8403SOL     OW26107   0.697   2.156   3.166
 8403SOL    HW126108   0.789   2.143   3.204
 8403SOL    HW226109   0.661   2.244   3.196
 8404SOL     OW26110   5.561   5.640   6.975
 8404SOL    HW126111   5.575   5.738   6.963
 8404SOL    HW226112   5.487   5.609   6.915
 8405SOL     OW26113   1.936   1.036   6.673
 8405SOL    HW126114   1.917   1.090   6.755
 8405SOL    HW226115   1.850   1.015   6.626
 8406SOL     OW26116   4.356   0.385   0.951
 8406SOL    HW126117   4.354   0.298   1.000
 8406SOL    HW226118   4.399   0.455   1.008
 8407SOL     OW26119   5.622   6.174   3.999
 8407SOL    HW126120   5.647   6.269   3.980
 8407SOL    HW226121   5.522   6.167   4.005
 8408SOL     OW26122   4.877   2.056   3.023
 8408SOL    HW126123   4.973   2.028   3.024
 8408SOL    HW226124   4.819   1.979   3.047
 8409SOL     OW26125   6.037   2.917   2.912
 8409SOL    HW126126   6.126   2.921   2.957
 8409SOL    HW226127   5.977   2.855   2.962
 8410SOL     OW26128   4.349   0.349   1.349
 8410SOL    HW126129   4.276   0.333   1.416
 8410SOL    HW226130   4.319   0.318   1.259
 8411SOL     OW26131   1.000   6.146   5.049
 8411SOL    HW126132   0.983   6.234   5.094
 8411SOL    HW226133   1.079   6.155   4.988
 8412SOL     OW26134   4.394   1.864   1.838
 8412SOL    HW126135   4.350   1.876   1.748
 8412SOL    HW226136   4.392   1.951   1.887
 8413SOL     OW26137   5.020   4.850   0.942
 8413SOL    HW126138   5.108   4.813   0.971
 8413SOL    HW226139   4.948   4.815   1.001
 8414SOL     OW26140   4.670   6.400   2.360
 8414SOL    HW126141   4.599   6.377   2.427
 8414SOL    HW226142   4.760   6.374   2.396
 8415SOL     OW26143   6.653   5.382   4.119
 8415SOL    HW126144   6.599   5.455   4.076
 8415SOL    HW226145   6.592   5.323   4.172
 8416SOL     OW26146   5.330   4.468   3.476
 8416SOL    HW126147   5.301   4.562   3.495
 8416SOL    HW226148   5.253   4.418   3.435
 8417SOL     OW26149   1.269   5.312   5.651
 8417SOL    HW126150   1.360   5.271   5.647
 8417SOL    HW226151   1.261   5.382   5.581
 8418SOL     OW26152   5.988   5.549   1.825
 8418SOL    HW126153   5.914   5.531   1.890
 8418SOL    HW226154   6.011   5.647   1.827
 8419SOL     OW26155   4.598   1.022   2.176
 8419SOL    HW126156   4.677   1.031   2.115
 8419SOL    HW226157   4.546   1.107   2.176
 8420SOL     OW26158   4.074   0.356   1.109
 8420SOL    HW126159   3.987   0.318   1.079
 8420SOL    HW226160   4.143   0.343   1.037
 8421SOL     OW26161   2.345   6.571   1.115
 8421SOL    HW126162   2.407   6.519   1.173
 8421SOL    HW226163   2.378   6.569   1.020
 8422SOL     OW26164   4.589   6.970   1.679
 8422SOL    HW126165   4.511   0.002   1.652
 8422SOL    HW226166   4.663   6.981   1.613
 8423SOL     OW26167   4.090   3.858   5.714
 8423SOL    HW126168   4.068   3.895   5.804
 8423SOL    HW226169   4.190   3.850   5.705
 8424SOL     OW26170   2.246   2.963   2.865
 8424SOL    HW126171   2.337   2.928   2.885
 8424SOL    HW226172   2.186   2.889   2.835
 8425SOL     OW26173   5.580   5.991   1.197
 8425SOL    HW126174   5.486   6.024   1.204
 8425SOL    HW226175   5.642   6.069   1.193
 8426SOL     OW26176   3.387   2.873   4.454
 8426SOL    HW126177   3.408   2.791   4.507
 8426SOL    HW226178   3.356   2.846   4.362
 8427SOL     OW26179   2.513   3.583   5.798
 8427SOL    HW126180   2.466   3.574   5.710
 8427SOL    HW226181   2.535   3.492   5.833
 8428SOL     OW26182   6.536   4.134   2.127
 8428SOL    HW126183   6.560   4.050   2.177
 8428SOL    HW226184   6.555   4.122   2.030
 8429SOL     OW26185   2.226   4.624   3.655
 8429SOL    HW126186   2.323   4.601   3.649
 8429SOL    HW226187   2.196   4.663   3.569
 8430SOL     OW26188   4.158   5.766   3.570
 8430SOL    HW126189   4.096   5.770   3.491
 8430SOL    HW226190   4.108   5.732   3.650
 8431SOL     OW26191   3.061   5.246   0.520
 8431SOL    HW126192   3.155   5.275   0.503
 8431SOL    HW226193   2.999   5.325   0.510
 8432SOL     OW26194   4.823   6.335   5.533
 8432SOL    HW126195   4.840   6.425   5.573
 8432SOL    HW226196   4.728   6.329   5.504
 8433SOL     OW26197   6.581   2.603   6.775
 8433SOL    HW126198   6.634   2.659   6.839
 8433SOL    HW226199   6.619   2.511   6.772
 8434SOL     OW26200   3.068   6.376   5.178
 8434SOL    HW126201   2.991   6.410   5.125
 8434SOL    HW226202   3.034   6.327   5.259
 8435SOL     OW26203   5.004   0.549   1.009
 8435SOL    HW126204   4.960   0.515   1.092
 8435SOL    HW226205   5.074   0.617   1.033
 8436SOL     OW26206   3.169   6.772   4.387
 8436SOL    HW126207   3.094   6.756   4.451
 8436SOL    HW226208   3.137   6.829   4.311
 8437SOL     OW26209   1.987   0.119   2.976
 8437SOL    HW126210   2.086   0.131   2.975
 8437SOL    HW226211   1.949   0.140   2.886
 8438SOL     OW26212   2.790   5.021   2.522
 8438SOL    HW126213   2.768   4.938   2.471
 8438SOL    HW226214   2.835   4.997   2.608
 8439SOL     OW26215   6.867   5.548   1.025
 8439SOL    HW126216   6.959   5.587   1.015
 8439SOL    HW226217   6.860   5.503   1.113
 8440SOL     OW26218   0.097   1.385   3.779
 8440SOL    HW126219   0.038   1.312   3.746
 8440SOL    HW226220   0.177   1.345   3.824
 8441SOL     OW26221   6.462   0.027   0.038
 8441SOL    HW126222   6.493   6.993   6.988
 8441SOL    HW226223   6.399   0.095   0.002
 8442SOL     OW26224   3.639   2.531   6.078
 8442SOL    HW126225   3.664   2.592   6.003
 8442SOL    HW226226   3.707   2.540   6.152
 8443SOL     OW26227   1.315   6.575   3.501
 8443SOL    HW126228   1.341   6.589   3.406
 8443SOL    HW226229   1.307   6.663   3.548
 8444SOL     OW26230   3.720   5.870   3.794
 8444SOL    HW126231   3.637   5.832   3.834
 8444SOL    HW226232   3.697   5.935   3.721
 8445SOL     OW26233   3.184   5.261   2.032
 8445SOL    HW126234   3.181   5.314   2.117
 8445SOL    HW226235   3.260   5.293   1.975
 8446SOL     OW26236   4.421   4.594   0.901
 8446SOL    HW126237   4.330   4.605   0.863
 8446SOL    HW226238   4.473   4.527   0.847
 8447SOL     OW26239   5.742   2.102   2.063
 8447SOL    HW126240   5.723   2.162   1.985
 8447SOL    HW226241   5.657   2.089   2.116
 8448SOL     OW26242   6.035   4.637   4.738
 8448SOL    HW126243   6.061   4.694   4.816
 8448SOL    HW226244   6.051   4.541   4.761
 8449SOL     OW26245   6.652   3.003   4.387
 8449SOL    HW126246   6.689   2.917   4.422
 8449SOL    HW226247   6.705   3.079   4.423
 8450SOL     OW26248   1.443   5.679   1.863
 8450SOL    HW126249   1.474   5.585   1.875
 8450SOL    HW226250   1.439   5.725   1.952
 8451SOL     OW26251   4.872   3.226   0.035
 8451SOL    HW126252   4.793   3.262   7.011
 8451SOL    HW226253   4.898   3.138   7.021
 8452SOL     OW26254   0.313   0.514   2.198
 8452SOL    HW126255   0.289   0.570   2.118
 8452SOL    HW226256   0.278   0.421   2.184
 8453SOL     OW26257   6.440   4.149   6.719
 8453SOL    HW126258   6.487   4.168   6.632
 8453SOL    HW226259   6.351   4.195   6.719
 8454SOL     OW26260   0.604   6.654   0.521
 8454SOL    HW126261   0.567   6.742   0.493
 8454SOL    HW226262   0.530   6.597   0.559
 8455SOL     OW26263   5.361   1.893   0.965
 8455SOL    HW126264   5.385   1.988   0.943
 8455SOL    HW226265   5.363   1.881   1.064
 8456SOL     OW26266   4.882   4.290   2.765
 8456SOL    HW126267   4.865   4.261   2.671
 8456SOL    HW226268   4.886   4.210   2.824
 8457SOL     OW26269   0.186   6.532   5.200
 8457SOL    HW126270   0.264   6.550   5.140
 8457SOL    HW226271   0.218   6.484   5.282
 8458SOL     OW26272   2.358   1.382   6.964
 8458SOL    HW126273   2.430   1.406   6.899
 8458SOL    HW226274   2.272   1.423   6.935
 8459SOL     OW26275   3.043   6.563   1.597
 8459SOL    HW126276   3.048   6.463   1.607
 8459SOL    HW226277   3.100   6.591   1.520
 8460SOL     OW26278   4.331   2.266   5.772
 8460SOL    HW126279   4.386   2.233   5.849
 8460SOL    HW226280   4.318   2.365   5.782
 8461SOL     OW26281   0.547   3.900   2.086
 8461SOL    HW126282   0.645   3.879   2.092
 8461SOL    HW226283   0.509   3.856   2.005
 8462SOL     OW26284   3.844   2.274   0.267
 8462SOL    HW126285   3.927   2.224   0.240
 8462SOL    HW226286   3.867   2.342   0.337
 8463SOL     OW26287   6.710   0.721   0.637
 8463SOL    HW126288   6.683   0.791   0.571
 8463SOL    HW226289   6.718   0.761   0.728
 8464SOL     OW26290   6.616   3.983   5.543
 8464SOL    HW126291   6.627   4.063   5.602
 8464SOL    HW226292   6.525   3.984   5.503
 8465SOL     OW26293   2.622   2.540   0.721
 8465SOL    HW126294   2.570   2.466   0.678
 8465SOL    HW226295   2.634   2.522   0.818
 8466SOL     OW26296   6.530   6.643   5.947
 8466SOL    HW126297   6.450   6.701   5.935
 8466SOL    HW226298   6.522   6.592   6.032
 8467SOL     OW26299   3.701   0.559   1.292
 8467SOL    HW126300   3.787   0.590   1.254
 8467SOL    HW226301   3.690   0.596   1.385
 8468SOL     OW26302   4.748   2.607   0.242
 8468SOL    HW126303   4.721   2.636   0.334
 8468SOL    HW226304   4.846   2.624   0.229
 8469SOL     OW26305   2.518   1.692   5.963
 8469SOL    HW126306   2.558   1.678   6.053
 8469SOL    HW226307   2.570   1.763   5.914
 8470SOL     OW26308   0.994   4.788   0.285
 8470SOL    HW126309   1.021   4.883   0.266
 8470SOL    HW226310   0.962   4.781   0.379
 8471SOL     OW26311   3.847   0.285   5.042
 8471SOL    HW126312   3.936   0.298   4.998
 8471SOL    HW226313   3.848   0.202   5.097
 8472SOL     OW26314   5.875   0.501   5.428
 8472SOL    HW126315   5.782   0.487   5.462
 8472SOL    HW226316   5.909   0.589   5.460
 8473SOL     OW26317   6.671   5.732   1.027
 8473SOL    HW126318   6.739   5.658   1.026
 8473SOL    HW226319   6.636   5.745   0.934
 8474SOL     OW26320   3.433   3.615   1.982
 8474SOL    HW126321   3.412   3.689   2.046
 8474SOL    HW226322   3.465   3.535   2.032
 8475SOL     OW26323   0.025   2.656   3.291
 8475SOL    HW126324   0.073   2.691   3.211
 8475SOL    HW226325   0.083   2.589   3.338
 8476SOL     OW26326   6.174   1.372   1.116
 8476SOL    HW126327   6.104   1.443   1.128
 8476SOL    HW226328   6.138   1.299   1.059
 8477SOL     OW26329   4.704   6.718   2.654
 8477SOL    HW126330   4.710   6.642   2.718
 8477SOL    HW226331   4.781   6.714   2.591
 8478SOL     OW26332   1.478   0.406   5.639
 8478SOL    HW126333   1.483   0.314   5.678
 8478SOL    HW226334   1.568   0.449   5.644
 8479SOL     OW26335   1.799   3.707   0.868
 8479SOL    HW126336   1.806   3.701   0.968
 8479SOL    HW226337   1.767   3.620   0.831
 8480SOL     OW26338   5.079   3.088   6.696
 8480SOL    HW126339   5.095   3.126   6.787
 8480SOL    HW226340   4.981   3.092   6.675
 8481SOL     OW26341   4.510   2.629   4.973
 8481SOL    HW126342   4.589   2.689   4.983
 8481SOL    HW226343   4.497   2.607   4.876
 8482SOL     OW26344   4.985   6.986   2.635
 8482SOL    HW126345   4.920   7.009   2.708
 8482SOL    HW226346   5.062   0.025   2.638
 8483SOL     OW26347   3.556   6.150   1.866
 8483SOL    HW126348   3.650   6.175   1.843
 8483SOL    HW226349   3.520   6.214   1.934
 8484SOL     OW26350   0.034   6.286   3.828
 8484SOL    HW126351   0.001   6.193   3.814
 8484SOL    HW226352   6.982   6.349   3.829
 8485SOL     OW26353   3.825   2.408   7.019
 8485SOL    HW126354   3.793   2.369   0.081
 8485SOL    HW226355   3.834   2.335   6.951
 8486SOL     OW26356   2.428   1.429   2.277
 8486SOL    HW126357   2.437   1.517   2.231
 8486SOL    HW226358   2.355   1.376   2.234
 8487SOL     OW26359   5.837   2.174   5.843
 8487SOL    HW126360   5.886   2.239   5.785
 8487SOL    HW226361   5.755   2.218   5.879
 8488SOL     OW26362   5.678   6.678   1.669
 8488SOL    HW126363   5.655   6.761   1.719
 8488SOL    HW226364   5.620   6.670   1.588
 8489SOL     OW26365   6.280   1.777   1.733
 8489SOL    HW126366   6.312   1.848   1.670
 8489SOL    HW226367   6.241   1.821   1.815
 8490SOL     OW26368   3.453   6.686   5.645
 8490SOL    HW126369   3.376   6.691   5.581
 8490SOL    HW226370   3.419   6.661   5.735
 8491SOL     OW26371   2.125   6.196   1.856
 8491SOL    HW126372   2.167   6.286   1.864
 8491SOL    HW226373   2.140   6.145   1.941
 8492SOL     OW26374   5.858   4.707   5.448
 8492SOL    HW126375   5.929   4.714   5.519
 8492SOL    HW226376   5.895   4.739   5.361
 8493SOL     OW26377   2.114   2.174   5.948
 8493SOL    HW126378   2.109   2.076   5.967
 8493SOL    HW226379   2.204   2.197   5.910
 8494SOL     OW26380   4.340   4.900   1.302
 8494SOL    HW126381   4.346   4.976   1.367
 8494SOL    HW226382   4.332   4.814   1.353
 8495SOL     OW26383   6.955   4.864   1.369
 8495SOL    HW126384   6.889   4.798   1.407
 8495SOL    HW226385   0.022   4.823   1.368
 8496SOL     OW26386   1.024   1.745   2.546
 8496SOL    HW126387   0.967   1.819   2.511
 8496SOL    HW226388   1.077   1.777   2.624
 8497SOL     OW26389   6.978   1.175   3.725
 8497SOL    HW126390   7.002   1.157   3.629
 8497SOL    HW226391   6.892   1.227   3.728
 8498SOL     OW26392   6.521   6.181   3.124
 8498SOL    HW126393   6.547   6.210   3.032
 8498SOL    HW226394   6.500   6.261   3.180
 8499SOL     OW26395   2.169   4.143   6.789
 8499SOL    HW126396   2.084   4.181   6.826
 8499SOL    HW226397   2.152   4.049   6.758
 8500SOL     OW26398   1.499   6.168   5.687
 8500SOL    HW126399   1.454   6.179   5.598
 8500SOL    HW226400   1.598   6.160   5.674
 8501SOL     OW26401   6.967   2.909   5.752
 8501SOL    HW126402   6.893   2.977   5.753
 8501SOL    HW226403   7.015   2.915   5.665
 8502SOL     OW26404   0.172   3.259   1.585
 8502SOL    HW126405   0.079   3.231   1.565
 8502SOL    HW226406   0.194   3.342   1.534
 8503SOL     OW26407   0.595   5.381   4.745
 8503SOL    HW126408   0.658   5.430   4.805
 8503SOL    HW226409   0.507   5.428   4.744
 8504SOL     OW26410   2.215   5.319   2.373
 8504SOL    HW126411   2.215   5.219   2.360
 8504SOL    HW226412   2.269   5.361   2.300
 8505SOL     OW26413   6.487   3.746   2.927
 8505SOL    HW126414   6.512   3.839   2.900
 8505SOL    HW226415   6.516   3.681   2.856
 8506SOL     OW26416   1.347   1.287   7.006
 8506SOL    HW126417   1.306   1.219   0.042
 8506SOL    HW226418   1.287   1.367   7.002
 8507SOL     OW26419   3.768   6.651   5.047
 8507SOL    HW126420   3.786   6.555   5.068
 8507SOL    HW226421   3.838   6.685   4.983
 8508SOL     OW26422   5.365   1.896   4.363
 8508SOL    HW126423   5.348   1.930   4.270
 8508SOL    HW226424   5.319   1.955   4.429
 8509SOL     OW26425   4.979   0.572   3.534
 8509SOL    HW126426   4.926   0.543   3.454
 8509SOL    HW226427   5.067   0.608   3.504
 8510SOL     OW26428   5.938   4.467   2.678
 8510SOL    HW126429   5.846   4.500   2.701
 8510SOL    HW226430   5.999   4.482   2.756
 8511SOL     OW26431   6.165   3.631   2.309
 8511SOL    HW126432   6.167   3.730   2.323
 8511SOL    HW226433   6.127   3.586   2.390
 8512SOL     OW26434   2.653   0.774   2.627
 8512SOL    HW126435   2.567   0.824   2.642
 8512SOL    HW226436   2.724   0.838   2.598
 8513SOL     OW26437   6.667   4.885   0.862
 8513SOL    HW126438   6.696   4.870   0.767
 8513SOL    HW226439   6.577   4.844   0.877
 8514SOL     OW26440   1.758   1.513   3.612
 8514SOL    HW126441   1.767   1.601   3.565
 8514SOL    HW226442   1.749   1.440   3.544
 8515SOL     OW26443   4.975   2.427   1.102
 8515SOL    HW126444   4.963   2.514   1.151
 8515SOL    HW226445   5.004   2.357   1.167
 8516SOL     OW26446   0.313   2.025   2.106
 8516SOL    HW126447   0.391   2.063   2.157
 8516SOL    HW226448   0.233   2.022   2.166
 8517SOL     OW26449   0.549   2.929   5.397
 8517SOL    HW126450   0.515   2.945   5.304
 8517SOL    HW226451   0.648   2.916   5.394
 8518SOL     OW26452   4.908   4.025   6.684
 8518SOL    HW126453   4.867   4.116   6.693
 8518SOL    HW226454   4.937   3.992   6.773
 8519SOL     OW26455   1.634   5.052   1.997
 8519SOL    HW126456   1.705   5.120   2.015
 8519SOL    HW226457   1.570   5.089   1.930
 8520SOL     OW26458   3.532   1.388   0.881
 8520SOL    HW126459   3.570   1.324   0.948
 8520SOL    HW226460   3.445   1.353   0.846
 8521SOL     OW26461   1.912   5.619   5.821
 8521SOL    HW126462   1.992   5.643   5.767
 8521SOL    HW226463   1.830   5.653   5.775
 8522SOL     OW26464   0.953   6.099   2.009
 8522SOL    HW126465   0.969   6.176   2.070
 8522SOL    HW226466   1.018   6.103   1.933
 8523SOL     OW26467   2.906   6.350   6.621
 8523SOL    HW126468   2.920   6.447   6.599
 8523SOL    HW226469   2.963   6.294   6.560
 8524SOL     OW26470   1.130   1.966   5.056
 8524SOL    HW126471   1.044   1.997   5.016
 8524SOL    HW226472   1.164   1.887   5.004
 8525SOL     OW26473   6.406   4.358   3.114
 8525SOL    HW126474   6.344   4.295   3.066
 8525SOL    HW226475   6.357   4.443   3.134
 8526SOL     OW26476   2.874   4.216   0.843
 8526SOL    HW126477   2.794   4.236   0.788
 8526SOL    HW226478   2.934   4.296   0.845
 8527SOL     OW26479   3.203   0.246   5.091
 8527SOL    HW126480   3.185   0.283   5.182
 8527SOL    HW226481   3.179   0.149   5.089
 8528SOL     OW26482   5.105   2.847   5.844
 8528SOL    HW126483   5.179   2.859   5.778
 8528SOL    HW226484   5.024   2.898   5.814
 8529SOL     OW26485   1.219   6.903   6.902
 8529SOL    HW126486   1.223   6.927   6.999
 8529SOL    HW226487   1.304   6.932   6.857
 8530SOL     OW26488   1.322   4.329   5.441
 8530SOL    HW126489   1.417   4.298   5.446
 8530SOL    HW226490   1.302   4.388   5.519
 8531SOL     OW26491   5.502   4.166   2.468
 8531SOL    HW126492   5.506   4.219   2.384
 8531SOL    HW226493   5.407   4.161   2.500
 8532SOL     OW26494   3.482   5.085   4.733
 8532SOL    HW126495   3.464   5.159   4.798
 8532SOL    HW226496   3.534   5.013   4.780
 8533SOL     OW26497   1.894   0.333   6.034
 8533SOL    HW126498   1.950   0.415   6.028
 8533SOL    HW226499   1.952   0.252   6.039
 8534SOL     OW26500   0.264   3.772   3.804
 8534SOL    HW126501   0.175   3.773   3.760
 8534SOL    HW226502   0.269   3.844   3.873
 8535SOL     OW26503   0.513   1.912   4.907
 8535SOL    HW126504   0.487   1.841   4.842
 8535SOL    HW226505   0.524   1.872   4.998
 8536SOL     OW26506   6.387   2.152   4.667
 8536SOL    HW126507   6.453   2.227   4.677
 8536SOL    HW226508   6.294   2.190   4.669
 8537SOL     OW26509   5.208   1.752   1.557
 8537SOL    HW126510   5.193   1.707   1.469
 8537SOL    HW226511   5.128   1.806   1.581
 8538SOL     OW26512   0.232   1.171   5.532
 8538SOL    HW126513   0.170   1.101   5.568
 8538SOL    HW226514   0.196   1.205   5.445
 8539SOL     OW26515   6.575   2.124   2.242
 8539SOL    HW126516   6.480   2.093   2.236
 8539SOL    HW226517   6.631   2.071   2.177
 8540SOL     OW26518   3.334   1.397   0.297
 8540SOL    HW126519   3.242   1.368   0.271
 8540SOL    HW226520   3.367   1.464   0.230
 8541SOL     OW26521   2.831   1.726   4.483
 8541SOL    HW126522   2.806   1.746   4.578
 8541SOL    HW226523   2.931   1.722   4.475
 8542SOL     OW26524   2.658   4.474   6.107
 8542SOL    HW126525   2.585   4.498   6.044
 8542SOL    HW226526   2.641   4.516   6.196
 8543SOL     OW26527   2.831   1.490   5.776
 8543SOL    HW126528   2.817   1.495   5.677
 8543SOL    HW226529   2.807   1.578   5.817
 8544SOL     OW26530   5.502   3.019   4.516
 8544SOL    HW126531   5.464   2.930   4.539
 8544SOL    HW226532   5.527   3.022   4.419
 8545SOL     OW26533   3.973   6.729   4.878
 8545SOL    HW126534   3.943   6.756   4.786
 8545SOL    HW226535   4.064   6.766   4.895
 8546SOL     OW26536   6.348   6.926   2.247
 8546SOL    HW126537   6.283   6.980   2.194
 8546SOL    HW226538   6.342   6.831   2.219
 8547SOL     OW26539   0.639   0.244   5.789
 8547SOL    HW126540   0.680   0.257   5.879
 8547SOL    HW226541   0.711   0.221   5.723
 8548SOL     OW26542   6.778   3.596   5.361
 8548SOL    HW126543   6.793   3.502   5.329
 8548SOL    HW226544   6.753   3.594   5.458
 8549SOL     OW26545   0.977   2.389   4.341
 8549SOL    HW126546   1.071   2.389   4.376
 8549SOL    HW226547   0.943   2.482   4.335
 8550SOL     OW26548   1.661   4.230   6.565
 8550SOL    HW126549   1.567   4.225   6.599
 8550SOL    HW226550   1.662   4.212   6.467
 8551SOL     OW26551   3.148   2.701   0.017
 8551SOL    HW126552   3.114   2.623   6.990
 8551SOL    HW226553   3.241   2.722   7.012
 8552SOL     OW26554   2.023   0.459   2.880
 8552SOL    HW126555   2.042   0.555   2.861
 8552SOL    HW226556   2.096   0.421   2.939
 8553SOL     OW26557   4.243   4.384   6.769
 8553SOL    HW126558   4.276   4.339   6.686
 8553SOL    HW226559   4.171   4.328   6.810
 8554SOL     OW26560   0.480   6.089   1.002
 8554SOL    HW126561   0.539   6.048   1.072
 8554SOL    HW226562   0.398   6.032   0.991
 8555SOL     OW26563   3.761   1.679   3.544
 8555SOL    HW126564   3.699   1.626   3.486
 8555SOL    HW226565   3.799   1.755   3.491
 8556SOL     OW26566   2.158   6.327   5.230
 8556SOL    HW126567   2.253   6.336   5.260
 8556SOL    HW226568   2.115   6.418   5.230
 8557SOL     OW26569   6.807   0.346   1.938
 8557SOL    HW126570   6.790   0.438   1.973
 8557SOL    HW226571   6.720   0.300   1.921
 8558SOL     OW26572   1.936   5.464   2.962
 8558SOL    HW126573   2.022   5.486   2.917
 8558SOL    HW226574   1.860   5.509   2.914
 8559SOL     OW26575   1.619   6.276   2.385
 8559SOL    HW126576   1.587   6.190   2.345
 8559SOL    HW226577   1.568   6.352   2.346
 8560SOL     OW26578   0.909   5.440   1.423
 8560SOL    HW126579   0.982   5.377   1.396
 8560SOL    HW226580   0.827   5.388   1.446
 8561SOL     OW26581   3.333   6.968   3.901
 8561SOL    HW126582   3.280   7.018   3.970
 8561SOL    HW226583   3.283   6.970   3.814
 8562SOL     OW26584   3.531   6.607   0.170
 8562SOL    HW126585   3.590   6.679   0.204
 8562SOL    HW226586   3.437   6.622   0.201
 8563SOL     OW26587   0.636   4.970   1.960
 8563SOL    HW126588   0.568   5.023   1.909
 8563SOL    HW226589   0.721   5.021   1.965
 8564SOL     OW26590   3.495   6.363   5.612
 8564SOL    HW126591   3.405   6.371   5.568
 8564SOL    HW226592   3.564   6.404   5.552
 8565SOL     OW26593   3.537   4.859   0.848
 8565SOL    HW126594   3.529   4.768   0.807
 8565SOL    HW226595   3.621   4.903   0.815
 8566SOL     OW26596   0.958   0.363   1.922
 8566SOL    HW126597   0.950   0.448   1.870
 8566SOL    HW226598   1.049   0.323   1.908
 8567SOL     OW26599   1.044   2.043   2.175
 8567SOL    HW126600   1.007   2.099   2.250
 8567SOL    HW226601   0.987   1.961   2.164
 8568SOL     OW26602   5.654   1.751   0.290
 8568SOL    HW126603   5.723   1.805   0.243
 8568SOL    HW226604   5.683   1.655   0.294
 8569SOL     OW26605   5.454   2.144   5.539
 8569SOL    HW126606   5.419   2.056   5.508
 8569SOL    HW226607   5.522   2.129   5.611
 8570SOL     OW26608   1.164   1.711   4.916
 8570SOL    HW126609   1.076   1.708   4.965
 8570SOL    HW226610   1.182   1.623   4.874
 8571SOL     OW26611   0.856   6.729   4.883
 8571SOL    HW126612   0.921   6.778   4.824
 8571SOL    HW226613   0.777   6.701   4.829
 8572SOL     OW26614   1.651   4.373   5.120
 8572SOL    HW126615   1.656   4.421   5.208
 8572SOL    HW226616   1.648   4.275   5.136
 8573SOL     OW26617   3.017   5.865   6.179
 8573SOL    HW126618   3.012   5.855   6.278
 8573SOL    HW226619   3.088   5.932   6.156
 8574SOL     OW26620   6.197   6.682   6.234
 8574SOL    HW126621   6.245   6.705   6.149
 8574SOL    HW226622   6.194   6.583   6.245
 8575SOL     OW26623   3.153   1.768   3.402
 8575SOL    HW126624   3.234   1.774   3.459
 8575SOL    HW226625   3.072   1.790   3.456
 8576SOL     OW26626   1.855   4.841   4.070
 8576SOL    HW126627   1.889   4.754   4.105
 8576SOL    HW226628   1.866   4.912   4.139
 8577SOL     OW26629   1.765   0.266   6.289
 8577SOL    HW126630   1.811   0.327   6.223
 8577SOL    HW226631   1.684   0.311   6.325
 8578SOL     OW26632   6.706   4.651   6.076
 8578SOL    HW126633   6.665   4.581   6.136
 8578SOL    HW226634   6.703   4.619   5.981
 8579SOL     OW26635   1.231   5.992   2.082
 8579SOL    HW126636   1.212   6.069   2.143
 8579SOL    HW226637   1.151   5.973   2.025
 8580SOL     OW26638   2.122   6.018   0.648
 8580SOL    HW126639   2.059   6.022   0.571
 8580SOL    HW226640   2.078   5.972   0.725
 8581SOL     OW26641   3.512   4.674   1.261
 8581SOL    HW126642   3.504   4.574   1.258
 8581SOL    HW226643   3.494   4.706   1.354
 8582SOL     OW26644   5.092   4.303   5.113
 8582SOL    HW126645   5.015   4.352   5.156
 8582SOL    HW226646   5.163   4.369   5.088
 8583SOL     OW26647   3.158   6.882   3.105
 8583SOL    HW126648   3.173   6.786   3.129
 8583SOL    HW226649   3.214   6.905   3.026
 8584SOL     OW26650   0.810   6.544   5.507
 8584SOL    HW126651   0.816   6.570   5.410
 8584SOL    HW226652   0.877   6.598   5.560
 8585SOL     OW26653   6.317   1.246   0.810
 8585SOL    HW126654   6.241   1.297   0.767
 8585SOL    HW226655   6.280   1.166   0.858
 8586SOL     OW26656   3.745   6.591   1.604
 8586SOL    HW126657   3.767   6.625   1.695
 8586SOL    HW226658   3.673   6.648   1.563
 8587SOL     OW26659   0.860   1.380   5.164
 8587SOL    HW126660   0.947   1.374   5.114
 8587SOL    HW226661   0.868   1.449   5.236
 8588SOL     OW26662   4.422   1.474   6.983
 8588SOL    HW126663   4.477   1.480   0.042
 8588SOL    HW226664   4.479   1.496   6.904
 8589SOL     OW26665   6.482   2.623   4.972
 8589SOL    HW126666   6.384   2.632   4.957
 8589SOL    HW226667   6.521   2.566   4.900
 8590SOL     OW26668   0.827   0.863   2.551
 8590SOL    HW126669   0.851   0.907   2.464
 8590SOL    HW226670   0.810   0.934   2.620
 8591SOL     OW26671   0.241   4.145   0.542
 8591SOL    HW126672   0.232   4.110   0.449
 8591SOL    HW226673   0.298   4.083   0.596
 8592SOL     OW26674   5.771   2.691   6.964
 8592SOL    HW126675   5.839   2.763   6.947
 8592SOL    HW226676   5.784   2.617   6.897
 8593SOL     OW26677   3.045   1.295   6.504
 8593SOL    HW126678   3.088   1.266   6.589
 8593SOL    HW226679   3.066   1.230   6.431
 8594SOL     OW26680   5.681   1.983   5.715
 8594SOL    HW126681   5.742   2.032   5.777
 8594SOL    HW226682   5.642   1.904   5.762
 8595SOL     OW26683   5.898   0.654   4.208
 8595SOL    HW126684   5.884   0.737   4.263
 8595SOL    HW226685   5.864   0.575   4.258
 8596SOL     OW26686   1.310   5.001   3.051
 8596SOL    HW126687   1.384   4.988   3.117
 8596SOL    HW226688   1.266   4.914   3.031
 8597SOL     OW26689   5.382   1.906   1.712
 8597SOL    HW126690   5.331   1.977   1.760
 8597SOL    HW226691   5.329   1.875   1.633
 8598SOL     OW26692   5.839   0.185   5.884
 8598SOL    HW126693   5.921   0.130   5.870
 8598SOL    HW226694   5.777   0.173   5.806
 8599SOL     OW26695   1.432   2.913   4.972
 8599SOL    HW126696   1.385   3.001   4.960
 8599SOL    HW226697   1.528   2.923   4.949
 8600SOL     OW26698   5.440   3.602   0.268
 8600SOL    HW126699   5.487   3.635   0.185
 8600SOL    HW226700   5.493   3.528   0.308
 8601SOL     OW26701   0.722   1.512   3.832
 8601SOL    HW126702   0.769   1.569   3.901
 8601SOL    HW226703   0.778   1.432   3.812
 8602SOL     OW26704   2.371   0.235   2.322
 8602SOL    HW126705   2.374   0.144   2.282
 8602SOL    HW226706   2.460   0.280   2.310
 8603SOL     OW26707   4.997   0.107   0.996
 8603SOL    HW126708   5.046   0.124   1.081
 8603SOL    HW226709   5.030   0.170   0.925
 8604SOL     OW26710   1.627   1.864   6.168
 8604SOL    HW126711   1.652   1.897   6.259
 8604SOL    HW226712   1.571   1.933   6.122
 8605SOL     OW26713   1.843   5.373   3.586
 8605SOL    HW126714   1.832   5.465   3.549
 8605SOL    HW226715   1.761   5.348   3.638
 8606SOL     OW26716   2.637   2.968   0.177
 8606SOL    HW126717   2.727   3.002   0.150
 8606SOL    HW226718   2.568   3.004   0.116
 8607SOL     OW26719   2.528   4.971   6.195
 8607SOL    HW126720   2.602   4.915   6.231
 8607SOL    HW226721   2.458   4.913   6.154
 8608SOL     OW26722   2.291   4.672   2.590
 8608SOL    HW126723   2.196   4.690   2.568
 8608SOL    HW226724   2.327   4.746   2.647
 8609SOL     OW26725   4.890   0.402   3.746
 8609SOL    HW126726   4.870   0.317   3.697
 8609SOL    HW226727   4.950   0.459   3.691
 8610SOL     OW26728   0.248   0.588   3.183
 8610SOL    HW126729   0.194   0.558   3.104
 8610SOL    HW226730   0.329   0.529   3.191
 8611SOL     OW26731   3.131   1.054   4.187
 8611SOL    HW126732   3.228   1.029   4.195
 8611SOL    HW226733   3.097   1.026   4.097
 8612SOL     OW26734   2.671   3.269   1.441
 8612SOL    HW126735   2.670   3.264   1.541
 8612SOL    HW226736   2.615   3.346   1.411
 8613SOL     OW26737   2.969   1.822   1.561
 8613SOL    HW126738   3.010   1.885   1.494
 8613SOL    HW226739   2.890   1.866   1.603
 8614SOL     OW26740   0.881   2.734   3.031
 8614SOL    HW126741   0.788   2.750   3.063
 8614SOL    HW226742   0.942   2.724   3.110
 8615SOL     OW26743   4.614   1.916   4.971
 8615SOL    HW126744   4.543   1.885   5.035
 8615SOL    HW226745   4.621   1.851   4.895
 8616SOL     OW26746   2.828   4.813   1.774
 8616SOL    HW126747   2.743   4.863   1.791
 8616SOL    HW226748   2.822   4.723   1.818
 8617SOL     OW26749   5.898   0.822   4.447
 8617SOL    HW126750   5.804   0.817   4.479
 8617SOL    HW226751   5.955   0.865   4.517
 8618SOL     OW26752   6.502   4.574   1.889
 8618SOL    HW126753   6.472   4.615   1.803
 8618SOL    HW226754   6.556   4.492   1.870
 8619SOL     OW26755   4.123   5.443   2.557
 8619SOL    HW126756   4.085   5.518   2.611
 8619SOL    HW226757   4.161   5.373   2.619
 8620SOL     OW26758   1.988   5.990   3.937
 8620SOL    HW126759   1.953   6.082   3.919
 8620SOL    HW226760   1.984   5.935   3.854
 8621SOL     OW26761   5.073   2.710   2.122
 8621SOL    HW126762   5.157   2.747   2.082
 8621SOL    HW226763   4.996   2.727   2.060
 8622SOL     OW26764   5.100   4.209   1.216
 8622SOL    HW126765   5.068   4.227   1.123
 8622SOL    HW226766   5.081   4.287   1.275
 8623SOL     OW26767   0.945   4.478   5.457
 8623SOL    HW126768   0.960   4.393   5.508
 8623SOL    HW226769   0.931   4.457   5.360
 8624SOL     OW26770   2.209   4.000   5.533
 8624SOL    HW126771   2.110   4.013   5.526
 8624SOL    HW226772   2.227   3.915   5.583
 8625SOL     OW26773   5.120   1.168   5.221
 8625SOL    HW126774   5.169   1.094   5.175
 8625SOL    HW226775   5.180   1.248   5.230
 8626SOL     OW26776   4.134   2.306   6.784
 8626SOL    HW126777   4.215   2.248   6.796
 8626SOL    HW226778   4.154   2.398   6.817
 8627SOL     OW26779   2.184   1.830   2.259
 8627SOL    HW126780   2.143   1.858   2.346
 8627SOL    HW226781   2.231   1.908   2.218
 8628SOL     OW26782   5.820   6.622   0.446
 8628SOL    HW126783   5.872   6.653   0.526
 8628SOL    HW226784   5.725   6.654   0.455
 8629SOL     OW26785   1.822   6.387   5.278
 8629SOL    HW126786   1.760   6.439   5.219
 8629SOL    HW226787   1.913   6.387   5.238
 8630SOL     OW26788   4.967   3.183   3.972
 8630SOL    HW126789   4.919   3.201   3.887
 8630SOL    HW226790   5.063   3.164   3.952
 8631SOL     OW26791   1.318   5.735   6.305
 8631SOL    HW126792   1.359   5.648   6.330
 8631SOL    HW226793   1.363   5.809   6.355
 8632SOL     OW26794   4.088   4.948   5.008
 8632SOL    HW126795   4.047   5.006   4.938
 8632SOL    HW226796   4.023   4.936   5.084
 8633SOL     OW26797   5.845   2.521   5.916
 8633SOL    HW126798   5.829   2.619   5.931
 8633SOL    HW226799   5.842   2.473   6.004
 8634SOL     OW26800   4.744   3.947   6.337
 8634SOL    HW126801   4.782   3.902   6.418
 8634SOL    HW226802   4.782   4.039   6.328
 8635SOL     OW26803   5.519   2.674   6.665
 8635SOL    HW126804   5.498   2.646   6.759
 8635SOL    HW226805   5.558   2.766   6.665
 8636SOL     OW26806   5.531   6.458   1.028
 8636SOL    HW126807   5.449   6.428   0.980
 8636SOL    HW226808   5.516   6.455   1.127
 8637SOL     OW26809   1.846   1.483   6.903
 8637SOL    HW126810   1.916   1.521   6.965
 8637SOL    HW226811   1.762   1.536   6.912
 8638SOL     OW26812   3.928   2.145   5.092
 8638SOL    HW126813   3.829   2.158   5.081
 8638SOL    HW226814   3.947   2.119   5.187
 8639SOL     OW26815   4.911   2.925   6.946
 8639SOL    HW126816   4.895   2.887   0.012
 8639SOL    HW226817   4.829   2.911   6.889
 8640SOL     OW26818   4.128   3.509   0.242
 8640SOL    HW126819   4.029   3.511   0.254
 8640SOL    HW226820   4.173   3.518   0.330
 8641SOL     OW26821   4.182   4.765   4.179
 8641SOL    HW126822   4.194   4.804   4.087
 8641SOL    HW226823   4.093   4.794   4.215
 8642SOL     OW26824   1.071   6.483   3.840
 8642SOL    HW126825   1.000   6.479   3.769
 8642SOL    HW226826   1.080   6.393   3.883
 8643SOL     OW26827   1.500   0.505   0.088
 8643SOL    HW126828   1.471   0.579   0.028
 8643SOL    HW226829   1.488   0.417   0.041
 8644SOL     OW26830   5.574   2.660   5.885
 8644SOL    HW126831   5.640   2.585   5.895
 8644SOL    HW226832   5.494   2.627   5.835
 8645SOL     OW26833   4.189   4.723   1.864
 8645SOL    HW126834   4.250   4.768   1.798
 8645SOL    HW226835   4.240   4.705   1.948
 8646SOL     OW26836   0.060   1.661   6.722
 8646SOL    HW126837   0.026   1.652   6.629
 8646SOL    HW226838   7.017   1.709   6.778
 8647SOL     OW26839   2.583   4.786   0.274
 8647SOL    HW126840   2.632   4.803   0.359
 8647SOL    HW226841   2.644   4.803   0.196
 8648SOL     OW26842   6.549   0.339   2.204
 8648SOL    HW126843   6.637   0.344   2.156
 8648SOL    HW226844   6.552   0.267   2.273
 8649SOL     OW26845   5.827   5.636   0.138
 8649SOL    HW126846   5.881   5.716   0.113
 8649SOL    HW226847   5.738   5.640   0.093
 8650SOL     OW26848   1.518   6.708   4.811
 8650SOL    HW126849   1.422   6.707   4.837
 8650SOL    HW226850   1.543   6.622   4.768
 8651SOL     OW26851   3.743   1.149   0.682
 8651SOL    HW126852   3.827   1.191   0.716
 8651SOL    HW226853   3.709   1.201   0.604
 8652SOL     OW26854   1.011   4.833   3.239
 8652SOL    HW126855   1.083   4.797   3.298
 8652SOL    HW226856   0.986   4.765   3.171
 8653SOL     OW26857   6.957   1.377   6.420
 8653SOL    HW126858   6.905   1.320   6.356
 8653SOL    HW226859   0.020   1.334   6.440
 8654SOL     OW26860   0.423   4.890   1.465
 8654SOL    HW126861   0.367   4.915   1.544
 8654SOL    HW226862   0.505   4.948   1.463
 8655SOL     OW26863   5.992   0.249   4.557
 8655SOL    HW126864   5.904   0.205   4.576
 8655SOL    HW226865   6.048   0.249   4.640
 8656SOL     OW26866   6.428   1.028   2.236
 8656SOL    HW126867   6.490   1.011   2.160
 8656SOL    HW226868   6.348   0.969   2.228
 8657SOL     OW26869   5.233   5.841   0.223
 8657SOL    HW126870   5.281   5.861   0.308
 8657SOL    HW226871   5.186   5.754   0.230
 8658SOL     OW26872   6.424   5.713   0.257
 8658SOL    HW126873   6.454   5.774   0.183
 8658SOL    HW226874   6.503   5.681   0.308
 8659SOL     OW26875   5.424   2.214   2.521
 8659SOL    HW126876   5.338   2.264   2.514
 8659SOL    HW226877   5.421   2.133   2.463
 8660SOL     OW26878   6.331   3.483   1.826
 8660SOL    HW126879   6.268   3.530   1.888
 8660SOL    HW226880   6.291   3.395   1.799
 8661SOL     OW26881   6.466   3.633   1.402
 8661SOL    HW126882   6.386   3.690   1.383
 8661SOL    HW226883   6.475   3.620   1.501
 8662SOL     OW26884   4.088   5.705   1.901
 8662SOL    HW126885   4.048   5.653   1.976
 8662SOL    HW226886   4.152   5.647   1.850
 8663SOL     OW26887   2.100   5.633   2.216
 8663SOL    HW126888   2.085   5.719   2.264
 8663SOL    HW226889   2.198   5.610   2.221
 8664SOL     OW26890   2.057   4.796   1.559
 8664SOL    HW126891   2.131   4.733   1.583
 8664SOL    HW226892   2.000   4.812   1.639
 8665SOL     OW26893   6.056   5.595   4.907
 8665SOL    HW126894   6.023   5.580   4.814
 8665SOL    HW226895   5.980   5.591   4.971
 8666SOL     OW26896   5.733   0.610   3.904
 8666SOL    HW126897   5.788   0.619   3.986
 8666SOL    HW226898   5.763   0.676   3.836
 8667SOL     OW26899   4.985   1.797   3.818
 8667SOL    HW126900   4.947   1.843   3.898
 8667SOL    HW226901   4.939   1.709   3.805
 8668SOL     OW26902   5.098   3.729   3.827
 8668SOL    HW126903   5.109   3.713   3.925
 8668SOL    HW226904   5.001   3.720   3.802
 8669SOL     OW26905   0.370   6.132   6.740
 8669SOL    HW126906   0.421   6.170   6.663
 8669SOL    HW226907   0.283   6.096   6.708
 8670SOL     OW26908   3.899   5.353   6.288
 8670SOL    HW126909   3.921   5.350   6.385
 8670SOL    HW226910   3.837   5.278   6.265
 8671SOL     OW26911   0.878   1.838   3.369
 8671SOL    HW126912   0.807   1.808   3.432
 8671SOL    HW226913   0.907   1.761   3.313
 8672SOL     OW26914   0.289   6.378   3.357
 8672SOL    HW126915   0.361   6.310   3.374
 8672SOL    HW226916   0.228   6.381   3.436
 8673SOL     OW26917   6.014   2.151   0.473
 8673SOL    HW126918   5.972   2.233   0.511
 8673SOL    HW226919   5.946   2.077   0.469
 8674SOL     OW26920   5.755   5.372   2.906
 8674SOL    HW126921   5.830   5.322   2.863
 8674SOL    HW226922   5.791   5.450   2.956
 8675SOL     OW26923   4.562   1.702   4.817
 8675SOL    HW126924   4.523   1.619   4.859
 8675SOL    HW226925   4.645   1.677   4.768
 8676SOL     OW26926   5.566   6.574   3.197
 8676SOL    HW126927   5.591   6.499   3.136
 8676SOL    HW226928   5.607   6.558   3.287
 8677SOL     OW26929   2.381   5.694   5.601
 8677SOL    HW126930   2.371   5.622   5.532
 8677SOL    HW226931   2.469   5.740   5.590
 8678SOL     OW26932   1.014   6.853   0.419
 8678SOL    HW126933   0.990   6.801   0.338
 8678SOL    HW226934   0.945   6.924   0.435
 8679SOL     OW26935   1.355   1.583   3.321
 8679SOL    HW126936   1.362   1.567   3.420
 8679SOL    HW226937   1.292   1.660   3.305
 8680SOL     OW26938   5.766   3.946   0.229
 8680SOL    HW126939   5.783   3.850   0.255
 8680SOL    HW226940   5.698   3.949   0.157
 8681SOL     OW26941   4.815   5.313   1.531
 8681SOL    HW126942   4.836   5.217   1.511
 8681SOL    HW226943   4.775   5.356   1.450
 8682SOL     OW26944   6.412   0.459   2.728
 8682SOL    HW126945   6.317   0.479   2.755
 8682SOL    HW226946   6.438   0.370   2.764
 8683SOL     OW26947   1.706   2.256   5.595
 8683SOL    HW126948   1.777   2.244   5.525
 8683SOL    HW226949   1.665   2.346   5.585
 8684SOL     OW26950   6.102   3.491   4.485
 8684SOL    HW126951   6.046   3.444   4.417
 8684SOL    HW226952   6.170   3.547   4.440
 8685SOL     OW26953   6.141   2.991   6.414
 8685SOL    HW126954   6.238   2.976   6.395
 8685SOL    HW226955   6.086   2.948   6.342
 8686SOL     OW26956   6.643   0.986   2.057
 8686SOL    HW126957   6.640   1.071   2.005
 8686SOL    HW226958   6.667   0.910   1.997
 8687SOL     OW26959   5.190   4.887   2.777
 8687SOL    HW126960   5.120   4.871   2.707
 8687SOL    HW226961   5.262   4.819   2.767
 8688SOL     OW26962   1.404   4.931   6.592
 8688SOL    HW126963   1.381   4.847   6.641
 8688SOL    HW226964   1.503   4.936   6.579
 8689SOL     OW26965   4.284   2.493   0.677
 8689SOL    HW126966   4.208   2.477   0.740
 8689SOL    HW226967   4.321   2.405   0.647
 8690SOL     OW26968   1.319   3.621   3.809
 8690SOL    HW126969   1.290   3.527   3.826
 8690SOL    HW226970   1.241   3.676   3.781
 8691SOL     OW26971   4.110   2.056   5.946
 8691SOL    HW126972   4.033   2.001   5.978
 8691SOL    HW226973   4.076   2.128   5.885
 8692SOL     OW26974   3.646   0.752   4.426
 8692SOL    HW126975   3.582   0.738   4.502
 8692SOL    HW226976   3.732   0.705   4.446
 8693SOL     OW26977   5.946   0.310   0.072
 8693SOL    HW126978   6.038   0.339   0.100
 8693SOL    HW226979   5.912   0.371   0.001
 8694SOL     OW26980   5.710   1.562   5.020
 8694SOL    HW126981   5.630   1.507   4.996
 8694SOL    HW226982   5.690   1.659   5.003
 8695SOL     OW26983   3.694   2.824   6.042
 8695SOL    HW126984   3.751   2.791   6.118
 8695SOL    HW226985   3.743   2.895   5.992
 8696SOL     OW26986   2.836   5.700   5.603
 8696SOL    HW126987   2.834   5.604   5.630
 8696SOL    HW226988   2.898   5.711   5.526
 8697SOL     OW26989   0.446   4.193   6.555
 8697SOL    HW126990   0.382   4.117   6.553
 8697SOL    HW226991   0.409   4.267   6.612
 8698SOL     OW26992   4.787   6.114   5.030
 8698SOL    HW126993   4.692   6.104   5.000
 8698SOL    HW226994   4.792   6.180   5.105
 8699SOL     OW26995   1.700   3.407   5.157
 8699SOL    HW126996   1.709   3.437   5.062
 8699SOL    HW226997   1.754   3.324   5.171
 8700SOL     OW26998   0.393   0.671   4.828
 8700SOL    HW126999   0.490   0.671   4.802
 8700SOL    HW227000   0.380   0.730   4.908
 8701SOL     OW27001   1.524   1.548   0.545
 8701SOL    HW127002   1.516   1.483   0.470
 8701SOL    HW227003   1.513   1.641   0.511
 8702SOL     OW27004   5.159   5.132   1.458
 8702SOL    HW127005   5.189   5.075   1.382
 8702SOL    HW227006   5.090   5.082   1.512
 8703SOL     OW27007   2.754   4.730   0.020
 8703SOL    HW127008   2.853   4.716   0.016
 8703SOL    HW227009   2.709   4.678   6.972
 8704SOL     OW27010   0.167   4.353   3.359
 8704SOL    HW127011   0.103   4.412   3.310
 8704SOL    HW227012   0.157   4.259   3.326
 8705SOL     OW27013   4.952   1.744   6.605
 8705SOL    HW127014   4.899   1.828   6.616
 8705SOL    HW227015   5.026   1.759   6.539
 8706SOL     OW27016   4.643   2.150   0.321
 8706SOL    HW127017   4.653   2.080   0.392
 8706SOL    HW227018   4.594   2.111   0.243
 8707SOL     OW27019   1.240   2.445   4.372
 8707SOL    HW127020   1.278   2.397   4.293
 8707SOL    HW227021   1.265   2.542   4.367
 8708SOL     OW27022   4.135   1.435   3.514
 8708SOL    HW127023   4.086   1.444   3.427
 8708SOL    HW227024   4.087   1.371   3.573
 8709SOL     OW27025   6.470   6.563   6.920
 8709SOL    HW127026   6.552   6.579   6.866
 8709SOL    HW227027   6.435   6.650   6.956
 8710SOL     OW27028   2.455   2.115   3.587
 8710SOL    HW127029   2.464   2.133   3.489
 8710SOL    HW227030   2.363   2.139   3.617
 8711SOL     OW27031   1.993   6.639   3.061
 8711SOL    HW127032   2.052   6.709   3.101
 8711SOL    HW227033   1.968   6.665   2.968
 8712SOL     OW27034   3.557   1.519   4.703
 8712SOL    HW127035   3.507   1.565   4.776
 8712SOL    HW227036   3.639   1.477   4.740
 8713SOL     OW27037   7.004   3.634   2.057
 8713SOL    HW127038   0.013   3.550   2.099
 8713SOL    HW227039   6.927   3.613   1.996
 8714SOL     OW27040   1.437   0.282   6.341
 8714SOL    HW127041   1.403   0.256   6.250
 8714SOL    HW227042   1.459   0.379   6.342
 8715SOL     OW27043   3.800   1.249   0.376
 8715SOL    HW127044   3.787   1.347   0.361
 8715SOL    HW227045   3.897   1.231   0.391
 8716SOL     OW27046   0.178   6.104   0.100
 8716SOL    HW127047   0.167   6.178   0.166
 8716SOL    HW227048   0.123   6.123   0.019
 8717SOL     OW27049   2.281   3.384   5.432
 8717SOL    HW127050   2.221   3.372   5.353
 8717SOL    HW227051   2.310   3.295   5.466
 8718SOL     OW27052   1.736   1.880   5.845
 8718SOL    HW127053   1.707   1.975   5.836
 8718SOL    HW227054   1.706   1.844   5.932
 8719SOL     OW27055   3.590   0.354   0.245
 8719SOL    HW127056   3.553   0.438   0.286
 8719SOL    HW227057   3.688   0.367   0.227
 8720SOL     OW27058   0.795   6.664   5.986
 8720SOL    HW127059   0.890   6.672   5.957
 8720SOL    HW227060   0.740   6.625   5.912
 8721SOL     OW27061   6.602   1.350   0.813
 8721SOL    HW127062   6.523   1.354   0.874
 8721SOL    HW227063   6.571   1.355   0.718
 8722SOL     OW27064   3.155   0.688   1.241
 8722SOL    HW127065   3.129   0.593   1.258
 8722SOL    HW227066   3.250   0.692   1.212
 8723SOL     OW27067   5.423   0.232   2.004
 8723SOL    HW127068   5.366   0.223   1.922
 8723SOL    HW227069   5.519   0.221   1.979
 8724SOL     OW27070   5.650   0.053   4.439
 8724SOL    HW127071   5.748   0.069   4.445
 8724SOL    HW227072   5.630   0.001   4.356
 8725SOL     OW27073   1.300   5.678   5.674
 8725SOL    HW127074   1.276   5.651   5.767
 8725SOL    HW227075   1.310   5.777   5.669
 8726SOL     OW27076   6.987   0.647   1.657
 8726SOL    HW127077   6.993   0.738   1.617
 8726SOL    HW227078   7.003   0.653   1.756
 8727SOL     OW27079   5.902   0.239   0.721
 8727SOL    HW127080   5.857   0.295   0.791
 8727SOL    HW227081   5.887   0.142   0.741
 8728SOL     OW27082   5.603   1.097   2.661
 8728SOL    HW127083   5.554   1.043   2.593
 8728SOL    HW227084   5.559   1.186   2.670
 8729SOL     OW27085   3.775   5.038   5.083
 8729SOL    HW127086   3.676   5.022   5.088
 8729SOL    HW227087   3.819   5.001   5.165
 8730SOL     OW27088   5.183   4.140   3.086
 8730SOL    HW127089   5.278   4.170   3.099
 8730SOL    HW227090   5.165   4.060   3.143
 8731SOL     OW27091   1.114   3.806   2.788
 8731SOL    HW127092   1.053   3.832   2.863
 8731SOL    HW227093   1.142   3.887   2.737
 8732SOL     OW27094   5.472   4.352   2.235
 8732SOL    HW127095   5.489   4.450   2.244
 8732SOL    HW227096   5.427   4.334   2.147
 8733SOL     OW27097   1.251   5.740   0.292
 8733SOL    HW127098   1.250   5.644   0.265
 8733SOL    HW227099   1.226   5.748   0.388
 8734SOL     OW27100   0.526   3.299   3.143
 8734SOL    HW127101   0.585   3.272   3.067
 8734SOL    HW227102   0.560   3.258   3.228
 8735SOL     OW27103   1.092   2.815   5.322
 8735SOL    HW127104   1.171   2.801   5.263
 8735SOL    HW227105   1.120   2.812   5.417
 8736SOL     OW27106   6.748   5.484   2.063
 8736SOL    HW127107   6.760   5.557   2.130
 8736SOL    HW227108   6.837   5.443   2.043
 8737SOL     OW27109   2.378   6.902   6.993
 8737SOL    HW127110   2.401   6.806   7.006
 8737SOL    HW227111   2.418   6.934   6.907
 8738SOL     OW27112   2.630   5.805   3.607
 8738SOL    HW127113   2.613   5.827   3.703
 8738SOL    HW227114   2.725   5.775   3.596
 8739SOL     OW27115   5.381   5.436   5.844
 8739SOL    HW127116   5.311   5.422   5.774
 8739SOL    HW227117   5.423   5.526   5.831
 8740SOL     OW27118   4.163   1.771   3.083
 8740SOL    HW127119   4.226   1.700   3.114
 8740SOL    HW227120   4.214   1.847   3.044
 8741SOL     OW27121   2.191   1.092   2.770
 8741SOL    HW127122   2.229   1.167   2.825
 8741SOL    HW227123   2.111   1.125   2.720
 8742SOL     OW27124   4.695   0.488   1.784
 8742SOL    HW127125   4.701   0.455   1.878
 8742SOL    HW227126   4.773   0.548   1.764
 8743SOL     OW27127   1.647   0.574   0.751
 8743SOL    HW127128   1.683   0.481   0.752
 8743SOL    HW227129   1.587   0.586   0.672
 8744SOL     OW27130   4.024   2.893   0.941
 8744SOL    HW127131   4.044   2.813   0.997
 8744SOL    HW227132   4.097   2.907   0.875
 8745SOL     OW27133   6.389   2.507   5.872
 8745SOL    HW127134   6.479   2.539   5.842
 8745SOL    HW227135   6.367   2.421   5.827
 8746SOL     OW27136   4.969   5.897   3.843
 8746SOL    HW127137   4.981   5.800   3.864
 8746SOL    HW227138   4.930   5.943   3.922
 8747SOL     OW27139   0.534   1.378   2.575
 8747SOL    HW127140   0.436   1.362   2.590
 8747SOL    HW227141   0.585   1.357   2.658
 8748SOL     OW27142   0.876   2.035   4.674
 8748SOL    HW127143   0.970   2.002   4.685
 8748SOL    HW227144   0.814   1.957   4.664
 8749SOL     OW27145   1.847   0.497   5.128
 8749SOL    HW127146   1.853   0.511   5.029
 8749SOL    HW227147   1.863   0.583   5.175
 8750SOL     OW27148   3.089   3.465   5.585
 8750SOL    HW127149   3.133   3.549   5.615
 8750SOL    HW227150   3.010   3.445   5.643
 8751SOL     OW27151   6.842   1.449   2.366
 8751SOL    HW127152   6.931   1.465   2.325
 8751SOL    HW227153   6.800   1.369   2.325
 8752SOL     OW27154   4.289   2.986   6.726
 8752SOL    HW127155   4.237   2.910   6.686
 8752SOL    HW227156   4.230   3.040   6.785
 8753SOL     OW27157   2.617   2.607   6.449
 8753SOL    HW127158   2.702   2.658   6.465
 8753SOL    HW227159   2.577   2.583   6.537
 8754SOL     OW27160   2.272   4.583   5.571
 8754SOL    HW127161   2.293   4.657   5.634
 8754SOL    HW227162   2.267   4.619   5.478
 8755SOL     OW27163   2.112   0.656   1.225
 8755SOL    HW127164   2.091   0.624   1.133
 8755SOL    HW227165   2.044   0.619   1.289
 8756SOL     OW27166   1.632   3.111   3.423
 8756SOL    HW127167   1.675   3.023   3.405
 8756SOL    HW227168   1.701   3.184   3.419
 8757SOL     OW27169   4.876   5.786   0.135
 8757SOL    HW127170   4.946   5.755   0.200
 8757SOL    HW227171   4.917   5.796   0.044
 8758SOL     OW27172   4.582   6.209   2.699
 8758SOL    HW127173   4.595   6.128   2.642
 8758SOL    HW227174   4.486   6.237   2.695
 8759SOL     OW27175   5.609   3.337   6.906
 8759SOL    HW127176   5.566   3.393   6.978
 8759SOL    HW227177   5.559   3.349   6.820
 8760SOL     OW27178   3.383   0.557   4.806
 8760SOL    HW127179   3.369   0.604   4.893
 8760SOL    HW227180   3.316   0.485   4.796
 8761SOL     OW27181   5.758   2.037   1.022
 8761SOL    HW127182   5.714   2.123   1.048
 8761SOL    HW227183   5.820   2.007   1.095
 8762SOL     OW27184   0.624   5.780   4.537
 8762SOL    HW127185   0.590   5.822   4.452
 8762SOL    HW227186   0.626   5.681   4.526
 8763SOL     OW27187   6.032   0.053   5.503
 8763SOL    HW127188   6.131   0.067   5.498
 8763SOL    HW227189   6.005   0.038   5.598
 8764SOL     OW27190   4.568   6.923   6.206
 8764SOL    HW127191   4.604   6.985   6.136
 8764SOL    HW227192   4.637   6.909   6.276
 8765SOL     OW27193   4.666   1.305   4.308
 8765SOL    HW127194   4.680   1.274   4.403
 8765SOL    HW227195   4.656   1.225   4.249
 8766SOL     OW27196   4.122   4.249   5.229
 8766SOL    HW127197   4.163   4.327   5.181
 8766SOL    HW227198   4.081   4.281   5.315
 8767SOL     OW27199   5.148   6.160   2.992
 8767SOL    HW127200   5.098   6.145   2.907
 8767SOL    HW227201   5.092   6.216   3.054
 8768SOL     OW27202   0.820   2.814   1.057
 8768SOL    HW127203   0.878   2.891   1.030
 8768SOL    HW227204   0.877   2.737   1.085
 8769SOL     OW27205   6.629   1.269   2.263
 8769SOL    HW127206   6.685   1.309   2.190
 8769SOL    HW227207   6.565   1.203   2.223
 8770SOL     OW27208   4.741   4.244   2.540
 8770SOL    HW127209   4.682   4.318   2.571
 8770SOL    HW227210   4.727   4.230   2.442
 8771SOL     OW27211   0.747   2.611   6.214
 8771SOL    HW127212   0.652   2.639   6.198
 8771SOL    HW227213   0.797   2.686   6.256
 8772SOL     OW27214   4.865   0.708   6.208
 8772SOL    HW127215   4.939   0.770   6.236
 8772SOL    HW227216   4.897   0.650   6.133
 8773SOL     OW27217   5.361   2.770   3.081
 8773SOL    HW127218   5.261   2.769   3.076
 8773SOL    HW227219   5.399   2.734   2.996
 8774SOL     OW27220   0.710   0.406   0.361
 8774SOL    HW127221   0.723   0.504   0.345
 8774SOL    HW227222   0.651   0.393   0.440
 8775SOL     OW27223   5.083   1.292   5.705
 8775SOL    HW127224   5.036   1.362   5.652
 8775SOL    HW227225   5.017   1.249   5.768
 8776SOL     OW27226   4.952   3.500   1.303
 8776SOL    HW127227   4.910   3.412   1.282
 8776SOL    HW227228   4.968   3.507   1.401
 8777SOL     OW27229   6.759   4.419   3.508
 8777SOL    HW127230   6.821   4.382   3.438
 8777SOL    HW227231   6.786   4.513   3.530
 8778SOL     OW27232   5.503   2.936   5.769
 8778SOL    HW127233   5.503   2.896   5.861
 8778SOL    HW227234   5.576   2.894   5.715
 8779SOL     OW27235   1.769   5.784   2.415
 8779SOL    HW127236   1.801   5.697   2.454
 8779SOL    HW227237   1.806   5.795   2.323
 8780SOL     OW27238   0.405   0.022   2.809
 8780SOL    HW127239   0.342   7.009   2.741
 8780SOL    HW227240   0.416   0.120   2.793
 8781SOL     OW27241   5.058   0.302   3.960
 8781SOL    HW127242   4.995   0.321   4.035
 8781SOL    HW227243   5.008   0.300   3.874
 8782SOL     OW27244   6.236   0.882   1.598
 8782SOL    HW127245   6.285   0.851   1.517
 8782SOL    HW227246   6.300   0.891   1.675
 8783SOL     OW27247   6.664   4.227   3.703
 8783SOL    HW127248   6.651   4.270   3.614
 8783SOL    HW227249   6.731   4.279   3.756
 8784SOL     OW27250   6.560   6.775   6.282
 8784SOL    HW127251   6.538   6.805   6.375
 8784SOL    HW227252   6.497   6.702   6.255
 8785SOL     OW27253   6.707   5.167   6.446
 8785SOL    HW127254   6.618   5.151   6.402
 8785SOL    HW227255   6.774   5.194   6.377
 8786SOL     OW27256   2.844   1.205   1.494
 8786SOL    HW127257   2.855   1.297   1.457
 8786SOL    HW227258   2.780   1.153   1.436
 8787SOL     OW27259   3.559   0.451   2.408
 8787SOL    HW127260   3.598   0.410   2.490
 8787SOL    HW227261   3.459   0.447   2.414
 8788SOL     OW27262   6.734   1.805   5.370
 8788SOL    HW127263   6.736   1.874   5.442
 8788SOL    HW227264   6.727   1.849   5.281
 8789SOL     OW27265   6.421   4.517   5.686
 8789SOL    HW127266   6.383   4.497   5.777
 8789SOL    HW227267   6.349   4.513   5.618
 8790SOL     OW27268   6.239   0.946   6.265
 8790SOL    HW127269   6.289   0.880   6.208
 8790SOL    HW227270   6.301   1.017   6.296
 8791SOL     OW27271   4.773   6.858   4.804
 8791SOL    HW127272   4.794   6.822   4.713
 8791SOL    HW227273   4.674   6.870   4.813
 8792SOL     OW27274   3.155   5.272   2.968
 8792SOL    HW127275   3.112   5.188   3.001
 8792SOL    HW227276   3.218   5.249   2.893
 8793SOL     OW27277   0.871   4.440   3.087
 8793SOL    HW127278   0.836   4.506   3.020
 8793SOL    HW227279   0.866   4.480   3.179
 8794SOL     OW27280   5.635   1.132   3.239
 8794SOL    HW127281   5.600   1.039   3.227
 8794SOL    HW227282   5.730   1.127   3.273
 8795SOL     OW27283   1.251   4.511   5.095
 8795SOL    HW127284   1.235   4.427   5.147
 8795SOL    HW227285   1.187   4.516   5.019
 8796SOL     OW27286   5.769   2.612   2.826
 8796SOL    HW127287   5.748   2.529   2.774
 8796SOL    HW227288   5.685   2.662   2.845
 8797SOL     OW27289   0.119   0.077   5.500
 8797SOL    HW127290   0.218   0.065   5.513
 8797SOL    HW227291   0.103   0.132   5.418
 8798SOL     OW27292   4.417   6.247   6.635
 8798SOL    HW127293   4.335   6.259   6.580
 8798SOL    HW227294   4.497   6.280   6.585
 8799SOL     OW27295   2.430   5.362   3.364
 8799SOL    HW127296   2.404   5.443   3.417
 8799SOL    HW227297   2.526   5.367   3.339
 8800SOL     OW27298   5.488   5.405   6.569
 8800SOL    HW127299   5.563   5.436   6.511
 8800SOL    HW227300   5.418   5.361   6.512
 8801SOL     OW27301   6.127   1.875   4.623
 8801SOL    HW127302   6.053   1.815   4.652
 8801SOL    HW227303   6.213   1.825   4.621
 8802SOL     OW27304   1.987   5.941   5.690
 8802SOL    HW127305   2.070   5.997   5.681
 8802SOL    HW227306   2.010   5.845   5.672
 8803SOL     OW27307   0.054   0.203   6.712
 8803SOL    HW127308   0.005   0.255   6.782
 8803SOL    HW227309   0.037   0.105   6.726
 8804SOL     OW27310   2.546   6.063   1.229
 8804SOL    HW127311   2.464   6.030   1.275
 8804SOL    HW227312   2.626   6.014   1.262
 8805SOL     OW27313   3.932   5.536   3.123
 8805SOL    HW127314   3.886   5.616   3.163
 8805SOL    HW227315   4.009   5.510   3.181
 8806SOL     OW27316   2.623   5.120   0.748
 8806SOL    HW127317   2.592   5.029   0.722
 8806SOL    HW227318   2.721   5.119   0.765
 8807SOL     OW27319   4.295   1.666   0.515
 8807SOL    HW127320   4.373   1.724   0.491
 8807SOL    HW227321   4.324   1.570   0.517
 8808SOL     OW27322   6.797   2.423   5.466
 8808SOL    HW127323   6.846   2.419   5.380
 8808SOL    HW227324   6.707   2.380   5.456
 8809SOL     OW27325   2.592   4.555   3.759
 8809SOL    HW127326   2.523   4.518   3.822
 8809SOL    HW227327   2.565   4.534   3.665
 8810SOL     OW27328   5.818   1.085   5.047
 8810SOL    HW127329   5.913   1.110   5.065
 8810SOL    HW227330   5.806   1.072   4.949
 8811SOL     OW27331   2.839   0.587   2.448
 8811SOL    HW127332   2.865   0.499   2.487
 8811SOL    HW227333   2.749   0.614   2.483
 8812SOL     OW27334   2.404   0.607   0.833
 8812SOL    HW127335   2.474   0.552   0.788
 8812SOL    HW227336   2.325   0.549   0.855
 8813SOL     OW27337   1.665   5.169   3.092
 8813SOL    HW127338   1.721   5.218   3.159
 8813SOL    HW227339   1.568   5.179   3.116
 8814SOL     OW27340   6.112   0.048   0.774
 8814SOL    HW127341   6.103   6.999   0.841
 8814SOL    HW227342   6.123   0.008   0.683
 8815SOL     OW27343   5.559   6.748   0.908
 8815SOL    HW127344   5.515   6.659   0.922
 8815SOL    HW227345   5.514   6.796   0.833
 8816SOL     OW27346   1.055   6.811   6.248
 8816SOL    HW127347   0.958   6.810   6.273
 8816SOL    HW227348   1.108   6.767   6.321
 8817SOL     OW27349   0.212   4.118   3.838
 8817SOL    HW127350   0.218   4.161   3.928
 8817SOL    HW227351   0.303   4.109   3.798
 8818SOL     OW27352   1.215   6.048   3.767
 8818SOL    HW127353   1.218   5.948   3.757
 8818SOL    HW227354   1.225   6.091   3.678
 8819SOL     OW27355   6.444   4.308   6.363
 8819SOL    HW127356   6.373   4.276   6.302
 8819SOL    HW227357   6.496   4.229   6.398
 8820SOL     OW27358   3.112   1.425   4.911
 8820SOL    HW127359   3.014   1.431   4.926
 8820SOL    HW227360   3.153   1.515   4.920
 8821SOL     OW27361   1.320   5.772   0.814
 8821SOL    HW127362   1.239   5.725   0.849
 8821SOL    HW227363   1.374   5.807   0.891
 8822SOL     OW27364   0.540   0.440   3.617
 8822SOL    HW127365   0.521   0.479   3.708
 8822SOL    HW227366   0.612   0.372   3.625
 8823SOL     OW27367   1.801   1.625   2.316
 8823SOL    HW127368   1.896   1.616   2.348
 8823SOL    HW227369   1.741   1.644   2.393
 8824SOL     OW27370   1.585   0.797   0.539
 8824SOL    HW127371   1.656   0.856   0.576
 8824SOL    HW227372   1.614   0.761   0.450
 8825SOL     OW27373   1.066   1.602   1.649
 8825SOL    HW127374   1.013   1.555   1.720
 8825SOL    HW227375   1.006   1.622   1.571
 8826SOL     OW27376   1.134   3.390   1.105
 8826SOL    HW127377   1.136   3.461   1.034
 8826SOL    HW227378   1.180   3.424   1.187
 8827SOL     OW27379   3.885   0.212   3.531
 8827SOL    HW127380   3.953   0.150   3.493
 8827SOL    HW227381   3.899   0.304   3.494
 8828SOL     OW27382   3.963   4.927   6.723
 8828SOL    HW127383   4.041   4.913   6.662
 8828SOL    HW227384   3.896   4.986   6.677
 8829SOL     OW27385   5.669   1.780   1.357
 8829SOL    HW127386   5.766   1.770   1.378
 8829SOL    HW227387   5.648   1.877   1.340
 8830SOL     OW27388   1.956   1.270   2.610
 8830SOL    HW127389   2.042   1.314   2.586
 8830SOL    HW227390   1.880   1.319   2.567
 8831SOL     OW27391   6.148   2.446   2.353
 8831SOL    HW127392   6.075   2.377   2.354
 8831SOL    HW227393   6.107   2.537   2.340
 8832SOL     OW27394   6.733   5.939   4.204
 8832SOL    HW127395   6.772   5.932   4.296
 8832SOL    HW227396   6.647   5.990   4.209
 8833SOL     OW27397   4.001   4.093   6.238
 8833SOL    HW127398   3.978   4.161   6.308
 8833SOL    HW227399   3.968   4.003   6.266
 8834SOL     OW27400   5.673   3.901   4.662
 8834SOL    HW127401   5.734   3.968   4.704
 8834SOL    HW227402   5.579   3.933   4.667
 8835SOL     OW27403   5.474   0.916   6.283
 8835SOL    HW127404   5.417   0.834   6.280
 8835SOL    HW227405   5.441   0.982   6.216
 8836SOL     OW27406   4.844   1.883   1.140
 8836SOL    HW127407   4.819   1.787   1.155
 8836SOL    HW227408   4.845   1.902   1.042
 8837SOL     OW27409   0.089   0.236   2.473
 8837SOL    HW127410   0.036   0.304   2.421
 8837SOL    HW227411   0.179   0.273   2.492
 8838SOL     OW27412   1.730   3.911   3.243
 8838SOL    HW127413   1.671   3.959   3.179
 8838SOL    HW227414   1.756   3.972   3.317
 8839SOL     OW27415   3.625   6.366   2.125
 8839SOL    HW127416   3.685   6.377   2.046
 8839SOL    HW227417   3.670   6.311   2.195
 8840SOL     OW27418   6.880   0.475   2.634
 8840SOL    HW127419   6.798   0.421   2.618
 8840SOL    HW227420   6.876   0.559   2.580
 8841SOL     OW27421   6.198   1.509   3.624
 8841SOL    HW127422   6.190   1.586   3.686
 8841SOL    HW227423   6.238   1.540   3.537
 8842SOL     OW27424   3.211   3.479   3.664
 8842SOL    HW127425   3.267   3.556   3.633
 8842SOL    HW227426   3.268   3.416   3.719
 8843SOL     OW27427   1.709   3.575   4.048
 8843SOL    HW127428   1.740   3.644   4.112
 8843SOL    HW227429   1.641   3.516   4.092
 8844SOL     OW27430   6.682   1.268   4.621
 8844SOL    HW127431   6.626   1.242   4.542
 8844SOL    HW227432   6.670   1.365   4.640
 8845SOL     OW27433   2.766   4.157   0.513
 8845SOL    HW127434   2.729   4.243   0.548
 8845SOL    HW227435   2.703   4.118   0.446
 8846SOL     OW27436   3.871   4.887   4.063
 8846SOL    HW127437   3.845   4.948   3.988
 8846SOL    HW227438   3.919   4.808   4.026
 8847SOL     OW27439   2.266   1.437   3.711
 8847SOL    HW127440   2.366   1.435   3.721
 8847SOL    HW227441   2.229   1.510   3.768
 8848SOL     OW27442   2.581   1.907   2.476
 8848SOL    HW127443   2.675   1.936   2.493
 8848SOL    HW227444   2.564   1.820   2.522
 8849SOL     OW27445   3.235   4.986   3.114
 8849SOL    HW127446   3.176   4.963   3.038
 8849SOL    HW227447   3.184   4.981   3.200
 8850SOL     OW27448   2.839   1.132   0.561
 8850SOL    HW127449   2.907   1.100   0.627
 8850SOL    HW227450   2.884   1.155   0.475
 8851SOL     OW27451   1.107   4.912   2.013
 8851SOL    HW127452   1.086   4.818   1.989
 8851SOL    HW227453   1.203   4.932   1.994
 8852SOL     OW27454   4.175   3.508   5.802
 8852SOL    HW127455   4.156   3.412   5.824
 8852SOL    HW227456   4.251   3.541   5.858
 8853SOL     OW27457   3.142   0.164   5.339
 8853SOL    HW127458   3.062   0.203   5.386
 8853SOL    HW227459   3.225   0.196   5.383
 8854SOL     OW27460   2.667   0.948   6.461
 8854SOL    HW127461   2.735   0.924   6.530
 8854SOL    HW227462   2.575   0.936   6.499
 8855SOL     OW27463   6.852   6.062   0.095
 8855SOL    HW127464   6.798   5.981   0.076
 8855SOL    HW227465   6.902   6.089   0.012
 8856SOL     OW27466   5.650   0.733   6.170
 8856SOL    HW127467   5.610   0.811   6.217
 8856SOL    HW227468   5.737   0.709   6.215
 8857SOL     OW27469   6.573   2.004   4.079
 8857SOL    HW127470   6.638   1.965   4.144
 8857SOL    HW227471   6.549   1.935   4.010
 8858SOL     OW27472   1.365   2.316   5.890
 8858SOL    HW127473   1.330   2.388   5.951
 8858SOL    HW227474   1.441   2.353   5.836
 8859SOL     OW27475   0.017   0.382   4.828
 8859SOL    HW127476   0.113   0.380   4.855
 8859SOL    HW227477   0.010   0.384   4.728
 8860SOL     OW27478   1.574   3.512   3.059
 8860SOL    HW127479   1.546   3.510   2.963
 8860SOL    HW227480   1.577   3.418   3.095
 8861SOL     OW27481   3.715   2.034   5.865
 8861SOL    HW127482   3.786   1.991   5.921
 8861SOL    HW227483   3.717   2.133   5.879
 8862SOL     OW27484   6.391   0.845   3.634
 8862SOL    HW127485   6.379   0.822   3.538
 8862SOL    HW227486   6.305   0.826   3.683
 8863SOL     OW27487   1.706   5.738   4.516
 8863SOL    HW127488   1.659   5.804   4.574
 8863SOL    HW227489   1.805   5.750   4.525
 8864SOL     OW27490   1.941   3.058   6.280
 8864SOL    HW127491   2.041   3.062   6.279
 8864SOL    HW227492   1.909   3.027   6.190
 8865SOL     OW27493   3.454   1.827   5.627
 8865SOL    HW127494   3.547   1.790   5.625
 8865SOL    HW227495   3.442   1.892   5.552
 8866SOL     OW27496   5.405   6.630   4.148
 8866SOL    HW127497   5.451   6.659   4.065
 8866SOL    HW227498   5.368   6.709   4.196
 8867SOL     OW27499   5.263   3.641   3.229
 8867SOL    HW127500   5.177   3.624   3.276
 8867SOL    HW227501   5.246   3.687   3.142
 8868SOL     OW27502   6.436   3.381   0.529
 8868SOL    HW127503   6.513   3.323   0.555
 8868SOL    HW227504   6.359   3.364   0.591
 8869SOL     OW27505   4.481   5.789   3.838
 8869SOL    HW127506   4.403   5.728   3.850
 8869SOL    HW227507   4.561   5.750   3.884
 8870SOL     OW27508   4.177   0.234   0.487
 8870SOL    HW127509   4.165   0.333   0.474
 8870SOL    HW227510   4.272   0.216   0.514
 8871SOL     OW27511   1.669   1.011   3.916
 8871SOL    HW127512   1.601   0.970   3.855
 8871SOL    HW227513   1.626   1.033   4.003
 8872SOL     OW27514   1.444   4.268   4.913
 8872SOL    HW127515   1.458   4.316   4.826
 8872SOL    HW227516   1.518   4.291   4.976
 8873SOL     OW27517   0.014   5.023   1.957
 8873SOL    HW127518   6.949   5.037   1.999
 8873SOL    HW227519   0.059   4.945   2.001
 8874SOL     OW27520   2.847   6.405   1.399
 8874SOL    HW127521   2.924   6.441   1.450
 8874SOL    HW227522   2.833   6.309   1.423
 8875SOL     OW27523   6.989   3.153   4.802
 8875SOL    HW127524   6.916   3.102   4.756
 8875SOL    HW227525   7.007   3.237   4.752
 8876SOL     OW27526   1.842   0.111   4.344
 8876SOL    HW127527   1.839   0.203   4.304
 8876SOL    HW227528   1.749   0.083   4.368
 8877SOL     OW27529   2.427   1.510   4.136
 8877SOL    HW127530   2.408   1.423   4.091
 8877SOL    HW227531   2.388   1.510   4.228
 8878SOL     OW27532   0.164   5.665   0.823
 8878SOL    HW127533   0.206   5.746   0.863
 8878SOL    HW227534   0.077   5.690   0.781
 8879SOL     OW27535   5.194   4.977   1.247
 8879SOL    HW127536   5.281   4.951   1.204
 8879SOL    HW227537   5.133   4.897   1.248
 8880SOL     OW27538   6.204   5.607   4.366
 8880SOL    HW127539   6.204   5.688   4.307
 8880SOL    HW227540   6.109   5.576   4.380
 8881SOL     OW27541   6.405   6.792   4.904
 8881SOL    HW127542   6.496   6.763   4.933
 8881SOL    HW227543   6.337   6.724   4.933
 8882SOL     OW27544   5.414   1.351   0.621
 8882SOL    HW127545   5.453   1.413   0.689
 8882SOL    HW227546   5.316   1.369   0.611
 8883SOL     OW27547   1.663   0.363   5.289
 8883SOL    HW127548   1.708   0.426   5.226
 8883SOL    HW227549   1.592   0.312   5.240
 8884SOL     OW27550   6.205   4.831   6.181
 8884SOL    HW127551   6.290   4.820   6.129
 8884SOL    HW227552   6.177   4.927   6.177
 8885SOL     OW27553   0.375   3.171   0.601
 8885SOL    HW127554   0.373   3.118   0.516
 8885SOL    HW227555   0.452   3.235   0.598
 8886SOL     OW27556   3.890   6.562   5.573
 8886SOL    HW127557   3.960   6.513   5.521
 8886SOL    HW227558   3.931   6.599   5.657
 8887SOL     OW27559   2.874   1.487   1.566
 8887SOL    HW127560   2.951   1.518   1.510
 8887SOL    HW227561   2.901   1.489   1.663
 8888SOL     OW27562   1.505   1.777   0.872
 8888SOL    HW127563   1.493   1.694   0.817
 8888SOL    HW227564   1.536   1.752   0.964
 8889SOL     OW27565   5.564   7.001   5.314
 8889SOL    HW127566   5.600   6.976   5.224
 8889SOL    HW227567   5.599   0.067   5.340
 8890SOL     OW27568   5.812   5.173   3.820
 8890SOL    HW127569   5.907   5.146   3.804
 8890SOL    HW227570   5.768   5.104   3.877
 8891SOL     OW27571   5.503   3.512   5.322
 8891SOL    HW127572   5.601   3.511   5.343
 8891SOL    HW227573   5.451   3.507   5.407
 8892SOL     OW27574   3.757   5.597   2.662
 8892SOL    HW127575   3.714   5.549   2.739
 8892SOL    HW227576   3.849   5.626   2.689
 8893SOL     OW27577   0.659   0.074   2.650
 8893SOL    HW127578   0.610   7.021   2.611
 8893SOL    HW227579   0.594   0.143   2.679
 8894SOL     OW27580   4.333   2.064   5.584
 8894SOL    HW127581   4.412   2.042   5.527
 8894SOL    HW227582   4.348   2.152   5.629
 8895SOL     OW27583   6.521   1.800   1.407
 8895SOL    HW127584   6.455   1.760   1.344
 8895SOL    HW227585   6.576   1.868   1.359
 8896SOL     OW27586   1.963   2.665   5.266
 8896SOL    HW127587   1.987   2.622   5.352
 8896SOL    HW227588   1.872   2.706   5.273
 8897SOL     OW27589   2.020   2.711   3.486
 8897SOL    HW127590   1.999   2.715   3.388
 8897SOL    HW227591   1.971   2.784   3.534
 8898SOL     OW27592   5.632   3.723   4.403
 8898SOL    HW127593   5.680   3.736   4.489
 8898SOL    HW227594   5.582   3.806   4.378
 8899SOL     OW27595   2.193   4.881   7.004
 8899SOL    HW127596   2.146   4.963   6.968
 8899SOL    HW227597   2.228   4.900   0.071
 8900SOL     OW27598   5.478   2.864   2.406
 8900SOL    HW127599   5.389   2.821   2.395
 8900SOL    HW227600   5.540   2.801   2.453
 8901SOL     OW27601   2.331   1.513   4.372
 8901SOL    HW127602   2.343   1.443   4.443
 8901SOL    HW227603   2.269   1.584   4.406
 8902SOL     OW27604   3.394   6.747   6.963
 8902SOL    HW127605   3.302   6.756   7.003
 8902SOL    HW227606   3.451   6.693   0.000
 8903SOL     OW27607   0.603   1.409   4.983
 8903SOL    HW127608   0.673   1.423   5.053
 8903SOL    HW227609   0.638   1.345   4.914
 8904SOL     OW27610   5.785   5.412   3.930
 8904SOL    HW127611   5.784   5.314   3.909
 8904SOL    HW227612   5.830   5.427   4.018
 8905SOL     OW27613   2.179   3.748   4.442
 8905SOL    HW127614   2.178   3.845   4.417
 8905SOL    HW227615   2.123   3.734   4.523
 8906SOL     OW27616   6.819   6.841   6.973
 8906SOL    HW127617   6.842   6.746   6.996
 8906SOL    HW227618   6.871   6.903   0.007
 8907SOL     OW27619   3.314   1.839   4.558
 8907SOL    HW127620   3.408   1.842   4.592
 8907SOL    HW227621   3.268   1.926   4.578
 8908SOL     OW27622   1.293   3.395   6.582
 8908SOL    HW127623   1.362   3.416   6.651
 8908SOL    HW227624   1.283   3.296   6.574
 8909SOL     OW27625   1.804   0.815   5.486
 8909SOL    HW127626   1.710   0.846   5.476
 8909SOL    HW227627   1.844   0.857   5.567
 8910SOL     OW27628   1.180   3.155   6.184
 8910SOL    HW127629   1.180   3.214   6.103
 8910SOL    HW227630   1.212   3.064   6.159
 8911SOL     OW27631   4.349   2.351   4.770
 8911SOL    HW127632   4.315   2.374   4.861
 8911SOL    HW227633   4.278   2.372   4.702
 8912SOL     OW27634   4.202   2.166   0.885
 8912SOL    HW127635   4.293   2.176   0.926
 8912SOL    HW227636   4.138   2.132   0.954
 8913SOL     OW27637   4.921   5.177   0.195
 8913SOL    HW127638   4.845   5.123   0.159
 8913SOL    HW227639   4.930   5.261   0.140
 8914SOL     OW27640   4.040   0.975   5.249
 8914SOL    HW127641   4.059   1.045   5.180
 8914SOL    HW227642   4.124   0.926   5.271
 8915SOL     OW27643   0.840   2.324   3.591
 8915SOL    HW127644   0.893   2.245   3.621
 8915SOL    HW227645   0.786   2.359   3.668
 8916SOL     OW27646   0.372   3.453   0.836
 8916SOL    HW127647   0.398   3.358   0.854
 8916SOL    HW227648   0.377   3.471   0.738
 8917SOL     OW27649   6.145   4.361   6.207
 8917SOL    HW127650   6.194   4.275   6.217
 8917SOL    HW227651   6.072   4.367   6.274
 8918SOL     OW27652   6.833   3.974   1.359
 8918SOL    HW127653   6.811   3.970   1.457
 8918SOL    HW227654   6.832   4.069   1.328
 8919SOL     OW27655   4.195   3.743   1.105
 8919SOL    HW127656   4.195   3.649   1.140
 8919SOL    HW227657   4.282   3.786   1.126
 8920SOL     OW27658   0.825   6.476   6.211
 8920SOL    HW127659   0.904   6.498   6.269
 8920SOL    HW227660   0.801   6.556   6.156
 8921SOL     OW27661   2.534   2.196   2.811
 8921SOL    HW127662   2.618   2.250   2.807
 8921SOL    HW227663   2.549   2.113   2.865
 8922SOL     OW27664   3.397   5.183   1.575
 8922SOL    HW127665   3.317   5.199   1.518
 8922SOL    HW227666   3.441   5.097   1.547
 8923SOL     OW27667   1.291   3.566   5.799
 8923SOL    HW127668   1.306   3.662   5.776
 8923SOL    HW227669   1.204   3.556   5.846
 8924SOL     OW27670   3.270   5.668   5.518
 8924SOL    HW127671   3.234   5.745   5.572
 8924SOL    HW227672   3.251   5.582   5.566
 8925SOL     OW27673   0.893   0.980   2.966
 8925SOL    HW127674   0.871   1.075   2.988
 8925SOL    HW227675   0.876   0.922   3.046
 8926SOL     OW27676   5.602   4.137   6.407
 8926SOL    HW127677   5.691   4.093   6.418
 8926SOL    HW227678   5.551   4.131   6.493
 8927SOL     OW27679   1.172   1.514   4.283
 8927SOL    HW127680   1.227   1.566   4.217
 8927SOL    HW227681   1.090   1.567   4.307
 8928SOL     OW27682   6.477   0.801   5.615
 8928SOL    HW127683   6.492   0.799   5.516
 8928SOL    HW227684   6.380   0.782   5.634
 8929SOL     OW27685   6.694   3.437   4.053
 8929SOL    HW127686   6.693   3.358   3.992
 8929SOL    HW227687   6.787   3.474   4.058
 8930SOL     OW27688   1.996   4.129   4.167
 8930SOL    HW127689   1.957   4.104   4.256
 8930SOL    HW227690   2.085   4.085   4.156
 8931SOL     OW27691   3.171   2.923   1.360
 8931SOL    HW127692   3.229   2.946   1.438
 8931SOL    HW227693   3.167   2.824   1.349
 8932SOL     OW27694   5.433   0.674   0.494
 8932SOL    HW127695   5.399   0.738   0.425
 8932SOL    HW227696   5.522   0.639   0.466
 8933SOL     OW27697   1.085   2.155   6.371
 8933SOL    HW127698   1.023   2.132   6.446
 8933SOL    HW227699   1.033   2.191   6.294
 8934SOL     OW27700   3.225   5.168   4.051
 8934SOL    HW127701   3.220   5.249   3.993
 8934SOL    HW227702   3.139   5.157   4.100
 8935SOL     OW27703   5.727   3.993   1.628
 8935SOL    HW127704   5.787   3.914   1.644
 8935SOL    HW227705   5.639   3.978   1.671
 8936SOL     OW27706   1.257   3.547   1.269
 8936SOL    HW127707   1.340   3.597   1.244
 8936SOL    HW227708   1.178   3.589   1.224
 8937SOL     OW27709   0.237   0.804   4.591
 8937SOL    HW127710   0.274   0.776   4.679
 8937SOL    HW227711   0.149   0.759   4.576
 8938SOL     OW27712   6.979   0.925   0.110
 8938SOL    HW127713   7.018   1.003   0.063
 8938SOL    HW227714   6.893   0.952   0.154
 8939SOL     OW27715   6.288   3.602   4.326
 8939SOL    HW127716   6.337   3.527   4.281
 8939SOL    HW227717   6.303   3.687   4.274
 8940SOL     OW27718   5.941   2.006   1.220
 8940SOL    HW127719   5.924   2.035   1.315
 8940SOL    HW227720   6.034   1.971   1.212
 8941SOL     OW27721   6.511   2.634   2.300
 8941SOL    HW127722   6.550   2.554   2.255
 8941SOL    HW227723   6.438   2.672   2.244
 8942SOL     OW27724   0.648   6.363   4.204
 8942SOL    HW127725   0.677   6.276   4.244
 8942SOL    HW227726   0.695   6.377   4.117
 8943SOL     OW27727   3.788   5.339   0.352
 8943SOL    HW127728   3.835   5.424   0.329
 8943SOL    HW227729   3.716   5.321   0.285
 8944SOL     OW27730   5.066   5.684   4.498
 8944SOL    HW127731   5.016   5.713   4.416
 8944SOL    HW227732   5.001   5.651   4.566
 8945SOL     OW27733   0.067   2.168   4.376
 8945SOL    HW127734   0.077   2.266   4.393
 8945SOL    HW227735   0.037   2.153   4.282
 8946SOL     OW27736   4.017   0.775   3.861
 8946SOL    HW127737   3.949   0.724   3.807
 8946SOL    HW227738   3.971   0.820   3.937
 8947SOL     OW27739   1.737   3.103   5.585
 8947SOL    HW127740   1.787   3.031   5.536
 8947SOL    HW227741   1.690   3.161   5.519
 8948SOL     OW27742   5.906   5.881   3.359
 8948SOL    HW127743   6.003   5.871   3.383
 8948SOL    HW227744   5.875   5.797   3.314
 8949SOL     OW27745   3.854   5.675   0.533
 8949SOL    HW127746   3.845   5.764   0.578
 8949SOL    HW227747   3.901   5.611   0.593
 8950SOL     OW27748   4.250   2.996   1.142
 8950SOL    HW127749   4.220   3.024   1.233
 8950SOL    HW227750   4.170   2.972   1.087
 8951SOL     OW27751   2.284   0.955   4.929
 8951SOL    HW127752   2.186   0.956   4.906
 8951SOL    HW227753   2.297   0.909   5.017
 8952SOL     OW27754   0.252   5.068   3.356
 8952SOL    HW127755   0.285   5.020   3.438
 8952SOL    HW227756   0.154   5.053   3.345
 8953SOL     OW27757   1.187   4.588   0.854
 8953SOL    HW127758   1.257   4.585   0.783
 8953SOL    HW227759   1.227   4.557   0.941
 8954SOL     OW27760   0.203   0.090   4.005
 8954SOL    HW127761   0.203   0.026   3.928
 8954SOL    HW227762   0.226   0.182   3.972
 8955SOL     OW27763   0.117   4.097   3.224
 8955SOL    HW127764   0.142   4.125   3.131
 8955SOL    HW227765   0.037   4.038   3.221
 8956SOL     OW27766   1.568   0.487   6.015
 8956SOL    HW127767   1.496   0.426   5.983
 8956SOL    HW227768   1.570   0.487   6.115
 8957SOL     OW27769   2.377   4.753   1.259
 8957SOL    HW127770   2.435   4.698   1.199
 8957SOL    HW227771   2.434   4.817   1.311
 8958SOL     OW27772   0.973   2.036   5.898
 8958SOL    HW127773   0.986   2.022   5.800
 8958SOL    HW227774   1.027   2.114   5.928
 8959SOL     OW27775   1.730   3.852   2.903
 8959SOL    HW127776   1.773   3.896   2.824
 8959SOL    HW227777   1.761   3.896   2.987
 8960SOL     OW27778   5.677   5.032   4.222
 8960SOL    HW127779   5.756   5.044   4.282
 8960SOL    HW227780   5.701   4.968   4.149
 8961SOL     OW27781   3.939   1.524   3.705
 8961SOL    HW127782   3.938   1.427   3.679
 8961SOL    HW227783   3.883   1.576   3.641
 8962SOL     OW27784   6.637   5.410   1.486
 8962SOL    HW127785   6.691   5.489   1.457
 8962SOL    HW227786   6.643   5.401   1.586
 8963SOL     OW27787   3.800   6.777   5.302
 8963SOL    HW127788   3.825   6.741   5.212
 8963SOL    HW227789   3.883   6.802   5.352
 8964SOL     OW27790   6.060   3.096   2.666
 8964SOL    HW127791   5.992   3.057   2.729
 8964SOL    HW227792   6.145   3.114   2.716
 8965SOL     OW27793   3.190   4.894   6.894
 8965SOL    HW127794   3.214   4.991   6.899
 8965SOL    HW227795   3.274   4.840   6.899
 8966SOL     OW27796   6.686   4.482   0.233
 8966SOL    HW127797   6.655   4.568   0.193
 8966SOL    HW227798   6.673   4.408   0.166
 8967SOL     OW27799   4.267   1.496   2.858
 8967SOL    HW127800   4.193   1.435   2.887
 8967SOL    HW227801   4.233   1.590   2.856
 8968SOL     OW27802   3.528   5.879   2.437
 8968SOL    HW127803   3.529   5.787   2.475
 8968SOL    HW227804   3.520   5.873   2.337
 8969SOL     OW27805   0.096   0.132   3.500
 8969SOL    HW127806   0.151   0.204   3.541
 8969SOL    HW227807   0.084   0.150   3.403
 8970SOL     OW27808   1.386   2.229   6.791
 8970SOL    HW127809   1.291   2.229   6.824
 8970SOL    HW227810   1.447   2.261   6.863
 8971SOL     OW27811   5.505   6.614   1.441
 8971SOL    HW127812   5.437   6.681   1.409
 8971SOL    HW227813   5.566   6.590   1.366
 8972SOL     OW27814   5.213   3.928   0.631
 8972SOL    HW127815   5.285   3.981   0.585
 8972SOL    HW227816   5.207   3.957   0.726
 8973SOL     OW27817   0.142   2.859   2.384
 8973SOL    HW127818   0.149   2.862   2.284
 8973SOL    HW227819   0.051   2.825   2.410
 8974SOL     OW27820   1.801   3.292   4.078
 8974SOL    HW127821   1.827   3.292   3.982
 8974SOL    HW227822   1.719   3.235   4.090
 8975SOL     OW27823   0.694   5.649   6.773
 8975SOL    HW127824   0.655   5.737   6.745
 8975SOL    HW227825   0.702   5.646   6.873
 8976SOL     OW27826   0.237   5.521   0.553
 8976SOL    HW127827   0.298   5.599   0.543
 8976SOL    HW227828   0.288   5.436   0.542
 8977SOL     OW27829   6.568   3.921   6.768
 8977SOL    HW127830   6.507   4.000   6.763
 8977SOL    HW227831   6.644   3.933   6.704
 8978SOL     OW27832   5.792   0.105   4.693
 8978SOL    HW127833   5.707   0.061   4.664
 8978SOL    HW227834   5.782   0.138   4.787
 8979SOL     OW27835   1.496   5.203   5.876
 8979SOL    HW127836   1.504   5.195   5.777
 8979SOL    HW227837   1.562   5.140   5.919
 8980SOL     OW27838   5.382   2.341   5.914
 8980SOL    HW127839   5.369   2.432   5.874
 8980SOL    HW227840   5.293   2.296   5.922
 8981SOL     OW27841   4.921   1.792   5.199
 8981SOL    HW127842   4.851   1.859   5.224
 8981SOL    HW227843   4.897   1.702   5.236
 8982SOL     OW27844   0.466   1.757   1.050
 8982SOL    HW127845   0.438   1.846   1.087
 8982SOL    HW227846   0.504   1.701   1.123
 8983SOL     OW27847   0.635   5.377   0.706
 8983SOL    HW127848   0.695   5.423   0.640
 8983SOL    HW227849   0.603   5.444   0.773
 8984SOL     OW27850   6.651   6.668   4.285
 8984SOL    HW127851   6.631   6.571   4.299
 8984SOL    HW227852   6.571   6.713   4.245
 8985SOL     OW27853   2.740   1.936   1.706
 8985SOL    HW127854   2.659   1.888   1.740
 8985SOL    HW227855   2.744   2.028   1.745
 8986SOL     OW27856   4.726   5.043   2.714
 8986SOL    HW127857   4.771   5.052   2.625
 8986SOL    HW227858   4.782   4.986   2.775
 8987SOL     OW27859   2.888   6.958   1.229
 8987SOL    HW127860   2.957   7.018   1.270
 8987SOL    HW227861   2.814   6.943   1.293
 8988SOL     OW27862   2.141   4.988   0.541
 8988SOL    HW127863   2.219   5.036   0.503
 8988SOL    HW227864   2.060   5.046   0.536
 8989SOL     OW27865   4.916   3.445   2.643
 8989SOL    HW127866   4.925   3.497   2.558
 8989SOL    HW227867   4.846   3.374   2.632
 8990SOL     OW27868   2.583   5.730   1.457
 8990SOL    HW127869   2.541   5.716   1.368
 8990SOL    HW227870   2.514   5.765   1.521
 8991SOL     OW27871   2.562   1.119   1.612
 8991SOL    HW127872   2.608   1.031   1.598
 8991SOL    HW227873   2.624   1.194   1.588
 8992SOL     OW27874   0.066   2.754   6.961
 8992SOL    HW127875   0.064   2.767   0.036
 8992SOL    HW227876   0.078   2.842   6.916
 8993SOL     OW27877   4.498   2.552   2.911
 8993SOL    HW127878   4.597   2.567   2.916
 8993SOL    HW227879   4.464   2.582   2.822
 8994SOL     OW27880   1.162   5.762   3.727
 8994SOL    HW127881   1.195   5.672   3.754
 8994SOL    HW227882   1.103   5.799   3.799
 8995SOL     OW27883   1.451   2.023   6.030
 8995SOL    HW127884   1.369   2.044   6.083
 8995SOL    HW227885   1.471   2.099   5.968
 8996SOL     OW27886   0.502   4.288   1.771
 8996SOL    HW127887   0.429   4.355   1.763
 8996SOL    HW227888   0.474   4.203   1.725
 8997SOL     OW27889   4.732   1.162   6.711
 8997SOL    HW127890   4.741   1.190   6.807
 8997SOL    HW227891   4.637   1.138   6.692
 8998SOL     OW27892   0.604   1.544   4.615
 8998SOL    HW127893   0.514   1.585   4.603
 8998SOL    HW227894   0.608   1.455   4.569
 8999SOL     OW27895   4.395   0.638   7.014
 8999SOL    HW127896   4.348   0.561   6.970
 8999SOL    HW227897   4.356   0.723   6.980
 9000SOL     OW27898   2.466   3.928   6.728
 9000SOL    HW127899   2.426   3.978   6.805
 9000SOL    HW227900   2.559   3.900   6.752
 9001SOL     OW27901   1.651   5.506   2.814
 9001SOL    HW127902   1.610   5.416   2.798
 9001SOL    HW227903   1.617   5.544   2.899
 9002SOL     OW27904   0.572   5.068   5.359
 9002SOL    HW127905   0.628   5.120   5.424
 9002SOL    HW227906   0.600   5.091   5.266
 9003SOL     OW27907   5.819   3.109   1.356
 9003SOL    HW127908   5.831   3.201   1.319
 9003SOL    HW227909   5.742   3.108   1.420
 9004SOL     OW27910   4.458   6.706   1.575
 9004SOL    HW127911   4.462   6.608   1.597
 9004SOL    HW227912   4.544   6.749   1.601
 9005SOL     OW27913   6.138   1.816   4.148
 9005SOL    HW127914   6.101   1.873   4.221
 9005SOL    HW227915   6.207   1.754   4.184
 9006SOL     OW27916   1.497   6.202   0.974
 9006SOL    HW127917   1.445   6.148   0.908
 9006SOL    HW227918   1.501   6.297   0.943
 9007SOL     OW27919   3.618   5.529   3.511
 9007SOL    HW127920   3.539   5.522   3.571
 9007SOL    HW227921   3.622   5.621   3.471
 9008SOL     OW27922   6.796   5.376   2.986
 9008SOL    HW127923   6.707   5.407   2.953
 9008SOL    HW227924   6.812   5.414   3.078
 9009SOL     OW27925   2.975   6.274   0.673
 9009SOL    HW127926   2.898   6.251   0.613
 9009SOL    HW227927   3.002   6.193   0.724
 9010SOL     OW27928   0.985   6.879   4.673
 9010SOL    HW127929   1.068   6.902   4.724
 9010SOL    HW227930   1.011   6.846   4.582
 9011SOL     OW27931   4.030   1.903   1.483
 9011SOL    HW127932   3.967   1.974   1.516
 9011SOL    HW227933   3.981   1.841   1.423
 9012SOL     OW27934   2.931   5.235   1.163
 9012SOL    HW127935   2.898   5.289   1.085
 9012SOL    HW227936   3.029   5.251   1.175
 9013SOL     OW27937   5.994   5.874   4.732
 9013SOL    HW127938   6.043   5.853   4.817
 9013SOL    HW227939   6.057   5.875   4.655
 9014SOL     OW27940   0.901   1.567   0.716
 9014SOL    HW127941   0.971   1.610   0.773
 9014SOL    HW227942   0.919   1.469   0.709
 9015SOL     OW27943   6.054   0.683   0.595
 9015SOL    HW127944   6.095   0.652   0.681
 9015SOL    HW227945   5.967   0.636   0.581
 9016SOL     OW27946   6.498   6.217   6.307
 9016SOL    HW127947   6.502   6.118   6.325
 9016SOL    HW227948   6.490   6.233   6.209
 9017SOL     OW27949   5.490   2.453   2.985
 9017SOL    HW127950   5.490   2.353   2.980
 9017SOL    HW227951   5.584   2.486   2.993
 9018SOL     OW27952   4.470   1.668   5.553
 9018SOL    HW127953   4.388   1.620   5.582
 9018SOL    HW227954   4.521   1.699   5.634
 9019SOL     OW27955   0.819   6.609   0.820
 9019SOL    HW127956   0.841   6.627   0.917
 9019SOL    HW227957   0.827   6.695   0.769
 9020SOL     OW27958   1.811   3.305   1.981
 9020SOL    HW127959   1.737   3.249   1.943
 9020SOL    HW227960   1.854   3.358   1.907
 9021SOL     OW27961   6.547   0.063   3.814
 9021SOL    HW127962   6.582   0.029   3.727
 9021SOL    HW227963   6.447   0.064   3.812
 9022SOL     OW27964   2.720   0.900   1.558
 9022SOL    HW127965   2.685   0.815   1.520
 9022SOL    HW227966   2.819   0.899   1.557
 9023SOL     OW27967   4.101   3.191   2.994
 9023SOL    HW127968   4.064   3.279   3.023
 9023SOL    HW227969   4.102   3.186   2.894
 9024SOL     OW27970   1.634   5.720   6.180
 9024SOL    HW127971   1.581   5.670   6.248
 9024SOL    HW227972   1.684   5.655   6.122
 9025SOL     OW27973   6.365   5.860   0.904
 9025SOL    HW127974   6.350   5.882   0.808
 9025SOL    HW227975   6.404   5.768   0.912
 9026SOL     OW27976   3.883   3.340   3.334
 9026SOL    HW127977   3.918   3.407   3.399
 9026SOL    HW227978   3.910   3.366   3.241
 9027SOL     OW27979   3.136   1.786   3.976
 9027SOL    HW127980   3.188   1.785   4.062
 9027SOL    HW227981   3.046   1.827   3.993
 9028SOL     OW27982   2.692   4.213   6.084
 9028SOL    HW127983   2.672   4.309   6.105
 9028SOL    HW227984   2.700   4.201   5.985
 9029SOL     OW27985   3.618   5.533   5.206
 9029SOL    HW127986   3.606   5.620   5.158
 9029SOL    HW227987   3.622   5.458   5.139
 9030SOL     OW27988   1.930   1.167   3.038
 9030SOL    HW127989   1.917   1.125   2.948
 9030SOL    HW227990   1.931   1.267   3.029
 9031SOL     OW27991   4.407   5.255   5.913
 9031SOL    HW127992   4.422   5.322   5.985
 9031SOL    HW227993   4.369   5.300   5.832
 9032SOL     OW27994   4.102   2.480   0.861
 9032SOL    HW127995   4.008   2.448   0.849
 9032SOL    HW227996   4.108   2.535   0.943
 9033SOL     OW27997   1.862   3.467   3.831
 9033SOL    HW127998   1.813   3.401   3.774
 9033SOL    HW227999   1.802   3.498   3.904
 9034SOL     OW28000   2.565   6.462   4.971
 9034SOL    HW128001   2.525   6.548   4.999
 9034SOL    HW228002   2.581   6.463   4.872
 9035SOL     OW28003   0.574   6.768   5.124
 9035SOL    HW128004   0.580   6.861   5.162
 9035SOL    HW228005   0.494   6.761   5.065
 9036SOL     OW28006   1.289   1.774   4.500
 9036SOL    HW128007   1.315   1.827   4.580
 9036SOL    HW228008   1.231   1.697   4.527
 9037SOL     OW28009   1.409   4.146   6.666
 9037SOL    HW128010   1.381   4.064   6.616
 9037SOL    HW228011   1.344   4.220   6.649
 9038SOL     OW28012   4.840   0.420   5.338
 9038SOL    HW128013   4.811   0.332   5.377
 9038SOL    HW228014   4.759   0.474   5.316
 9039SOL     OW28015   1.518   4.471   4.434
 9039SOL    HW128016   1.472   4.528   4.366
 9039SOL    HW228017   1.610   4.449   4.402
 9040SOL     OW28018   2.796   1.594   3.220
 9040SOL    HW128019   2.788   1.511   3.276
 9040SOL    HW228020   2.893   1.619   3.212
 9041SOL     OW28021   0.877   1.680   2.041
 9041SOL    HW128022   0.829   1.758   2.081
 9041SOL    HW228023   0.974   1.703   2.029
 9042SOL     OW28024   3.119   5.619   3.963
 9042SOL    HW128025   3.120   5.697   4.026
 9042SOL    HW228026   3.030   5.612   3.919
 9043SOL     OW28027   2.044   1.067   5.459
 9043SOL    HW128028   2.059   1.024   5.370
 9043SOL    HW228029   2.096   1.153   5.463
 9044SOL     OW28030   6.295   1.624   1.319
 9044SOL    HW128031   6.345   1.557   1.265
 9044SOL    HW228032   6.311   1.607   1.416
 9045SOL     OW28033   3.366   1.744   2.134
 9045SOL    HW128034   3.354   1.832   2.088
 9045SOL    HW228035   3.383   1.759   2.231
 9046SOL     OW28036   3.266   3.813   4.228
 9046SOL    HW128037   3.174   3.777   4.246
 9046SOL    HW228038   3.333   3.763   4.283
 9047SOL     OW28039   1.436   3.449   5.588
 9047SOL    HW128040   1.524   3.497   5.591
 9047SOL    HW228041   1.385   3.468   5.672
 9048SOL     OW28042   6.058   3.266   6.487
 9048SOL    HW128043   6.055   3.169   6.462
 9048SOL    HW228044   6.139   3.309   6.447
 9049SOL     OW28045   4.618   6.565   6.541
 9049SOL    HW128046   4.630   6.605   6.632
 9049SOL    HW228047   4.621   6.466   6.548
 9050SOL     OW28048   0.851   5.354   5.877
 9050SOL    HW128049   0.927   5.289   5.871
 9050SOL    HW228050   0.852   5.413   5.796
 9051SOL     OW28051   4.674   6.164   1.303
 9051SOL    HW128052   4.628   6.156   1.392
 9051SOL    HW228053   4.682   6.260   1.278
 9052SOL     OW28054   2.149   3.710   4.160
 9052SOL    HW128055   2.066   3.658   4.140
 9052SOL    HW228056   2.145   3.744   4.254
 9053SOL     OW28057   2.352   1.861   3.238
 9053SOL    HW128058   2.270   1.898   3.194
 9053SOL    HW228059   2.395   1.933   3.292
 9054SOL     OW28060   1.547   0.505   2.000
 9054SOL    HW128061   1.451   0.488   2.024
 9054SOL    HW228062   1.605   0.481   2.078
 9055SOL     OW28063   0.414   3.742   3.451
 9055SOL    HW128064   0.392   3.703   3.361
 9055SOL    HW228065   0.421   3.668   3.518
 9056SOL     OW28066   5.273   0.277   2.344
 9056SOL    HW128067   5.285   0.343   2.270
 9056SOL    HW228068   5.208   0.207   2.317
 9057SOL     OW28069   5.936   5.323   5.845
 9057SOL    HW128070   6.017   5.365   5.803
 9057SOL    HW228071   5.930   5.227   5.816
 9058SOL     OW28072   2.545   1.324   3.776
 9058SOL    HW128073   2.595   1.237   3.769
 9058SOL    HW228074   2.493   1.325   3.861
 9059SOL     OW28075   6.903   1.107   4.148
 9059SOL    HW128076   6.856   1.043   4.208
 9059SOL    HW228077   6.993   1.130   4.188
 9060SOL     OW28078   0.134   4.210   2.069
 9060SOL    HW128079   0.098   4.293   2.027
 9060SOL    HW228080   0.059   4.152   2.100
 9061SOL     OW28081   4.372   5.803   2.528
 9061SOL    HW128082   4.305   5.816   2.602
 9061SOL    HW228083   4.437   5.731   2.555
 9062SOL     OW28084   1.516   4.768   2.436
 9062SOL    HW128085   1.453   4.810   2.371
 9062SOL    HW228086   1.607   4.808   2.424
 9063SOL     OW28087   2.293   0.615   2.576
 9063SOL    HW128088   2.254   0.674   2.646
 9063SOL    HW228089   2.334   0.671   2.504
 9064SOL     OW28090   6.308   4.395   4.454
 9064SOL    HW128091   6.378   4.325   4.470
 9064SOL    HW228092   6.316   4.428   4.360
 9065SOL     OW28093   3.400   5.413   6.556
 9065SOL    HW128094   3.367   5.455   6.640
 9065SOL    HW228095   3.462   5.475   6.509
 9066SOL     OW28096   5.469   0.382   6.995
 9066SOL    HW128097   5.448   0.338   6.908
 9066SOL    HW228098   5.479   0.312   0.041
 9067SOL     OW28099   6.069   6.681   5.588
 9067SOL    HW128100   5.985   6.682   5.535
 9067SOL    HW228101   6.124   6.761   5.566
 9068SOL     OW28102   3.373   0.732   5.013
 9068SOL    HW128103   3.325   0.721   5.100
 9068SOL    HW228104   3.318   0.788   4.951
 9069SOL     OW28105   3.428   2.033   1.975
 9069SOL    HW128106   3.489   2.111   1.956
 9069SOL    HW228107   3.483   1.950   1.984
 9070SOL     OW28108   0.559   2.976   5.956
 9070SOL    HW128109   0.541   2.904   6.023
 9070SOL    HW228110   0.514   2.952   5.870
 9071SOL     OW28111   5.158   6.579   0.820
 9071SOL    HW128112   5.077   6.521   0.821
 9071SOL    HW228113   5.206   6.568   0.732
 9072SOL     OW28114   5.137   0.467   1.751
 9072SOL    HW128115   5.102   0.513   1.832
 9072SOL    HW228116   5.168   0.375   1.776
 9073SOL     OW28117   3.701   6.579   1.147
 9073SOL    HW128118   3.690   6.549   1.053
 9073SOL    HW228119   3.712   6.679   1.149
 9074SOL     OW28120   1.420   0.903   0.812
 9074SOL    HW128121   1.437   0.949   0.899
 9074SOL    HW228122   1.497   0.844   0.790
 9075SOL     OW28123   0.495   0.045   1.434
 9075SOL    HW128124   0.470   6.978   1.403
 9075SOL    HW228125   0.551   0.090   1.364
 9076SOL     OW28126   5.438   1.438   4.923
 9076SOL    HW128127   5.449   1.518   4.864
 9076SOL    HW228128   5.410   1.360   4.868
 9077SOL     OW28129   4.991   1.122   6.954
 9077SOL    HW128130   4.923   1.050   6.966
 9077SOL    HW228131   5.007   1.168   0.017
 9078SOL     OW28132   4.997   3.370   0.418
 9078SOL    HW128133   4.959   3.397   0.506
 9078SOL    HW228134   5.050   3.446   0.380
 9079SOL     OW28135   1.736   6.344   3.859
 9079SOL    HW128136   1.819   6.400   3.868
 9079SOL    HW228137   1.758   6.260   3.810
 9080SOL     OW28138   5.881   2.664   6.601
 9080SOL    HW128139   5.970   2.708   6.607
 9080SOL    HW228140   5.813   2.730   6.572
 9081SOL     OW28141   3.039   0.030   2.318
 9081SOL    HW128142   3.101   0.052   2.394
 9081SOL    HW228143   2.994   0.113   2.287
 9082SOL     OW28144   2.508   5.953   5.916
 9082SOL    HW128145   2.576   5.995   5.977
 9082SOL    HW228146   2.505   5.855   5.933
 9083SOL     OW28147   3.829   4.138   5.355
 9083SOL    HW128148   3.821   4.113   5.259
 9083SOL    HW228149   3.871   4.063   5.406
 9084SOL     OW28150   1.901   2.698   6.114
 9084SOL    HW128151   1.865   2.666   6.027
 9084SOL    HW228152   1.938   2.790   6.104
 9085SOL     OW28153   1.321   5.086   1.129
 9085SOL    HW128154   1.314   5.185   1.118
 9085SOL    HW228155   1.344   5.045   1.041
 9086SOL     OW28156   6.778   4.225   1.253
 9086SOL    HW128157   6.688   4.198   1.221
 9086SOL    HW228158   6.833   4.257   1.175
 9087SOL     OW28159   4.916   3.280   2.048
 9087SOL    HW128160   4.869   3.197   2.020
 9087SOL    HW228161   4.851   3.356   2.051
 9088SOL     OW28162   6.605   5.984   0.683
 9088SOL    HW128163   6.610   6.070   0.632
 9088SOL    HW228164   6.659   5.991   0.766
 9089SOL     OW28165   4.046   6.083   5.776
 9089SOL    HW128166   4.011   5.990   5.778
 9089SOL    HW228167   3.996   6.137   5.709
 9090SOL     OW28168   6.166   0.012   3.541
 9090SOL    HW128169   6.216   0.093   3.510
 9090SOL    HW228170   6.067   0.031   3.537
 9091SOL     OW28171   2.687   3.419   0.438
 9091SOL    HW128172   2.772   3.438   0.487
 9091SOL    HW228173   2.609   3.447   0.494
 9092SOL     OW28174   0.103   1.437   0.305
 9092SOL    HW128175   0.077   1.404   0.396
 9092SOL    HW228176   0.086   1.535   0.300
 9093SOL     OW28177   1.704   6.160   6.396
 9093SOL    HW128178   1.641   6.084   6.379
 9093SOL    HW228179   1.750   6.184   6.310
 9094SOL     OW28180   0.392   4.899   3.188
 9094SOL    HW128181   0.329   4.957   3.240
 9094SOL    HW228182   0.349   4.872   3.102
 9095SOL     OW28183   4.154   3.657   6.140
 9095SOL    HW128184   4.166   3.569   6.184
 9095SOL    HW228185   4.219   3.666   6.064
 9096SOL     OW28186   5.508   4.088   1.963
 9096SOL    HW128187   5.550   4.050   2.045
 9096SOL    HW228188   5.577   4.133   1.907
 9097SOL     OW28189   1.268   2.616   6.669
 9097SOL    HW128190   1.327   2.664   6.734
 9097SOL    HW228191   1.196   2.567   6.718
 9098SOL     OW28192   4.086   2.508   0.073
 9098SOL    HW128193   4.118   2.435   0.133
 9098SOL    HW228194   3.992   2.489   0.044
 9099SOL     OW28195   3.785   3.458   0.045
 9099SOL    HW128196   3.768   3.525   6.997
 9099SOL    HW228197   3.825   3.504   0.124
 9100SOL     OW28198   0.915   3.200   3.172
 9100SOL    HW128199   0.879   3.292   3.186
 9100SOL    HW228200   1.002   3.190   3.220
 9101SOL     OW28201   2.469   2.617   3.197
 9101SOL    HW128202   2.440   2.590   3.289
 9101SOL    HW228203   2.544   2.559   3.166
 9102SOL     OW28204   2.390   0.097   1.844
 9102SOL    HW128205   2.403   0.194   1.826
 9102SOL    HW228206   2.348   0.085   1.934
 9103SOL     OW28207   6.451   3.594   0.105
 9103SOL    HW128208   6.370   3.635   0.063
 9103SOL    HW228209   6.533   3.624   0.056
 9104SOL     OW28210   5.730   6.421   3.026
 9104SOL    HW128211   5.823   6.457   3.034
 9104SOL    HW228212   5.682   6.468   2.951
 9105SOL     OW28213   1.790   1.503   0.625
 9105SOL    HW128214   1.697   1.536   0.608
 9105SOL    HW228215   1.819   1.532   0.715
 9106SOL     OW28216   6.348   4.107   0.514
 9106SOL    HW128217   6.402   4.170   0.458
 9106SOL    HW228218   6.395   4.020   0.521
 9107SOL     OW28219   3.147   0.784   6.191
 9107SOL    HW128220   3.060   0.763   6.236
 9107SOL    HW228221   3.222   0.752   6.249
 9108SOL     OW28222   5.002   4.257   5.549
 9108SOL    HW128223   5.069   4.281   5.619
 9108SOL    HW228224   5.028   4.171   5.506
 9109SOL     OW28225   0.542   2.594   2.494
 9109SOL    HW128226   0.456   2.583   2.444
 9109SOL    HW228227   0.536   2.550   2.583
 9110SOL     OW28228   1.985   4.041   3.646
 9110SOL    HW128229   2.041   3.969   3.604
 9110SOL    HW228230   1.916   4.000   3.705
 9111SOL     OW28231   4.387   1.952   0.684
 9111SOL    HW128232   4.333   1.890   0.628
 9111SOL    HW228233   4.327   2.005   0.744
 9112SOL     OW28234   0.593   4.722   4.690
 9112SOL    HW128235   0.564   4.814   4.663
 9112SOL    HW228236   0.567   4.705   4.785
 9113SOL     OW28237   4.492   0.706   1.719
 9113SOL    HW128238   4.546   0.698   1.635
 9113SOL    HW228239   4.521   0.635   1.784
 9114SOL     OW28240   1.039   4.324   1.878
 9114SOL    HW128241   0.970   4.310   1.807
 9114SOL    HW228242   1.007   4.283   1.964
 9115SOL     OW28243   0.167   4.979   5.351
 9115SOL    HW128244   0.225   4.963   5.431
 9115SOL    HW228245   0.225   4.991   5.271
 9116SOL     OW28246   6.601   1.084   1.106
 9116SOL    HW128247   6.674   1.141   1.069
 9116SOL    HW228248   6.531   1.142   1.148
 9117SOL     OW28249   6.341   2.591   0.341
 9117SOL    HW128250   6.370   2.671   0.392
 9117SOL    HW228251   6.376   2.597   0.247
 9118SOL     OW28252   6.282   4.467   0.535
 9118SOL    HW128253   6.306   4.563   0.517
 9118SOL    HW228254   6.291   4.414   0.451
 9119SOL     OW28255   4.645   1.238   1.418
 9119SOL    HW128256   4.588   1.234   1.336
 9119SOL    HW228257   4.700   1.154   1.424
 9120SOL     OW28258   6.003   1.639   6.115
 9120SOL    HW128259   6.051   1.626   6.201
 9120SOL    HW228260   6.041   1.718   6.067
 9121SOL     OW28261   2.956   1.858   5.111
 9121SOL    HW128262   2.978   1.813   5.198
 9121SOL    HW228263   2.971   1.956   5.120
 9122SOL     OW28264   1.867   4.150   2.513
 9122SOL    HW128265   1.867   4.227   2.576
 9122SOL    HW228266   1.880   4.182   2.419
 9123SOL     OW28267   2.425   0.545   4.252
 9123SOL    HW128268   2.422   0.525   4.154
 9123SOL    HW228269   2.454   0.640   4.265
 9124SOL     OW28270   5.744   6.434   0.001
 9124SOL    HW128271   5.734   6.390   6.937
 9124SOL    HW228272   5.679   6.510   0.009
 9125SOL     OW28273   4.805   4.236   1.176
 9125SOL    HW128274   4.712   4.274   1.177
 9125SOL    HW228275   4.824   4.194   1.265
 9126SOL     OW28276   5.559   3.289   1.904
 9126SOL    HW128277   5.589   3.315   1.812
 9126SOL    HW228278   5.485   3.223   1.897
 9127SOL     OW28279   6.258   1.217   5.895
 9127SOL    HW128280   6.213   1.186   5.978
 9127SOL    HW228281   6.304   1.139   5.851
 9128SOL     OW28282   5.768   1.515   5.439
 9128SOL    HW128283   5.868   1.519   5.448
 9128SOL    HW228284   5.733   1.605   5.415
 9129SOL     OW28285   0.576   2.426   0.382
 9129SOL    HW128286   0.491   2.393   0.340
 9129SOL    HW228287   0.634   2.466   0.310
 9130SOL     OW28288   6.956   3.450   6.762
 9130SOL    HW128289   6.911   3.418   6.679
 9130SOL    HW228290   0.022   3.408   6.769
 9131SOL     OW28291   6.023   2.826   5.352
 9131SOL    HW128292   5.965   2.883   5.294
 9131SOL    HW228293   6.118   2.852   5.339
 9132SOL     OW28294   0.523   5.388   4.343
 9132SOL    HW128295   0.489   5.301   4.380
 9132SOL    HW228296   0.475   5.410   4.259
 9133SOL     OW28297   4.114   5.459   1.776
 9133SOL    HW128298   4.123   5.384   1.842
 9133SOL    HW228299   4.018   5.486   1.769
 9134SOL     OW28300   4.638   5.388   0.956
 9134SOL    HW128301   4.620   5.361   1.051
 9134SOL    HW228302   4.582   5.468   0.933
 9135SOL     OW28303   6.474   7.021   2.001
 9135SOL    HW128304   6.541   0.071   2.003
 9135SOL    HW228305   6.457   6.990   2.095
 9136SOL     OW28306   5.131   5.599   6.496
 9136SOL    HW128307   5.075   5.519   6.472
 9136SOL    HW228308   5.119   5.670   6.426
 9137SOL     OW28309   5.675   1.280   0.907
 9137SOL    HW128310   5.705   1.356   0.851
 9137SOL    HW228311   5.587   1.246   0.874
 9138SOL     OW28312   0.281   5.287   6.466
 9138SOL    HW128313   0.271   5.358   6.535
 9138SOL    HW228314   0.372   5.294   6.423
 9139SOL     OW28315   2.919   1.839   3.511
 9139SOL    HW128316   2.832   1.790   3.516
 9139SOL    HW228317   2.935   1.888   3.597
 9140SOL     OW28318   6.540   3.607   2.691
 9140SOL    HW128319   6.532   3.508   2.702
 9140SOL    HW228320   6.524   3.632   2.596
 9141SOL     OW28321   5.598   0.550   0.757
 9141SOL    HW128322   5.553   0.491   0.824
 9141SOL    HW228323   5.585   0.646   0.782
 9142SOL     OW28324   0.675   2.570   0.903
 9142SOL    HW128325   0.590   2.546   0.950
 9142SOL    HW228326   0.687   2.670   0.906
 9143SOL     OW28327   5.934   3.640   6.497
 9143SOL    HW128328   5.874   3.705   6.545
 9143SOL    HW228329   5.880   3.589   6.429
 9144SOL     OW28330   2.287   5.106   4.615
 9144SOL    HW128331   2.345   5.116   4.534
 9144SOL    HW228332   2.344   5.109   4.698
 9145SOL     OW28333   0.155   5.636   0.254
 9145SOL    HW128334   0.205   5.723   0.249
 9145SOL    HW228335   0.135   5.614   0.349
 9146SOL     OW28336   5.309   2.708   3.363
 9146SOL    HW128337   5.215   2.739   3.368
 9146SOL    HW228338   5.342   2.712   3.269
 9147SOL     OW28339   6.212   0.450   4.997
 9147SOL    HW128340   6.257   0.538   4.981
 9147SOL    HW228341   6.124   0.465   5.040
 9148SOL     OW28342   5.349   6.122   1.192
 9148SOL    HW128343   5.389   6.214   1.200
 9148SOL    HW228344   5.279   6.123   1.121
 9149SOL     OW28345   6.000   3.833   3.549
 9149SOL    HW128346   5.984   3.734   3.547
 9149SOL    HW228347   6.051   3.860   3.468
 9150SOL     OW28348   3.477   5.747   1.350
 9150SOL    HW128349   3.426   5.812   1.294
 9150SOL    HW228350   3.414   5.682   1.392
 9151SOL     OW28351   1.964   4.290   3.226
 9151SOL    HW128352   1.982   4.388   3.220
 9151SOL    HW228353   1.981   4.258   3.319
 9152SOL     OW28354   2.204   4.003   4.556
 9152SOL    HW128355   2.255   4.087   4.576
 9152SOL    HW228356   2.182   3.957   4.642
 9153SOL     OW28357   1.525   3.224   6.351
 9153SOL    HW128358   1.578   3.207   6.434
 9153SOL    HW228359   1.500   3.137   6.309
 9154SOL     OW28360   4.564   4.966   0.021
 9154SOL    HW128361   4.652   4.918   0.021
 9154SOL    HW228362   4.496   4.910   6.998
 9155SOL     OW28363   1.687   3.754   2.218
 9155SOL    HW128364   1.657   3.671   2.171
 9155SOL    HW228365   1.607   3.804   2.251
 9156SOL     OW28366   1.112   2.178   6.815
 9156SOL    HW128367   1.055   2.102   6.848
 9156SOL    HW228368   1.086   2.201   6.722
 9157SOL     OW28369   1.104   4.213   6.105
 9157SOL    HW128370   1.109   4.270   6.023
 9157SOL    HW228371   1.182   4.234   6.164
 9158SOL     OW28372   5.500   3.473   4.320
 9158SOL    HW128373   5.539   3.565   4.329
 9158SOL    HW228374   5.532   3.432   4.235
 9159SOL     OW28375   1.929   0.879   1.983
 9159SOL    HW128376   1.948   0.887   1.885
 9159SOL    HW228377   1.851   0.818   1.997
 9160SOL     OW28378   6.444   6.467   5.405
 9160SOL    HW128379   6.478   6.558   5.381
 9160SOL    HW228380   6.383   6.474   5.483
 9161SOL     OW28381   5.152   4.171   3.959
 9161SOL    HW128382   5.215   4.225   4.016
 9161SOL    HW228383   5.133   4.084   4.004
 9162SOL     OW28384   4.147   1.205   3.876
 9162SOL    HW128385   4.232   1.249   3.903
 9162SOL    HW228386   4.166   1.113   3.842
 9163SOL     OW28387   1.343   2.147   5.017
 9163SOL    HW128388   1.352   2.247   5.017
 9163SOL    HW228389   1.257   2.121   4.975
 9164SOL     OW28390   2.861   6.947   6.837
 9164SOL    HW128391   2.837   7.020   6.772
 9164SOL    HW228392   2.940   6.976   6.891
 9165SOL     OW28393   6.330   1.441   5.345
 9165SOL    HW128394   6.405   1.456   5.279
 9165SOL    HW228395   6.354   1.483   5.432
 9166SOL     OW28396   3.917   6.127   1.619
 9166SOL    HW128397   3.966   6.049   1.657
 9166SOL    HW228398   3.824   6.100   1.594
 9167SOL     OW28399   1.832   2.286   6.025
 9167SOL    HW128400   1.803   2.290   6.120
 9167SOL    HW228401   1.931   2.269   6.021
 9168SOL     OW28402   7.014   6.645   6.061
 9168SOL    HW128403   0.079   6.633   6.104
 9168SOL    HW228404   6.945   6.595   6.113
 9169SOL     OW28405   6.404   0.323   6.082
 9169SOL    HW128406   6.497   0.334   6.117
 9169SOL    HW228407   6.349   0.274   6.150
 9170SOL     OW28408   1.166   6.441   6.757
 9170SOL    HW128409   1.085   6.411   6.707
 9170SOL    HW228410   1.248   6.407   6.712
 9171SOL     OW28411   4.180   5.038   0.869
 9171SOL    HW128412   4.220   4.969   0.809
 9171SOL    HW228413   4.143   4.994   0.950
 9172SOL     OW28414   4.779   0.853   2.695
 9172SOL    HW128415   4.709   0.826   2.762
 9172SOL    HW228416   4.756   0.814   2.606
 9173SOL     OW28417   6.246   3.774   6.019
 9173SOL    HW128418   6.282   3.682   6.005
 9173SOL    HW228419   6.315   3.842   5.992
 9174SOL     OW28420   6.379   4.667   1.667
 9174SOL    HW128421   6.317   4.588   1.669
 9174SOL    HW228422   6.410   4.683   1.573
 9175SOL     OW28423   0.888   7.024   6.075
 9175SOL    HW128424   0.882   0.009   6.174
 9175SOL    HW228425   0.947   0.071   6.037
 9176SOL     OW28426   1.822   0.539   3.471
 9176SOL    HW128427   1.788   0.605   3.404
 9176SOL    HW228428   1.756   0.530   3.546
 9177SOL     OW28429   0.920   5.027   4.130
 9177SOL    HW128430   0.976   5.050   4.051
 9177SOL    HW228431   0.851   5.098   4.144
 9178SOL     OW28432   2.044   5.552   0.796
 9178SOL    HW128433   2.109   5.627   0.811
 9178SOL    HW228434   2.092   5.465   0.804
 9179SOL     OW28435   1.802   5.031   3.612
 9179SOL    HW128436   1.749   5.100   3.662
 9179SOL    HW228437   1.882   5.005   3.666
 9180SOL     OW28438   6.663   2.751   3.572
 9180SOL    HW128439   6.621   2.677   3.624
 9180SOL    HW228440   6.736   2.714   3.514
 9181SOL     OW28441   6.347   2.790   4.504
 9181SOL    HW128442   6.294   2.841   4.573
 9181SOL    HW228443   6.324   2.824   4.413
 9182SOL     OW28444   2.454   6.955   2.974
 9182SOL    HW128445   2.472   6.884   2.906
 9182SOL    HW228446   2.476   6.919   3.065
 9183SOL     OW28447   4.354   4.961   0.266
 9183SOL    HW128448   4.276   4.974   0.205
 9183SOL    HW228449   4.436   4.999   0.223
 9184SOL     OW28450   4.596   2.347   0.881
 9184SOL    HW128451   4.585   2.434   0.929
 9184SOL    HW228452   4.525   2.283   0.910
 9185SOL     OW28453   4.727   6.533   4.974
 9185SOL    HW128454   4.813   6.577   5.001
 9185SOL    HW228455   4.656   6.603   4.963
 9186SOL     OW28456   5.788   6.570   4.854
 9186SOL    HW128457   5.874   6.597   4.811
 9186SOL    HW228458   5.759   6.481   4.818
 9187SOL     OW28459   3.269   1.515   0.535
 9187SOL    HW128460   3.264   1.469   0.447
 9187SOL    HW228461   3.347   1.577   0.536
 9188SOL     OW28462   1.742   6.850   1.445
 9188SOL    HW128463   1.742   6.767   1.390
 9188SOL    HW228464   1.767   6.828   1.539
 9189SOL     OW28465   2.832   6.043   1.995
 9189SOL    HW128466   2.750   6.094   1.966
 9189SOL    HW228467   2.867   5.990   1.917
 9190SOL     OW28468   1.883   3.967   5.300
 9190SOL    HW128469   1.977   3.966   5.265
 9190SOL    HW228470   1.885   3.983   5.399
 9191SOL     OW28471   5.658   1.334   0.067
 9191SOL    HW128472   5.674   1.427   0.034
 9191SOL    HW228473   5.603   1.284   0.001
 9192SOL     OW28474   0.113   2.094   6.228
 9192SOL    HW128475   0.141   2.014   6.283
 9192SOL    HW228476   0.185   2.115   6.162
 9193SOL     OW28477   3.828   3.558   5.082
 9193SOL    HW128478   3.824   3.464   5.114
 9193SOL    HW228479   3.820   3.560   4.982
 9194SOL     OW28480   3.544   1.168   3.133
 9194SOL    HW128481   3.524   1.265   3.124
 9194SOL    HW228482   3.633   1.148   3.092
 9195SOL     OW28483   0.786   2.994   2.044
 9195SOL    HW128484   0.708   2.932   2.037
 9195SOL    HW228485   0.852   2.958   2.110
 9196SOL     OW28486   5.610   0.495   3.486
 9196SOL    HW128487   5.678   0.467   3.554
 9196SOL    HW228488   5.640   0.579   3.441
 9197SOL     OW28489   2.757   5.032   1.273
 9197SOL    HW128490   2.793   5.100   1.210
 9197SOL    HW228491   2.748   4.944   1.227
 9198SOL     OW28492   5.959   4.476   6.684
 9198SOL    HW128493   5.944   4.530   6.601
 9198SOL    HW228494   5.915   4.520   6.762
 9199SOL     OW28495   0.001   3.227   5.323
 9199SOL    HW128496   0.053   3.174   5.389
 9199SOL    HW228497   0.044   3.220   5.233
 9200SOL     OW28498   3.005   6.033   6.761
 9200SOL    HW128499   2.978   5.937   6.764
 9200SOL    HW228500   2.928   6.089   6.730
 9201SOL     OW28501   0.274   3.431   0.306
 9201SOL    HW128502   0.273   3.531   0.303
 9201SOL    HW228503   0.181   3.396   0.292
 9202SOL     OW28504   0.870   6.212   3.190
 9202SOL    HW128505   0.823   6.146   3.132
 9202SOL    HW228506   0.962   6.178   3.211
 9203SOL     OW28507   6.525   3.323   6.163
 9203SOL    HW128508   6.440   3.280   6.133
 9203SOL    HW228509   6.598   3.255   6.164
 9204SOL     OW28510   5.000   3.175   5.343
 9204SOL    HW128511   4.998   3.275   5.341
 9204SOL    HW228512   4.932   3.141   5.407
 9205SOL     OW28513   5.316   5.909   3.468
 9205SOL    HW128514   5.385   5.974   3.435
 9205SOL    HW228515   5.226   5.938   3.438
 9206SOL     OW28516   3.212   5.295   3.462
 9206SOL    HW128517   3.288   5.236   3.434
 9206SOL    HW228518   3.249   5.378   3.504
 9207SOL     OW28519   4.755   4.694   6.425
 9207SOL    HW128520   4.848   4.694   6.462
 9207SOL    HW228521   4.713   4.783   6.443
 9208SOL     OW28522   5.631   4.582   3.832
 9208SOL    HW128523   5.582   4.663   3.800
 9208SOL    HW228524   5.620   4.507   3.767
 9209SOL     OW28525   4.436   0.930   0.378
 9209SOL    HW128526   4.342   0.937   0.345
 9209SOL    HW228527   4.499   0.936   0.300
 9210SOL     OW28528   1.366   1.896   1.916
 9210SOL    HW128529   1.458   1.907   1.877
 9210SOL    HW228530   1.344   1.977   1.971
 9211SOL     OW28531   6.510   2.970   5.642
 9211SOL    HW128532   6.435   2.979   5.708
 9211SOL    HW228533   6.534   2.874   5.633
 9212SOL     OW28534   4.297   5.826   4.567
 9212SOL    HW128535   4.349   5.755   4.615
 9212SOL    HW228536   4.207   5.836   4.610
 9213SOL     OW28537   5.337   4.424   5.058
 9213SOL    HW128538   5.345   4.522   5.071
 9213SOL    HW228539   5.407   4.393   4.993
 9214SOL     OW28540   6.928   3.333   5.565
 9214SOL    HW128541   6.885   3.254   5.608
 9214SOL    HW228542   6.989   3.303   5.492
 9215SOL     OW28543   2.044   3.307   2.133
 9215SOL    HW128544   1.954   3.306   2.090
 9215SOL    HW228545   2.104   3.369   2.083
 9216SOL     OW28546   2.941   0.422   3.451
 9216SOL    HW128547   3.021   0.415   3.511
 9216SOL    HW228548   2.948   0.353   3.379
 9217SOL     OW28549   6.191   3.552   6.412
 9217SOL    HW128550   6.107   3.550   6.466
 9217SOL    HW228551   6.266   3.511   6.464
 9218SOL     OW28552   2.717   0.832   6.940
 9218SOL    HW128553   2.798   0.844   6.997
 9218SOL    HW228554   2.696   0.918   6.893
 9219SOL     OW28555   5.426   3.880   6.500
 9219SOL    HW128556   5.425   3.971   6.542
 9219SOL    HW228557   5.332   3.852   6.479
 9220SOL     OW28558   1.069   6.062   1.516
 9220SOL    HW128559   1.012   6.122   1.573
 9220SOL    HW228560   1.098   5.983   1.570
 9221SOL     OW28561   1.607   1.113   2.852
 9221SOL    HW128562   1.699   1.091   2.820
 9221SOL    HW228563   1.559   1.028   2.877
 9222SOL     OW28564   2.289   5.604   6.071
 9222SOL    HW128565   2.350   5.531   6.102
 9222SOL    HW228566   2.200   5.594   6.116
 9223SOL     OW28567   1.122   2.109   4.056
 9223SOL    HW128568   1.147   2.085   4.150
 9223SOL    HW228569   1.125   2.027   3.999
 9224SOL     OW28570   0.920   5.424   4.353
 9224SOL    HW128571   0.855   5.463   4.418
 9224SOL    HW228572   0.966   5.498   4.303
 9225SOL     OW28573   3.269   5.998   6.144
 9225SOL    HW128574   3.244   6.095   6.148
 9225SOL    HW228575   3.366   5.988   6.169
 9226SOL     OW28576   6.866   6.403   0.956
 9226SOL    HW128577   6.887   6.377   1.050
 9226SOL    HW228578   6.777   6.448   0.953
 9227SOL     OW28579   1.909   5.854   1.568
 9227SOL    HW128580   1.864   5.878   1.482
 9227SOL    HW228581   1.963   5.932   1.600
 9228SOL     OW28582   2.790   1.665   6.543
 9228SOL    HW128583   2.721   1.593   6.550
 9228SOL    HW228584   2.826   1.668   6.450
 9229SOL     OW28585   1.441   5.431   4.995
 9229SOL    HW128586   1.438   5.493   4.917
 9229SOL    HW228587   1.536   5.409   5.017
 9230SOL     OW28588   5.248   2.848   3.643
 9230SOL    HW128589   5.151   2.867   3.658
 9230SOL    HW228590   5.292   2.930   3.607
 9231SOL     OW28591   1.244   3.054   4.776
 9231SOL    HW128592   1.306   3.078   4.701
 9231SOL    HW228593   1.196   3.136   4.808
 9232SOL     OW28594   3.560   5.455   6.884
 9232SOL    HW128595   3.477   5.451   6.828
 9232SOL    HW228596   3.571   5.369   6.934
 9233SOL     OW28597   5.939   6.009   2.006
 9233SOL    HW128598   6.037   6.019   1.986
 9233SOL    HW228599   5.900   5.938   1.947
 9234SOL     OW28600   3.900   5.307   6.597
 9234SOL    HW128601   3.991   5.283   6.630
 9234SOL    HW228602   3.842   5.226   6.597
 9235SOL     OW28603   1.594   2.909   3.777
 9235SOL    HW128604   1.560   2.820   3.745
 9235SOL    HW228605   1.553   2.930   3.865
 9236SOL     OW28606   1.644   4.527   6.277
 9236SOL    HW128607   1.615   4.436   6.250
 9236SOL    HW228608   1.720   4.520   6.341
 9237SOL     OW28609   0.590   6.549   3.608
 9237SOL    HW128610   0.567   6.559   3.511
 9237SOL    HW228611   0.540   6.472   3.647
 9238SOL     OW28612   1.919   1.885   0.129
 9238SOL    HW128613   1.913   1.920   0.222
 9238SOL    HW228614   1.894   1.788   0.127
 9239SOL     OW28615   6.813   4.077   0.192
 9239SOL    HW128616   6.837   4.153   0.251
 9239SOL    HW228617   6.889   4.012   0.189
 9240SOL     OW28618   4.994   2.362   1.915
 9240SOL    HW128619   4.930   2.290   1.942
 9240SOL    HW228620   4.983   2.382   1.818
 9241SOL     OW28621   1.022   5.175   5.660
 9241SOL    HW128622   1.058   5.083   5.677
 9241SOL    HW228623   1.093   5.242   5.680
 9242SOL     OW28624   1.325   5.049   0.326
 9242SOL    HW128625   1.316   4.991   0.408
 9242SOL    HW228626   1.235   5.086   0.301
 9243SOL     OW28627   0.100   0.045   1.700
 9243SOL    HW128628   0.181   7.019   1.729
 9243SOL    HW228629   0.126   0.113   1.631
 9244SOL     OW28630   3.732   5.107   6.180
 9244SOL    HW128631   3.699   5.066   6.095
 9244SOL    HW228632   3.656   5.143   6.232
 9245SOL     OW28633   1.203   5.491   3.813
 9245SOL    HW128634   1.125   5.479   3.751
 9245SOL    HW228635   1.226   5.402   3.853
 9246SOL     OW28636   5.891   6.271   2.074
 9246SOL    HW128637   5.901   6.173   2.057
 9246SOL    HW228638   5.813   6.287   2.134
 9247SOL     OW28639   1.948   6.280   3.642
 9247SOL    HW128640   1.906   6.282   3.551
 9247SOL    HW228641   2.022   6.213   3.643
 9248SOL     OW28642   2.715   2.373   4.914
 9248SOL    HW128643   2.722   2.436   4.991
 9248SOL    HW228644   2.804   2.331   4.898
 9249SOL     OW28645   3.551   3.759   0.910
 9249SOL    HW128646   3.472   3.780   0.852
 9249SOL    HW228647   3.616   3.702   0.860
 9250SOL     OW28648   6.099   3.074   3.994
 9250SOL    HW128649   6.115   2.980   4.025
 9250SOL    HW228650   6.141   3.087   3.905
 9251SOL     OW28651   3.403   1.709   2.839
 9251SOL    HW128652   3.423   1.797   2.884
 9251SOL    HW228653   3.363   1.726   2.749
 9252SOL     OW28654   4.891   0.086   3.847
 9252SOL    HW128655   4.965   0.101   3.781
 9252SOL    HW228656   4.905   7.024   3.895
 9253SOL     OW28657   5.608   5.917   6.019
 9253SOL    HW128658   5.668   5.954   5.947
 9253SOL    HW228659   5.660   5.908   6.104
 9254SOL     OW28660   5.790   5.102   3.052
 9254SOL    HW128661   5.775   5.074   2.957
 9254SOL    HW228662   5.748   5.192   3.067
 9255SOL     OW28663   4.482   4.324   0.151
 9255SOL    HW128664   4.396   4.294   0.108
 9255SOL    HW228665   4.495   4.275   0.238
 9256SOL     OW28666   2.626   0.629   2.863
 9256SOL    HW128667   2.637   0.667   2.771
 9256SOL    HW228668   2.652   0.533   2.862
 9257SOL     OW28669   0.508   4.173   3.017
 9257SOL    HW128670   0.586   4.112   3.006
 9257SOL    HW228671   0.428   4.120   3.046
 9258SOL     OW28672   3.035   3.180   2.578
 9258SOL    HW128673   2.972   3.255   2.597
 9258SOL    HW228674   2.983   3.100   2.547
 9259SOL     OW28675   0.998   2.422   0.135
 9259SOL    HW128676   1.058   2.398   0.059
 9259SOL    HW228677   1.038   2.498   0.187
 9260SOL     OW28678   5.942   1.465   4.912
 9260SOL    HW128679   5.857   1.494   4.955
 9260SOL    HW228680   6.008   1.439   4.982
 9261SOL     OW28681   2.572   1.602   0.651
 9261SOL    HW128682   2.553   1.617   0.748
 9261SOL    HW228683   2.648   1.660   0.623
 9262SOL     OW28684   6.924   5.022   5.362
 9262SOL    HW128685   7.023   5.013   5.379
 9262SOL    HW228686   6.877   4.939   5.393
 9263SOL     OW28687   4.817   6.968   1.510
 9263SOL    HW128688   4.889   6.965   1.579
 9263SOL    HW228689   4.789   6.875   1.486
 9264SOL     OW28690   4.728   4.933   0.453
 9264SOL    HW128691   4.783   4.890   0.382
 9264SOL    HW228692   4.692   5.020   0.419
 9265SOL     OW28693   3.319   1.941   0.829
 9265SOL    HW128694   3.301   1.981   0.918
 9265SOL    HW228695   3.368   2.006   0.772
 9266SOL     OW28696   1.935   0.092   1.152
 9266SOL    HW128697   1.959   0.188   1.142
 9266SOL    HW228698   2.018   0.036   1.141
 9267SOL     OW28699   0.058   2.771   4.475
 9267SOL    HW128700   0.068   2.822   4.561
 9267SOL    HW228701   0.059   2.836   4.398
 9268SOL     OW28702   0.883   5.353   2.639
 9268SOL    HW128703   0.944   5.301   2.697
 9268SOL    HW228704   0.809   5.294   2.606
 9269SOL     OW28705   3.869   1.668   6.250
 9269SOL    HW128706   3.807   1.726   6.302
 9269SOL    HW228707   3.835   1.658   6.156
 9270SOL     OW28708   4.604   6.980   6.649
 9270SOL    HW128709   4.649   6.918   6.584
 9270SOL    HW228710   4.519   7.014   6.609
 9271SOL     OW28711   5.496   0.113   0.752
 9271SOL    HW128712   5.507   0.196   0.697
 9271SOL    HW228713   5.586   0.081   0.783
 9272SOL     OW28714   0.915   6.048   4.814
 9272SOL    HW128715   0.967   5.964   4.796
 9272SOL    HW228716   0.949   6.090   4.898
 9273SOL     OW28717   5.596   6.851   2.879
 9273SOL    HW128718   5.545   6.893   2.804
 9273SOL    HW228719   5.532   6.812   2.945
 9274SOL     OW28720   6.124   1.756   6.989
 9274SOL    HW128721   6.131   1.828   6.919
 9274SOL    HW228722   6.157   1.791   0.052
 9275SOL     OW28723   6.544   0.890   0.436
 9275SOL    HW128724   6.493   0.810   0.407
 9275SOL    HW228725   6.483   0.955   0.480
 9276SOL     OW28726   2.011   3.476   1.429
 9276SOL    HW128727   1.915   3.450   1.424
 9276SOL    HW228728   2.022   3.555   1.489
 9277SOL     OW28729   4.675   3.771   0.309
 9277SOL    HW128730   4.610   3.695   0.313
 9277SOL    HW228731   4.628   3.857   0.329
 9278SOL     OW28732   2.043   0.390   5.599
 9278SOL    HW128733   2.072   0.485   5.609
 9278SOL    HW228734   1.947   0.382   5.627
 9279SOL     OW28735   4.278   1.116   2.267
 9279SOL    HW128736   4.352   1.181   2.251
 9279SOL    HW228737   4.190   1.163   2.260
 9280SOL     OW28738   2.015   1.870   3.398
 9280SOL    HW128739   2.078   1.794   3.413
 9280SOL    HW228740   2.053   1.953   3.438
 9281SOL     OW28741   2.519   3.668   6.632
 9281SOL    HW128742   2.450   3.596   6.626
 9281SOL    HW228743   2.475   3.757   6.641
 9282SOL     OW28744   5.158   0.965   3.761
 9282SOL    HW128745   5.194   1.029   3.828
 9282SOL    HW228746   5.114   0.889   3.807
 9283SOL     OW28747   5.582   0.391   4.263
 9283SOL    HW128748   5.659   0.418   4.321
 9283SOL    HW228749   5.500   0.443   4.289
 9284SOL     OW28750   3.231   3.245   5.183
 9284SOL    HW128751   3.168   3.272   5.256
 9284SOL    HW228752   3.280   3.162   5.210
 9285SOL     OW28753   5.042   2.501   0.860
 9285SOL    HW128754   5.023   2.477   0.955
 9285SOL    HW228755   4.995   2.586   0.836
 9286SOL     OW28756   5.300   5.593   0.967
 9286SOL    HW128757   5.344   5.526   0.907
 9286SOL    HW228758   5.369   5.653   1.007
 9287SOL     OW28759   2.916   4.765   6.725
 9287SOL    HW128760   2.839   4.720   6.680
 9287SOL    HW228761   2.967   4.697   6.779
 9288SOL     OW28762   4.875   1.283   3.346
 9288SOL    HW128763   4.828   1.220   3.409
 9288SOL    HW228764   4.853   1.377   3.370
 9289SOL     OW28765   3.752   1.098   2.718
 9289SOL    HW128766   3.692   1.172   2.687
 9289SOL    HW228767   3.840   1.105   2.672
 9290SOL     OW28768   5.770   1.457   3.075
 9290SOL    HW128769   5.762   1.554   3.094
 9290SOL    HW228770   5.866   1.428   3.086
 9291SOL     OW28771   1.121   6.075   4.168
 9291SOL    HW128772   1.155   5.989   4.130
 9291SOL    HW228773   1.092   6.061   4.262
 9292SOL     OW28774   1.846   2.782   6.776
 9292SOL    HW128775   1.903   2.739   6.846
 9292SOL    HW228776   1.809   2.868   6.811
 9293SOL     OW28777   5.166   2.821   6.736
 9293SOL    HW128778   5.240   2.835   6.801
 9293SOL    HW228779   5.117   2.907   6.721
 9294SOL     OW28780   4.260   0.694   5.639
 9294SOL    HW128781   4.309   0.615   5.600
 9294SOL    HW228782   4.213   0.743   5.565
 9295SOL     OW28783   5.390   1.728   4.832
 9295SOL    HW128784   5.306   1.775   4.858
 9295SOL    HW228785   5.453   1.794   4.790
 9296SOL     OW28786   1.366   5.812   6.717
 9296SOL    HW128787   1.283   5.813   6.661
 9296SOL    HW228788   1.344   5.771   6.806
 9297SOL     OW28789   6.763   6.995   2.451
 9297SOL    HW128790   6.760   6.902   2.413
 9297SOL    HW228791   6.856   7.015   2.484
 9298SOL     OW28792   1.155   6.717   5.754
 9298SOL    HW128793   1.146   6.696   5.852
 9298SOL    HW228794   1.185   6.635   5.705
 9299SOL     OW28795   0.845   2.511   5.378
 9299SOL    HW128796   0.821   2.559   5.462
 9299SOL    HW228797   0.895   2.427   5.400
 9300SOL     OW28798   0.016   4.809   5.596
 9300SOL    HW128799   0.010   4.845   5.690
 9300SOL    HW228800   6.949   4.809   5.556
 9301SOL     OW28801   5.199   4.897   4.180
 9301SOL    HW128802   5.168   4.955   4.256
 9301SOL    HW228803   5.133   4.824   4.164
 9302SOL     OW28804   2.489   2.627   4.280
 9302SOL    HW128805   2.400   2.618   4.236
 9302SOL    HW228806   2.561   2.627   4.211
 9303SOL     OW28807   2.720   3.742   0.683
 9303SOL    HW128808   2.771   3.732   0.769
 9303SOL    HW228809   2.781   3.776   0.612
 9304SOL     OW28810   3.952   4.680   1.751
 9304SOL    HW128811   4.040   4.698   1.795
 9304SOL    HW228812   3.913   4.766   1.718
 9305SOL     OW28813   3.275   1.331   0.747
 9305SOL    HW128814   3.225   1.370   0.824
 9305SOL    HW228815   3.302   1.403   0.684
 9306SOL     OW28816   0.218   5.594   5.027
 9306SOL    HW128817   0.154   5.665   5.057
 9306SOL    HW228818   0.309   5.635   5.015
 9307SOL     OW28819   1.728   3.503   1.352
 9307SOL    HW128820   1.779   3.460   1.277
 9307SOL    HW228821   1.647   3.448   1.374
 9308SOL     OW28822   2.447   3.240   0.449
 9308SOL    HW128823   2.395   3.249   0.364
 9308SOL    HW228824   2.438   3.324   0.503
 9309SOL     OW28825   3.787   4.330   5.596
 9309SOL    HW128826   3.770   4.249   5.540
 9309SOL    HW228827   3.703   4.385   5.600
 9310SOL     OW28828   4.910   5.204   6.566
 9310SOL    HW128829   4.944   5.130   6.508
 9310SOL    HW228830   4.964   5.286   6.549
 9311SOL     OW28831   4.469   4.533   1.552
 9311SOL    HW128832   4.506   4.452   1.506
 9311SOL    HW228833   4.513   4.615   1.517
 9312SOL     OW28834   1.382   3.728   1.058
 9312SOL    HW128835   1.377   3.827   1.045
 9312SOL    HW228836   1.304   3.684   1.013
 9313SOL     OW28837   0.686   1.119   0.915
 9313SOL    HW128838   0.681   1.093   0.818
 9313SOL    HW228839   0.778   1.101   0.949
 9314SOL     OW28840   5.341   4.657   6.964
 9314SOL    HW128841   5.332   4.693   6.871
 9314SOL    HW228842   5.416   4.704   7.011
 9315SOL     OW28843   6.411   0.203   5.008
 9315SOL    HW128844   6.355   0.121   5.006
 9315SOL    HW228845   6.355   0.281   5.036
 9316SOL     OW28846   5.591   6.573   6.081
 9316SOL    HW128847   5.654   6.622   6.020
 9316SOL    HW228848   5.605   6.603   6.175
 9317SOL     OW28849   5.327   4.897   3.556
 9317SOL    HW128850   5.291   4.965   3.620
 9317SOL    HW228851   5.253   4.835   3.530
 9318SOL     OW28852   5.621   0.675   5.906
 9318SOL    HW128853   5.635   0.713   5.998
 9318SOL    HW228854   5.579   0.584   5.915
 9319SOL     OW28855   2.829   2.806   6.992
 9319SOL    HW128856   2.868   2.892   6.958
 9319SOL    HW228857   2.729   2.813   6.992
 9320SOL     OW28858   3.629   0.788   5.139
 9320SOL    HW128859   3.629   0.697   5.097
 9320SOL    HW228860   3.568   0.849   5.087
 9321SOL     OW28861   0.044   0.481   4.278
 9321SOL    HW128862   0.014   0.546   4.207
 9321SOL    HW228863   0.026   0.388   4.247
 9322SOL     OW28864   6.660   3.561   6.229
 9322SOL    HW128865   6.652   3.587   6.325
 9322SOL    HW228866   6.586   3.498   6.206
 9323SOL     OW28867   1.520   0.731   5.951
 9323SOL    HW128868   1.450   0.724   5.880
 9323SOL    HW228869   1.528   0.643   5.998
 9324SOL     OW28870   1.237   4.273   1.023
 9324SOL    HW128871   1.269   4.290   1.116
 9324SOL    HW228872   1.142   4.304   1.014
 9325SOL     OW28873   5.891   0.829   6.950
 9325SOL    HW128874   5.837   0.791   6.874
 9325SOL    HW228875   5.892   0.929   6.942
 9326SOL     OW28876   2.575   5.402   0.671
 9326SOL    HW128877   2.588   5.305   0.687
 9326SOL    HW228878   2.569   5.419   0.572
 9327SOL     OW28879   5.131   0.318   3.120
 9327SOL    HW128880   5.194   0.267   3.178
 9327SOL    HW228881   5.040   0.277   3.125
 9328SOL     OW28882   2.843   1.358   4.927
 9328SOL    HW128883   2.875   1.317   5.012
 9328SOL    HW228884   2.751   1.394   4.939
 9329SOL     OW28885   6.213   3.774   0.807
 9329SOL    HW128886   6.183   3.690   0.852
 9329SOL    HW228887   6.190   3.770   0.710
 9330SOL     OW28888   6.731   0.278   5.757
 9330SOL    HW128889   6.651   0.292   5.697
 9330SOL    HW228890   6.765   0.367   5.787
 9331SOL     OW28891   2.031   0.831   0.528
 9331SOL    HW128892   2.076   0.743   0.535
 9331SOL    HW228893   2.099   0.903   0.513
 9332SOL     OW28894   4.052   4.487   1.155
 9332SOL    HW128895   4.001   4.403   1.137
 9332SOL    HW228896   4.124   4.497   1.087
 9333SOL     OW28897   3.944   3.775   6.878
 9333SOL    HW128898   4.025   3.724   6.908
 9333SOL    HW228899   3.869   3.711   6.863
 9334SOL     OW28900   5.568   6.133   3.639
 9334SOL    HW128901   5.553   6.209   3.702
 9334SOL    HW228902   5.536   6.048   3.682
 9335SOL     OW28903   0.842   0.990   6.820
 9335SOL    HW128904   0.802   0.951   6.736
 9335SOL    HW228905   0.931   1.031   6.798
 9336SOL     OW28906   3.533   6.141   5.807
 9336SOL    HW128907   3.461   6.072   5.803
 9336SOL    HW228908   3.534   6.194   5.723
 9337SOL     OW28909   3.978   1.296   4.560
 9337SOL    HW128910   4.005   1.389   4.536
 9337SOL    HW228911   3.934   1.295   4.650
 9338SOL     OW28912   6.100   6.691   1.847
 9338SOL    HW128913   6.091   6.719   1.943
 9338SOL    HW228914   6.077   6.594   1.838
 9339SOL     OW28915   6.435   6.569   1.221
 9339SOL    HW128916   6.336   6.562   1.234
 9339SOL    HW228917   6.479   6.485   1.254
 9340SOL     OW28918   4.352   4.552   3.384
 9340SOL    HW128919   4.335   4.610   3.304
 9340SOL    HW228920   4.351   4.456   3.356
 9341SOL     OW28921   0.133   5.114   0.803
 9341SOL    HW128922   0.138   5.194   0.863
 9341SOL    HW228923   0.064   5.050   0.836
 9342SOL     OW28924   3.490   6.258   3.594
 9342SOL    HW128925   3.467   6.251   3.691
 9342SOL    HW228926   3.533   6.346   3.576
 9343SOL     OW28927   5.374   4.299   1.661
 9343SOL    HW128928   5.341   4.221   1.608
 9343SOL    HW228929   5.471   4.285   1.683
 9344SOL     OW28930   5.367   6.680   2.790
 9344SOL    HW128931   5.310   6.602   2.813
 9344SOL    HW228932   5.390   6.731   2.873
 9345SOL     OW28933   6.611   5.740   1.628
 9345SOL    HW128934   6.630   5.721   1.531
 9345SOL    HW228935   6.675   5.689   1.685
 9346SOL     OW28936   5.882   0.988   1.225
 9346SOL    HW128937   5.924   1.076   1.205
 9346SOL    HW228938   5.787   0.989   1.193
 9347SOL     OW28939   3.272   3.955   0.165
 9347SOL    HW128940   3.365   3.993   0.160
 9347SOL    HW228941   3.251   3.909   0.079
 9348SOL     OW28942   2.686   6.570   2.911
 9348SOL    HW128943   2.756   6.573   2.839
 9348SOL    HW228944   2.604   6.617   2.880
 9349SOL     OW28945   6.718   5.019   2.325
 9349SOL    HW128946   6.792   5.052   2.266
 9349SOL    HW228947   6.738   4.925   2.352
 9350SOL     OW28948   0.001   2.754   5.021
 9350SOL    HW128949   0.050   2.777   4.937
 9350SOL    HW228950   0.034   2.666   5.056
 9351SOL     OW28951   3.106   6.499   6.358
 9351SOL    HW128952   3.130   6.406   6.386
 9351SOL    HW228953   3.189   6.552   6.344
 9352SOL     OW28954   3.896   1.925   6.039
 9352SOL    HW128955   3.842   1.842   6.026
 9352SOL    HW228956   3.947   1.918   6.125
 9353SOL     OW28957   1.147   4.283   0.686
 9353SOL    HW128958   1.222   4.337   0.722
 9353SOL    HW228959   1.067   4.291   0.746
 9354SOL     OW28960   0.374   1.681   6.201
 9354SOL    HW128961   0.327   1.594   6.210
 9354SOL    HW228962   0.447   1.674   6.133
 9355SOL     OW28963   0.419   1.763   4.587
 9355SOL    HW128964   0.481   1.802   4.518
 9355SOL    HW228965   0.349   1.831   4.610
 9356SOL     OW28966   4.694   6.626   2.192
 9356SOL    HW128967   4.639   6.556   2.238
 9356SOL    HW228968   4.638   6.708   2.178
 9357SOL     OW28969   1.530   3.677   6.529
 9357SOL    HW128970   1.510   3.626   6.446
 9357SOL    HW228971   1.455   3.741   6.547
 9358SOL     OW28972   0.273   2.918   1.543
 9358SOL    HW128973   0.254   3.012   1.570
 9358SOL    HW228974   0.368   2.910   1.513
 9359SOL     OW28975   1.938   4.075   5.587
 9359SOL    HW128976   1.976   4.149   5.532
 9359SOL    HW228977   1.889   4.113   5.665
 9360SOL     OW28978   1.044   4.677   6.651
 9360SOL    HW128979   1.051   4.777   6.643
 9360SOL    HW228980   1.005   4.654   6.740
 9361SOL     OW28981   1.438   5.274   2.829
 9361SOL    HW128982   1.367   5.218   2.786
 9361SOL    HW228983   1.441   5.255   2.927
 9362SOL     OW28984   2.086   2.439   3.234
 9362SOL    HW128985   2.004   2.381   3.241
 9362SOL    HW228986   2.075   2.503   3.159
 9363SOL     OW28987   3.467   6.446   1.648
 9363SOL    HW128988   3.484   6.348   1.652
 9363SOL    HW228989   3.549   6.493   1.616
 9364SOL     OW28990   3.156   3.000   6.420
 9364SOL    HW128991   3.139   2.947   6.337
 9364SOL    HW228992   3.218   3.076   6.400
 9365SOL     OW28993   2.540   1.971   4.036
 9365SOL    HW128994   2.564   2.004   3.945
 9365SOL    HW228995   2.476   1.894   4.028
 9366SOL     OW28996   3.806   5.707   6.034
 9366SOL    HW128997   3.709   5.708   6.007
 9366SOL    HW228998   3.813   5.709   6.133
 9367SOL     OW28999   7.003   6.543   2.828
 9367SOL    HW129000   6.931   6.582   2.770
 9367SOL    HW229001   0.051   6.610   2.841
 9368SOL     OW29002   3.018   0.684   2.711
 9368SOL    HW129003   2.964   0.600   2.710
 9368SOL    HW229004   3.045   0.706   2.805
 9369SOL     OW29005   7.018   6.421   4.199
 9369SOL    HW129006   0.002   6.364   4.117
 9369SOL    HW229007   7.010   6.517   4.173
 9370SOL     OW29008   5.459   0.591   3.968
 9370SOL    HW129009   5.547   0.554   3.941
 9370SOL    HW229010   5.405   0.520   4.013
 9371SOL     OW29011   2.745   4.787   0.512
 9371SOL    HW129012   2.807   4.860   0.486
 9371SOL    HW229013   2.682   4.819   0.583
 9372SOL     OW29014   4.903   0.623   1.706
 9372SOL    HW129015   4.987   0.571   1.695
 9372SOL    HW229016   4.925   0.719   1.726
 9373SOL     OW29017   4.687   2.197   1.587
 9373SOL    HW129018   4.632   2.170   1.507
 9373SOL    HW229019   4.638   2.173   1.671
 9374SOL     OW29020   0.558   3.158   0.309
 9374SOL    HW129021   0.544   3.165   0.210
 9374SOL    HW229022   0.654   3.176   0.330
 9375SOL     OW29023   0.871   1.625   1.439
 9375SOL    HW129024   0.936   1.575   1.382
 9375SOL    HW229025   0.796   1.660   1.383
 9376SOL     OW29026   2.265   4.365   1.327
 9376SOL    HW129027   2.354   4.360   1.282
 9376SOL    HW229028   2.277   4.367   1.426
 9377SOL     OW29029   1.819   5.306   3.311
 9377SOL    HW129030   1.830   5.290   3.409
 9377SOL    HW229031   1.908   5.306   3.266
 9378SOL     OW29032   2.486   1.081   3.547
 9378SOL    HW129033   2.427   1.122   3.477
 9378SOL    HW229034   2.557   1.026   3.503
 9379SOL     OW29035   4.426   0.332   5.270
 9379SOL    HW129036   4.328   0.319   5.255
 9379SOL    HW229037   4.471   0.243   5.277
 9380SOL     OW29038   3.943   5.812   5.772
 9380SOL    HW129039   3.943   5.712   5.773
 9380SOL    HW229040   3.878   5.847   5.839
 9381SOL     OW29041   4.721   3.058   5.837
 9381SOL    HW129042   4.729   3.007   5.923
 9381SOL    HW229043   4.813   3.081   5.803
 9382SOL     OW29044   3.850   0.406   4.185
 9382SOL    HW129045   3.824   0.503   4.189
 9382SOL    HW229046   3.943   0.396   4.221
 9383SOL     OW29047   5.645   5.675   4.322
 9383SOL    HW129048   5.577   5.749   4.325
 9383SOL    HW229049   5.630   5.612   4.398
 9384SOL     OW29050   4.362   0.603   2.015
 9384SOL    HW129051   4.297   0.586   1.942
 9384SOL    HW229052   4.316   0.648   2.092
 9385SOL     OW29053   4.192   1.560   3.908
 9385SOL    HW129054   4.215   1.472   3.950
 9385SOL    HW229055   4.111   1.550   3.851
 9386SOL     OW29056   3.466   6.114   5.302
 9386SOL    HW129057   3.381   6.119   5.354
 9386SOL    HW229058   3.466   6.184   5.230
 9387SOL     OW29059   2.884   2.067   0.314
 9387SOL    HW129060   2.841   1.983   0.283
 9387SOL    HW229061   2.878   2.073   0.414
 9388SOL     OW29062   2.834   5.814   3.198
 9388SOL    HW129063   2.852   5.749   3.124
 9388SOL    HW229064   2.819   5.764   3.283
 9389SOL     OW29065   2.210   0.332   3.452
 9389SOL    HW129066   2.198   0.428   3.425
 9389SOL    HW229067   2.126   0.298   3.494
 9390SOL     OW29068   5.108   4.620   6.426
 9390SOL    HW129069   5.102   4.520   6.414
 9390SOL    HW229070   5.058   4.646   6.508
 9391SOL     OW29071   1.334   0.632   5.726
 9391SOL    HW129072   1.396   0.556   5.706
 9391SOL    HW229073   1.242   0.608   5.698
 9392SOL     OW29074   5.172   5.540   5.636
 9392SOL    HW129075   5.189   5.488   5.552
 9392SOL    HW229076   5.174   5.638   5.616
 9393SOL     OW29077   2.713   6.891   6.039
 9393SOL    HW129078   2.797   6.854   6.079
 9393SOL    HW229079   2.678   6.829   5.969
 9394SOL     OW29080   6.422   0.947   1.788
 9394SOL    HW129081   6.464   0.884   1.853
 9394SOL    HW229082   6.485   0.962   1.711
 9395SOL     OW29083   3.190   0.839   1.452
 9395SOL    HW129084   3.158   0.768   1.389
 9395SOL    HW229085   3.111   0.882   1.496
 9396SOL     OW29086   2.234   3.979   4.135
 9396SOL    HW129087   2.264   3.885   4.147
 9396SOL    HW229088   2.267   4.014   4.047
 9397SOL     OW29089   3.553   6.324   6.337
 9397SOL    HW129090   3.577   6.243   6.390
 9397SOL    HW229091   3.464   6.308   6.292
 9398SOL     OW29092   6.183   0.816   5.447
 9398SOL    HW129093   6.131   0.787   5.527
 9398SOL    HW229094   6.205   0.913   5.454
 9399SOL     OW29095   0.853   2.883   5.399
 9399SOL    HW129096   0.942   2.848   5.369
 9399SOL    HW229097   0.866   2.968   5.450
 9400SOL     OW29098   5.600   0.938   1.129
 9400SOL    HW129099   5.541   0.904   1.202
 9400SOL    HW229100   5.561   1.022   1.090
 9401SOL     OW29101   6.731   1.480   2.986
 9401SOL    HW129102   6.686   1.472   2.897
 9401SOL    HW229103   6.683   1.547   3.042
 9402SOL     OW29104   1.462   4.992   3.263
 9402SOL    HW129105   1.504   4.902   3.255
 9402SOL    HW229106   1.480   5.030   3.354
 9403SOL     OW29107   5.912   1.229   1.846
 9403SOL    HW129108   5.950   1.201   1.934
 9403SOL    HW229109   5.946   1.168   1.774
 9404SOL     OW29110   0.984   2.258   0.787
 9404SOL    HW129111   0.905   2.298   0.834
 9404SOL    HW229112   0.958   2.170   0.748
 9405SOL     OW29113   2.211   4.130   3.878
 9405SOL    HW129114   2.255   4.178   3.803
 9405SOL    HW229115   2.138   4.071   3.842
 9406SOL     OW29116   1.015   2.447   6.493
 9406SOL    HW129117   0.950   2.422   6.421
 9406SOL    HW229118   1.108   2.431   6.462
 9407SOL     OW29119   2.365   4.802   3.296
 9407SOL    HW129120   2.274   4.814   3.336
 9407SOL    HW229121   2.435   4.836   3.358
 9408SOL     OW29122   6.907   3.443   6.228
 9408SOL    HW129123   6.972   3.506   6.271
 9408SOL    HW229124   6.818   3.487   6.220
 9409SOL     OW29125   6.388   5.566   1.053
 9409SOL    HW129126   6.458   5.510   1.008
 9409SOL    HW229127   6.327   5.508   1.106
 9410SOL     OW29128   2.028   0.943   2.394
 9410SOL    HW129129   1.959   0.949   2.466
 9410SOL    HW229130   1.999   0.875   2.326
 9411SOL     OW29131   3.634   3.341   3.372
 9411SOL    HW129132   3.732   3.340   3.351
 9411SOL    HW229133   3.585   3.286   3.305
 9412SOL     OW29134   1.954   1.323   2.149
 9412SOL    HW129135   1.987   1.309   2.056
 9412SOL    HW229136   1.928   1.419   2.161
 9413SOL     OW29137   4.569   5.047   3.669
 9413SOL    HW129138   4.626   5.117   3.711
 9413SOL    HW229139   4.559   4.970   3.733
 9414SOL     OW29140   2.859   0.972   3.614
 9414SOL    HW129141   2.953   0.997   3.590
 9414SOL    HW229142   2.819   0.918   3.540
 9415SOL     OW29143   2.088   0.068   2.518
 9415SOL    HW129144   2.144   0.041   2.597
 9415SOL    HW229145   2.086   0.167   2.511
 9416SOL     OW29146   0.072   1.078   6.109
 9416SOL    HW129147   0.019   1.148   6.062
 9416SOL    HW229148   0.161   1.116   6.135
 9417SOL     OW29149   3.586   0.513   0.892
 9417SOL    HW129150   3.600   0.502   0.793
 9417SOL    HW229151   3.583   0.423   0.935
 9418SOL     OW29152   2.107   1.146   1.346
 9418SOL    HW129153   2.077   1.118   1.437
 9418SOL    HW229154   2.140   1.065   1.297
 9419SOL     OW29155   2.266   3.829   6.561
 9419SOL    HW129156   2.176   3.867   6.582
 9419SOL    HW229157   2.333   3.861   6.628
 9420SOL     OW29158   5.838   4.904   0.700
 9420SOL    HW129159   5.785   4.976   0.656
 9420SOL    HW229160   5.921   4.887   0.646
 9421SOL     OW29161   2.875   6.247   4.858
 9421SOL    HW129162   2.896   6.158   4.898
 9421SOL    HW229163   2.903   6.248   4.762
 9422SOL     OW29164   2.714   5.653   2.764
 9422SOL    HW129165   2.765   5.627   2.845
 9422SOL    HW229166   2.644   5.584   2.744
 9423SOL     OW29167   3.680   6.032   3.586
 9423SOL    HW129168   3.610   6.091   3.546
 9423SOL    HW229169   3.762   6.086   3.607
 9424SOL     OW29170   4.825   2.564   4.137
 9424SOL    HW129171   4.799   2.516   4.221
 9424SOL    HW229172   4.798   2.510   4.058
 9425SOL     OW29173   5.249   3.860   1.593
 9425SOL    HW129174   5.285   3.950   1.568
 9425SOL    HW229175   5.231   3.807   1.511
 9426SOL     OW29176   3.485   1.546   6.121
 9426SOL    HW129177   3.454   1.481   6.190
 9426SOL    HW229178   3.506   1.498   6.036
 9427SOL     OW29179   2.845   5.407   3.275
 9427SOL    HW129180   2.831   5.330   3.337
 9427SOL    HW229181   2.943   5.429   3.270
 9428SOL     OW29182   0.309   0.176   1.082
 9428SOL    HW129183   0.399   0.138   1.062
 9428SOL    HW229184   0.243   0.141   1.016
 9429SOL     OW29185   1.872   3.456   4.293
 9429SOL    HW129186   1.849   3.392   4.219
 9429SOL    HW229187   1.828   3.544   4.275
 9430SOL     OW29188   0.372   2.618   5.238
 9430SOL    HW129189   0.325   2.633   5.151
 9430SOL    HW229190   0.469   2.601   5.221
 9431SOL     OW29191   6.490   4.664   1.402
 9431SOL    HW129192   6.478   4.720   1.320
 9431SOL    HW229193   6.513   4.571   1.376
 9432SOL     OW29194   6.412   0.344   4.219
 9432SOL    HW129195   6.337   0.317   4.159
 9432SOL    HW229196   6.444   0.264   4.270
 9433SOL     OW29197   3.288   6.459   3.364
 9433SOL    HW129198   3.372   6.447   3.310
 9433SOL    HW229199   3.307   6.518   3.442
 9434SOL     OW29200   5.525   5.711   1.759
 9434SOL    HW129201   5.556   5.616   1.748
 9434SOL    HW229202   5.573   5.753   1.836
 9435SOL     OW29203   0.064   2.147   3.234
 9435SOL    HW129204   6.995   2.157   3.200
 9435SOL    HW229205   0.064   2.094   3.319
 9436SOL     OW29206   1.641   2.460   2.012
 9436SOL    HW129207   1.683   2.550   1.998
 9436SOL    HW229208   1.542   2.471   2.018
 9437SOL     OW29209   0.153   6.226   3.182
 9437SOL    HW129210   0.182   6.240   3.087
 9437SOL    HW229211   0.217   6.270   3.244
 9438SOL     OW29212   0.714   0.348   2.077
 9438SOL    HW129213   0.804   0.356   2.033
 9438SOL    HW229214   0.673   0.439   2.086
 9439SOL     OW29215   0.914   3.229   0.556
 9439SOL    HW129216   1.001   3.208   0.601
 9439SOL    HW229217   0.859   3.145   0.550
 9440SOL     OW29218   3.518   5.042   3.514
 9440SOL    HW129219   3.494   5.127   3.467
 9440SOL    HW229220   3.561   4.979   3.449
 9441SOL     OW29221   6.471   4.831   6.078
 9441SOL    HW129222   6.556   4.778   6.076
 9441SOL    HW229223   6.456   4.875   5.990
 9442SOL     OW29224   5.510   3.633   1.931
 9442SOL    HW129225   5.473   3.709   1.984
 9442SOL    HW229226   5.453   3.619   1.850
 9443SOL     OW29227   2.620   5.496   0.104
 9443SOL    HW129228   2.637   5.586   0.063
 9443SOL    HW229229   2.556   5.445   0.047
 9444SOL     OW29230   1.855   3.980   0.476
 9444SOL    HW129231   1.921   4.035   0.527
 9444SOL    HW229232   1.804   3.922   0.539
 9445SOL     OW29233   6.420   3.609   3.678
 9445SOL    HW129234   6.508   3.613   3.725
 9445SOL    HW229235   6.414   3.524   3.625
 9446SOL     OW29236   6.375   5.702   5.107
 9446SOL    HW129237   6.338   5.738   5.192
 9446SOL    HW229238   6.472   5.725   5.101
 9447SOL     OW29239   5.392   4.407   4.061
 9447SOL    HW129240   5.461   4.465   4.105
 9447SOL    HW229241   5.438   4.346   3.996
 9448SOL     OW29242   6.673   0.262   6.113
 9448SOL    HW129243   6.649   0.165   6.107
 9448SOL    HW229244   6.766   0.276   6.079
 9449SOL     OW29245   5.689   6.812   0.125
 9449SOL    HW129246   5.785   6.808   0.098
 9449SOL    HW229247   5.640   6.734   0.085
 9450SOL     OW29248   2.559   5.633   3.248
 9450SOL    HW129249   2.568   5.562   3.178
 9450SOL    HW229250   2.608   5.606   3.331
 9451SOL     OW29251   4.378   5.481   5.733
 9451SOL    HW129252   4.334   5.447   5.650
 9451SOL    HW229253   4.366   5.580   5.740
 9452SOL     OW29254   1.463   4.153   0.115
 9452SOL    HW129255   1.496   4.091   0.186
 9452SOL    HW229256   1.366   4.173   0.131
 9453SOL     OW29257   3.039   5.654   2.704
 9453SOL    HW129258   3.016   5.749   2.726
 9453SOL    HW229259   2.962   5.612   2.656
 9454SOL     OW29260   3.654   3.382   6.477
 9454SOL    HW129261   3.588   3.454   6.498
 9454SOL    HW229262   3.698   3.402   6.389
 9455SOL     OW29263   2.958   1.970   3.744
 9455SOL    HW129264   2.900   2.051   3.755
 9455SOL    HW229265   2.941   1.906   3.819
 9456SOL     OW29266   6.631   3.643   0.854
 9456SOL    HW129267   6.582   3.587   0.921
 9456SOL    HW229268   6.583   3.641   0.767
 9457SOL     OW29269   0.885   4.521   4.040
 9457SOL    HW129270   0.876   4.580   4.120
 9457SOL    HW229271   0.866   4.574   3.958
 9458SOL     OW29272   0.573   3.615   6.505
 9458SOL    HW129273   0.635   3.680   6.461
 9458SOL    HW229274   0.535   3.657   6.587
 9459SOL     OW29275   5.408   4.671   4.255
 9459SOL    HW129276   5.374   4.686   4.348
 9459SOL    HW229277   5.331   4.659   4.193
 9460SOL     OW29278   2.031   3.639   5.012
 9460SOL    HW129279   2.024   3.573   4.937
 9460SOL    HW229280   2.106   3.613   5.073
 9461SOL     OW29281   0.520   2.069   1.814
 9461SOL    HW129282   0.480   1.997   1.871
 9461SOL    HW229283   0.462   2.150   1.817
 9462SOL     OW29284   1.150   2.633   3.787
 9462SOL    HW129285   1.216   2.698   3.748
 9462SOL    HW229286   1.198   2.565   3.842
 9463SOL     OW29287   6.055   0.483   1.821
 9463SOL    HW129288   5.983   0.541   1.784
 9463SOL    HW229289   6.032   0.458   1.915
 9464SOL     OW29290   6.159   0.631   0.854
 9464SOL    HW129291   6.166   0.723   0.890
 9464SOL    HW229292   6.074   0.589   0.886
 9465SOL     OW29293   6.908   3.810   2.261
 9465SOL    HW129294   6.933   3.752   2.183
 9465SOL    HW229295   6.985   3.815   2.325
 9466SOL     OW29296   3.189   4.608   5.408
 9466SOL    HW129297   3.263   4.663   5.447
 9466SOL    HW229298   3.101   4.652   5.426
 9467SOL     OW29299   0.814   3.324   1.170
 9467SOL    HW129300   0.784   3.315   1.075
 9467SOL    HW229301   0.912   3.347   1.171
 9468SOL     OW29302   5.372   4.363   6.341
 9468SOL    HW129303   5.313   4.377   6.420
 9468SOL    HW229304   5.427   4.280   6.354
 9469SOL     OW29305   1.120   5.940   1.291
 9469SOL    HW129306   1.158   5.997   1.218
 9469SOL    HW229307   1.095   5.998   1.368
 9470SOL     OW29308   5.202   3.469   0.236
 9470SOL    HW129309   5.156   3.475   0.147
 9470SOL    HW229310   5.276   3.536   0.239
 9471SOL     OW29311   6.832   2.120   4.707
 9471SOL    HW129312   6.927   2.149   4.700
 9471SOL    HW229313   6.803   2.122   4.803
 9472SOL     OW29314   0.141   2.947   5.195
 9472SOL    HW129315   0.163   2.899   5.280
 9472SOL    HW229316   0.095   2.884   5.133
 9473SOL     OW29317   3.356   4.548   7.003
 9473SOL    HW129318   3.382   4.532   0.073
 9473SOL    HW229319   3.410   4.489   6.943
 9474SOL     OW29320   6.885   3.389   1.100
 9474SOL    HW129321   6.854   3.466   1.156
 9474SOL    HW229322   6.971   3.354   1.136
 9475SOL     OW29323   3.839   3.229   0.774
 9475SOL    HW129324   3.906   3.253   0.704
 9475SOL    HW229325   3.830   3.129   0.779
 9476SOL     OW29326   3.981   3.871   4.579
 9476SOL    HW129327   3.999   3.826   4.667
 9476SOL    HW229328   3.995   3.805   4.505
 9477SOL     OW29329   0.268   2.689   1.395
 9477SOL    HW129330   0.284   2.779   1.434
 9477SOL    HW229331   0.354   2.637   1.396
 9478SOL     OW29332   5.269   3.308   1.292
 9478SOL    HW129333   5.324   3.260   1.223
 9478SOL    HW229334   5.197   3.248   1.325
 9479SOL     OW29335   4.140   6.508   0.541
 9479SOL    HW129336   4.228   6.551   0.563
 9479SOL    HW229337   4.150   6.408   0.545
 9480SOL     OW29338   6.203   5.197   0.472
 9480SOL    HW129339   6.285   5.148   0.503
 9480SOL    HW229340   6.125   5.168   0.527
 9481SOL     OW29341   4.996   2.621   2.507
 9481SOL    HW129342   4.960   2.684   2.438
 9481SOL    HW229343   4.942   2.630   2.591
 9482SOL     OW29344   0.515   0.506   3.186
 9482SOL    HW129345   0.573   0.429   3.214
 9482SOL    HW229346   0.555   0.591   3.218
 9483SOL     OW29347   0.954   0.362   0.643
 9483SOL    HW129348   1.048   0.381   0.671
 9483SOL    HW229349   0.955   0.315   0.554
 9484SOL     OW29350   3.627   0.495   4.751
 9484SOL    HW129351   3.534   0.514   4.782
 9484SOL    HW229352   3.636   0.398   4.729
 9485SOL     OW29353   0.332   1.159   1.040
 9485SOL    HW129354   0.392   1.191   0.966
 9485SOL    HW229355   0.380   1.167   1.127
 9486SOL     OW29356   4.249   5.909   0.752
 9486SOL    HW129357   4.253   5.827   0.695
 9486SOL    HW229358   4.178   5.898   0.822
 9487SOL     OW29359   3.367   3.909   3.736
 9487SOL    HW129360   3.350   3.926   3.833
 9487SOL    HW229361   3.344   3.991   3.684
 9488SOL     OW29362   2.851   6.864   0.958
 9488SOL    HW129363   2.800   6.778   0.959
 9488SOL    HW229364   2.880   6.887   1.051
 9489SOL     OW29365   5.248   4.511   1.141
 9489SOL    HW129366   5.243   4.599   1.093
 9489SOL    HW229367   5.248   4.527   1.239
 9490SOL     OW29368   6.157   5.430   3.382
 9490SOL    HW129369   6.131   5.476   3.297
 9490SOL    HW229370   6.123   5.484   3.460
 9491SOL     OW29371   5.150   4.678   3.793
 9491SOL    HW129372   5.163   4.707   3.888
 9491SOL    HW229373   5.222   4.614   3.767
 9492SOL     OW29374   3.707   3.587   4.572
 9492SOL    HW129375   3.751   3.534   4.500
 9492SOL    HW229376   3.776   3.627   4.632
 9493SOL     OW29377   3.056   5.790   4.165
 9493SOL    HW129378   3.044   5.714   4.229
 9493SOL    HW229379   2.971   5.844   4.162
 9494SOL     OW29380   5.607   3.048   3.012
 9494SOL    HW129381   5.514   3.058   2.978
 9494SOL    HW229382   5.618   3.102   3.095
 9495SOL     OW29383   6.949   2.010   2.866
 9495SOL    HW129384   7.014   1.966   2.929
 9495SOL    HW229385   6.928   2.102   2.898
 9496SOL     OW29386   5.855   3.721   1.670
 9496SOL    HW129387   5.954   3.712   1.682
 9496SOL    HW229388   5.813   3.631   1.673
 9497SOL     OW29389   4.939   5.626   5.207
 9497SOL    HW129390   4.910   5.719   5.186
 9497SOL    HW229391   5.030   5.610   5.169
 9498SOL     OW29392   5.595   5.569   4.553
 9498SOL    HW129393   5.664   5.500   4.574
 9498SOL    HW229394   5.504   5.534   4.578
 9499SOL     OW29395   1.793   5.512   6.056
 9499SOL    HW129396   1.831   5.550   5.972
 9499SOL    HW229397   1.746   5.426   6.036
 9500SOL     OW29398   4.363   6.753   0.312
 9500SOL    HW129399   4.356   6.817   0.388
 9500SOL    HW229400   4.296   6.777   0.241
 9501SOL     OW29401   2.590   1.480   4.873
 9501SOL    HW129402   2.593   1.450   4.778
 9501SOL    HW229403   2.606   1.578   4.878
 9502SOL     OW29404   5.754   3.070   4.666
 9502SOL    HW129405   5.692   3.039   4.593
 9502SOL    HW229406   5.756   3.170   4.667
 9503SOL     OW29407   0.167   1.860   0.473
 9503SOL    HW129408   0.154   1.773   0.520
 9503SOL    HW229409   0.250   1.857   0.418
 9504SOL     OW29410   0.050   3.407   0.891
 9504SOL    HW129411   0.134   3.353   0.887
 9504SOL    HW229412   7.000   3.349   0.924
 9505SOL     OW29413   5.344   4.687   5.055
 9505SOL    HW129414   5.322   4.702   5.151
 9505SOL    HW229415   5.440   4.711   5.039
 9506SOL     OW29416   1.485   2.557   0.384
 9506SOL    HW129417   1.562   2.500   0.356
 9506SOL    HW229418   1.463   2.537   0.480
 9507SOL     OW29419   0.735   1.194   2.028
 9507SOL    HW129420   0.779   1.145   2.103
 9507SOL    HW229421   0.713   1.287   2.057
 9508SOL     OW29422   5.998   2.081   2.102
 9508SOL    HW129423   6.013   2.011   2.172
 9508SOL    HW229424   5.900   2.098   2.092
 9509SOL     OW29425   0.019   0.877   4.293
 9509SOL    HW129426   6.991   0.948   4.340
 9509SOL    HW229427   0.113   0.877   4.327
 9510SOL     OW29428   1.504   3.974   3.743
 9510SOL    HW129429   1.584   3.975   3.684
 9510SOL    HW229430   1.497   3.885   3.788
 9511SOL     OW29431   1.915   0.053   0.834
 9511SOL    HW129432   1.899   0.133   0.892
 9511SOL    HW229433   1.865   0.063   0.748
 9512SOL     OW29434   6.598   1.672   0.995
 9512SOL    HW129435   6.547   1.748   1.036
 9512SOL    HW229436   6.550   1.586   1.012
 9513SOL     OW29437   2.411   3.991   6.098
 9513SOL    HW129438   2.443   4.034   6.014
 9513SOL    HW229439   2.347   4.052   6.144
 9514SOL     OW29440   2.123   5.221   5.993
 9514SOL    HW129441   2.100   5.302   5.940
 9514SOL    HW229442   2.219   5.225   6.020
 9515SOL     OW29443   1.675   5.742   1.669
 9515SOL    HW129444   1.619   5.824   1.659
 9515SOL    HW229445   1.767   5.761   1.634
 9516SOL     OW29446   5.431   4.980   6.803
 9516SOL    HW129447   5.495   4.913   6.763
 9516SOL    HW229448   5.482   5.060   6.834
 9517SOL     OW29449   1.438   4.080   1.473
 9517SOL    HW129450   1.532   4.068   1.441
 9517SOL    HW229451   1.385   3.998   1.454
 9518SOL     OW29452   2.185   1.566   0.644
 9518SOL    HW129453   2.127   1.642   0.671
 9518SOL    HW229454   2.258   1.599   0.584
 9519SOL     OW29455   3.331   3.039   5.393
 9519SOL    HW129456   3.411   3.000   5.349
 9519SOL    HW229457   3.350   3.134   5.418
 9520SOL     OW29458   2.777   1.614   2.946
 9520SOL    HW129459   2.870   1.641   2.923
 9520SOL    HW229460   2.770   1.597   3.044
 9521SOL     OW29461   5.011   5.675   2.387
 9521SOL    HW129462   4.969   5.701   2.475
 9521SOL    HW229463   5.109   5.696   2.390
 9522SOL     OW29464   2.779   5.774   1.099
 9522SOL    HW129465   2.693   5.753   1.055
 9522SOL    HW229466   2.798   5.707   1.170
 9523SOL     OW29467   3.866   5.240   4.562
 9523SOL    HW129468   3.902   5.244   4.469
 9523SOL    HW229469   3.770   5.270   4.561
 9524SOL     OW29470   3.604   1.887   1.192
 9524SOL    HW129471   3.548   1.829   1.252
 9524SOL    HW229472   3.598   1.853   1.098
 9525SOL     OW29473   2.733   2.943   5.978
 9525SOL    HW129474   2.757   2.858   6.025
 9525SOL    HW229475   2.743   2.931   5.879
 9526SOL     OW29476   5.144   5.437   2.110
 9526SOL    HW129477   5.238   5.441   2.075
 9526SOL    HW229478   5.091   5.513   2.073
 9527SOL     OW29479   0.624   0.491   2.936
 9527SOL    HW129480   0.579   0.504   3.024
 9527SOL    HW229481   0.723   0.504   2.947
 9528SOL     OW29482   6.733   0.465   0.500
 9528SOL    HW129483   6.726   0.543   0.563
 9528SOL    HW229484   6.642   0.434   0.474
 9529SOL     OW29485   6.290   2.885   5.331
 9529SOL    HW129486   6.366   2.853   5.273
 9529SOL    HW229487   6.313   2.974   5.370
 9530SOL     OW29488   1.821   3.031   2.675
 9530SOL    HW129489   1.870   3.118   2.684
 9530SOL    HW229490   1.860   2.964   2.738
 9531SOL     OW29491   4.472   5.750   2.797
 9531SOL    HW129492   4.384   5.794   2.777
 9531SOL    HW229493   4.533   5.816   2.840
 9532SOL     OW29494   0.688   6.492   1.843
 9532SOL    HW129495   0.741   6.506   1.926
 9532SOL    HW229496   0.609   6.554   1.842
 9533SOL     OW29497   6.608   0.660   4.969
 9533SOL    HW129498   6.617   0.574   5.019
 9533SOL    HW229499   6.631   0.645   4.873
 9534SOL     OW29500   5.889   3.360   5.002
 9534SOL    HW129501   5.821   3.421   5.043
 9534SOL    HW229502   5.976   3.370   5.048
 9535SOL     OW29503   2.449   1.177   5.736
 9535SOL    HW129504   2.361   1.213   5.766
 9535SOL    HW229505   2.520   1.200   5.802
 9536SOL     OW29506   3.081   4.815   5.076
 9536SOL    HW129507   3.062   4.780   5.168
 9536SOL    HW229508   3.031   4.760   5.009
 9537SOL     OW29509   2.438   6.980   2.166
 9537SOL    HW129510   2.530   7.000   2.132
 9537SOL    HW229511   2.441   6.898   2.223
 9538SOL     OW29512   6.520   2.034   3.566
 9538SOL    HW129513   6.454   1.963   3.542
 9538SOL    HW229514   6.479   2.124   3.551
 9539SOL     OW29515   2.063   3.642   5.410
 9539SOL    HW129516   2.108   3.692   5.484
 9539SOL    HW229517   2.106   3.666   5.323
 9540SOL     OW29518   4.871   3.900   4.559
 9540SOL    HW129519   4.876   3.905   4.659
 9540SOL    HW229520   4.887   3.806   4.530
 9541SOL     OW29521   2.849   1.815   5.819
 9541SOL    HW129522   2.816   1.853   5.733
 9541SOL    HW229523   2.862   1.890   5.885
 9542SOL     OW29524   4.921   3.973   4.827
 9542SOL    HW129525   4.874   3.928   4.904
 9542SOL    HW229526   4.865   4.049   4.794
 9543SOL     OW29527   3.459   1.010   4.753
 9543SOL    HW129528   3.426   1.100   4.727
 9543SOL    HW229529   3.536   1.019   4.815
 9544SOL     OW29530   6.777   1.189   2.750
 9544SOL    HW129531   6.842   1.177   2.825
 9544SOL    HW229532   6.759   1.101   2.707
 9545SOL     OW29533   6.865   4.654   3.598
 9545SOL    HW129534   6.954   4.661   3.554
 9545SOL    HW229535   6.876   4.634   3.695
 9546SOL     OW29536   2.526   2.863   5.785
 9546SOL    HW129537   2.533   2.805   5.866
 9546SOL    HW229538   2.616   2.869   5.741
 9547SOL     OW29539   1.787   5.710   3.754
 9547SOL    HW129540   1.823   5.685   3.665
 9547SOL    HW229541   1.833   5.656   3.825
 9548SOL     OW29542   6.033   6.194   4.763
 9548SOL    HW129543   6.051   6.225   4.669
 9548SOL    HW229544   6.053   6.096   4.769
 9549SOL     OW29545   3.042   4.001   1.218
 9549SOL    HW129546   3.106   3.925   1.213
 9549SOL    HW229547   2.966   3.985   1.154
 9550SOL     OW29548   0.022   1.132   6.986
 9550SOL    HW129549   0.115   1.155   6.957
 9550SOL    HW229550   7.003   1.076   6.915
 9551SOL     OW29551   6.772   0.705   4.366
 9551SOL    HW129552   6.748   0.680   4.272
 9551SOL    HW229553   6.700   0.676   4.428
 9552SOL     OW29554   0.852   6.016   2.260
 9552SOL    HW129555   0.874   6.110   2.234
 9552SOL    HW229556   0.876   5.954   2.185
 9553SOL     OW29557   5.872   4.222   6.641
 9553SOL    HW129558   5.939   4.164   6.688
 9553SOL    HW229559   5.890   4.318   6.664
 9554SOL     OW29560   2.685   0.301   1.485
 9554SOL    HW129561   2.740   0.258   1.413
 9554SOL    HW229562   2.716   0.395   1.499
 9555SOL     OW29563   0.070   0.755   0.875
 9555SOL    HW129564   0.129   0.809   0.935
 9555SOL    HW229565   0.125   0.684   0.830
 9556SOL     OW29566   2.602   2.501   1.016
 9556SOL    HW129567   2.536   2.576   1.016
 9556SOL    HW229568   2.615   2.467   1.109
 9557SOL     OW29569   6.156   0.873   2.977
 9557SOL    HW129570   6.181   0.968   2.995
 9557SOL    HW229571   6.194   0.844   2.890
 9558SOL     OW29572   5.515   5.260   4.084
 9558SOL    HW129573   5.573   5.191   4.127
 9558SOL    HW229574   5.465   5.311   4.155
 9559SOL     OW29575   0.045   3.810   1.541
 9559SOL    HW129576   6.983   3.860   1.550
 9559SOL    HW229577   0.102   3.856   1.473
 9560SOL     OW29578   1.237   1.800   2.342
 9560SOL    HW129579   1.162   1.783   2.407
 9560SOL    HW229580   1.280   1.888   2.364
 9561SOL     OW29581   1.519   6.895   0.818
 9561SOL    HW129582   1.513   6.988   0.781
 9561SOL    HW229583   1.613   6.861   0.807
 9562SOL     OW29584   3.299   6.364   5.067
 9562SOL    HW129585   3.282   6.364   4.968
 9562SOL    HW229586   3.212   6.353   5.115
 9563SOL     OW29587   5.941   6.377   0.450
 9563SOL    HW129588   5.920   6.341   0.360
 9563SOL    HW229589   5.892   6.464   0.463
 9564SOL     OW29590   2.576   6.932   6.303
 9564SOL    HW129591   2.512   6.942   6.379
 9564SOL    HW229592   2.656   6.990   6.319
 9565SOL     OW29593   4.351   6.297   4.887
 9565SOL    HW129594   4.333   6.228   4.958
 9565SOL    HW229595   4.380   6.251   4.803
 9566SOL     OW29596   3.565   4.756   0.314
 9566SOL    HW129597   3.499   4.682   0.325
 9566SOL    HW229598   3.608   4.777   0.402
 9567SOL     OW29599   6.480   5.518   6.399
 9567SOL    HW129600   6.385   5.526   6.430
 9567SOL    HW229601   6.484   5.453   6.323
 9568SOL     OW29602   4.455   2.952   6.470
 9568SOL    HW129603   4.458   3.027   6.536
 9568SOL    HW229604   4.522   2.883   6.494
 9569SOL     OW29605   7.015   0.632   1.919
 9569SOL    HW129606   0.020   0.538   1.902
 9569SOL    HW229607   6.974   0.638   2.010
 9570SOL     OW29608   1.097   2.264   2.016
 9570SOL    HW129609   1.142   2.249   1.928
 9570SOL    HW229610   1.099   2.179   2.069
 9571SOL     OW29611   2.960   3.339   6.994
 9571SOL    HW129612   2.946   3.304   6.902
 9571SOL    HW229613   3.038   3.293   0.012
 9572SOL     OW29614   2.278   5.413   0.776
 9572SOL    HW129615   2.351   5.373   0.830
 9572SOL    HW229616   2.309   5.499   0.736
 9573SOL     OW29617   0.670   1.888   6.691
 9573SOL    HW129618   0.708   1.929   6.608
 9573SOL    HW229619   0.621   1.805   6.666
 9574SOL     OW29620   3.990   3.217   4.770
 9574SOL    HW129621   3.909   3.190   4.824
 9574SOL    HW229622   4.055   3.264   4.830
 9575SOL     OW29623   5.204   0.729   0.994
 9575SOL    HW129624   5.257   0.727   0.910
 9575SOL    HW229625   5.201   0.823   1.029
 9576SOL     OW29626   3.402   1.359   2.593
 9576SOL    HW129627   3.348   1.438   2.621
 9576SOL    HW229628   3.371   1.328   2.503
 9577SOL     OW29629   1.294   0.450   3.098
 9577SOL    HW129630   1.355   0.374   3.121
 9577SOL    HW229631   1.308   0.524   3.163
 9578SOL     OW29632   6.535   3.305   3.191
 9578SOL    HW129633   6.466   3.283   3.260
 9578SOL    HW229634   6.559   3.402   3.197
 9579SOL     OW29635   1.204   6.195   2.947
 9579SOL    HW129636   1.135   6.124   2.931
 9579SOL    HW229637   1.281   6.155   2.997
 9580SOL     OW29638   5.313   3.303   0.426
 9580SOL    HW129639   5.294   3.338   0.518
 9580SOL    HW229640   5.258   3.352   0.359
 9581SOL     OW29641   1.513   5.226   6.306
 9581SOL    HW129642   1.460   5.141   6.313
 9581SOL    HW229643   1.610   5.205   6.313
 9582SOL     OW29644   4.272   4.724   4.748
 9582SOL    HW129645   4.275   4.663   4.827
 9582SOL    HW229646   4.324   4.683   4.673
 9583SOL     OW29647   2.489   3.489   1.269
 9583SOL    HW129648   2.416   3.427   1.297
 9583SOL    HW229649   2.450   3.574   1.234
 9584SOL     OW29650   5.791   5.946   6.731
 9584SOL    HW129651   5.865   5.887   6.764
 9584SOL    HW229652   5.782   5.936   6.632
 9585SOL     OW29653   6.588   0.530   3.191
 9585SOL    HW129654   6.598   0.602   3.124
 9585SOL    HW229655   6.497   0.534   3.233
 9586SOL     OW29656   5.758   4.222   2.200
 9586SOL    HW129657   5.752   4.124   2.216
 9586SOL    HW229658   5.670   4.264   2.222
 9587SOL     OW29659   6.166   0.507   2.464
 9587SOL    HW129660   6.197   0.447   2.390
 9587SOL    HW229661   6.244   0.555   2.504
 9588SOL     OW29662   0.566   1.202   1.780
 9588SOL    HW129663   0.563   1.116   1.728
 9588SOL    HW229664   0.586   1.183   1.876
 9589SOL     OW29665   2.741   5.572   6.575
 9589SOL    HW129666   2.774   5.663   6.598
 9589SOL    HW229667   2.657   5.579   6.521
 9590SOL     OW29668   0.030   4.934   2.461
 9590SOL    HW129669   0.110   4.875   2.476
 9590SOL    HW229670   0.058   5.016   2.413
 9591SOL     OW29671   3.099   5.952   0.215
 9591SOL    HW129672   3.179   6.012   0.214
 9591SOL    HW229673   3.019   6.005   0.244
 9592SOL     OW29674   3.831   5.333   2.126
 9592SOL    HW129675   3.764   5.298   2.191
 9592SOL    HW229676   3.924   5.314   2.160
 9593SOL     OW29677   5.427   1.244   4.695
 9593SOL    HW129678   5.465   1.314   4.634
 9593SOL    HW229679   5.389   1.169   4.641
 9594SOL     OW29680   6.914   6.046   3.825
 9594SOL    HW129681   6.954   5.973   3.769
 9594SOL    HW229682   6.825   6.071   3.787
 9595SOL     OW29683   1.732   4.690   4.593
 9595SOL    HW129684   1.768   4.600   4.568
 9595SOL    HW229685   1.785   4.726   4.670
 9596SOL     OW29686   0.286   5.074   6.837
 9596SOL    HW129687   0.336   4.996   6.800
 9596SOL    HW229688   0.246   5.049   6.925
 9597SOL     OW29689   0.312   3.636   1.033
 9597SOL    HW129690   0.337   3.573   0.960
 9597SOL    HW229691   0.219   3.670   1.017
 9598SOL     OW29692   0.705   4.265   5.523
 9598SOL    HW129693   0.716   4.365   5.530
 9598SOL    HW229694   0.749   4.233   5.440
 9599SOL     OW29695   3.870   0.847   4.911
 9599SOL    HW129696   3.871   0.751   4.940
 9599SOL    HW229697   3.791   0.893   4.951
 9600SOL     OW29698   2.039   0.111   6.005
 9600SOL    HW129699   2.116   0.173   5.992
 9600SOL    HW229700   2.067   0.018   5.979
 9601SOL     OW29701   6.304   4.139   6.186
 9601SOL    HW129702   6.399   4.134   6.156
 9601SOL    HW229703   6.260   4.050   6.174
 9602SOL     OW29704   6.747   4.810   6.440
 9602SOL    HW129705   6.821   4.866   6.477
 9602SOL    HW229706   6.785   4.724   6.407
 9603SOL     OW29707   2.306   6.760   4.623
 9603SOL    HW129708   2.267   6.819   4.694
 9603SOL    HW229709   2.369   6.813   4.567
 9604SOL     OW29710   5.403   0.837   0.276
 9604SOL    HW129711   5.333   0.891   0.231
 9604SOL    HW229712   5.473   0.810   0.210
 9605SOL     OW29713   0.624   5.059   5.773
 9605SOL    HW129714   0.545   5.114   5.799
 9605SOL    HW229715   0.692   5.060   5.846
 9606SOL     OW29716   1.135   0.064   4.460
 9606SOL    HW129717   1.074   0.138   4.434
 9606SOL    HW229718   1.090   7.001   4.447
 9607SOL     OW29719   1.136   1.900   1.696
 9607SOL    HW129720   1.197   1.928   1.770
 9607SOL    HW229721   1.056   1.853   1.734
 9608SOL     OW29722   0.232   6.956   2.637
 9608SOL    HW129723   0.273   6.972   2.547
 9608SOL    HW229724   0.138   6.924   2.625
 9609SOL     OW29725   1.212   3.484   4.516
 9609SOL    HW129726   1.168   3.504   4.603
 9609SOL    HW229727   1.262   3.564   4.483
 9610SOL     OW29728   1.049   3.160   5.385
 9610SOL    HW129729   1.097   3.240   5.423
 9610SOL    HW229730   0.954   3.185   5.365
 9611SOL     OW29731   0.044   6.839   0.915
 9611SOL    HW129732   0.075   6.896   0.839
 9611SOL    HW229733   0.009   6.752   0.881
 9612SOL     OW29734   6.545   2.865   0.326
 9612SOL    HW129735   6.530   2.880   0.229
 9612SOL    HW229736   6.490   2.931   0.378
 9613SOL     OW29737   5.470   6.075   4.279
 9613SOL    HW129738   5.429   6.131   4.351
 9613SOL    HW229739   5.416   6.083   4.195
 9614SOL     OW29740   4.406   3.653   1.690
 9614SOL    HW129741   4.314   3.632   1.657
 9614SOL    HW229742   4.426   3.750   1.673
 9615SOL     OW29743   2.584   6.081   3.036
 9615SOL    HW129744   2.589   6.007   2.969
 9615SOL    HW229745   2.557   6.044   3.125
 9616SOL     OW29746   4.489   3.452   0.911
 9616SOL    HW129747   4.540   3.492   0.987
 9616SOL    HW229748   4.396   3.431   0.941
 9617SOL     OW29749   1.241   4.091   3.690
 9617SOL    HW129750   1.249   4.187   3.716
 9617SOL    HW229751   1.332   4.054   3.670
 9618SOL     OW29752   3.447   0.559   6.906
 9618SOL    HW129753   3.372   0.619   6.933
 9618SOL    HW229754   3.453   0.554   6.806
 9619SOL     OW29755   0.673   6.767   1.122
 9619SOL    HW129756   0.635   6.688   1.171
 9619SOL    HW229757   0.773   6.760   1.121
 9620SOL     OW29758   4.300   1.408   6.489
 9620SOL    HW129759   4.292   1.313   6.522
 9620SOL    HW229760   4.287   1.471   6.566
 9621SOL     OW29761   1.616   0.978   1.721
 9621SOL    HW129762   1.636   0.906   1.788
 9621SOL    HW229763   1.517   0.988   1.710
 9622SOL     OW29764   6.523   1.193   6.854
 9622SOL    HW129765   6.508   1.292   6.849
 9622SOL    HW229766   6.550   1.168   6.947
 9623SOL     OW29767   4.652   5.324   6.669
 9623SOL    HW129768   4.640   5.412   6.714
 9623SOL    HW229769   4.738   5.323   6.618
 9624SOL     OW29770   4.830   4.823   5.267
 9624SOL    HW129771   4.835   4.828   5.167
 9624SOL    HW229772   4.774   4.745   5.294
 9625SOL     OW29773   4.518   4.499   6.711
 9625SOL    HW129774   4.439   4.446   6.742
 9625SOL    HW229775   4.506   4.522   6.614
 9626SOL     OW29776   1.738   5.432   4.317
 9626SOL    HW129777   1.646   5.470   4.325
 9626SOL    HW229778   1.759   5.379   4.399
 9627SOL     OW29779   0.788   4.554   4.621
 9627SOL    HW129780   0.796   4.476   4.684
 9627SOL    HW229781   0.750   4.632   4.669
 9628SOL     OW29782   6.041   4.031   0.720
 9628SOL    HW129783   6.097   3.949   0.713
 9628SOL    HW229784   6.096   4.112   0.701
 9629SOL     OW29785   6.738   6.198   3.472
 9629SOL    HW129786   6.659   6.253   3.444
 9629SOL    HW229787   6.822   6.239   3.435
 9630SOL     OW29788   6.002   5.842   5.316
 9630SOL    HW129789   5.925   5.870   5.373
 9630SOL    HW229790   5.974   5.766   5.258
 9631SOL     OW29791   4.400   1.190   1.583
 9631SOL    HW129792   4.376   1.260   1.517
 9631SOL    HW229793   4.495   1.162   1.570
 9632SOL     OW29794   2.220   5.181   1.405
 9632SOL    HW129795   2.150   5.224   1.462
 9632SOL    HW229796   2.183   5.096   1.366
 9633SOL     OW29797   4.408   3.217   1.265
 9633SOL    HW129798   4.465   3.168   1.331
 9633SOL    HW229799   4.379   3.154   1.193
 9634SOL     OW29800   5.864   5.567   3.020
 9634SOL    HW129801   5.831   5.661   3.032
 9634SOL    HW229802   5.939   5.550   3.083
 9635SOL     OW29803   0.143   4.481   5.148
 9635SOL    HW129804   0.045   4.502   5.141
 9635SOL    HW229805   0.166   4.464   5.244
 9636SOL     OW29806   3.691   1.459   5.869
 9636SOL    HW129807   3.740   1.395   5.927
 9636SOL    HW229808   3.626   1.408   5.811
 9637SOL     OW29809   3.289   3.175   1.762
 9637SOL    HW129810   3.243   3.105   1.816
 9637SOL    HW229811   3.222   3.227   1.709
 9638SOL     OW29812   0.270   4.024   6.398
 9638SOL    HW129813   0.290   3.932   6.362
 9638SOL    HW229814   0.299   4.092   6.331
 9639SOL     OW29815   4.534   2.819   1.719
 9639SOL    HW129816   4.575   2.889   1.777
 9639SOL    HW229817   4.574   2.824   1.627
 9640SOL     OW29818   4.074   1.296   2.248
 9640SOL    HW129819   3.996   1.238   2.270
 9640SOL    HW229820   4.058   1.388   2.283
 9641SOL     OW29821   5.112   6.196   2.354
 9641SOL    HW129822   5.017   6.165   2.361
 9641SOL    HW229823   5.145   6.183   2.261
 9642SOL     OW29824   1.122   0.147   4.091
 9642SOL    HW129825   1.095   0.240   4.116
 9642SOL    HW229826   1.197   0.150   4.025
 9643SOL     OW29827   5.195   3.896   3.602
 9643SOL    HW129828   5.175   3.855   3.691
 9643SOL    HW229829   5.268   3.845   3.557
 9644SOL     OW29830   2.194   5.967   4.999
 9644SOL    HW129831   2.208   6.051   4.947
 9644SOL    HW229832   2.141   5.987   5.082
 9645SOL     OW29833   1.026   3.927   5.157
 9645SOL    HW129834   1.066   3.960   5.072
 9645SOL    HW229835   1.090   3.944   5.233
 9646SOL     OW29836   2.923   6.281   2.988
 9646SOL    HW129837   2.930   6.339   3.069
 9646SOL    HW229838   2.945   6.187   3.011
 9647SOL     OW29839   0.198   6.431   2.688
 9647SOL    HW129840   0.118   6.485   2.713
 9647SOL    HW229841   0.273   6.450   2.752
 9648SOL     OW29842   5.397   3.063   1.146
 9648SOL    HW129843   5.376   2.985   1.204
 9648SOL    HW229844   5.488   3.051   1.105
 9649SOL     OW29845   2.722   3.978   6.793
 9649SOL    HW129846   2.800   3.976   6.730
 9649SOL    HW229847   2.705   4.073   6.822
 9650SOL     OW29848   5.106   4.322   3.400
 9650SOL    HW129849   5.087   4.268   3.317
 9650SOL    HW229850   5.134   4.260   3.474
 9651SOL     OW29851   3.838   1.177   1.458
 9651SOL    HW129852   3.877   1.168   1.550
 9651SOL    HW229853   3.843   1.089   1.411
 9652SOL     OW29854   0.507   4.527   0.978
 9652SOL    HW129855   0.599   4.532   0.940
 9652SOL    HW229856   0.507   4.466   1.058
 9653SOL     OW29857   4.700   4.483   5.899
 9653SOL    HW129858   4.744   4.418   5.838
 9653SOL    HW229859   4.765   4.554   5.925
 9654SOL     OW29860   2.888   3.388   2.691
 9654SOL    HW129861   2.939   3.471   2.667
 9654SOL    HW229862   2.791   3.409   2.699
 9655SOL     OW29863   0.264   1.807   0.174
 9655SOL    HW129864   0.349   1.860   0.167
 9655SOL    HW229865   0.287   1.709   0.175
 9656SOL     OW29866   4.815   1.942   0.847
 9656SOL    HW129867   4.847   2.031   0.877
 9656SOL    HW229868   4.867   1.913   0.766
 9657SOL     OW29869   5.913   4.468   3.328
 9657SOL    HW129870   5.987   4.530   3.303
 9657SOL    HW229871   5.937   4.420   3.412
 9658SOL     OW29872   5.769   2.093   2.708
 9658SOL    HW129873   5.687   2.055   2.666
 9658SOL    HW229874   5.793   2.040   2.790
 9659SOL     OW29875   1.380   2.350   0.076
 9659SOL    HW129876   1.468   2.329   0.034
 9659SOL    HW229877   1.390   2.426   0.141
 9660SOL     OW29878   0.552   0.591   1.888
 9660SOL    HW129879   0.453   0.583   1.892
 9660SOL    HW229880   0.587   0.615   1.979
 9661SOL     OW29881   4.473   5.772   1.499
 9661SOL    HW129882   4.456   5.782   1.401
 9661SOL    HW229883   4.545   5.704   1.514
 9662SOL     OW29884   5.150   3.881   0.332
 9662SOL    HW129885   5.183   3.787   0.326
 9662SOL    HW229886   5.141   3.908   0.428
 9663SOL     OW29887   0.233   5.539   2.289
 9663SOL    HW129888   0.277   5.503   2.372
 9663SOL    HW229889   0.269   5.630   2.269
 9664SOL     OW29890   5.363   4.004   5.072
 9664SOL    HW129891   5.351   4.033   5.167
 9664SOL    HW229892   5.274   3.987   5.031
 9665SOL     OW29893   6.346   6.077   5.804
 9665SOL    HW129894   6.359   6.023   5.887
 9665SOL    HW229895   6.276   6.034   5.747
 9666SOL     OW29896   6.065   3.337   2.020
 9666SOL    HW129897   5.971   3.327   1.986
 9666SOL    HW229898   6.127   3.288   1.959
 9667SOL     OW29899   4.446   3.523   1.331
 9667SOL    HW129900   4.445   3.426   1.305
 9667SOL    HW229901   4.352   3.556   1.341
 9668SOL     OW29902   1.659   1.040   6.615
 9668SOL    HW129903   1.580   1.080   6.661
 9668SOL    HW229904   1.629   0.989   6.535
 9669SOL     OW29905   2.043   6.616   1.460
 9669SOL    HW129906   2.122   6.665   1.497
 9669SOL    HW229907   2.072   6.528   1.423
 9670SOL     OW29908   0.045   5.354   5.002
 9670SOL    HW129909   6.999   5.361   5.072
 9670SOL    HW229910   0.093   5.441   4.993
 9671SOL     OW29911   6.578   4.512   0.601
 9671SOL    HW129912   6.507   4.461   0.552
 9671SOL    HW229913   6.658   4.522   0.542
 9672SOL     OW29914   1.280   4.905   3.574
 9672SOL    HW129915   1.251   4.992   3.535
 9672SOL    HW229916   1.379   4.898   3.569
 9673SOL     OW29917   3.377   3.567   1.047
 9673SOL    HW129918   3.464   3.604   1.014
 9673SOL    HW229919   3.340   3.502   0.981
 9674SOL     OW29920   3.893   6.716   2.951
 9674SOL    HW129921   3.817   6.756   3.002
 9674SOL    HW229922   3.930   6.638   3.002
 9675SOL     OW29923   4.950   2.643   6.903
 9675SOL    HW129924   4.994   2.720   6.857
 9675SOL    HW229925   4.861   2.672   6.937
 9676SOL     OW29926   1.199   4.151   5.625
 9676SOL    HW129927   1.256   4.170   5.545
 9676SOL    HW229928   1.106   4.129   5.596
 9677SOL     OW29929   6.758   5.145   5.951
 9677SOL    HW129930   6.778   5.223   6.010
 9677SOL    HW229931   6.791   5.061   5.994
 9678SOL     OW29932   3.004   3.747   4.299
 9678SOL    HW129933   3.001   3.657   4.342
 9678SOL    HW229934   2.942   3.750   4.221
 9679SOL     OW29935   2.700   0.423   4.092
 9679SOL    HW129936   2.710   0.328   4.120
 9679SOL    HW229937   2.605   0.439   4.063
 9680SOL     OW29938   4.168   0.322   5.280
 9680SOL    HW129939   4.156   0.272   5.366
 9680SOL    HW229940   4.150   0.419   5.294
 9681SOL     OW29941   3.472   2.079   0.680
 9681SOL    HW129942   3.420   2.162   0.700
 9681SOL    HW229943   3.542   2.066   0.750
 9682SOL     OW29944   4.856   3.713   3.705
 9682SOL    HW129945   4.830   3.617   3.696
 9682SOL    HW229946   4.856   3.756   3.615
 9683SOL     OW29947   3.280   6.134   0.574
 9683SOL    HW129948   3.189   6.168   0.595
 9683SOL    HW229949   3.334   6.129   0.658
 9684SOL     OW29950   0.835   4.326   4.772
 9684SOL    HW129951   0.924   4.313   4.815
 9684SOL    HW229952   0.764   4.276   4.823
 9685SOL     OW29953   4.886   3.498   0.704
 9685SOL    HW129954   4.806   3.540   0.660
 9685SOL    HW229955   4.943   3.570   0.744
 9686SOL     OW29956   0.919   3.057   6.408
 9686SOL    HW129957   0.860   2.980   6.434
 9686SOL    HW229958   0.970   3.034   6.325
 9687SOL     OW29959   6.291   0.811   2.735
 9687SOL    HW129960   6.387   0.801   2.710
 9687SOL    HW229961   6.243   0.860   2.662
 9688SOL     OW29962   1.218   3.385   0.566
 9688SOL    HW129963   1.170   3.394   0.479
 9688SOL    HW229964   1.232   3.288   0.587
 9689SOL     OW29965   0.660   4.464   6.948
 9689SOL    HW129966   0.703   4.436   6.862
 9689SOL    HW229967   0.627   4.382   6.996
 9690SOL     OW29968   5.412   6.667   5.610
 9690SOL    HW129969   5.422   6.741   5.676
 9690SOL    HW229970   5.469   6.685   5.530
 9691SOL     OW29971   3.015   3.871   1.755
 9691SOL    HW129972   2.926   3.871   1.709
 9691SOL    HW229973   3.085   3.904   1.692
 9692SOL     OW29974   4.425   5.899   1.257
 9692SOL    HW129975   4.463   5.844   1.183
 9692SOL    HW229976   4.485   5.977   1.275
 9693SOL     OW29977   6.108   4.177   3.282
 9693SOL    HW129978   6.110   4.194   3.184
 9693SOL    HW229979   6.180   4.229   3.327
 9694SOL     OW29980   3.212   0.880   2.513
 9694SOL    HW129981   3.269   0.878   2.596
 9694SOL    HW229982   3.270   0.878   2.432
 9695SOL     OW29983   6.457   2.861   3.393
 9695SOL    HW129984   6.528   2.826   3.454
 9695SOL    HW229985   6.494   2.868   3.301
 9696SOL     OW29986   5.870   2.864   1.568
 9696SOL    HW129987   5.902   2.770   1.565
 9696SOL    HW229988   5.829   2.889   1.480
 9697SOL     OW29989   0.809   6.259   0.529
 9697SOL    HW129990   0.832   6.356   0.537
 9697SOL    HW229991   0.848   6.222   0.445
 9698SOL     OW29992   5.349   2.591   5.733
 9698SOL    HW129993   5.392   2.538   5.660
 9698SOL    HW229994   5.299   2.669   5.693
 9699SOL     OW29995   0.112   5.314   0.293
 9699SOL    HW129996   0.181   5.298   0.223
 9699SOL    HW229997   0.112   5.411   0.319
 9700SOL     OW29998   6.259   5.200   4.657
 9700SOL    HW129999   6.239   5.242   4.745
 9700SOL    HW230000   6.269   5.271   4.587
 9701SOL     OW30001   4.243   4.422   5.820
 9701SOL    HW130002   4.235   4.323   5.815
 9701SOL    HW230003   4.254   4.450   5.916
 9702SOL     OW30004   4.062   1.942   0.515
 9702SOL    HW130005   4.128   1.867   0.513
 9702SOL    HW230006   3.983   1.917   0.460
 9703SOL     OW30007   4.952   3.443   3.686
 9703SOL    HW130008   4.905   3.360   3.715
 9703SOL    HW230009   5.043   3.445   3.727
 9704SOL     OW30010   3.686   5.897   1.790
 9704SOL    HW130011   3.621   5.968   1.762
 9704SOL    HW230012   3.636   5.819   1.827
 9705SOL     OW30013   5.429   4.527   5.557
 9705SOL    HW130014   5.507   4.469   5.534
 9705SOL    HW230015   5.461   4.607   5.607
 9706SOL     OW30016   2.882   1.965   1.119
 9706SOL    HW130017   2.897   1.893   1.052
 9706SOL    HW230018   2.951   1.959   1.191
 9707SOL     OW30019   5.806   4.952   2.681
 9707SOL    HW130020   5.782   4.879   2.617
 9707SOL    HW230021   5.856   5.024   2.633
 9708SOL     OW30022   0.606   1.388   3.394
 9708SOL    HW130023   0.639   1.311   3.339
 9708SOL    HW230024   0.530   1.357   3.451
 9709SOL     OW30025   5.266   4.989   2.364
 9709SOL    HW130026   5.217   5.072   2.337
 9709SOL    HW230027   5.341   5.014   2.425
 9710SOL     OW30028   6.459   1.394   1.555
 9710SOL    HW130029   6.524   1.470   1.553
 9710SOL    HW230030   6.369   1.428   1.579
 9711SOL     OW30031   4.447   5.441   6.125
 9711SOL    HW130032   4.429   5.365   6.187
 9711SOL    HW230033   4.545   5.461   6.123
 9712SOL     OW30034   5.524   3.650   7.008
 9712SOL    HW130035   5.486   3.653   6.916
 9712SOL    HW230036   5.562   3.740   0.006
 9713SOL     OW30037   2.089   4.754   3.452
 9713SOL    HW130038   2.100   4.853   3.443
 9713SOL    HW230039   1.994   4.733   3.476
 9714SOL     OW30040   4.383   6.555   6.383
 9714SOL    HW130041   4.467   6.556   6.438
 9714SOL    HW230042   4.344   6.463   6.385
 9715SOL     OW30043   5.573   4.246   6.922
 9715SOL    HW130044   5.485   4.292   6.926
 9715SOL    HW230045   5.612   4.240   7.014
 9716SOL     OW30046   3.681   4.024   6.844
 9716SOL    HW130047   3.659   4.040   6.748
 9716SOL    HW230048   3.768   3.975   6.850
 9717SOL     OW30049   4.955   6.342   6.104
 9717SOL    HW130050   4.864   6.355   6.144
 9717SOL    HW230051   5.009   6.425   6.118
 9718SOL     OW30052   5.038   3.170   1.407
 9718SOL    HW130053   5.003   3.109   1.335
 9718SOL    HW230054   5.070   3.116   1.484
 9719SOL     OW30055   5.401   0.372   5.838
 9719SOL    HW130056   5.437   0.348   5.748
 9719SOL    HW230057   5.414   0.295   5.900
 9720SOL     OW30058   1.073   3.728   2.287
 9720SOL    HW130059   1.117   3.718   2.376
 9720SOL    HW230060   1.007   3.655   2.274
 9721SOL     OW30061   0.277   1.176   6.946
 9721SOL    HW130062   0.287   1.108   6.873
 9721SOL    HW230063   0.344   1.249   6.931
 9722SOL     OW30064   3.338   1.248   5.399
 9722SOL    HW130065   3.272   1.174   5.384
 9722SOL    HW230066   3.423   1.211   5.436
 9723SOL     OW30067   4.061   6.283   3.859
 9723SOL    HW130068   4.004   6.211   3.899
 9723SOL    HW230069   4.124   6.318   3.929
 9724SOL     OW30070   1.341   4.527   0.193
 9724SOL    HW130071   1.383   4.615   0.212
 9724SOL    HW230072   1.278   4.536   0.115
 9725SOL     OW30073   4.431   6.304   6.086
 9725SOL    HW130074   4.507   6.341   6.139
 9725SOL    HW230075   4.442   6.330   5.990
 9726SOL     OW30076   4.241   1.683   3.575
 9726SOL    HW130077   4.178   1.610   3.547
 9726SOL    HW230078   4.258   1.677   3.673
 9727SOL     OW30079   0.917   2.187   6.611
 9727SOL    HW130080   0.868   2.273   6.623
 9727SOL    HW230081   0.864   2.126   6.552
 9728SOL     OW30082   0.437   1.526   5.215
 9728SOL    HW130083   0.481   1.444   5.253
 9728SOL    HW230084   0.418   1.511   5.117
 9729SOL     OW30085   1.312   4.599   3.988
 9729SOL    HW130086   1.391   4.554   3.946
 9729SOL    HW230087   1.244   4.530   4.014
 9730SOL     OW30088   0.754   4.307   3.592
 9730SOL    HW130089   0.847   4.272   3.589
 9730SOL    HW230090   0.739   4.370   3.516
 9731SOL     OW30091   5.046   5.306   1.837
 9731SOL    HW130092   5.068   5.387   1.782
 9731SOL    HW230093   5.117   5.291   1.905
 9732SOL     OW30094   1.496   3.927   2.277
 9732SOL    HW130095   1.414   3.874   2.300
 9732SOL    HW230096   1.479   3.981   2.195
 9733SOL     OW30097   5.120   5.593   0.233
 9733SOL    HW130098   5.131   5.510   0.288
 9733SOL    HW230099   5.093   5.569   0.140
 9734SOL     OW30100   6.599   0.167   0.335
 9734SOL    HW130101   6.607   0.069   0.316
 9734SOL    HW230102   6.594   0.182   0.434
 9735SOL     OW30103   1.922   2.950   3.581
 9735SOL    HW130104   1.883   2.960   3.672
 9735SOL    HW230105   2.009   2.999   3.576
 9736SOL     OW30106   5.243   1.497   6.148
 9736SOL    HW130107   5.332   1.542   6.155
 9736SOL    HW230108   5.230   1.463   6.055
 9737SOL     OW30109   5.089   2.371   2.824
 9737SOL    HW130110   5.123   2.283   2.855
 9737SOL    HW230111   5.163   2.438   2.825
 9738SOL     OW30112   1.990   6.478   0.686
 9738SOL    HW130113   1.934   6.559   0.667
 9738SOL    HW230114   1.957   6.401   0.632
 9739SOL     OW30115   5.104   5.796   0.859
 9739SOL    HW130116   5.110   5.740   0.776
 9739SOL    HW230117   5.154   5.882   0.845
 9740SOL     OW30118   0.511   1.095   3.627
 9740SOL    HW130119   0.512   0.996   3.612
 9740SOL    HW230120   0.489   1.114   3.722
 9741SOL     OW30121   2.497   1.336   2.747
 9741SOL    HW130122   2.433   1.335   2.823
 9741SOL    HW230123   2.591   1.341   2.781
 9742SOL     OW30124   4.160   0.781   0.623
 9742SOL    HW130125   4.199   0.689   0.623
 9742SOL    HW230126   4.226   0.845   0.661
 9743SOL     OW30127   6.873   4.322   3.242
 9743SOL    HW130128   6.873   4.228   3.209
 9743SOL    HW230129   6.915   4.382   3.174
 9744SOL     OW30130   1.445   0.052   2.189
 9744SOL    HW130131   1.497   0.038   2.105
 9744SOL    HW230132   1.364   0.106   2.169
 9745SOL     OW30133   4.324   2.758   6.331
 9745SOL    HW130134   4.351   2.829   6.396
 9745SOL    HW230135   4.271   2.800   6.257
 9746SOL     OW30136   5.851   0.223   5.440
 9746SOL    HW130137   5.929   0.161   5.445
 9746SOL    HW230138   5.883   0.317   5.436
 9747SOL     OW30139   2.390   2.186   1.883
 9747SOL    HW130140   2.346   2.252   1.821
 9747SOL    HW230141   2.457   2.233   1.940
 9748SOL     OW30142   6.301   6.882   3.977
 9748SOL    HW130143   6.202   6.884   3.992
 9748SOL    HW230144   6.344   6.825   4.047
 9749SOL     OW30145   1.147   0.886   4.200
 9749SOL    HW130146   1.120   0.907   4.294
 9749SOL    HW230147   1.082   0.820   4.160
 9750SOL     OW30148   5.964   4.967   3.222
 9750SOL    HW130149   5.899   5.038   3.197
 9750SOL    HW230150   6.025   5.001   3.294
 9751SOL     OW30151   2.464   0.176   0.894
 9751SOL    HW130152   2.425   0.185   0.986
 9751SOL    HW230153   2.560   0.202   0.896
 9752SOL     OW30154   4.427   1.785   5.121
 9752SOL    HW130155   4.344   1.833   5.092
 9752SOL    HW230156   4.428   1.694   5.079
 9753SOL     OW30157   0.618   5.370   5.378
 9753SOL    HW130158   0.644   5.297   5.440
 9753SOL    HW230159   0.658   5.457   5.409
 9754SOL     OW30160   2.045   0.540   0.578
 9754SOL    HW130161   1.992   0.580   0.653
 9754SOL    HW230162   2.114   0.478   0.616
 9755SOL     OW30163   3.412   3.649   4.443
 9755SOL    HW130164   3.348   3.574   4.457
 9755SOL    HW230165   3.505   3.618   4.465
 9756SOL     OW30166   5.975   2.083   6.121
 9756SOL    HW130167   6.017   2.167   6.154
 9756SOL    HW230168   5.942   2.096   6.028
 9757SOL     OW30169   5.597   4.780   5.003
 9757SOL    HW130170   5.664   4.754   4.934
 9757SOL    HW230171   5.585   4.879   5.002
 9758SOL     OW30172   1.657   0.887   0.245
 9758SOL    HW130173   1.639   0.792   0.271
 9758SOL    HW230174   1.735   0.921   0.297
 9759SOL     OW30175   1.320   0.830   0.570
 9759SOL    HW130176   1.418   0.812   0.567
 9759SOL    HW230177   1.291   0.848   0.664
 9760SOL     OW30178   4.873   3.395   5.648
 9760SOL    HW130179   4.775   3.410   5.655
 9760SOL    HW230180   4.907   3.357   5.734
 9761SOL     OW30181   0.435   2.368   1.606
 9761SOL    HW130182   0.420   2.281   1.559
 9761SOL    HW230183   0.533   2.381   1.622
 9762SOL     OW30184   3.728   1.886   4.989
 9762SOL    HW130185   3.821   1.851   4.982
 9762SOL    HW230186   3.712   1.921   5.081
 9763SOL     OW30187   5.251   1.696   3.304
 9763SOL    HW130188   5.186   1.673   3.232
 9763SOL    HW230189   5.341   1.656   3.282
 9764SOL     OW30190   6.940   2.791   2.537
 9764SOL    HW130191   6.900   2.861   2.597
 9764SOL    HW230192   7.018   2.750   2.582
 9765SOL     OW30193   6.732   6.012   3.292
 9765SOL    HW130194   6.736   6.081   3.364
 9765SOL    HW230195   6.651   6.027   3.236
 9766SOL     OW30196   1.984   6.613   1.782
 9766SOL    HW130197   1.999   6.617   1.881
 9766SOL    HW230198   1.920   6.685   1.755
 9767SOL     OW30199   2.551   2.181   5.968
 9767SOL    HW130200   2.590   2.171   6.060
 9767SOL    HW230201   2.616   2.232   5.910
 9768SOL     OW30202   5.213   1.356   1.449
 9768SOL    HW130203   5.127   1.346   1.400
 9768SOL    HW230204   5.282   1.294   1.410
 9769SOL     OW30205   3.409   1.412   5.011
 9769SOL    HW130206   3.310   1.413   5.005
 9769SOL    HW230207   3.444   1.506   5.009
 9770SOL     OW30208   3.690   1.273   5.656
 9770SOL    HW130209   3.744   1.206   5.707
 9770SOL    HW230210   3.620   1.226   5.602
 9771SOL     OW30211   2.686   5.535   0.870
 9771SOL    HW130212   2.618   5.580   0.927
 9771SOL    HW230213   2.640   5.475   0.805
 9772SOL     OW30214   1.381   6.125   1.807
 9772SOL    HW130215   1.429   6.166   1.885
 9772SOL    HW230216   1.283   6.144   1.815
 9773SOL     OW30217   5.090   5.506   3.725
 9773SOL    HW130218   5.069   5.551   3.638
 9773SOL    HW230219   5.184   5.526   3.751
 9774SOL     OW30220   6.896   4.870   1.777
 9774SOL    HW130221   6.957   4.917   1.841
 9774SOL    HW230222   6.891   4.922   1.692
 9775SOL     OW30223   3.102   0.452   3.670
 9775SOL    HW130224   3.185   0.407   3.703
 9775SOL    HW230225   3.025   0.427   3.729
 9776SOL     OW30226   0.726   5.179   5.545
 9776SOL    HW130227   0.678   5.162   5.632
 9776SOL    HW230228   0.824   5.182   5.561
 9777SOL     OW30229   6.150   4.973   0.633
 9777SOL    HW130230   6.149   4.874   0.642
 9777SOL    HW230231   6.243   5.004   0.610
 9778SOL     OW30232   0.186   1.644   4.327
 9778SOL    HW130233   0.241   1.717   4.369
 9778SOL    HW230234   0.181   1.566   4.390
 9779SOL     OW30235   0.309   1.258   3.908
 9779SOL    HW130236   0.375   1.183   3.898
 9779SOL    HW230237   0.274   1.258   4.002
 9780SOL     OW30238   2.122   2.616   0.216
 9780SOL    HW130239   2.074   2.697   0.248
 9780SOL    HW230240   2.058   2.540   0.208
 9781SOL     OW30241   2.082   2.212   4.883
 9781SOL    HW130242   2.002   2.155   4.903
 9781SOL    HW230243   2.134   2.228   4.966
 9782SOL     OW30244   0.763   2.244   0.477
 9782SOL    HW130245   0.699   2.317   0.451
 9782SOL    HW230246   0.742   2.213   0.569
 9783SOL     OW30247   4.532   2.527   3.604
 9783SOL    HW130248   4.607   2.563   3.659
 9783SOL    HW230249   4.562   2.514   3.510
 9784SOL     OW30250   3.148   1.140   6.281
 9784SOL    HW130251   3.219   1.071   6.279
 9784SOL    HW230252   3.136   1.179   6.190
 9785SOL     OW30253   0.317   1.961   5.618
 9785SOL    HW130254   0.349   1.979   5.711
 9785SOL    HW230255   0.339   1.867   5.593
 9786SOL     OW30256   2.780   3.828   0.386
 9786SOL    HW130257   2.842   3.751   0.375
 9786SOL    HW230258   2.709   3.824   0.316
 9787SOL     OW30259   3.316   2.945   2.732
 9787SOL    HW130260   3.307   2.883   2.809
 9787SOL    HW230261   3.273   3.032   2.754
 9788SOL     OW30262   0.848   6.700   2.539
 9788SOL    HW130263   0.909   6.758   2.593
 9788SOL    HW230264   0.902   6.632   2.489
 9789SOL     OW30265   1.838   5.436   0.626
 9789SOL    HW130266   1.910   5.479   0.680
 9789SOL    HW230267   1.752   5.486   0.638
 9790SOL     OW30268   6.203   4.765   6.478
 9790SOL    HW130269   6.263   4.685   6.480
 9790SOL    HW230270   6.202   4.803   6.385
 9791SOL     OW30271   0.533   6.796   6.708
 9791SOL    HW130272   0.629   6.769   6.714
 9791SOL    HW230273   0.478   6.734   6.765
 9792SOL     OW30274   2.995   4.078   0.655
 9792SOL    HW130275   2.941   4.104   0.576
 9792SOL    HW230276   2.958   4.124   0.737
 9793SOL     OW30277   4.396   0.123   2.550
 9793SOL    HW130278   4.462   0.171   2.492
 9793SOL    HW230279   4.366   0.185   2.623
 9794SOL     OW30280   6.901   4.354   6.459
 9794SOL    HW130281   6.869   4.436   6.412
 9794SOL    HW230282   6.909   4.279   6.393
 9795SOL     OW30283   1.125   1.944   4.732
 9795SOL    HW130284   1.180   1.892   4.798
 9795SOL    HW230285   1.174   2.027   4.706
 9796SOL     OW30286   4.085   3.400   2.235
 9796SOL    HW130287   4.093   3.341   2.155
 9796SOL    HW230288   4.111   3.494   2.211
 9797SOL     OW30289   2.323   5.615   0.552
 9797SOL    HW130290   2.257   5.612   0.477
 9797SOL    HW230291   2.410   5.576   0.521
 9798SOL     OW30292   3.282   0.447   2.356
 9798SOL    HW130293   3.205   0.505   2.330
 9798SOL    HW230294   3.263   0.401   2.442
 9799SOL     OW30295   2.522   4.471   5.853
 9799SOL    HW130296   2.521   4.519   5.766
 9799SOL    HW230297   2.579   4.389   5.846
 9800SOL     OW30298   4.869   5.306   5.201
 9800SOL    HW130299   4.877   5.313   5.101
 9800SOL    HW230300   4.832   5.391   5.238
 9801SOL     OW30301   4.378   3.790   6.682
 9801SOL    HW130302   4.446   3.770   6.611
 9801SOL    HW230303   4.385   3.887   6.708
 9802SOL     OW30304   5.933   4.537   1.790
 9802SOL    HW130305   5.951   4.442   1.816
 9802SOL    HW230306   5.840   4.544   1.754
 9803SOL     OW30307   1.879   2.334   6.297
 9803SOL    HW130308   1.813   2.375   6.360
 9803SOL    HW230309   1.944   2.404   6.268
 9804SOL     OW30310   0.588   6.425   2.746
 9804SOL    HW130311   0.655   6.478   2.797
 9804SOL    HW230312   0.603   6.327   2.762
 9805SOL     OW30313   0.570   6.615   2.545
 9805SOL    HW130314   0.661   6.631   2.508
 9805SOL    HW230315   0.575   6.544   2.616
 9806SOL     OW30316   1.469   1.633   0.125
 9806SOL    HW130317   1.390   1.573   0.113
 9806SOL    HW230318   1.439   1.728   0.117
 9807SOL     OW30319   3.034   3.518   1.450
 9807SOL    HW130320   3.094   3.594   1.473
 9807SOL    HW230321   3.029   3.508   1.350
 9808SOL     OW30322   4.042   6.530   5.069
 9808SOL    HW130323   4.000   6.580   4.994
 9808SOL    HW230324   4.026   6.432   5.057
 9809SOL     OW30325   0.898   3.672   6.758
 9809SOL    HW130326   0.836   3.726   6.702
 9809SOL    HW230327   0.914   3.583   6.715
 9810SOL     OW30328   2.845   2.282   4.549
 9810SOL    HW130329   2.816   2.369   4.510
 9810SOL    HW230330   2.773   2.247   4.609
 9811SOL     OW30331   5.577   4.561   3.310
 9811SOL    HW130332   5.551   4.644   3.359
 9811SOL    HW230333   5.616   4.495   3.375
 9812SOL     OW30334   3.834   1.752   5.435
 9812SOL    HW130335   3.795   1.660   5.436
 9812SOL    HW230336   3.815   1.798   5.522
 9813SOL     OW30337   4.757   1.623   0.804
 9813SOL    HW130338   4.738   1.688   0.878
 9813SOL    HW230339   4.712   1.536   0.824
 9814SOL     OW30340   6.967   0.268   6.482
 9814SOL    HW130341   7.006   0.241   6.569
 9814SOL    HW230342   0.012   0.311   6.425
 9815SOL     OW30343   4.913   3.633   4.493
 9815SOL    HW130344   4.909   3.534   4.475
 9815SOL    HW230345   5.008   3.660   4.506
 9816SOL     OW30346   1.183   0.918   6.237
 9816SOL    HW130347   1.196   0.928   6.336
 9816SOL    HW230348   1.135   0.832   6.218
 9817SOL     OW30349   2.719   6.354   3.643
 9817SOL    HW130350   2.658   6.349   3.723
 9817SOL    HW230351   2.675   6.406   3.570
 9818SOL     OW30352   0.442   0.693   3.926
 9818SOL    HW130353   0.415   0.600   3.952
 9818SOL    HW230354   0.360   0.750   3.917
 9819SOL     OW30355   5.371   3.772   3.445
 9819SOL    HW130356   5.466   3.796   3.466
 9819SOL    HW230357   5.364   3.747   3.349
 9820SOL     OW30358   3.674   2.839   6.886
 9820SOL    HW130359   3.638   2.852   6.794
 9820SOL    HW230360   3.695   2.929   6.926
 9821SOL     OW30361   5.288   1.344   0.115
 9821SOL    HW130362   5.293   1.346   0.015
 9821SOL    HW230363   5.210   1.400   0.146
 9822SOL     OW30364   2.161   6.847   3.151
 9822SOL    HW130365   2.214   6.829   3.234
 9822SOL    HW230366   2.133   6.943   3.150
 9823SOL     OW30367   2.555   0.221   0.015
 9823SOL    HW130368   2.639   0.214   0.068
 9823SOL    HW230369   2.497   0.141   0.034
 9824SOL     OW30370   1.882   5.300   4.511
 9824SOL    HW130371   1.925   5.212   4.530
 9824SOL    HW230372   1.809   5.317   4.577
 9825SOL     OW30373   4.240   5.367   5.531
 9825SOL    HW130374   4.278   5.320   5.452
 9825SOL    HW230375   4.141   5.357   5.532
 9826SOL     OW30376   5.272   5.256   6.460
 9826SOL    HW130377   5.266   5.157   6.470
 9826SOL    HW230378   5.194   5.289   6.407
 9827SOL     OW30379   2.194   3.863   3.591
 9827SOL    HW130380   2.193   3.798   3.515
 9827SOL    HW230381   2.229   3.951   3.560
 9828SOL     OW30382   2.164   2.903   5.913
 9828SOL    HW130383   2.220   2.955   5.849
 9828SOL    HW230384   2.223   2.860   5.982
 9829SOL     OW30385   3.780   5.025   0.299
 9829SOL    HW130386   3.720   5.089   0.251
 9829SOL    HW230387   3.729   4.983   0.374
 9830SOL     OW30388   5.844   2.762   1.851
 9830SOL    HW130389   5.798   2.826   1.789
 9830SOL    HW230390   5.852   2.673   1.808
 9831SOL     OW30391   2.147   4.932   1.319
 9831SOL    HW130392   2.101   4.895   1.400
 9831SOL    HW230393   2.232   4.881   1.304
 9832SOL     OW30394   5.009   5.448   2.919
 9832SOL    HW130395   5.082   5.400   2.969
 9832SOL    HW230396   4.970   5.386   2.850
 9833SOL     OW30397   3.562   3.792   5.257
 9833SOL    HW130398   3.562   3.811   5.159
 9833SOL    HW230399   3.474   3.751   5.283
 9834SOL     OW30400   2.739   4.918   5.327
 9834SOL    HW130401   2.707   4.841   5.271
 9834SOL    HW230402   2.815   4.888   5.385
 9835SOL     OW30403   3.342   3.294   5.528
 9835SOL    HW130404   3.432   3.318   5.565
 9835SOL    HW230405   3.288   3.378   5.517
 9836SOL     OW30406   6.614   5.011   3.930
 9836SOL    HW130407   6.665   5.025   4.015
 9836SOL    HW230408   6.586   5.099   3.893
 9837SOL     OW30409   3.022   0.253   3.255
 9837SOL    HW130410   3.007   0.163   3.215
 9837SOL    HW230411   3.099   0.297   3.209
 9838SOL     OW30412   1.733   6.635   6.708
 9838SOL    HW130413   1.742   6.548   6.660
 9838SOL    HW230414   1.760   6.709   6.647
 9839SOL     OW30415   5.799   0.819   3.721
 9839SOL    HW130416   5.730   0.844   3.653
 9839SOL    HW230417   5.891   0.838   3.684
 9840SOL     OW30418   6.437   1.461   1.125
 9840SOL    HW130419   6.346   1.440   1.089
 9840SOL    HW230420   6.462   1.391   1.193
 9841SOL     OW30421   1.659   4.084   5.131
 9841SOL    HW130422   1.668   4.045   5.040
 9841SOL    HW230423   1.731   4.047   5.190
 9842SOL     OW30424   3.927   3.083   2.422
 9842SOL    HW130425   3.969   3.011   2.367
 9842SOL    HW230426   3.914   3.164   2.366
 9843SOL     OW30427   6.164   0.894   0.896
 9843SOL    HW130428   6.131   0.963   0.832
 9843SOL    HW230429   6.264   0.895   0.898
 9844SOL     OW30430   6.408   0.708   2.253
 9844SOL    HW130431   6.322   0.745   2.289
 9844SOL    HW230432   6.388   0.635   2.187
 9845SOL     OW30433   2.589   2.324   3.980
 9845SOL    HW130434   2.658   2.342   4.050
 9845SOL    HW230435   2.544   2.237   3.999
 9846SOL     OW30436   4.151   3.618   1.568
 9846SOL    HW130437   4.205   3.681   1.513
 9846SOL    HW230438   4.112   3.547   1.509
 9847SOL     OW30439   3.354   2.878   4.181
 9847SOL    HW130440   3.266   2.925   4.174
 9847SOL    HW230441   3.393   2.868   4.090
 9848SOL     OW30442   3.301   3.608   5.309
 9848SOL    HW130443   3.232   3.654   5.254
 9848SOL    HW230444   3.343   3.535   5.256
 9849SOL     OW30445   0.365   6.464   6.402
 9849SOL    HW130446   0.372   6.437   6.498
 9849SOL    HW230447   0.409   6.395   6.344
 9850SOL     OW30448   5.695   0.108   3.882
 9850SOL    HW130449   5.635   0.102   3.962
 9850SOL    HW230450   5.725   0.203   3.870
 9851SOL     OW30451   5.151   0.744   4.887
 9851SOL    HW130452   5.203   0.674   4.839
 9851SOL    HW230453   5.150   0.829   4.833
 9852SOL     OW30454   3.970   2.129   3.467
 9852SOL    HW130455   3.933   2.037   3.477
 9852SOL    HW230456   4.054   2.126   3.414
 9853SOL     OW30457   5.192   3.816   4.737
 9853SOL    HW130458   5.200   3.738   4.799
 9853SOL    HW230459   5.107   3.866   4.756
 9854SOL     OW30460   0.230   6.097   4.915
 9854SOL    HW130461   0.176   6.180   4.901
 9854SOL    HW230462   0.307   6.095   4.851
 9855SOL     OW30463   2.645   3.130   0.613
 9855SOL    HW130464   2.657   3.031   0.604
 9855SOL    HW230465   2.596   3.165   0.533
 9856SOL     OW30466   5.024   4.908   5.413
 9856SOL    HW130467   4.951   4.873   5.354
 9856SOL    HW230468   5.108   4.918   5.359
 9857SOL     OW30469   4.344   2.365   3.468
 9857SOL    HW130470   4.373   2.422   3.545
 9857SOL    HW230471   4.421   2.350   3.406
 9858SOL     OW30472   6.861   0.679   1.299
 9858SOL    HW130473   6.951   0.650   1.264
 9858SOL    HW230474   6.851   0.777   1.287
 9859SOL     OW30475   6.278   0.348   2.269
 9859SOL    HW130476   6.233   0.266   2.235
 9859SOL    HW230477   6.375   0.347   2.244
 9860SOL     OW30478   1.382   1.167   4.243
 9860SOL    HW130479   1.307   1.177   4.178
 9860SOL    HW230480   1.360   1.215   4.327
 9861SOL     OW30481   3.194   0.073   3.570
 9861SOL    HW130482   3.202   0.144   3.501
 9861SOL    HW230483   3.111   0.087   3.623
 9862SOL     OW30484   4.143   3.673   0.032
 9862SOL    HW130485   4.208   3.741   0.068
 9862SOL    HW230486   4.127   3.603   0.101
 9863SOL     OW30487   3.329   6.987   3.319
 9863SOL    HW130488   3.288   6.953   3.235
 9863SOL    HW230489   3.258   6.996   3.389
 9864SOL     OW30490   3.847   6.396   4.142
 9864SOL    HW130491   3.902   6.477   4.158
 9864SOL    HW230492   3.904   6.314   4.151
 9865SOL     OW30493   1.157   1.027   4.625
 9865SOL    HW130494   1.246   1.020   4.672
 9865SOL    HW230495   1.111   1.111   4.655
 9866SOL     OW30496   5.313   4.972   6.189
 9866SOL    HW130497   5.281   5.058   6.148
 9866SOL    HW230498   5.386   4.992   6.255
 9867SOL     OW30499   6.434   0.877   0.979
 9867SOL    HW130500   6.438   0.797   1.039
 9867SOL    HW230501   6.507   0.941   1.004
 9868SOL     OW30502   0.358   3.761   6.356
 9868SOL    HW130503   0.323   3.669   6.373
 9868SOL    HW230504   0.453   3.767   6.386
 9869SOL     OW30505   1.662   3.473   2.153
 9869SOL    HW130506   1.711   3.465   2.240
 9869SOL    HW230507   1.686   3.396   2.094
 9870SOL     OW30508   3.736   5.547   2.375
 9870SOL    HW130509   3.763   5.545   2.471
 9870SOL    HW230510   3.647   5.502   2.365
 9871SOL     OW30511   0.371   5.959   6.147
 9871SOL    HW130512   0.370   5.968   6.048
 9871SOL    HW230513   0.443   5.894   6.174
 9872SOL     OW30514   2.275   5.227   3.985
 9872SOL    HW130515   2.241   5.215   3.892
 9872SOL    HW230516   2.311   5.320   3.996
 9873SOL     OW30517   2.920   2.290   0.172
 9873SOL    HW130518   2.904   2.199   0.210
 9873SOL    HW230519   2.870   2.357   0.226
 9874SOL     OW30520   6.396   3.238   4.808
 9874SOL    HW130521   6.306   3.271   4.779
 9874SOL    HW230522   6.397   3.230   4.908
 9875SOL     OW30523   6.155   5.975   2.334
 9875SOL    HW130524   6.117   5.886   2.359
 9875SOL    HW230525   6.113   6.006   2.249
 9876SOL     OW30526   6.244   0.245   3.465
 9876SOL    HW130527   6.236   0.260   3.366
 9876SOL    HW230528   6.231   0.332   3.513
 9877SOL     OW30529   6.976   6.056   4.107
 9877SOL    HW130530   6.956   6.066   4.009
 9877SOL    HW230531   6.905   6.001   4.150
 9878SOL     OW30532   2.519   4.561   4.942
 9878SOL    HW130533   2.609   4.573   4.983
 9878SOL    HW230534   2.506   4.629   4.869
 9879SOL     OW30535   5.538   5.645   5.130
 9879SOL    HW130536   5.547   5.690   5.041
 9879SOL    HW230537   5.500   5.554   5.117
 9880SOL     OW30538   3.414   1.033   6.252
 9880SOL    HW130539   3.432   0.936   6.237
 9880SOL    HW230540   3.479   1.088   6.198
 9881SOL     OW30541   0.649   0.838   5.120
 9881SOL    HW130542   0.650   0.872   5.214
 9881SOL    HW230543   0.741   0.807   5.094
 9882SOL     OW30544   1.378   3.335   3.875
 9882SOL    HW130545   1.317   3.256   3.883
 9882SOL    HW230546   1.386   3.379   3.964
 9883SOL     OW30547   1.238   6.385   0.193
 9883SOL    HW130548   1.170   6.431   0.135
 9883SOL    HW230549   1.210   6.391   0.288
 9884SOL     OW30550   5.157   2.528   1.478
 9884SOL    HW130551   5.149   2.456   1.546
 9884SOL    HW230552   5.242   2.516   1.426
 9885SOL     OW30553   6.912   2.008   5.049
 9885SOL    HW130554   6.837   2.061   5.009
 9885SOL    HW230555   6.914   2.022   5.148
 9886SOL     OW30556   1.142   4.606   2.743
 9886SOL    HW130557   1.238   4.595   2.716
 9886SOL    HW230558   1.098   4.672   2.682
 9887SOL     OW30559   4.212   0.689   6.377
 9887SOL    HW130560   4.237   0.698   6.281
 9887SOL    HW230561   4.174   0.598   6.393
 9888SOL     OW30562   5.708   4.730   2.547
 9888SOL    HW130563   5.773   4.674   2.494
 9888SOL    HW230564   5.681   4.680   2.629
 9889SOL     OW30565   6.660   4.981   1.590
 9889SOL    HW130566   6.663   5.034   1.505
 9889SOL    HW230567   6.678   4.885   1.570
 9890SOL     OW30568   1.400   3.106   0.796
 9890SOL    HW130569   1.353   3.030   0.751
 9890SOL    HW230570   1.436   3.075   0.884
 9891SOL     OW30571   5.430   3.334   2.138
 9891SOL    HW130572   5.451   3.352   2.042
 9891SOL    HW230573   5.459   3.241   2.161
 9892SOL     OW30574   0.628   4.732   1.280
 9892SOL    HW130575   0.715   4.728   1.232
 9892SOL    HW230576   0.614   4.824   1.317
 9893SOL     OW30577   0.790   0.997   1.403
 9893SOL    HW130578   0.887   0.979   1.417
 9893SOL    HW230579   0.779   1.087   1.361
 9894SOL     OW30580   3.540   2.490   0.537
 9894SOL    HW130581   3.582   2.427   0.471
 9894SOL    HW230582   3.470   2.544   0.491
 9895SOL     OW30583   5.942   4.764   5.122
 9895SOL    HW130584   5.955   4.665   5.119
 9895SOL    HW230585   5.887   4.793   5.044
 9896SOL     OW30586   6.262   1.022   0.489
 9896SOL    HW130587   6.220   1.112   0.490
 9896SOL    HW230588   6.318   1.011   0.571
 9897SOL     OW30589   5.727   6.217   2.472
 9897SOL    HW130590   5.700   6.265   2.556
 9897SOL    HW230591   5.769   6.282   2.409
 9898SOL     OW30592   1.427   5.078   5.288
 9898SOL    HW130593   1.375   5.150   5.242
 9898SOL    HW230594   1.368   4.999   5.304
 9899SOL     OW30595   1.776   5.747   0.894
 9899SOL    HW130596   1.832   5.826   0.870
 9899SOL    HW230597   1.823   5.663   0.869
 9900SOL     OW30598   1.144   2.736   3.146
 9900SOL    HW130599   1.161   2.788   3.063
 9900SOL    HW230600   1.216   2.669   3.160
 9901SOL     OW30601   3.190   0.642   6.974
 9901SOL    HW130602   3.200   0.554   7.020
 9901SOL    HW230603   3.206   0.716   0.015
 9902SOL     OW30604   2.817   4.483   1.602
 9902SOL    HW130605   2.882   4.547   1.562
 9902SOL    HW230606   2.833   4.477   1.701
 9903SOL     OW30607   5.757   2.242   1.817
 9903SOL    HW130608   5.848   2.251   1.776
 9903SOL    HW230609   5.711   2.163   1.778
 9904SOL     OW30610   0.696   4.134   0.544
 9904SOL    HW130611   0.771   4.085   0.589
 9904SOL    HW230612   0.661   4.204   0.607
 9905SOL     OW30613   2.497   0.888   6.214
 9905SOL    HW130614   2.429   0.824   6.251
 9905SOL    HW230615   2.557   0.919   6.288
 9906SOL     OW30616   1.727   3.197   0.637
 9906SOL    HW130617   1.635   3.235   0.628
 9906SOL    HW230618   1.789   3.245   0.576
 9907SOL     OW30619   0.725   0.248   0.765
 9907SOL    HW130620   0.787   0.312   0.719
 9907SOL    HW230621   0.769   0.212   0.847
 9908SOL     OW30622   6.451   1.727   5.326
 9908SOL    HW130623   6.458   1.746   5.228
 9908SOL    HW230624   6.536   1.755   5.371
 9909SOL     OW30625   4.351   1.177   2.945
 9909SOL    HW130626   4.382   1.082   2.945
 9909SOL    HW230627   4.256   1.182   2.978
 9910SOL     OW30628   1.367   4.929   1.883
 9910SOL    HW130629   1.384   4.870   1.804
 9910SOL    HW230630   1.338   5.019   1.850
 9911SOL     OW30631   2.860   6.515   2.400
 9911SOL    HW130632   2.923   6.588   2.377
 9911SOL    HW230633   2.910   6.438   2.438
 9912SOL     OW30634   3.639   1.114   1.184
 9912SOL    HW130635   3.544   1.110   1.213
 9912SOL    HW230636   3.647   1.083   1.089
 9913SOL     OW30637   6.521   3.883   0.475
 9913SOL    HW130638   6.489   3.797   0.513
 9913SOL    HW230639   6.526   3.877   0.375
 9914SOL     OW30640   5.785   1.307   4.724
 9914SOL    HW130641   5.854   1.326   4.795
 9914SOL    HW230642   5.763   1.209   4.725
 9915SOL     OW30643   6.035   0.977   3.621
 9915SOL    HW130644   5.946   1.008   3.586
 9915SOL    HW230645   6.108   1.026   3.574
 9916SOL     OW30646   2.313   2.326   3.187
 9916SOL    HW130647   2.369   2.399   3.148
 9916SOL    HW230648   2.220   2.359   3.203
 9917SOL     OW30649   3.975   3.821   6.304
 9917SOL    HW130650   4.005   3.759   6.231
 9917SOL    HW230651   4.049   3.833   6.370
 9918SOL     OW30652   1.874   2.475   2.830
 9918SOL    HW130653   1.854   2.463   2.733
 9918SOL    HW230654   1.863   2.387   2.877
 9919SOL     OW30655   1.082   5.704   0.956
 9919SOL    HW130656   1.162   5.681   1.011
 9919SOL    HW230657   1.019   5.760   1.010
 9920SOL     OW30658   5.001   0.497   2.356
 9920SOL    HW130659   5.040   0.485   2.447
 9920SOL    HW230660   5.074   0.487   2.288
 9921SOL     OW30661   4.357   6.604   4.533
 9921SOL    HW130662   4.457   6.605   4.530
 9921SOL    HW230663   4.326   6.576   4.623
 9922SOL     OW30664   3.575   4.220   1.184
 9922SOL    HW130665   3.595   4.128   1.152
 9922SOL    HW230666   3.499   4.216   1.249
 9923SOL     OW30667   5.901   4.632   6.937
 9923SOL    HW130668   5.922   4.729   6.952
 9923SOL    HW230669   5.802   4.620   6.933
 9924SOL     OW30670   6.090   1.699   3.393
 9924SOL    HW130671   6.169   1.707   3.332
 9924SOL    HW230672   6.062   1.790   3.423
 9925SOL     OW30673   0.333   5.260   3.977
 9925SOL    HW130674   0.356   5.314   3.896
 9925SOL    HW230675   0.241   5.222   3.966
 9926SOL     OW30676   4.246   2.591   1.464
 9926SOL    HW130677   4.287   2.619   1.378
 9926SOL    HW230678   4.195   2.505   1.450
 9927SOL     OW30679   1.355   0.007   1.152
 9927SOL    HW130680   1.448   6.995   1.163
 9927SOL    HW230681   1.359   0.091   1.097
 9928SOL     OW30682   5.040   5.097   3.225
 9928SOL    HW130683   4.965   5.157   3.196
 9928SOL    HW230684   5.033   5.010   3.177
 9929SOL     OW30685   3.199   4.093   4.792
 9929SOL    HW130686   3.151   4.020   4.841
 9929SOL    HW230687   3.135   4.137   4.728
 9930SOL     OW30688   0.335   6.379   5.414
 9930SOL    HW130689   0.396   6.456   5.431
 9930SOL    HW230690   0.294   6.349   5.500
 9931SOL     OW30691   0.024   5.407   4.721
 9931SOL    HW130692   0.038   5.481   4.655
 9931SOL    HW230693   6.951   5.393   4.736
 9932SOL     OW30694   2.243   3.191   6.013
 9932SOL    HW130695   2.225   3.244   5.930
 9932SOL    HW230696   2.337   3.157   6.011
 9933SOL     OW30697   1.969   6.840   4.046
 9933SOL    HW130698   2.003   6.931   4.025
 9933SOL    HW230699   1.936   6.796   3.962
 9934SOL     OW30700   6.907   2.402   5.732
 9934SOL    HW130701   6.968   2.481   5.733
 9934SOL    HW230702   6.876   2.385   5.639
 9935SOL     OW30703   3.113   6.758   0.737
 9935SOL    HW130704   3.050   6.683   0.759
 9935SOL    HW230705   3.145   6.800   0.822
 9936SOL     OW30706   6.419   4.481   1.091
 9936SOL    HW130707   6.379   4.568   1.119
 9936SOL    HW230708   6.427   4.478   0.992
 9937SOL     OW30709   0.351   2.013   1.172
 9937SOL    HW130710   0.261   2.050   1.152
 9937SOL    HW230711   0.412   2.029   1.094
 9938SOL     OW30712   5.845   4.707   3.735
 9938SOL    HW130713   5.859   4.748   3.645
 9938SOL    HW230714   5.751   4.675   3.743
 9939SOL     OW30715   4.909   3.035   1.167
 9939SOL    HW130716   4.840   3.007   1.100
 9939SOL    HW230717   4.981   3.087   1.121
 9940SOL     OW30718   1.176   0.740   1.902
 9940SOL    HW130719   1.106   0.798   1.943
 9940SOL    HW230720   1.267   0.777   1.922
 9941SOL     OW30721   3.445   3.085   5.086
 9941SOL    HW130722   3.461   3.113   4.991
 9941SOL    HW230723   3.529   3.046   5.124
 9942SOL     OW30724   2.697   5.294   2.559
 9942SOL    HW130725   2.638   5.309   2.638
 9942SOL    HW230726   2.718   5.196   2.550
 9943SOL     OW30727   0.900   4.323   6.280
 9943SOL    HW130728   0.991   4.304   6.243
 9943SOL    HW230729   0.831   4.281   6.222
 9944SOL     OW30730   0.724   4.674   6.582
 9944SOL    HW130731   0.751   4.741   6.651
 9944SOL    HW230732   0.728   4.716   6.491
 9945SOL     OW30733   4.306   6.107   6.973
 9945SOL    HW130734   4.326   6.144   0.039
 9945SOL    HW230735   4.207   6.104   6.959
 9946SOL     OW30736   6.035   0.560   3.400
 9946SOL    HW130737   6.104   0.556   3.472
 9946SOL    HW230738   6.057   0.635   3.337
 9947SOL     OW30739   2.953   2.231   4.833
 9947SOL    HW130740   2.960   2.250   4.735
 9947SOL    HW230741   3.039   2.255   4.878
 9948SOL     OW30742   6.884   4.879   6.058
 9948SOL    HW130743   6.936   4.912   6.137
 9948SOL    HW230744   6.823   4.806   6.086
 9949SOL     OW30745   6.685   4.527   3.941
 9949SOL    HW130746   6.676   4.580   3.857
 9949SOL    HW230747   6.744   4.448   3.924
 9950SOL     OW30748   5.453   6.167   6.013
 9950SOL    HW130749   5.448   6.206   5.921
 9950SOL    HW230750   5.508   6.084   6.012
 9951SOL     OW30751   1.570   2.197   3.995
 9951SOL    HW130752   1.540   2.245   3.912
 9951SOL    HW230753   1.560   2.098   3.981
 9952SOL     OW30754   1.266   4.867   0.538
 9952SOL    HW130755   1.182   4.812   0.544
 9952SOL    HW230756   1.345   4.809   0.558
 9953SOL     OW30757   6.197   2.512   4.103
 9953SOL    HW130758   6.142   2.449   4.048
 9953SOL    HW230759   6.287   2.472   4.119
 9954SOL     OW30760   1.026   0.905   5.748
 9954SOL    HW130761   1.099   0.953   5.700
 9954SOL    HW230762   1.016   0.941   5.841
 9955SOL     OW30763   5.443   4.329   6.064
 9955SOL    HW130764   5.421   4.323   6.161
 9955SOL    HW230765   5.392   4.405   6.023
 9956SOL     OW30766   0.437   5.685   2.940
 9956SOL    HW130767   0.532   5.656   2.927
 9956SOL    HW230768   0.435   5.773   2.988
 9957SOL     OW30769   5.697   0.231   1.943
 9957SOL    HW130770   5.703   0.135   1.968
 9957SOL    HW230771   5.781   0.259   1.895
 9958SOL     OW30772   1.802   5.613   6.499
 9958SOL    HW130773   1.809   5.583   6.404
 9958SOL    HW230774   1.756   5.543   6.553
 9959SOL     OW30775   4.144   3.601   4.141
 9959SOL    HW130776   4.227   3.653   4.163
 9959SOL    HW230777   4.160   3.547   4.058
 9960SOL     OW30778   6.665   0.350   2.566
 9960SOL    HW130779   6.620   0.345   2.655
 9960SOL    HW230780   6.638   0.272   2.510
 9961SOL     OW30781   1.553   5.144   4.536
 9961SOL    HW130782   1.521   5.174   4.446
 9961SOL    HW230783   1.582   5.225   4.588
 9962SOL     OW30784   4.483   6.851   1.894
 9962SOL    HW130785   4.401   6.905   1.915
 9962SOL    HW230786   4.529   6.891   1.815
 9963SOL     OW30787   2.424   2.609   6.235
 9963SOL    HW130788   2.396   2.525   6.188
 9963SOL    HW230789   2.492   2.586   6.305
 9964SOL     OW30790   4.564   3.567   5.563
 9964SOL    HW130791   4.586   3.490   5.503
 9964SOL    HW230792   4.559   3.651   5.508
 9965SOL     OW30793   3.770   4.814   6.443
 9965SOL    HW130794   3.781   4.806   6.344
 9965SOL    HW230795   3.695   4.756   6.474
 9966SOL     OW30796   2.156   5.955   2.352
 9966SOL    HW130797   2.235   5.989   2.402
 9966SOL    HW230798   2.124   5.869   2.393
 9967SOL     OW30799   6.021   6.708   2.138
 9967SOL    HW130800   6.001   6.698   2.236
 9967SOL    HW230801   5.936   6.702   2.086
 9968SOL     OW30802   3.202   3.711   6.626
 9968SOL    HW130803   3.229   3.618   6.652
 9968SOL    HW230804   3.228   3.775   6.699
 9969SOL     OW30805   1.629   2.480   4.416
 9969SOL    HW130806   1.674   2.413   4.475
 9969SOL    HW230807   1.697   2.544   4.381
 9970SOL     OW30808   5.565   4.281   2.731
 9970SOL    HW130809   5.573   4.242   2.639
 9970SOL    HW230810   5.647   4.258   2.784
 9971SOL     OW30811   2.790   3.543   0.050
 9971SOL    HW130812   2.726   3.577   7.005
 9971SOL    HW230813   2.840   3.465   0.014
 9972SOL     OW30814   3.766   4.527   0.388
 9972SOL    HW130815   3.678   4.561   0.353
 9972SOL    HW230816   3.789   4.442   0.342
 9973SOL     OW30817   4.311   1.753   4.061
 9973SOL    HW130818   4.259   1.839   4.052
 9973SOL    HW230819   4.259   1.678   4.021
 9974SOL     OW30820   6.729   4.067   3.345
 9974SOL    HW130821   6.741   4.037   3.440
 9974SOL    HW230822   6.662   4.141   3.342
 9975SOL     OW30823   6.560   4.286   0.409
 9975SOL    HW130824   6.559   4.340   0.325
 9975SOL    HW230825   6.648   4.297   0.455
 9976SOL     OW30826   0.177   5.893   5.351
 9976SOL    HW130827   0.200   5.989   5.337
 9976SOL    HW230828   0.194   5.868   5.447
 9977SOL     OW30829   0.370   5.039   6.095
 9977SOL    HW130830   0.433   5.111   6.126
 9977SOL    HW230831   0.323   5.070   6.012
 9978SOL     OW30832   6.125   3.131   3.419
 9978SOL    HW130833   6.074   3.142   3.333
 9978SOL    HW230834   6.076   3.179   3.492
 9979SOL     OW30835   6.366   5.097   5.671
 9979SOL    HW130836   6.396   5.069   5.580
 9979SOL    HW230837   6.270   5.073   5.683
 9980SOL     OW30838   1.617   1.534   6.365
 9980SOL    HW130839   1.682   1.562   6.436
 9980SOL    HW230840   1.639   1.442   6.333
 9981SOL     OW30841   2.262   1.951   1.528
 9981SOL    HW130842   2.173   1.907   1.533
 9981SOL    HW230843   2.328   1.889   1.485
 9982SOL     OW30844   0.227   0.858   3.966
 9982SOL    HW130845   0.159   0.913   3.919
 9982SOL    HW230846   0.271   0.913   4.037
 9983SOL     OW30847   1.145   2.369   2.789
 9983SOL    HW130848   1.142   2.285   2.736
 9983SOL    HW230849   1.238   2.387   2.820
 9984SOL     OW30850   1.225   0.599   0.432
 9984SOL    HW130851   1.149   0.599   0.367
 9984SOL    HW230852   1.245   0.694   0.460
 9985SOL     OW30853   2.202   1.025   1.954
 9985SOL    HW130854   2.178   0.933   1.987
 9985SOL    HW230855   2.300   1.039   1.965
 9986SOL     OW30856   4.871   4.177   6.392
 9986SOL    HW130857   4.820   4.191   6.477
 9986SOL    HW230858   4.861   4.258   6.334
 9987SOL     OW30859   6.343   2.194   3.083
 9987SOL    HW130860   6.347   2.167   3.179
 9987SOL    HW230861   6.257   2.163   3.043
 9988SOL     OW30862   0.422   6.131   4.719
 9988SOL    HW130863   0.428   6.186   4.636
 9988SOL    HW230864   0.502   6.071   4.725
 9989SOL     OW30865   6.288   4.318   3.443
 9989SOL    HW130866   6.384   4.313   3.419
 9989SOL    HW230867   6.271   4.402   3.497
 9990SOL     OW30868   2.604   6.722   2.257
 9990SOL    HW130869   2.678   6.761   2.313
 9990SOL    HW230870   2.636   6.712   2.163
 9991SOL     OW30871   2.086   3.181   4.128
 9991SOL    HW130872   2.011   3.217   4.185
 9991SOL    HW230873   2.135   3.110   4.178
 9992SOL     OW30874   4.883   4.151   0.349
 9992SOL    HW130875   4.902   4.217   0.276
 9992SOL    HW230876   4.913   4.060   0.320
 9993SOL     OW30877   3.673   0.463   2.025
 9993SOL    HW130878   3.719   0.547   2.053
 9993SOL    HW230879   3.581   0.460   2.064
 9994SOL     OW30880   6.943   4.667   3.889
 9994SOL    HW130881   6.881   4.665   3.968
 9994SOL    HW230882   7.021   4.725   3.910
 9995SOL     OW30883   3.392   1.016   2.943
 9995SOL    HW130884   3.460   1.059   3.001
 9995SOL    HW230885   3.350   0.940   2.991
 9996SOL     OW30886   2.605   3.319   1.786
 9996SOL    HW130887   2.529   3.374   1.822
 9996SOL    HW230888   2.692   3.360   1.813
 9997SOL     OW30889   3.700   1.499   1.273
 9997SOL    HW130890   3.615   1.512   1.223
 9997SOL    HW230891   3.686   1.432   1.346
 9998SOL     OW30892   5.888   4.776   1.616
 9998SOL    HW130893   5.944   4.730   1.548
 9998SOL    HW230894   5.893   4.726   1.703
 9999SOL     OW30895   6.271   3.356   5.129
 9999SOL    HW130896   6.186   3.350   5.180
 9999SOL    HW230897   6.348   3.333   5.189
10000SOL     OW30898   6.173   3.636   0.015
10000SOL    HW130899   6.194   3.544   7.006
10000SOL    HW230900   6.162   3.634   0.115
10001SOL     OW30901   5.429   0.869   1.965
10001SOL    HW130902   5.343   0.918   1.975
10001SOL    HW230903   5.505   0.930   1.992
10002SOL     OW30904   1.737   0.510   1.549
10002SOL    HW130905   1.695   0.451   1.619
10002SOL    HW230906   1.672   0.582   1.523
10003SOL     OW30907   3.975   1.642   4.237
10003SOL    HW130908   3.926   1.689   4.163
10003SOL    HW230909   3.944   1.547   4.242
10004SOL     OW30910   4.298   2.261   4.292
10004SOL    HW130911   4.336   2.326   4.226
10004SOL    HW230912   4.270   2.178   4.245
10005SOL     OW30913   4.275   0.340   4.146
10005SOL    HW130914   4.245   0.309   4.056
10005SOL    HW230915   4.364   0.383   4.139
10006SOL     OW30916   5.319   0.902   3.479
10006SOL    HW130917   5.272   0.815   3.496
10006SOL    HW230918   5.254   0.977   3.486
10007SOL     OW30919   0.593   5.118   4.796
10007SOL    HW130920   0.624   5.089   4.886
10007SOL    HW230921   0.599   5.218   4.789
10008SOL     OW30922   4.209   1.199   4.837
10008SOL    HW130923   4.126   1.165   4.792
10008SOL    HW230924   4.194   1.293   4.868
10009SOL     OW30925   1.961   3.699   1.592
10009SOL    HW130926   2.026   3.712   1.667
10009SOL    HW230927   1.901   3.778   1.585
10010SOL     OW30928   1.868   6.989   6.183
10010SOL    HW130929   1.886   0.022   6.104
10010SOL    HW230930   1.867   0.020   6.266
10011SOL     OW30931   5.956   1.650   4.680
10011SOL    HW130932   6.016   1.637   4.759
10011SOL    HW230933   5.861   1.646   4.710
10012SOL     OW30934   4.783   1.063   3.510
10012SOL    HW130935   4.782   0.968   3.541
10012SOL    HW230936   4.690   1.100   3.516
10013SOL     OW30937   1.121   1.715   3.502
10013SOL    HW130938   1.122   1.620   3.471
10013SOL    HW230939   1.075   1.772   3.434
10014SOL     OW30940   6.572   3.298   0.071
10014SOL    HW130941   6.498   3.317   0.135
10014SOL    HW230942   6.640   3.239   0.114
10015SOL     OW30943   2.491   4.029   0.637
10015SOL    HW130944   2.427   3.953   0.649
10015SOL    HW230945   2.536   4.021   0.548
10016SOL     OW30946   1.866   0.848   5.759
10016SOL    HW130947   1.847   0.758   5.797
10016SOL    HW230948   1.857   0.917   5.830
10017SOL     OW30949   2.697   2.349   2.580
10017SOL    HW130950   2.631   2.394   2.520
10017SOL    HW230951   2.761   2.296   2.525
10018SOL     OW30952   4.994   6.975   5.440
10018SOL    HW130953   5.064   6.921   5.488
10018SOL    HW230954   5.011   6.969   5.342
10019SOL     OW30955   0.229   2.050   2.836
10019SOL    HW130956   0.226   2.048   2.936
10019SOL    HW230957   0.181   2.131   2.803
10020SOL     OW30958   1.118   2.576   1.350
10020SOL    HW130959   1.073   2.528   1.425
10020SOL    HW230960   1.216   2.579   1.367
10021SOL     OW30961   0.281   2.390   1.085
10021SOL    HW130962   0.272   2.322   1.012
10021SOL    HW230963   0.248   2.351   1.171
10022SOL     OW30964   3.162   0.078   6.642
10022SOL    HW130965   3.195   0.014   6.573
10022SOL    HW230966   3.236   0.139   6.669
10023SOL     OW30967   1.132   5.189   6.217
10023SOL    HW130968   1.171   5.159   6.130
10023SOL    HW230969   1.167   5.132   6.291
10024SOL     OW30970   1.772   6.584   1.520
10024SOL    HW130971   1.870   6.599   1.512
10024SOL    HW230972   1.748   6.497   1.476
10025SOL     OW30973   1.816   1.682   1.518
10025SOL    HW130974   1.858   1.607   1.467
10025SOL    HW230975   1.720   1.690   1.490
10026SOL     OW30976   5.511   6.745   3.912
10026SOL    HW130977   5.585   6.766   3.848
10026SOL    HW230978   5.424   6.775   3.874
10027SOL     OW30979   6.485   4.073   5.264
10027SOL    HW130980   6.569   4.069   5.210
10027SOL    HW230981   6.445   4.164   5.257
10028SOL     OW30982   1.956   1.552   1.316
10028SOL    HW130983   1.915   1.512   1.234
10028SOL    HW230984   1.963   1.483   1.388
10029SOL     OW30985   3.895   2.215   4.567
10029SOL    HW130986   3.933   2.170   4.648
10029SOL    HW230987   3.803   2.182   4.550
10030SOL     OW30988   2.570   6.647   3.690
10030SOL    HW130989   2.585   6.646   3.591
10030SOL    HW230990   2.475   6.672   3.710
10031SOL     OW30991   6.262   5.010   4.198
10031SOL    HW130992   6.259   4.918   4.159
10031SOL    HW230993   6.221   5.009   4.289
10032SOL     OW30994   2.441   1.966   5.303
10032SOL    HW130995   2.341   1.960   5.308
10032SOL    HW230996   2.473   2.045   5.354
10033SOL     OW30997   6.013   1.991   3.427
10033SOL    HW130998   5.920   2.028   3.423
10033SOL    HW230999   6.061   2.029   3.506
10034SOL     OW31000   2.816   0.223   4.516
10034SOL    HW131001   2.902   0.268   4.490
10034SOL    HW231002   2.739   0.274   4.476
10035SOL     OW31003   6.265   4.224   2.137
10035SOL    HW131004   6.350   4.171   2.139
10035SOL    HW231005   6.286   4.321   2.151
10036SOL     OW31006   6.444   2.439   1.588
10036SOL    HW131007   6.474   2.506   1.520
10036SOL    HW231008   6.522   2.409   1.643
10037SOL     OW31009   6.752   0.804   0.888
10037SOL    HW131010   6.704   0.752   0.958
10037SOL    HW231011   6.789   0.889   0.927
10038SOL     OW31012   5.063   0.885   0.147
10038SOL    HW131013   4.967   0.888   0.117
10038SOL    HW231014   5.087   0.791   0.171
10039SOL     OW31015   3.247   0.594   3.415
10039SOL    HW131016   3.168   0.628   3.465
10039SOL    HW231017   3.309   0.548   3.479
10040SOL     OW31018   5.027   5.366   6.350
10040SOL    HW131019   4.960   5.295   6.328
10040SOL    HW231020   5.067   5.401   6.265
10041SOL     OW31021   3.964   6.353   6.681
10041SOL    HW131022   3.889   6.298   6.645
10041SOL    HW231023   3.989   6.424   6.615
10042SOL     OW31024   0.885   2.390   4.079
10042SOL    HW131025   0.883   2.300   4.036
10042SOL    HW231026   0.949   2.389   4.156
10043SOL     OW31027   6.302   1.182   5.259
10043SOL    HW131028   6.305   1.281   5.271
10043SOL    HW231029   6.278   1.139   5.346
10044SOL     OW31030   1.869   1.846   4.168
10044SOL    HW131031   1.856   1.933   4.216
10044SOL    HW231032   1.956   1.847   4.119
10045SOL     OW31033   4.258   0.427   2.438
10045SOL    HW131034   4.247   0.384   2.349
10045SOL    HW231035   4.227   0.364   2.510
10046SOL     OW31036   2.053   3.701   0.611
10046SOL    HW131037   2.003   3.705   0.525
10046SOL    HW231038   1.997   3.739   0.685
10047SOL     OW31039   1.078   3.254   4.944
10047SOL    HW131040   1.090   3.166   4.990
10047SOL    HW231041   1.122   3.325   4.999
10048SOL     OW31042   6.965   0.056   2.633
10048SOL    HW131043   6.910   0.121   2.685
10048SOL    HW231044   0.012   0.105   2.583
10049SOL     OW31045   1.425   1.269   5.854
10049SOL    HW131046   1.420   1.180   5.810
10049SOL    HW231047   1.335   1.295   5.889
10050SOL     OW31048   5.478   3.894   5.346
10050SOL    HW131049   5.394   3.948   5.352
10050SOL    HW231050   5.496   3.872   5.250
10051SOL     OW31051   0.263   3.861   5.053
10051SOL    HW131052   0.351   3.820   5.076
10051SOL    HW231053   0.199   3.789   5.025
10052SOL     OW31054   2.329   1.197   3.334
10052SOL    HW131055   2.246   1.158   3.295
10052SOL    HW231056   2.370   1.261   3.268
10053SOL     OW31057   4.822   5.995   4.327
10053SOL    HW131058   4.791   5.901   4.341
10053SOL    HW231059   4.750   6.058   4.355
10054SOL     OW31060   5.861   5.703   5.623
10054SOL    HW131061   5.797   5.772   5.588
10054SOL    HW231062   5.938   5.749   5.669
10055SOL     OW31063   6.173   1.542   5.130
10055SOL    HW131064   6.219   1.505   5.211
10055SOL    HW231065   6.109   1.614   5.158
10056SOL     OW31066   5.318   4.493   3.095
10056SOL    HW131067   5.401   4.473   3.148
10056SOL    HW231068   5.311   4.428   3.019
10057SOL     OW31069   5.192   3.485   5.646
10057SOL    HW131070   5.254   3.563   5.647
10057SOL    HW231071   5.167   3.462   5.740
10058SOL     OW31072   6.206   3.899   4.968
10058SOL    HW131073   6.238   3.855   5.052
10058SOL    HW231074   6.116   3.863   4.944
10059SOL     OW31075   0.454   1.382   6.912
10059SOL    HW131076   0.376   1.443   6.926
10059SOL    HW231077   0.524   1.401   6.980
10060SOL     OW31078   2.134   2.744   2.738
10060SOL    HW131079   2.162   2.651   2.761
10060SOL    HW231080   2.100   2.746   2.644
10061SOL     OW31081   4.534   1.134   3.552
10061SOL    HW131082   4.490   1.223   3.550
10061SOL    HW231083   4.489   1.076   3.620
10062SOL     OW31084   6.772   0.324   4.343
10062SOL    HW131085   6.812   0.260   4.277
10062SOL    HW231086   6.754   0.411   4.297
10063SOL     OW31087   3.275   1.330   4.470
10063SOL    HW131088   3.232   1.247   4.436
10063SOL    HW231089   3.210   1.382   4.525
10064SOL     OW31090   4.981   6.632   6.759
10064SOL    HW131091   4.890   6.666   6.733
10064SOL    HW231092   5.047   6.657   6.689
10065SOL     OW31093   2.056   1.054   1.664
10065SOL    HW131094   2.025   1.119   1.733
10065SOL    HW231095   2.152   1.074   1.641
10066SOL     OW31096   0.629   2.558   5.191
10066SOL    HW131097   0.622   2.498   5.112
10066SOL    HW231098   0.709   2.532   5.246
10067SOL     OW31099   0.263   3.027   6.469
10067SOL    HW131100   0.165   3.021   6.487
10067SOL    HW231101   0.295   3.120   6.488
10068SOL     OW31102   1.021   3.891   3.198
10068SOL    HW131103   0.983   3.902   3.106
10068SOL    HW231104   0.952   3.848   3.257
10069SOL     OW31105   3.130   5.009   1.586
10069SOL    HW131106   3.037   5.031   1.558
10069SOL    HW231107   3.194   5.032   1.512
10070SOL     OW31108   0.373   5.377   5.219
10070SOL    HW131109   0.320   5.456   5.189
10070SOL    HW231110   0.437   5.405   5.291
10071SOL     OW31111   0.797   0.158   4.196
10071SOL    HW131112   0.847   0.083   4.152
10071SOL    HW231113   0.747   0.209   4.126
10072SOL     OW31114   0.081   0.824   3.623
10072SOL    HW131115   0.100   0.759   3.697
10072SOL    HW231116   7.009   0.850   3.626
10073SOL     OW31117   0.043   4.096   3.626
10073SOL    HW131118   0.104   4.104   3.705
10073SOL    HW231119   0.098   4.077   3.544
10074SOL     OW31120   2.231   6.417   6.613
10074SOL    HW131121   2.143   6.451   6.581
10074SOL    HW231122   2.252   6.330   6.569
10075SOL     OW31123   1.038   1.297   2.534
10075SOL    HW131124   0.941   1.294   2.509
10075SOL    HW231125   1.087   1.358   2.472
10076SOL     OW31126   4.691   5.509   2.769
10076SOL    HW131127   4.711   5.594   2.818
10076SOL    HW231128   4.767   5.445   2.780
10077SOL     OW31129   4.737   2.727   1.003
10077SOL    HW131130   4.652   2.692   0.962
10077SOL    HW231131   4.723   2.822   1.031
10078SOL     OW31132   0.003   6.117   4.573
10078SOL    HW131133   0.020   6.169   4.656
10078SOL    HW231134   6.969   6.170   4.512
10079SOL     OW31135   6.048   2.655   2.167
10079SOL    HW131136   6.028   2.567   2.124
10079SOL    HW231137   5.966   2.712   2.166
10080SOL     OW31138   4.596   1.247   6.339
10080SOL    HW131139   4.559   1.296   6.260
10080SOL    HW231140   4.654   1.309   6.392
10081SOL     OW31141   0.960   1.600   0.008
10081SOL    HW131142   0.875   1.610   0.059
10081SOL    HW231143   0.940   1.579   6.937
10082SOL     OW31144   1.014   5.318   3.011
10082SOL    HW131145   1.049   5.249   3.075
10082SOL    HW231146   1.030   5.287   2.917
10083SOL     OW31147   3.129   0.108   3.998
10083SOL    HW131148   3.114   0.193   4.048
10083SOL    HW231149   3.101   0.119   3.903
10084SOL     OW31150   0.688   6.997   5.273
10084SOL    HW131151   0.667   0.065   5.302
10084SOL    HW231152   0.758   6.999   5.202
10085SOL     OW31153   3.777   0.008   0.579
10085SOL    HW131154   3.835   6.956   0.608
10085SOL    HW231155   3.706   0.024   0.648
10086SOL     OW31156   5.807   6.749   3.500
10086SOL    HW131157   5.811   6.838   3.455
10086SOL    HW231158   5.874   6.688   3.458
10087SOL     OW31159   6.621   6.422   4.078
10087SOL    HW131160   6.526   6.409   4.053
10087SOL    HW231161   6.628   6.442   4.176
10088SOL     OW31162   6.928   0.377   1.601
10088SOL    HW131163   6.838   0.368   1.558
10088SOL    HW231164   6.952   0.473   1.610
10089SOL     OW31165   2.844   1.934   2.828
10089SOL    HW131166   2.822   1.961   2.734
10089SOL    HW231167   2.890   1.845   2.826
10090SOL     OW31168   0.270   4.916   2.048
10090SOL    HW131169   0.296   4.979   1.975
10090SOL    HW231170   0.346   4.906   2.112
10091SOL     OW31171   6.481   5.858   0.035
10091SOL    HW131172   6.573   5.851   7.021
10091SOL    HW231173   6.445   5.950   0.018
10092SOL     OW31174   1.324   3.072   5.394
10092SOL    HW131175   1.361   3.160   5.424
10092SOL    HW231176   1.238   3.087   5.344
10093SOL     OW31177   5.032   3.447   5.004
10093SOL    HW131178   5.087   3.513   4.954
10093SOL    HW231179   4.953   3.493   5.044
10094SOL     OW31180   2.474   6.274   0.780
10094SOL    HW131181   2.484   6.297   0.684
10094SOL    HW231182   2.378   6.253   0.800
10095SOL     OW31183   5.455   1.647   4.442
10095SOL    HW131184   5.517   1.635   4.365
10095SOL    HW231185   5.412   1.737   4.436
10096SOL     OW31186   4.484   0.473   3.013
10096SOL    HW131187   4.530   0.548   2.964
10096SOL    HW231188   4.529   0.386   2.990
10097SOL     OW31189   2.392   2.273   6.402
10097SOL    HW131190   2.321   2.260   6.332
10097SOL    HW231191   2.466   2.328   6.364
10098SOL     OW31192   2.910   6.767   5.138
10098SOL    HW131193   2.885   6.713   5.057
10098SOL    HW231194   2.994   6.729   5.178
10099SOL     OW31195   6.726   4.329   2.104
10099SOL    HW131196   6.655   4.258   2.100
10099SOL    HW231197   6.805   4.295   2.155
10100SOL     OW31198   5.611   6.260   5.656
10100SOL    HW131199   5.668   6.342   5.662
10100SOL    HW231200   5.517   6.282   5.682
10101SOL     OW31201   6.556   3.076   1.470
10101SOL    HW131202   6.508   3.163   1.482
10101SOL    HW231203   6.555   3.025   1.556
10102SOL     OW31204   6.688   0.350   1.407
10102SOL    HW131205   6.732   0.270   1.365
10102SOL    HW231206   6.742   0.431   1.388
10103SOL     OW31207   1.602   0.285   4.952
10103SOL    HW131208   1.531   0.350   4.980
10103SOL    HW231209   1.559   0.198   4.927
10104SOL     OW31210   1.992   1.212   6.340
10104SOL    HW131211   1.952   1.269   6.268
10104SOL    HW231212   1.934   1.215   6.421
10105SOL     OW31213   1.951   1.015   6.118
10105SOL    HW131214   1.940   1.070   6.201
10105SOL    HW231215   1.882   1.043   6.051
10106SOL     OW31216   3.826   6.274   1.128
10106SOL    HW131217   3.796   6.319   1.213
10106SOL    HW231218   3.879   6.338   1.073
10107SOL     OW31219   5.481   1.585   6.053
10107SOL    HW131220   5.567   1.563   6.099
10107SOL    HW231221   5.495   1.661   5.990
10108SOL     OW31222   0.571   2.851   0.709
10108SOL    HW131223   0.474   2.832   0.719
10108SOL    HW231224   0.617   2.772   0.669
10109SOL     OW31225   0.701   1.119   0.345
10109SOL    HW131226   0.760   1.129   0.265
10109SOL    HW231227   0.756   1.100   0.426
10110SOL     OW31228   4.619   4.866   3.285
10110SOL    HW131229   4.671   4.918   3.354
10110SOL    HW231230   4.571   4.930   3.225
10111SOL     OW31231   0.209   3.208   3.018
10111SOL    HW131232   0.179   3.135   3.079
10111SOL    HW231233   0.185   3.297   3.058
10112SOL     OW31234   5.993   3.527   3.516
10112SOL    HW131235   6.050   3.529   3.434
10112SOL    HW231236   6.024   3.453   3.576
10113SOL     OW31237   4.195   0.540   0.382
10113SOL    HW131238   4.176   0.483   0.302
10113SOL    HW231239   4.111   0.586   0.411
10114SOL     OW31240   3.660   2.137   3.345
10114SOL    HW131241   3.735   2.175   3.398
10114SOL    HW231242   3.667   2.168   3.250
10115SOL     OW31243   3.809   1.659   4.564
10115SOL    HW131244   3.827   1.737   4.503
10115SOL    HW231245   3.801   1.576   4.509
10116SOL     OW31246   6.853   0.421   5.978
10116SOL    HW131247   6.778   0.481   6.006
10116SOL    HW231248   6.939   0.454   6.016
10117SOL     OW31249   6.791   6.016   5.939
10117SOL    HW131250   6.876   5.994   5.986
10117SOL    HW231251   6.810   6.080   5.864
10118SOL     OW31252   2.717   4.685   4.281
10118SOL    HW131253   2.702   4.631   4.199
10118SOL    HW231254   2.798   4.744   4.268
10119SOL     OW31255   6.591   5.442   4.459
10119SOL    HW131256   6.646   5.446   4.543
10119SOL    HW231257   6.639   5.491   4.386
10120SOL     OW31258   1.245   3.342   3.608
10120SOL    HW131259   1.318   3.326   3.675
10120SOL    HW231260   1.285   3.359   3.518
10121SOL     OW31261   6.017   4.439   1.085
10121SOL    HW131262   6.041   4.344   1.108
10121SOL    HW231263   5.921   4.443   1.057
10122SOL     OW31264   6.497   2.401   3.899
10122SOL    HW131265   6.466   2.388   3.994
10122SOL    HW231266   6.578   2.346   3.883
10123SOL     OW31267   5.942   6.769   0.680
10123SOL    HW131268   6.041   6.769   0.664
10123SOL    HW231269   5.922   6.710   0.759
10124SOL     OW31270   1.578   5.358   1.696
10124SOL    HW131271   1.583   5.413   1.779
10124SOL    HW231272   1.552   5.415   1.619
10125SOL     OW31273   2.493   1.068   1.311
10125SOL    HW131274   2.526   0.984   1.354
10125SOL    HW231275   2.500   1.143   1.376
10126SOL     OW31276   6.300   0.135   6.306
10126SOL    HW131277   6.324   0.154   6.401
10126SOL    HW231278   6.215   0.181   6.282
10127SOL     OW31279   1.360   3.860   6.306
10127SOL    HW131280   1.338   3.763   6.307
10127SOL    HW231281   1.308   3.905   6.233
10128SOL     OW31282   2.997   0.703   6.801
10128SOL    HW131283   3.035   0.630   6.745
10128SOL    HW231284   3.047   0.709   6.887
10129SOL     OW31285   0.320   1.411   2.296
10129SOL    HW131286   0.274   1.394   2.209
10129SOL    HW231287   0.357   1.504   2.296
10130SOL     OW31288   0.995   2.833   1.347
10130SOL    HW131289   1.001   2.877   1.258
10130SOL    HW231290   1.044   2.746   1.345
10131SOL     OW31291   1.684   0.370   4.326
10131SOL    HW131292   1.744   0.445   4.353
10131SOL    HW231293   1.651   0.386   4.232
10132SOL     OW31294   1.034   0.679   2.363
10132SOL    HW131295   1.023   0.777   2.349
10132SOL    HW231296   1.076   0.662   2.452
10133SOL     OW31297   4.218   6.270   1.117
10133SOL    HW131298   4.261   6.359   1.101
10133SOL    HW231299   4.124   6.271   1.082
10134SOL     OW31300   0.113   1.958   3.065
10134SOL    HW131301   0.103   2.024   3.139
10134SOL    HW231302   0.194   1.901   3.082
10135SOL     OW31303   5.483   1.582   3.561
10135SOL    HW131304   5.393   1.567   3.601
10135SOL    HW231305   5.474   1.624   3.471
10136SOL     OW31306   4.988   2.073   2.398
10136SOL    HW131307   5.033   2.162   2.383
10136SOL    HW231308   4.998   2.048   2.495
10137SOL     OW31309   0.595   4.886   6.095
10137SOL    HW131310   0.641   4.840   6.018
10137SOL    HW231311   0.503   4.912   6.067
10138SOL     OW31312   5.247   2.192   6.982
10138SOL    HW131313   5.226   2.290   6.990
10138SOL    HW231314   5.316   2.167   0.025
10139SOL     OW31315   3.762   3.175   4.957
10139SOL    HW131316   3.832   3.174   5.028
10139SOL    HW231317   3.739   3.081   4.932
10140SOL     OW31318   6.806   6.587   6.467
10140SOL    HW131319   6.818   6.669   6.411
10140SOL    HW231320   6.749   6.521   6.418
10141SOL     OW31321   4.220   0.715   3.247
10141SOL    HW131322   4.293   0.782   3.238
10141SOL    HW231323   4.175   0.726   3.336
10142SOL     OW31324   5.876   6.818   4.997
10142SOL    HW131325   5.897   6.747   5.064
10142SOL    HW231326   5.886   6.780   4.905
10143SOL     OW31327   5.873   3.294   0.103
10143SOL    HW131328   5.939   3.238   0.054
10143SOL    HW231329   5.797   3.317   0.042
10144SOL     OW31330   4.113   6.956   5.648
10144SOL    HW131331   4.157   0.018   5.628
10144SOL    HW231332   4.086   6.911   5.563
10145SOL     OW31333   4.303   6.262   2.759
10145SOL    HW131334   4.271   6.272   2.853
10145SOL    HW231335   4.225   6.238   2.700
10146SOL     OW31336   0.040   3.963   4.678
10146SOL    HW131337   6.982   3.907   4.687
10146SOL    HW231338   0.018   4.049   4.633
10147SOL     OW31339   4.843   4.925   6.993
10147SOL    HW131340   4.823   4.828   6.981
10147SOL    HW231341   4.824   4.974   6.908
10148SOL     OW31342   6.314   4.202   1.518
10148SOL    HW131343   6.273   4.286   1.555
10148SOL    HW231344   6.413   4.214   1.512
10149SOL     OW31345   4.601   4.664   1.194
10149SOL    HW131346   4.596   4.713   1.107
10149SOL    HW231347   4.559   4.574   1.185
10150SOL     OW31348   5.278   3.521   1.797
10150SOL    HW131349   5.304   3.485   1.707
10150SOL    HW231350   5.238   3.448   1.851
10151SOL     OW31351   0.473   6.767   5.654
10151SOL    HW131352   0.389   6.774   5.600
10151SOL    HW231353   0.552   6.781   5.595
10152SOL     OW31354   6.168   5.790   3.392
10152SOL    HW131355   6.249   5.754   3.345
10152SOL    HW231356   6.140   5.725   3.463
10153SOL     OW31357   4.445   5.786   3.565
10153SOL    HW131358   4.348   5.762   3.562
10153SOL    HW231359   4.467   5.823   3.655
10154SOL     OW31360   4.099   5.398   6.117
10154SOL    HW131361   4.037   5.383   6.194
10154SOL    HW231362   4.167   5.324   6.113
10155SOL     OW31363   5.075   1.991   6.136
10155SOL    HW131364   4.981   1.990   6.102
10155SOL    HW231365   5.110   1.897   6.140
10156SOL     OW31366   4.576   0.198   1.053
10156SOL    HW131367   4.642   0.141   1.004
10156SOL    HW231368   4.604   0.294   1.048
10157SOL     OW31369   0.234   2.343   0.456
10157SOL    HW131370   0.184   2.310   0.376
10157SOL    HW231371   0.254   2.266   0.517
10158SOL     OW31372   5.939   6.605   2.624
10158SOL    HW131373   5.884   6.524   2.644
10158SOL    HW231374   5.923   6.674   2.695
10159SOL     OW31375   3.443   3.197   3.049
10159SOL    HW131376   3.407   3.104   3.047
10159SOL    HW231377   3.519   3.204   2.984
10160SOL     OW31378   2.472   4.433   3.091
10160SOL    HW131379   2.405   4.502   3.063
10160SOL    HW231380   2.563   4.460   3.057
10161SOL     OW31381   3.884   4.470   6.600
10161SOL    HW131382   3.936   4.541   6.553
10161SOL    HW231383   3.825   4.511   6.670
10162SOL     OW31384   2.013   4.443   1.319
10162SOL    HW131385   2.109   4.414   1.319
10162SOL    HW231386   1.996   4.502   1.240
10163SOL     OW31387   0.739   5.697   6.007
10163SOL    HW131388   0.748   5.670   6.103
10163SOL    HW231389   0.777   5.788   5.994
10164SOL     OW31390   6.280   3.323   3.774
10164SOL    HW131391   6.294   3.227   3.796
10164SOL    HW231392   6.270   3.376   3.859
10165SOL     OW31393   6.296   2.352   3.661
10165SOL    HW131394   6.256   2.439   3.632
10165SOL    HW231395   6.374   2.370   3.721
10166SOL     OW31396   1.914   3.084   0.865
10166SOL    HW131397   1.842   3.137   0.820
10166SOL    HW231398   1.890   3.069   0.960
10167SOL     OW31399   0.232   4.771   0.041
10167SOL    HW131400   0.194   4.857   0.073
10167SOL    HW231401   0.268   4.782   6.973
10168SOL     OW31402   5.998   1.177   6.059
10168SOL    HW131403   6.066   1.227   6.114
10168SOL    HW231404   5.981   1.227   5.974
10169SOL     OW31405   6.750   3.963   2.954
10169SOL    HW131406   6.762   4.062   2.944
10169SOL    HW231407   6.790   3.933   3.041
10170SOL     OW31408   6.355   5.223   6.653
10170SOL    HW131409   6.451   5.217   6.681
10170SOL    HW231410   6.347   5.195   6.557
10171SOL     OW31411   1.207   2.515   5.673
10171SOL    HW131412   1.174   2.585   5.610
10171SOL    HW231413   1.184   2.541   5.767
10172SOL     OW31414   0.308   7.016   4.240
10172SOL    HW131415   0.403   0.019   4.260
10172SOL    HW231416   0.275   0.042   4.161
10173SOL     OW31417   3.004   3.961   6.979
10173SOL    HW131418   3.024   4.038   6.918
10173SOL    HW231419   2.974   3.882   6.925
10174SOL     OW31420   5.080   5.405   3.361
10174SOL    HW131421   5.128   5.481   3.403
10174SOL    HW231422   5.121   5.319   3.391
10175SOL     OW31423   6.800   1.626   3.425
10175SOL    HW131424   6.847   1.681   3.493
10175SOL    HW231425   6.781   1.681   3.344
10176SOL     OW31426   6.300   3.797   5.192
10176SOL    HW131427   6.368   3.728   5.213
10176SOL    HW231428   6.345   3.885   5.178
10177SOL     OW31429   2.043   0.524   0.998
10177SOL    HW131430   2.024   0.568   0.911
10177SOL    HW231431   2.111   0.452   0.985
10178SOL     OW31432   1.139   0.565   1.180
10178SOL    HW131433   1.203   0.606   1.245
10178SOL    HW231434   1.183   0.558   1.090
10179SOL     OW31435   0.022   4.001   0.012
10179SOL    HW131436   0.079   4.082   0.005
10179SOL    HW231437   6.977   4.003   6.964
10180SOL     OW31438   4.875   0.239   0.724
10180SOL    HW131439   4.914   0.271   0.637
10180SOL    HW231440   4.775   0.251   0.722
10181SOL     OW31441   0.075   3.028   0.935
10181SOL    HW131442   0.095   3.064   1.026
10181SOL    HW231443   0.118   2.939   0.923
10182SOL     OW31444   5.044   1.237   0.457
10182SOL    HW131445   4.958   1.186   0.452
10182SOL    HW231446   5.096   1.221   0.373
10183SOL     OW31447   5.914   2.843   5.930
10183SOL    HW131448   5.986   2.809   5.870
10183SOL    HW231449   5.871   2.924   5.889
10184SOL     OW31450   5.606   2.867   6.047
10184SOL    HW131451   5.593   2.787   5.988
10184SOL    HW231452   5.703   2.887   6.056
10185SOL     OW31453   4.885   6.318   2.577
10185SOL    HW131454   4.851   6.373   2.653
10185SOL    HW231455   4.978   6.344   2.554
10186SOL     OW31456   4.806   3.892   5.096
10186SOL    HW131457   4.790   3.794   5.102
10186SOL    HW231458   4.803   3.932   5.188
10187SOL     OW31459   2.112   4.053   5.186
10187SOL    HW131460   2.044   4.106   5.135
10187SOL    HW231461   2.185   4.025   5.125
10188SOL     OW31462   3.291   5.486   6.789
10188SOL    HW131463   3.227   5.426   6.838
10188SOL    HW231464   3.263   5.581   6.800
10189SOL     OW31465   1.449   0.670   6.891
10189SOL    HW131466   1.422   0.762   6.919
10189SOL    HW231467   1.375   0.628   6.838
10190SOL     OW31468   3.426   3.296   1.457
10190SOL    HW131469   3.520   3.265   1.442
10190SOL    HW231470   3.426   3.371   1.522
10191SOL     OW31471   5.853   5.944   1.361
10191SOL    HW131472   5.910   5.927   1.441
10191SOL    HW231473   5.795   6.024   1.377
10192SOL     OW31474   2.655   2.163   4.751
10192SOL    HW131475   2.707   2.087   4.790
10192SOL    HW231476   2.658   2.242   4.813
10193SOL     OW31477   3.094   3.997   2.711
10193SOL    HW131478   3.098   4.008   2.811
10193SOL    HW231479   3.048   3.911   2.689
10194SOL     OW31480   3.465   0.021   5.139
10194SOL    HW131481   3.478   0.107   5.089
10194SOL    HW231482   3.385   6.998   5.103
10195SOL     OW31483   6.761   0.026   1.618
10195SOL    HW131484   6.802   6.963   1.641
10195SOL    HW231485   6.790   0.095   1.685
10196SOL     OW31486   5.801   2.317   3.274
10196SOL    HW131487   5.837   2.272   3.193
10196SOL    HW231488   5.782   2.249   3.345
10197SOL     OW31489   5.297   0.840   4.183
10197SOL    HW131490   5.366   0.876   4.246
10197SOL    HW231491   5.322   0.862   4.089
10198SOL     OW31492   3.510   6.442   0.616
10198SOL    HW131493   3.421   6.487   0.605
10198SOL    HW231494   3.537   6.401   0.529
10199SOL     OW31495   0.713   1.250   6.854
10199SOL    HW131496   0.621   1.252   6.814
10199SOL    HW231497   0.764   1.173   6.818
10200SOL     OW31498   5.280   2.947   5.240
10200SOL    HW131499   5.318   3.028   5.285
10200SOL    HW231500   5.216   2.975   5.169
10201SOL     OW31501   0.459   6.125   1.379
10201SOL    HW131502   0.384   6.073   1.419
10201SOL    HW231503   0.483   6.086   1.290
10202SOL     OW31504   1.458   3.412   0.284
10202SOL    HW131505   1.411   3.458   0.208
10202SOL    HW231506   1.464   3.475   0.361
10203SOL     OW31507   1.500   2.732   1.707
10203SOL    HW131508   1.480   2.719   1.804
10203SOL    HW231509   1.555   2.815   1.696
10204SOL     OW31510   3.990   4.894   6.026
10204SOL    HW131511   3.981   4.983   5.983
10204SOL    HW231512   4.039   4.832   5.965
10205SOL     OW31513   4.032   1.051   3.020
10205SOL    HW131514   4.079   1.064   3.108
10205SOL    HW231515   3.999   0.957   3.014
10206SOL     OW31516   5.258   6.204   6.276
10206SOL    HW131517   5.171   6.155   6.269
10206SOL    HW231518   5.297   6.215   6.185
10207SOL     OW31519   1.434   0.715   1.119
10207SOL    HW131520   1.452   0.812   1.100
10207SOL    HW231521   1.508   0.677   1.173
10208SOL     OW31522   6.537   4.781   4.611
10208SOL    HW131523   6.617   4.841   4.611
10208SOL    HW231524   6.552   4.705   4.548
10209SOL     OW31525   0.629   0.861   5.408
10209SOL    HW131526   0.536   0.895   5.421
10209SOL    HW231527   0.657   0.809   5.488
10210SOL     OW31528   4.974   0.112   1.751
10210SOL    HW131529   4.918   0.184   1.710
10210SOL    HW231530   4.934   0.083   1.837
10211SOL     OW31531   4.717   6.558   5.893
10211SOL    HW131532   4.619   6.540   5.892
10211SOL    HW231533   4.766   6.475   5.867
10212SOL     OW31534   0.307   1.308   4.601
10212SOL    HW131535   0.271   1.219   4.627
10212SOL    HW231536   0.399   1.298   4.565
10213SOL     OW31537   6.240   1.834   2.768
10213SOL    HW131538   6.338   1.818   2.767
10213SOL    HW231539   6.196   1.770   2.831
10214SOL     OW31540   0.663   1.507   2.355
10214SOL    HW131541   0.639   1.481   2.262
10214SOL    HW231542   0.594   1.473   2.419
10215SOL     OW31543   3.289   2.823   5.041
10215SOL    HW131544   3.315   2.916   5.067
10215SOL    HW231545   3.276   2.768   5.123
10216SOL     OW31546   6.896   0.122   0.713
10216SOL    HW131547   6.883   0.121   0.812
10216SOL    HW231548   6.811   0.094   0.668
10217SOL     OW31549   2.621   1.056   3.782
10217SOL    HW131550   2.718   1.065   3.755
10217SOL    HW231551   2.566   1.034   3.701
10218SOL     OW31552   1.035   1.212   1.138
10218SOL    HW131553   1.109   1.267   1.101
10218SOL    HW231554   0.956   1.270   1.157
10219SOL     OW31555   0.380   3.042   1.823
10219SOL    HW131556   0.440   3.104   1.773
10219SOL    HW231557   0.331   3.092   1.894
10220SOL     OW31558   4.090   1.565   2.321
10220SOL    HW131559   4.158   1.586   2.250
10220SOL    HW231560   4.134   1.568   2.411
10221SOL     OW31561   1.461   1.953   3.883
10221SOL    HW131562   1.373   1.964   3.835
10221SOL    HW231563   1.445   1.927   3.978
10222SOL     OW31564   1.006   3.509   5.585
10222SOL    HW131565   0.974   3.602   5.566
10222SOL    HW231566   0.927   3.448   5.596
10223SOL     OW31567   1.762   5.931   6.698
10223SOL    HW131568   1.728   5.838   6.687
10223SOL    HW231569   1.824   5.952   6.622
10224SOL     OW31570   0.075   1.083   4.939
10224SOL    HW131571   0.012   1.123   4.872
10224SOL    HW231572   0.023   1.041   5.013
10225SOL     OW31573   1.583   6.474   5.459
10225SOL    HW131574   1.569   6.526   5.544
10225SOL    HW231575   1.673   6.432   5.460
10226SOL     OW31576   2.779   0.446   0.190
10226SOL    HW131577   2.691   0.472   0.150
10226SOL    HW231578   2.815   0.366   0.143
10227SOL     OW31579   4.846   4.496   0.656
10227SOL    HW131580   4.848   4.442   0.740
10227SOL    HW231581   4.881   4.588   0.674
10228SOL     OW31582   0.811   5.651   2.419
10228SOL    HW131583   0.711   5.654   2.423
10228SOL    HW231584   0.848   5.657   2.512
10229SOL     OW31585   1.179   1.288   4.446
10229SOL    HW131586   1.159   1.375   4.401
10229SOL    HW231587   1.121   1.216   4.407
10230SOL     OW31588   6.700   0.017   3.569
10230SOL    HW131589   6.754   6.987   3.505
10230SOL    HW231590   6.662   0.097   3.521
10231SOL     OW31591   0.153   6.101   5.918
10231SOL    HW131592   0.097   6.178   5.947
10231SOL    HW231593   0.120   6.018   5.962
10232SOL     OW31594   3.145   0.519   4.250
10232SOL    HW131595   3.062   0.568   4.273
10232SOL    HW231596   3.220   0.583   4.238
10233SOL     OW31597   5.288   3.317   5.068
10233SOL    HW131598   5.353   3.371   5.015
10233SOL    HW231599   5.197   3.359   5.062
10234SOL     OW31600   5.400   0.588   1.139
10234SOL    HW131601   5.356   0.545   1.218
10234SOL    HW231602   5.333   0.644   1.091
10235SOL     OW31603   4.642   1.998   0.568
10235SOL    HW131604   4.547   2.022   0.592
10235SOL    HW231605   4.658   1.902   0.587
10236SOL     OW31606   1.417   6.418   2.240
10236SOL    HW131607   1.381   6.508   2.214
10236SOL    HW231608   1.341   6.356   2.261
10237SOL     OW31609   6.074   4.193   1.183
10237SOL    HW131610   5.997   4.145   1.226
10237SOL    HW231611   6.160   4.151   1.212
10238SOL     OW31612   3.522   4.186   4.366
10238SOL    HW131613   3.596   4.191   4.433
10238SOL    HW231614   3.437   4.160   4.413
10239SOL     OW31615   1.209   3.979   5.346
10239SOL    HW131616   1.198   3.883   5.372
10239SOL    HW231617   1.307   3.999   5.336
10240SOL     OW31618   1.691   4.902   3.039
10240SOL    HW131619   1.698   5.001   3.028
10240SOL    HW231620   1.750   4.873   3.114
10241SOL     OW31621   0.130   0.860   1.940
10241SOL    HW131622   0.078   0.776   1.923
10241SOL    HW231623   0.112   0.892   2.033
10242SOL     OW31624   6.622   1.737   7.014
10242SOL    HW131625   6.631   1.807   0.060
10242SOL    HW231626   6.527   1.705   7.010
10243SOL     OW31627   0.476   5.319   1.041
10243SOL    HW131628   0.422   5.240   1.010
10243SOL    HW231629   0.479   5.388   0.969
10244SOL     OW31630   1.825   4.806   0.238
10244SOL    HW131631   1.743   4.863   0.236
10244SOL    HW231632   1.883   4.835   0.315
10245SOL     OW31633   3.196   4.274   6.963
10245SOL    HW131634   3.134   4.222   7.022
10245SOL    HW231635   3.250   4.338   7.019
10246SOL     OW31636   2.923   3.775   4.040
10246SOL    HW131637   2.858   3.815   3.976
10246SOL    HW231638   3.014   3.771   3.998
10247SOL     OW31639   0.332   5.467   4.759
10247SOL    HW131640   0.251   5.493   4.707
10247SOL    HW231641   0.318   5.489   4.856
10248SOL     OW31642   2.941   6.794   1.680
10248SOL    HW131643   2.979   6.850   1.754
10248SOL    HW231644   2.989   6.707   1.676
10249SOL     OW31645   3.185   0.861   5.944
10249SOL    HW131646   3.143   0.949   5.922
10249SOL    HW231647   3.156   0.832   6.035
10250SOL     OW31648   0.000   1.658   1.185
10250SOL    HW131649   6.976   1.709   1.114
10250SOL    HW231650   0.097   1.683   1.184
10251SOL     OW31651   2.375   2.470   5.035
10251SOL    HW131652   2.459   2.477   5.088
10251SOL    HW231653   2.348   2.561   5.003
10252SOL     OW31654   6.808   5.709   0.362
10252SOL    HW131655   6.775   5.666   0.446
10252SOL    HW231656   6.877   5.777   0.384
10253SOL     OW31657   5.417   5.886   0.421
10253SOL    HW131658   5.481   5.929   0.357
10253SOL    HW231659   5.452   5.896   0.514
10254SOL     OW31660   4.181   2.201   5.108
10254SOL    HW131661   4.090   2.174   5.078
10254SOL    HW231662   4.199   2.295   5.080
10255SOL     OW31663   2.426   5.105   1.598
10255SOL    HW131664   2.373   5.116   1.514
10255SOL    HW231665   2.376   5.146   1.675
10256SOL     OW31666   5.580   0.667   1.660
10256SOL    HW131667   5.569   0.590   1.597
10256SOL    HW231668   5.655   0.647   1.723
10257SOL     OW31669   2.051   5.218   4.202
10257SOL    HW131670   2.150   5.229   4.194
10257SOL    HW231671   2.005   5.297   4.162
10258SOL     OW31672   4.809   0.218   4.187
10258SOL    HW131673   4.753   0.213   4.105
10258SOL    HW231674   4.824   0.313   4.213
10259SOL     OW31675   0.626   5.122   3.412
10259SOL    HW131676   0.647   5.159   3.503
10259SOL    HW231677   0.608   5.197   3.349
10260SOL     OW31678   0.493   0.060   3.126
10260SOL    HW131679   0.396   0.064   3.104
10260SOL    HW231680   0.516   6.991   3.156
10261SOL     OW31681   6.744   5.891   2.570
10261SOL    HW131682   6.781   5.975   2.531
10261SOL    HW231683   6.806   5.815   2.549
10262SOL     OW31684   2.725   6.213   4.560
10262SOL    HW131685   2.630   6.207   4.528
10262SOL    HW231686   2.736   6.297   4.613
10263SOL     OW31687   4.727   1.379   6.540
10263SOL    HW131688   4.735   1.297   6.597
10263SOL    HW231689   4.818   1.414   6.518
10264SOL     OW31690   5.526   2.056   6.952
10264SOL    HW131691   5.523   2.028   0.024
10264SOL    HW231692   5.517   2.156   6.946
10265SOL     OW31693   3.189   2.087   2.714
10265SOL    HW131694   3.105   2.139   2.731
10265SOL    HW231695   3.206   2.084   2.615
10266SOL     OW31696   3.591   2.721   5.647
10266SOL    HW131697   3.503   2.732   5.692
10266SOL    HW231698   3.577   2.707   5.549
10267SOL     OW31699   6.112   1.894   6.390
10267SOL    HW131700   6.068   1.893   6.300
10267SOL    HW231701   6.152   1.804   6.409
10268SOL     OW31702   3.818   5.963   2.026
10268SOL    HW131703   3.747   5.995   2.089
10268SOL    HW231704   3.781   5.960   1.933
10269SOL     OW31705   1.792   1.794   5.388
10269SOL    HW131706   1.829   1.772   5.478
10269SOL    HW231707   1.698   1.760   5.381
10270SOL     OW31708   2.174   5.508   2.823
10270SOL    HW131709   2.179   5.603   2.855
10270SOL    HW231710   2.239   5.495   2.748
10271SOL     OW31711   4.349   3.316   0.189
10271SOL    HW131712   4.344   3.325   0.090
10271SOL    HW231713   4.305   3.394   0.232
10272SOL     OW31714   0.973   0.279   4.367
10272SOL    HW131715   0.918   0.246   4.290
10272SOL    HW231716   0.998   0.374   4.352
10273SOL     OW31717   4.825   5.227   3.131
10273SOL    HW131718   4.789   5.309   3.175
10273SOL    HW231719   4.774   5.208   3.047
10274SOL     OW31720   1.126   4.294   4.889
10274SOL    HW131721   1.220   4.305   4.922
10274SOL    HW231722   1.100   4.375   4.837
10275SOL     OW31723   0.771   6.810   2.067
10275SOL    HW131724   0.760   6.854   2.156
10275SOL    HW231725   0.810   6.875   2.002
10276SOL     OW31726   6.328   5.698   6.103
10276SOL    HW131727   6.297   5.781   6.150
10276SOL    HW231728   6.427   5.703   6.088
10277SOL     OW31729   2.741   5.681   4.143
10277SOL    HW131730   2.833   5.687   4.181
10277SOL    HW231731   2.694   5.602   4.182
10278SOL     OW31732   5.486   1.030   4.844
10278SOL    HW131733   5.476   1.113   4.788
10278SOL    HW231734   5.453   1.048   4.936
10279SOL     OW31735   2.268   6.421   4.003
10279SOL    HW131736   2.278   6.508   4.051
10279SOL    HW231737   2.271   6.436   3.905
10280SOL     OW31738   2.003   3.919   1.158
10280SOL    HW131739   2.063   3.842   1.138
10280SOL    HW231740   2.033   3.964   1.242
10281SOL     OW31741   6.656   2.200   2.511
10281SOL    HW131742   6.596   2.151   2.574
10281SOL    HW231743   6.618   2.194   2.418
10282SOL     OW31744   6.514   3.947   4.332
10282SOL    HW131745   6.478   4.038   4.310
10282SOL    HW231746   6.516   3.935   4.431
10283SOL     OW31747   1.092   3.416   0.339
10283SOL    HW131748   1.097   3.335   0.282
10283SOL    HW231749   1.081   3.498   0.282
10284SOL     OW31750   4.938   4.500   5.407
10284SOL    HW131751   4.950   4.417   5.462
10284SOL    HW231752   5.023   4.553   5.410
10285SOL     OW31753   4.786   0.534   0.812
10285SOL    HW131754   4.876   0.560   0.845
10285SOL    HW231755   4.790   0.518   0.713
10286SOL     OW31756   3.253   2.121   4.122
10286SOL    HW131757   3.168   2.160   4.158
10286SOL    HW231758   3.289   2.054   4.187
10287SOL     OW31759   1.572   6.525   1.713
10287SOL    HW131760   1.643   6.558   1.651
10287SOL    HW231761   1.538   6.437   1.681
10288SOL     OW31762   5.266   6.450   2.280
10288SOL    HW131763   5.226   6.374   2.331
10288SOL    HW231764   5.193   6.504   2.238
10289SOL     OW31765   3.963   0.601   2.471
10289SOL    HW131766   4.063   0.604   2.471
10289SOL    HW231767   3.928   0.659   2.545
10290SOL     OW31768   4.019   3.752   2.747
10290SOL    HW131769   3.977   3.841   2.732
10290SOL    HW231770   4.087   3.735   2.675
10291SOL     OW31771   4.083   0.885   4.166
10291SOL    HW131772   4.041   0.931   4.244
10291SOL    HW231773   4.021   0.888   4.088
10292SOL     OW31774   0.859   1.443   4.709
10292SOL    HW131775   0.819   1.525   4.669
10292SOL    HW231776   0.787   1.389   4.754
10293SOL     OW31777   1.856   5.985   3.461
10293SOL    HW131778   1.775   5.927   3.467
10293SOL    HW231779   1.831   6.080   3.479
10294SOL     OW31780   4.943   3.721   3.113
10294SOL    HW131781   5.016   3.734   3.046
10294SOL    HW231782   4.946   3.627   3.148
10295SOL     OW31783   6.253   5.296   5.949
10295SOL    HW131784   6.335   5.238   5.954
10295SOL    HW231785   6.172   5.238   5.951
10296SOL     OW31786   5.050   2.956   6.279
10296SOL    HW131787   5.069   2.871   6.329
10296SOL    HW231788   4.951   2.971   6.275
10297SOL     OW31789   2.042   6.587   5.233
10297SOL    HW131790   2.020   6.642   5.152
10297SOL    HW231791   2.076   6.646   5.306
10298SOL     OW31792   3.966   5.199   2.416
10298SOL    HW131793   3.992   5.259   2.491
10298SOL    HW231794   4.037   5.130   2.402
10299SOL     OW31795   4.457   4.509   2.554
10299SOL    HW131796   4.442   4.531   2.651
10299SOL    HW231797   4.537   4.559   2.521
10300SOL     OW31798   2.362   4.914   2.742
10300SOL    HW131799   2.361   4.971   2.823
10300SOL    HW231800   2.291   4.945   2.679
10301SOL     OW31801   5.992   2.261   2.652
10301SOL    HW131802   5.914   2.209   2.688
10301SOL    HW231803   5.962   2.352   2.625
10302SOL     OW31804   0.796   6.323   3.960
10302SOL    HW131805   0.892   6.310   3.984
10302SOL    HW231806   0.785   6.314   3.861
10303SOL     OW31807   3.207   5.340   1.167
10303SOL    HW131808   3.267   5.277   1.118
10303SOL    HW231809   3.200   5.426   1.115
10304SOL     OW31810   5.408   0.785   2.818
10304SOL    HW131811   5.372   0.814   2.729
10304SOL    HW231812   5.478   0.850   2.848
10305SOL     OW31813   0.049   5.459   6.773
10305SOL    HW131814   0.132   5.474   6.720
10305SOL    HW231815   0.064   5.485   6.868
10306SOL     OW31816   4.615   6.360   6.782
10306SOL    HW131817   4.618   6.366   6.882
10306SOL    HW231818   4.546   6.293   6.755
10307SOL     OW31819   2.487   1.697   4.628
10307SOL    HW131820   2.493   1.727   4.533
10307SOL    HW231821   2.568   1.727   4.678
10308SOL     OW31822   2.670   5.035   4.007
10308SOL    HW131823   2.751   4.976   4.009
10308SOL    HW231824   2.661   5.082   4.094
10309SOL     OW31825   6.489   0.486   3.699
10309SOL    HW131826   6.486   0.561   3.764
10309SOL    HW231827   6.530   0.406   3.742
10310SOL     OW31828   3.875   2.742   1.634
10310SOL    HW131829   3.832   2.713   1.549
10310SOL    HW231830   3.820   2.711   1.712
10311SOL     OW31831   0.644   5.891   0.728
10311SOL    HW131832   0.650   5.976   0.779
10311SOL    HW231833   0.608   5.909   0.636
10312SOL     OW31834   3.098   5.551   1.035
10312SOL    HW131835   3.034   5.593   1.099
10312SOL    HW231836   3.089   5.595   0.946
10313SOL     OW31837   3.948   6.799   2.278
10313SOL    HW131838   3.884   6.733   2.318
10313SOL    HW231839   3.950   6.788   2.179
10314SOL     OW31840   5.987   0.750   1.658
10314SOL    HW131841   5.911   0.784   1.604
10314SOL    HW231842   6.071   0.798   1.633
10315SOL     OW31843   6.224   5.814   4.595
10315SOL    HW131844   6.223   5.740   4.527
10315SOL    HW231845   6.308   5.809   4.648
10316SOL     OW31846   6.652   3.778   4.975
10316SOL    HW131847   6.588   3.809   4.905
10316SOL    HW231848   6.744   3.809   4.953
10317SOL     OW31849   3.636   4.646   5.969
10317SOL    HW131850   3.545   4.689   5.964
10317SOL    HW231851   3.636   4.578   6.042
10318SOL     OW31852   6.445   5.322   1.326
10318SOL    HW131853   6.364   5.381   1.334
10318SOL    HW231854   6.517   5.356   1.385
10319SOL     OW31855   1.214   3.377   5.440
10319SOL    HW131856   1.131   3.413   5.483
10319SOL    HW231857   1.294   3.420   5.483
10320SOL     OW31858   0.647   0.956   0.678
10320SOL    HW131859   0.664   0.874   0.732
10320SOL    HW231860   0.574   0.939   0.613
10321SOL     OW31861   4.085   0.605   4.998
10321SOL    HW131862   4.065   0.699   4.974
10321SOL    HW231863   4.055   0.588   5.092
10322SOL     OW31864   6.100   5.757   0.055
10322SOL    HW131865   6.115   5.703   0.137
10322SOL    HW231866   6.092   5.854   0.080
10323SOL     OW31867   6.555   3.883   6.285
10323SOL    HW131868   6.642   3.834   6.291
10323SOL    HW231869   6.479   3.818   6.291
10324SOL     OW31870   3.248   3.084   3.307
10324SOL    HW131871   3.335   3.079   3.260
10324SOL    HW231872   3.173   3.082   3.241
10325SOL     OW31873   6.582   4.640   3.685
10325SOL    HW131874   6.488   4.633   3.650
10325SOL    HW231875   6.646   4.632   3.609
10326SOL     OW31876   4.860   2.686   0.575
10326SOL    HW131877   4.808   2.606   0.546
10326SOL    HW231878   4.806   2.740   0.640
10327SOL     OW31879   2.754   1.559   2.420
10327SOL    HW131880   2.667   1.579   2.465
10327SOL    HW231881   2.740   1.556   2.321
10328SOL     OW31882   6.048   3.416   1.673
10328SOL    HW131883   6.087   3.507   1.683
10328SOL    HW231884   6.097   3.367   1.601
10329SOL     OW31885   2.911   0.115   4.858
10329SOL    HW131886   2.977   0.094   4.930
10329SOL    HW231887   2.818   0.111   4.895
10330SOL     OW31888   3.146   5.553   2.929
10330SOL    HW131889   3.147   5.454   2.944
10330SOL    HW231890   3.090   5.573   2.848
10331SOL     OW31891   6.196   0.660   3.187
10331SOL    HW131892   6.177   0.571   3.145
10331SOL    HW231893   6.163   0.733   3.126
10332SOL     OW31894   6.432   1.590   0.474
10332SOL    HW131895   6.339   1.596   0.508
10332SOL    HW231896   6.496   1.627   0.541
10333SOL     OW31897   5.884   4.295   4.595
10333SOL    HW131898   5.792   4.288   4.558
10333SOL    HW231899   5.946   4.329   4.524
10334SOL     OW31900   2.560   5.901   3.237
10334SOL    HW131901   2.658   5.909   3.222
10334SOL    HW231902   2.535   5.805   3.245
10335SOL     OW31903   1.859   4.409   6.710
10335SOL    HW131904   1.888   4.389   6.803
10335SOL    HW231905   1.781   4.350   6.687
10336SOL     OW31906   5.164   6.704   3.213
10336SOL    HW131907   5.066   6.722   3.213
10336SOL    HW231908   5.180   6.609   3.188
10337SOL     OW31909   7.007   5.713   5.591
10337SOL    HW131910   6.989   5.804   5.555
10337SOL    HW231911   6.968   5.705   5.683
10338SOL     OW31912   3.451   6.573   1.316
10338SOL    HW131913   3.499   6.593   1.231
10338SOL    HW231914   3.373   6.512   1.297
10339SOL     OW31915   3.719   4.548   0.663
10339SOL    HW131916   3.729   4.533   0.565
10339SOL    HW231917   3.741   4.463   0.712
10340SOL     OW31918   1.327   5.705   6.962
10340SOL    HW131919   1.273   5.787   6.982
10340SOL    HW231920   1.287   5.627   7.010
10341SOL     OW31921   2.321   2.974   1.693
10341SOL    HW131922   2.333   3.073   1.679
10341SOL    HW231923   2.408   2.928   1.675
10342SOL     OW31924   2.614   5.820   5.520
10342SOL    HW131925   2.687   5.781   5.576
10342SOL    HW231926   2.651   5.897   5.468
10343SOL     OW31927   2.428   4.035   6.984
10343SOL    HW131928   2.377   4.114   7.019
10343SOL    HW231929   2.510   4.020   0.015
10344SOL     OW31930   4.043   3.828   3.350
10344SOL    HW131931   3.951   3.803   3.320
10344SOL    HW231932   4.076   3.905   3.295
10345SOL     OW31933   2.043   0.488   6.386
10345SOL    HW131934   1.956   0.478   6.434
10345SOL    HW231935   2.075   0.582   6.393
10346SOL     OW31936   6.055   0.763   1.198
10346SOL    HW131937   6.054   0.797   1.104
10346SOL    HW231938   5.993   0.819   1.253
10347SOL     OW31939   5.449   2.253   1.440
10347SOL    HW131940   5.416   2.199   1.363
10347SOL    HW231941   5.393   2.235   1.521
10348SOL     OW31942   6.723   0.881   6.350
10348SOL    HW131943   6.658   0.884   6.426
10348SOL    HW231944   6.758   0.788   6.339
10349SOL     OW31945   6.513   0.433   1.084
10349SOL    HW131946   6.449   0.444   1.160
10349SOL    HW231947   6.464   0.446   0.997
10350SOL     OW31948   3.222   6.294   4.804
10350SOL    HW131949   3.161   6.288   4.725
10350SOL    HW231950   3.290   6.221   4.800
10351SOL     OW31951   6.112   5.071   5.706
10351SOL    HW131952   6.037   5.090   5.642
10351SOL    HW231953   6.073   5.042   5.794
10352SOL     OW31954   5.719   2.138   6.277
10352SOL    HW131955   5.731   2.108   6.183
10352SOL    HW231956   5.806   2.131   6.326
10353SOL     OW31957   6.746   3.146   4.016
10353SOL    HW131958   6.744   3.075   3.946
10353SOL    HW231959   6.823   3.129   4.078
10354SOL     OW31960   1.138   3.623   0.968
10354SOL    HW131961   1.054   3.677   0.975
10354SOL    HW231962   1.170   3.624   0.873
10355SOL     OW31963   0.902   0.982   1.037
10355SOL    HW131964   0.967   0.934   0.978
10355SOL    HW231965   0.951   1.050   1.091
10356SOL     OW31966   6.792   3.378   6.537
10356SOL    HW131967   6.751   3.467   6.515
10356SOL    HW231968   6.824   3.334   6.453
10357SOL     OW31969   2.820   2.379   6.072
10357SOL    HW131970   2.797   2.338   5.983
10357SOL    HW231971   2.910   2.423   6.066
10358SOL     OW31972   1.058   3.192   3.470
10358SOL    HW131973   1.050   3.281   3.424
10358SOL    HW231974   1.141   3.189   3.525
10359SOL     OW31975   4.882   2.125   2.119
10359SOL    HW131976   4.803   2.169   2.077
10359SOL    HW231977   4.879   2.138   2.218
10360SOL     OW31978   5.101   5.220   2.581
10360SOL    HW131979   5.080   5.307   2.536
10360SOL    HW231980   5.187   5.184   2.544
10361SOL     OW31981   2.533   0.453   2.534
10361SOL    HW131982   2.460   0.509   2.574
10361SOL    HW231983   2.512   0.356   2.547
10362SOL     OW31984   0.646   4.964   2.448
10362SOL    HW131985   0.565   4.938   2.395
10362SOL    HW231986   0.728   4.955   2.392
10363SOL     OW31987   4.972   2.755   0.841
10363SOL    HW131988   4.895   2.770   0.903
10363SOL    HW231989   4.969   2.823   0.768
10364SOL     OW31990   5.038   4.707   1.725
10364SOL    HW131991   4.947   4.696   1.765
10364SOL    HW231992   5.079   4.617   1.710
10365SOL     OW31993   5.887   4.547   0.519
10365SOL    HW131994   5.830   4.518   0.597
10365SOL    HW231995   5.844   4.626   0.475
10366SOL     OW31996   4.119   6.640   3.505
10366SOL    HW131997   4.170   6.719   3.538
10366SOL    HW231998   4.044   6.671   3.446
10367SOL     OW31999   0.002   1.676   2.100
10367SOL    HW132000   6.997   1.771   2.114
10367SOL    HW232001   7.024   1.627   2.187
10368SOL     OW32002   1.876   1.063   2.761
10368SOL    HW132003   1.853   0.985   2.703
10368SOL    HW232004   1.914   1.137   2.705
10369SOL     OW32005   2.588   6.505   6.058
10369SOL    HW132006   2.593   6.551   6.147
10369SOL    HW232007   2.513   6.545   6.005
10370SOL     OW32008   6.177   1.696   4.895
10370SOL    HW132009   6.177   1.795   4.907
10370SOL    HW232010   6.181   1.652   4.985
10371SOL     OW32011   2.610   7.000   3.579
10371SOL    HW132012   2.658   6.966   3.660
10371SOL    HW232013   2.512   6.987   3.590
10372SOL     OW32014   2.941   1.022   1.063
10372SOL    HW132015   3.019   1.073   1.099
10372SOL    HW232016   2.892   1.078   0.997
10373SOL     OW32017   0.614   6.655   4.762
10373SOL    HW132018   0.544   6.584   4.766
10373SOL    HW232019   0.574   6.743   4.790
10374SOL     OW32020   3.037   7.016   4.618
10374SOL    HW132021   2.986   6.966   4.549
10374SOL    HW232022   2.975   0.019   4.692
10375SOL     OW32023   2.615   2.375   6.287
10375SOL    HW132024   2.686   2.367   6.217
10375SOL    HW232025   2.634   2.454   6.345
10376SOL     OW32026   1.060   6.226   3.931
10376SOL    HW132027   1.103   6.195   3.846
10376SOL    HW232028   1.090   6.166   4.006
10377SOL     OW32029   0.591   1.965   1.572
10377SOL    HW132030   0.632   1.875   1.586
10377SOL    HW232031   0.586   2.013   1.660
10378SOL     OW32032   6.707   5.444   6.126
10378SOL    HW132033   6.752   5.492   6.201
10378SOL    HW232034   6.774   5.427   6.053
10379SOL     OW32035   3.553   5.400   3.804
10379SOL    HW132036   3.614   5.443   3.738
10379SOL    HW232037   3.571   5.302   3.806
10380SOL     OW32038   0.860   2.397   4.983
10380SOL    HW132039   0.762   2.408   4.970
10380SOL    HW232040   0.898   2.480   5.025
10381SOL     OW32041   4.362   3.853   0.497
10381SOL    HW132042   4.334   3.927   0.559
10381SOL    HW232043   4.330   3.765   0.533
10382SOL     OW32044   2.954   6.287   1.895
10382SOL    HW132045   2.921   6.209   1.947
10382SOL    HW232046   2.925   6.372   1.940
10383SOL     OW32047   2.232   3.701   0.285
10383SOL    HW132048   2.201   3.651   0.204
10383SOL    HW232049   2.251   3.637   0.359
10384SOL     OW32050   6.736   6.443   0.468
10384SOL    HW132051   6.679   6.361   0.479
10384SOL    HW232052   6.691   6.505   0.403
10385SOL     OW32053   4.220   6.313   6.436
10385SOL    HW132054   4.179   6.243   6.377
10385SOL    HW232055   4.150   6.377   6.466
10386SOL     OW32056   0.925   0.733   5.566
10386SOL    HW132057   0.984   0.796   5.617
10386SOL    HW232058   0.835   0.731   5.609
10387SOL     OW32059   4.850   2.394   2.687
10387SOL    HW132060   4.813   2.301   2.681
10387SOL    HW232061   4.941   2.391   2.728
10388SOL     OW32062   1.777   6.772   0.838
10388SOL    HW132063   1.770   6.781   0.938
10388SOL    HW232064   1.872   6.781   0.811
10389SOL     OW32065   5.334   3.448   1.552
10389SOL    HW132066   5.325   3.397   1.467
10389SOL    HW232067   5.370   3.540   1.533
10390SOL     OW32068   1.647   2.689   6.598
10390SOL    HW132069   1.741   2.712   6.623
10390SOL    HW232070   1.647   2.642   6.510
10391SOL     OW32071   0.548   6.233   3.679
10391SOL    HW132072   0.491   6.211   3.758
10391SOL    HW232073   0.635   6.185   3.686
10392SOL     OW32074   5.728   5.298   5.315
10392SOL    HW132075   5.745   5.394   5.340
10392SOL    HW232076   5.664   5.258   5.381
10393SOL     OW32077   2.093   3.775   3.827
10393SOL    HW132078   2.119   3.798   3.733
10393SOL    HW232079   2.174   3.774   3.885
10394SOL     OW32080   2.544   5.416   4.826
10394SOL    HW132081   2.595   5.492   4.866
10394SOL    HW232082   2.477   5.451   4.760
10395SOL     OW32083   0.116   0.220   1.488
10395SOL    HW132084   0.165   0.258   1.410
10395SOL    HW232085   0.029   0.267   1.499
10396SOL     OW32086   3.559   1.530   3.956
10396SOL    HW132087   3.641   1.476   3.935
10396SOL    HW232088   3.543   1.596   3.882
10397SOL     OW32089   3.134   1.608   4.209
10397SOL    HW132090   3.233   1.622   4.211
10397SOL    HW232091   3.113   1.517   4.172
10398SOL     OW32092   6.397   2.753   0.621
10398SOL    HW132093   6.352   2.737   0.709
10398SOL    HW232094   6.404   2.852   0.605
10399SOL     OW32095   5.277   2.417   3.167
10399SOL    HW132096   5.224   2.500   3.152
10399SOL    HW232097   5.356   2.416   3.105
10400SOL     OW32098   4.198   5.778   0.335
10400SOL    HW132099   4.288   5.821   0.348
10400SOL    HW232100   4.155   5.816   0.253
10401SOL     OW32101   0.101   6.412   2.249
10401SOL    HW132102   0.098   6.483   2.319
10401SOL    HW232103   0.116   6.323   2.291
10402SOL     OW32104   6.468   1.761   5.785
10402SOL    HW132105   6.535   1.831   5.764
10402SOL    HW232106   6.377   1.802   5.793
10403SOL     OW32107   4.807   2.168   3.513
10403SOL    HW132108   4.750   2.147   3.433
10403SOL    HW232109   4.898   2.196   3.483
10404SOL     OW32110   5.777   6.126   4.366
10404SOL    HW132111   5.816   6.208   4.323
10404SOL    HW232112   5.730   6.072   4.296
10405SOL     OW32113   0.907   0.370   4.627
10405SOL    HW132114   0.963   0.355   4.545
10405SOL    HW232115   0.877   0.465   4.631
10406SOL     OW32116   2.054   4.260   3.491
10406SOL    HW132117   2.130   4.314   3.528
10406SOL    HW232118   2.024   4.193   3.558
10407SOL     OW32119   2.846   6.868   6.486
10407SOL    HW132120   2.902   6.813   6.549
10407SOL    HW232121   2.834   6.960   6.523
10408SOL     OW32122   4.316   0.083   1.179
10408SOL    HW132123   4.305   0.011   1.248
10408SOL    HW232124   4.412   0.110   1.173
10409SOL     OW32125   0.351   5.020   0.986
10409SOL    HW132126   0.415   4.944   0.969
10409SOL    HW232127   0.307   5.046   0.900
10410SOL     OW32128   5.204   2.257   1.652
10410SOL    HW132129   5.215   2.213   1.741
10410SOL    HW232130   5.111   2.241   1.618
10411SOL     OW32131   3.515   6.742   3.435
10411SOL    HW132132   3.570   6.774   3.358
10411SOL    HW232133   3.473   6.821   3.481
10412SOL     OW32134   0.256   0.977   6.657
10412SOL    HW132135   0.266   0.878   6.663
10412SOL    HW232136   0.159   1.001   6.667
10413SOL     OW32137   0.101   2.848   0.209
10413SOL    HW132138   0.087   2.902   0.292
10413SOL    HW232139   0.198   2.822   0.202
10414SOL     OW32140   3.880   5.462   5.976
10414SOL    HW132141   3.965   5.440   6.024
10414SOL    HW232142   3.848   5.552   6.004
10415SOL     OW32143   1.799   3.586   5.329
10415SOL    HW132144   1.760   3.529   5.256
10415SOL    HW232145   1.899   3.581   5.324
10416SOL     OW32146   5.964   0.436   5.161
10416SOL    HW132147   5.913   0.354   5.132
10416SOL    HW232148   5.953   0.449   5.259
10417SOL     OW32149   2.875   5.131   3.783
10417SOL    HW132150   2.791   5.077   3.781
10417SOL    HW232151   2.908   5.137   3.878
10418SOL     OW32152   6.848   3.973   6.627
10418SOL    HW132153   6.868   4.018   6.714
10418SOL    HW232154   6.882   3.879   6.630
10419SOL     OW32155   2.859   0.011   5.706
10419SOL    HW132156   2.775   0.050   5.744
10419SOL    HW232157   2.836   6.977   5.628
10420SOL     OW32158   0.601   3.916   3.583
10420SOL    HW132159   0.646   3.975   3.517
10420SOL    HW232160   0.518   3.878   3.542
10421SOL     OW32161   0.775   2.174   3.918
10421SOL    HW132162   0.843   2.175   3.845
10421SOL    HW232163   0.712   2.251   3.905
10422SOL     OW32164   5.875   3.690   5.111
10422SOL    HW132165   5.959   3.666   5.160
10422SOL    HW232166   5.805   3.621   5.131
10423SOL     OW32167   6.138   5.429   5.704
10423SOL    HW132168   6.167   5.335   5.722
10423SOL    HW232169   6.206   5.474   5.645
10424SOL     OW32170   5.248   2.897   0.301
10424SOL    HW132171   5.199   2.862   0.381
10424SOL    HW232172   5.197   2.874   0.218
10425SOL     OW32173   1.044   6.852   1.893
10425SOL    HW132174   1.045   6.836   1.991
10425SOL    HW232175   1.138   6.848   1.858
10426SOL     OW32176   5.624   5.387   0.446
10426SOL    HW132177   5.646   5.482   0.422
10426SOL    HW232178   5.537   5.385   0.495
10427SOL     OW32179   4.067   0.989   6.241
10427SOL    HW132180   4.137   0.963   6.307
10427SOL    HW232181   4.036   1.083   6.259
10428SOL     OW32182   3.444   0.925   3.968
10428SOL    HW132183   3.400   0.835   3.963
10428SOL    HW232184   3.406   0.985   3.898
10429SOL     OW32185   0.044   4.100   1.213
10429SOL    HW132186   0.066   4.023   1.272
10429SOL    HW232187   7.000   4.071   1.146
10430SOL     OW32188   4.884   0.176   4.586
10430SOL    HW132189   4.918   0.105   4.648
10430SOL    HW232190   4.842   0.249   4.641
10431SOL     OW32191   2.875   6.041   4.446
10431SOL    HW132192   2.867   5.942   4.454
10431SOL    HW232193   2.806   6.085   4.502
10432SOL     OW32194   5.290   6.986   5.134
10432SOL    HW132195   5.294   6.989   5.034
10432SOL    HW232196   5.293   0.055   5.171
10433SOL     OW32197   1.121   5.833   1.639
10433SOL    HW132198   1.219   5.851   1.646
10433SOL    HW232199   1.107   5.740   1.606
10434SOL     OW32200   4.201   6.037   3.488
10434SOL    HW132201   4.218   6.107   3.558
10434SOL    HW232202   4.169   5.953   3.533
10435SOL     OW32203   6.436   0.917   5.170
10435SOL    HW132204   6.393   1.004   5.192
10435SOL    HW232205   6.391   0.876   5.090
10436SOL     OW32206   0.224   5.143   5.902
10436SOL    HW132207   0.180   5.217   5.953
10436SOL    HW232208   0.154   5.085   5.861
10437SOL     OW32209   4.671   4.012   5.629
10437SOL    HW132210   4.694   3.937   5.691
10437SOL    HW232211   4.635   3.975   5.544
10438SOL     OW32212   5.898   6.645   0.194
10438SOL    HW132213   5.843   6.641   0.278
10438SOL    HW232214   5.995   6.643   0.217
10439SOL     OW32215   3.941   1.346   5.484
10439SOL    HW132216   3.857   1.302   5.514
10439SOL    HW232217   3.973   1.409   5.555
10440SOL     OW32218   1.196   0.311   0.237
10440SOL    HW132219   1.290   0.297   0.267
10440SOL    HW232220   1.184   0.406   0.207
10441SOL     OW32221   3.362   0.677   1.608
10441SOL    HW132222   3.394   0.703   1.699
10441SOL    HW232223   3.284   0.734   1.582
10442SOL     OW32224   3.493   6.631   5.959
10442SOL    HW132225   3.439   6.550   5.937
10442SOL    HW232226   3.538   6.617   6.047
10443SOL     OW32227   4.734   4.175   3.967
10443SOL    HW132228   4.686   4.262   3.973
10443SOL    HW232229   4.802   4.180   3.894
10444SOL     OW32230   4.034   6.132   4.431
10444SOL    HW132231   4.073   6.219   4.402
10444SOL    HW232232   4.006   6.137   4.526
10445SOL     OW32233   0.420   4.951   4.587
10445SOL    HW132234   0.463   5.001   4.662
10445SOL    HW232235   0.409   5.012   4.508
10446SOL     OW32236   1.569   3.030   5.259
10446SOL    HW132237   1.538   3.041   5.164
10446SOL    HW232238   1.490   3.032   5.320
10447SOL     OW32239   0.310   1.231   1.697
10447SOL    HW132240   0.405   1.221   1.727
10447SOL    HW232241   0.307   1.282   1.611
10448SOL     OW32242   4.506   0.601   2.437
10448SOL    HW132243   4.411   0.587   2.408
10448SOL    HW232244   4.533   0.695   2.418
10449SOL     OW32245   2.792   5.177   4.615
10449SOL    HW132246   2.738   5.109   4.566
10449SOL    HW232247   2.775   5.168   4.714
10450SOL     OW32248   0.936   2.002   0.626
10450SOL    HW132249   0.942   1.981   0.528
10450SOL    HW232250   0.865   1.944   0.668
10451SOL     OW32251   1.181   5.669   2.440
10451SOL    HW132252   1.124   5.587   2.426
10451SOL    HW232253   1.269   5.641   2.478
10452SOL     OW32254   6.450   3.164   2.270
10452SOL    HW132255   6.400   3.128   2.349
10452SOL    HW232256   6.400   3.242   2.231
10453SOL     OW32257   3.853   6.483   1.364
10453SOL    HW132258   3.811   6.501   1.453
10453SOL    HW232259   3.796   6.520   1.291
10454SOL     OW32260   4.264   3.548   0.475
10454SOL    HW132261   4.362   3.557   0.496
10454SOL    HW232262   4.232   3.458   0.504
10455SOL     OW32263   6.525   6.365   3.450
10455SOL    HW132264   6.449   6.398   3.393
10455SOL    HW232265   6.489   6.333   3.538
10456SOL     OW32266   3.251   6.381   0.958
10456SOL    HW132267   3.180   6.426   0.906
10456SOL    HW232268   3.293   6.309   0.902
10457SOL     OW32269   3.165   3.845   2.263
10457SOL    HW132270   3.122   3.755   2.255
10457SOL    HW232271   3.252   3.844   2.212
10458SOL     OW32272   0.003   1.658   6.448
10458SOL    HW132273   6.963   1.585   6.425
10458SOL    HW232274   6.978   1.745   6.453
10459SOL     OW32275   4.859   5.828   1.308
10459SOL    HW132276   4.823   5.735   1.310
10459SOL    HW232277   4.801   5.885   1.250
10460SOL     OW32278   1.363   4.483   2.039
10460SOL    HW132279   1.339   4.420   1.965
10460SOL    HW232280   1.461   4.504   2.033
10461SOL     OW32281   1.076   5.108   5.372
10461SOL    HW132282   1.014   5.152   5.437
10461SOL    HW232283   1.142   5.176   5.339
10462SOL     OW32284   6.364   1.821   3.522
10462SOL    HW132285   6.267   1.807   3.538
10462SOL    HW232286   6.417   1.750   3.568
10463SOL     OW32287   3.950   3.109   5.615
10463SOL    HW132288   3.924   3.168   5.538
10463SOL    HW232289   4.047   3.123   5.635
10464SOL     OW32290   6.468   6.867   1.151
10464SOL    HW132291   6.392   6.921   1.186
10464SOL    HW232292   6.433   6.781   1.114
10465SOL     OW32293   6.716   5.649   1.383
10465SOL    HW132294   6.638   5.682   1.328
10465SOL    HW232295   6.788   5.719   1.384
10466SOL     OW32296   4.386   5.302   6.468
10466SOL    HW132297   4.475   5.347   6.466
10466SOL    HW232298   4.380   5.237   6.392
10467SOL     OW32299   1.955   1.962   6.141
10467SOL    HW132300   1.859   1.981   6.165
10467SOL    HW232301   1.987   1.884   6.194
10468SOL     OW32302   3.482   5.061   3.039
10468SOL    HW132303   3.385   5.036   3.045
10468SOL    HW232304   3.517   5.078   3.131
10469SOL     OW32305   3.947   3.627   5.744
10469SOL    HW132306   4.030   3.571   5.736
10469SOL    HW232307   3.967   3.720   5.716
10470SOL     OW32308   2.759   2.380   3.531
10470SOL    HW132309   2.757   2.445   3.454
10470SOL    HW232310   2.667   2.368   3.567
10471SOL     OW32311   2.626   2.232   0.786
10471SOL    HW132312   2.618   2.154   0.848
10471SOL    HW232313   2.722   2.262   0.782
10472SOL     OW32314   3.659   5.593   0.167
10472SOL    HW132315   3.607   5.508   0.159
10472SOL    HW232316   3.612   5.654   0.231
10473SOL     OW32317   6.726   0.557   6.797
10473SOL    HW132318   6.819   0.595   6.793
10473SOL    HW232319   6.661   0.623   6.760
10474SOL     OW32320   4.910   1.625   4.439
10474SOL    HW132321   4.819   1.593   4.414
10474SOL    HW232322   4.913   1.725   4.434
10475SOL     OW32323   5.178   6.896   2.476
10475SOL    HW132324   5.161   6.936   2.386
10475SOL    HW232325   5.104   6.921   2.538
10476SOL     OW32326   6.930   6.312   6.725
10476SOL    HW132327   6.956   6.341   6.633
10476SOL    HW232328   6.926   6.392   6.785
10477SOL     OW32329   6.760   1.869   4.245
10477SOL    HW132330   6.741   1.919   4.329
10477SOL    HW232331   6.746   1.771   4.260
10478SOL     OW32332   0.290   0.496   1.010
10478SOL    HW132333   0.325   0.414   1.054
10478SOL    HW232334   0.337   0.576   1.047
10479SOL     OW32335   7.020   2.716   1.376
10479SOL    HW132336   6.979   2.802   1.410
10479SOL    HW232337   0.095   2.722   1.383
10480SOL     OW32338   6.663   0.759   1.835
10480SOL    HW132339   6.662   0.701   1.916
10480SOL    HW232340   6.697   0.706   1.757
10481SOL     OW32341   2.398   6.957   4.997
10481SOL    HW132342   2.484   7.006   4.983
10481SOL    HW232343   2.339   6.969   4.917
10482SOL     OW32344   6.893   5.656   4.824
10482SOL    HW132345   6.942   5.576   4.860
10482SOL    HW232346   6.956   5.733   4.818
10483SOL     OW32347   6.998   5.434   0.558
10483SOL    HW132348   0.063   5.473   0.580
10483SOL    HW232349   7.010   5.340   0.525
10484SOL     OW32350   5.991   1.483   1.723
10484SOL    HW132351   5.964   1.396   1.764
10484SOL    HW232352   5.996   1.553   1.794
10485SOL     OW32353   3.112   4.043   2.024
10485SOL    HW132354   3.144   3.960   1.978
10485SOL    HW232355   3.109   4.026   2.123
10486SOL     OW32356   6.354   0.739   6.092
10486SOL    HW132357   6.366   0.699   6.183
10486SOL    HW232358   6.288   0.685   6.040
10487SOL     OW32359   4.434   2.122   2.029
10487SOL    HW132360   4.445   2.148   1.933
10487SOL    HW232361   4.378   2.190   2.076
10488SOL     OW32362   2.328   1.587   6.155
10488SOL    HW132363   2.331   1.612   6.252
10488SOL    HW232364   2.397   1.639   6.105
10489SOL     OW32365   6.041   6.665   4.742
10489SOL    HW132366   6.080   6.742   4.691
10489SOL    HW232367   6.101   6.642   4.819
10490SOL     OW32368   6.221   1.739   0.863
10490SOL    HW132369   6.267   1.735   0.951
10490SOL    HW232370   6.212   1.835   0.835
10491SOL     OW32371   2.587   2.233   5.187
10491SOL    HW132372   2.563   2.330   5.196
10491SOL    HW232373   2.686   2.223   5.186
10492SOL     OW32374   5.027   6.349   1.432
10492SOL    HW132375   5.017   6.429   1.492
10492SOL    HW232376   5.086   6.282   1.476
10493SOL     OW32377   2.632   6.605   1.827
10493SOL    HW132378   2.550   6.663   1.826
10493SOL    HW232379   2.678   6.610   1.738
10494SOL     OW32380   5.566   4.634   6.197
10494SOL    HW132381   5.590   4.730   6.184
10494SOL    HW232382   5.467   4.626   6.212
10495SOL     OW32383   0.148   0.412   0.806
10495SOL    HW132384   0.186   0.441   0.894
10495SOL    HW232385   0.050   0.432   0.804
10496SOL     OW32386   6.236   4.566   6.086
10496SOL    HW132387   6.218   4.482   6.138
10496SOL    HW232388   6.224   4.645   6.145
10497SOL     OW32389   1.099   6.432   2.054
10497SOL    HW132390   1.163   6.509   2.056
10497SOL    HW232391   1.012   6.462   2.014
10498SOL     OW32392   5.722   5.637   0.520
10498SOL    HW132393   5.764   5.716   0.477
10498SOL    HW232394   5.756   5.629   0.614
10499SOL     OW32395   4.726   0.351   2.047
10499SOL    HW132396   4.726   0.400   2.135
10499SOL    HW232397   4.651   0.284   2.047
10500SOL     OW32398   5.952   1.742   5.551
10500SOL    HW132399   5.925   1.722   5.646
10500SOL    HW232400   5.926   1.836   5.528
10501SOL     OW32401   2.585   5.670   2.036
10501SOL    HW132402   2.615   5.720   1.955
10501SOL    HW232403   2.635   5.583   2.042
10502SOL     OW32404   2.868   3.316   1.247
10502SOL    HW132405   2.829   3.288   1.335
10502SOL    HW232406   2.953   3.266   1.231
10503SOL     OW32407   5.883   3.535   0.563
10503SOL    HW132408   5.904   3.461   0.627
10503SOL    HW232409   5.836   3.498   0.483
10504SOL     OW32410   0.126   3.072   5.507
10504SOL    HW132411   0.170   3.158   5.532
10504SOL    HW232412   0.194   3.009   5.470
10505SOL     OW32413   6.072   5.989   1.195
10505SOL    HW132414   5.994   5.929   1.213
10505SOL    HW232415   6.063   6.073   1.249
10506SOL     OW32416   0.842   3.384   0.044
10506SOL    HW132417   0.839   3.484   0.047
10506SOL    HW232418   0.821   3.354   6.975
10507SOL     OW32419   2.010   5.250   0.106
10507SOL    HW132420   2.099   5.287   0.135
10507SOL    HW232421   1.952   5.237   0.186
10508SOL     OW32422   0.240   5.974   4.501
10508SOL    HW132423   0.159   6.024   4.530
10508SOL    HW232424   0.280   5.927   4.579
10509SOL     OW32425   6.330   4.751   4.857
10509SOL    HW132426   6.349   4.667   4.805
10509SOL    HW232427   6.334   4.830   4.796
10510SOL     OW32428   4.395   6.426   0.319
10510SOL    HW132429   4.458   6.396   0.391
10510SOL    HW232430   4.387   6.525   0.321
10511SOL     OW32431   3.124   1.123   2.466
10511SOL    HW132432   3.203   1.178   2.441
10511SOL    HW232433   3.150   1.027   2.473
10512SOL     OW32434   3.250   0.520   6.200
10512SOL    HW132435   3.199   0.602   6.176
10512SOL    HW232436   3.186   0.446   6.221
10513SOL     OW32437   6.755   3.146   3.251
10513SOL    HW132438   6.665   3.182   3.230
10513SOL    HW232439   6.819   3.221   3.266
10514SOL     OW32440   1.095   2.431   1.604
10514SOL    HW132441   1.127   2.339   1.583
10514SOL    HW232442   1.034   2.428   1.683
10515SOL     OW32443   1.608   3.629   4.483
10515SOL    HW132444   1.678   3.700   4.475
10515SOL    HW232445   1.644   3.543   4.446
10516SOL     OW32446   3.017   1.525   0.131
10516SOL    HW132447   3.061   1.590   0.193
10516SOL    HW232448   2.964   1.459   0.185
10517SOL     OW32449   1.069   3.939   1.707
10517SOL    HW132450   0.997   4.007   1.699
10517SOL    HW232451   1.117   3.950   1.794
10518SOL     OW32452   6.871   6.362   1.689
10518SOL    HW132453   6.953   6.419   1.681
10518SOL    HW232454   6.828   6.352   1.600
10519SOL     OW32455   2.975   3.806   0.575
10519SOL    HW132456   2.994   3.893   0.621
10519SOL    HW232457   3.022   3.805   0.487
10520SOL     OW32458   0.363   2.474   6.051
10520SOL    HW132459   0.323   2.565   6.053
10520SOL    HW232460   0.458   2.479   6.021
10521SOL     OW32461   0.215   5.410   1.238
10521SOL    HW132462   0.117   5.402   1.256
10521SOL    HW232463   0.235   5.371   1.148
10522SOL     OW32464   0.168   2.630   3.730
10522SOL    HW132465   0.209   2.617   3.640
10522SOL    HW232466   0.222   2.698   3.781
10523SOL     OW32467   0.780   4.641   2.949
10523SOL    HW132468   0.787   4.710   2.877
10523SOL    HW232469   0.723   4.676   3.023
10524SOL     OW32470   0.215   6.394   4.368
10524SOL    HW132471   0.277   6.459   4.324
10524SOL    HW232472   0.166   6.342   4.298
10525SOL     OW32473   3.717   1.013   5.287
10525SOL    HW132474   3.780   1.076   5.242
10525SOL    HW232475   3.646   0.984   5.223
10526SOL     OW32476   1.112   0.118   1.580
10526SOL    HW132477   1.150   0.142   1.670
10526SOL    HW232478   1.051   0.190   1.549
10527SOL     OW32479   1.569   0.967   6.059
10527SOL    HW132480   1.485   1.021   6.058
10527SOL    HW232481   1.555   0.882   6.008
10528SOL     OW32482   1.306   4.237   6.288
10528SOL    HW132483   1.316   4.290   6.372
10528SOL    HW232484   1.384   4.256   6.227
10529SOL     OW32485   2.310   5.899   4.360
10529SOL    HW132486   2.243   5.903   4.286
10529SOL    HW232487   2.366   5.981   4.359
10530SOL     OW32488   1.402   6.715   6.002
10530SOL    HW132489   1.459   6.779   5.951
10530SOL    HW232490   1.441   6.701   6.093
10531SOL     OW32491   2.589   1.795   4.340
10531SOL    HW132492   2.564   1.751   4.254
10531SOL    HW232493   2.682   1.766   4.367
10532SOL     OW32494   0.234   6.881   6.006
10532SOL    HW132495   0.199   6.790   6.031
10532SOL    HW232496   0.301   6.871   5.933
10533SOL     OW32497   3.331   5.855   3.588
10533SOL    HW132498   3.261   5.900   3.533
10533SOL    HW232499   3.402   5.818   3.529
10534SOL     OW32500   6.595   4.528   2.245
10534SOL    HW132501   6.637   4.447   2.204
10534SOL    HW232502   6.500   4.536   2.215
10535SOL     OW32503   2.066   1.588   2.376
10535SOL    HW132504   2.115   1.655   2.320
10535SOL    HW232505   2.129   1.516   2.406
10536SOL     OW32506   4.503   0.928   4.106
10536SOL    HW132507   4.454   0.995   4.161
10536SOL    HW232508   4.599   0.953   4.099
10537SOL     OW32509   4.919   6.846   3.974
10537SOL    HW132510   4.930   6.774   3.905
10537SOL    HW232511   4.865   6.810   4.051
10538SOL     OW32512   6.732   3.498   0.238
10538SOL    HW132513   6.649   3.547   0.266
10538SOL    HW232514   6.727   3.478   0.140
10539SOL     OW32515   6.427   6.083   1.062
10539SOL    HW132516   6.410   6.034   1.148
10539SOL    HW232517   6.398   6.027   0.985
10540SOL     OW32518   2.255   2.729   5.407
10540SOL    HW132519   2.180   2.788   5.380
10540SOL    HW232520   2.223   2.663   5.475
10541SOL     OW32521   3.926   3.435   3.088
10541SOL    HW132522   3.872   3.491   3.025
10541SOL    HW232523   3.998   3.490   3.129
10542SOL     OW32524   6.682   1.149   5.158
10542SOL    HW132525   6.650   1.126   5.066
10542SOL    HW232526   6.741   1.075   5.192
10543SOL     OW32527   0.837   1.631   4.032
10543SOL    HW132528   0.893   1.709   4.003
10543SOL    HW232529   0.866   1.602   4.123
10544SOL     OW32530   1.949   6.356   1.707
10544SOL    HW132531   1.998   6.289   1.763
10544SOL    HW232532   1.976   6.448   1.735
10545SOL     OW32533   1.863   2.775   1.589
10545SOL    HW132534   1.775   2.804   1.626
10545SOL    HW232535   1.935   2.795   1.655
10546SOL     OW32536   2.891   6.143   0.295
10546SOL    HW132537   2.837   6.138   0.211
10546SOL    HW232538   2.829   6.153   0.373
10547SOL     OW32539   5.471   2.520   3.994
10547SOL    HW132540   5.412   2.547   3.918
10547SOL    HW232541   5.567   2.523   3.964
10548SOL     OW32542   0.116   4.545   4.292
10548SOL    HW132543   0.055   4.614   4.330
10548SOL    HW232544   0.122   4.556   4.192
10549SOL     OW32545   0.739   1.596   0.974
10549SOL    HW132546   0.756   1.587   0.876
10549SOL    HW232547   0.818   1.640   1.018
10550SOL     OW32548   4.737   6.204   3.649
10550SOL    HW132549   4.669   6.198   3.576
10550SOL    HW232550   4.703   6.157   3.730
10551SOL     OW32551   1.751   1.643   0.140
10551SOL    HW132552   1.738   1.670   0.235
10551SOL    HW232553   1.662   1.618   0.100
10552SOL     OW32554   1.854   0.761   5.206
10552SOL    HW132555   1.765   0.723   5.179
10552SOL    HW232556   1.851   0.788   5.302
10553SOL     OW32557   0.571   4.452   1.266
10553SOL    HW132558   0.574   4.552   1.262
10553SOL    HW232559   0.511   4.424   1.340
10554SOL     OW32560   5.133   5.407   1.440
10554SOL    HW132561   5.143   5.308   1.454
10554SOL    HW232562   5.058   5.424   1.375
10555SOL     OW32563   2.723   2.793   0.683
10555SOL    HW132564   2.685   2.702   0.701
10555SOL    HW232565   2.800   2.785   0.620
10556SOL     OW32566   2.242   0.938   3.673
10556SOL    HW132567   2.199   0.971   3.758
10556SOL    HW232568   2.331   0.982   3.661
10557SOL     OW32569   2.112   2.593   3.749
10557SOL    HW132570   2.169   2.660   3.796
10557SOL    HW232571   2.047   2.640   3.690
10558SOL     OW32572   3.870   6.247   5.637
10558SOL    HW132573   3.842   6.342   5.652
10558SOL    HW232574   3.798   6.199   5.586
10559SOL     OW32575   3.767   0.252   1.642
10559SOL    HW132576   3.816   0.180   1.691
10559SOL    HW232577   3.758   0.226   1.545
10560SOL     OW32578   4.815   7.012   2.870
10560SOL    HW132579   4.727   7.001   2.822
10560SOL    HW232580   4.858   6.922   2.880
10561SOL     OW32581   3.624   4.395   1.711
10561SOL    HW132582   3.722   4.381   1.694
10561SOL    HW232583   3.612   4.479   1.764
10562SOL     OW32584   4.194   5.507   0.370
10562SOL    HW132585   4.146   5.482   0.286
10562SOL    HW232586   4.202   5.607   0.375
10563SOL     OW32587   1.015   0.925   2.004
10563SOL    HW132588   0.917   0.903   2.008
10563SOL    HW232589   1.039   0.980   2.085
10564SOL     OW32590   5.853   6.394   3.620
10564SOL    HW132591   5.931   6.451   3.644
10564SOL    HW232592   5.883   6.300   3.608
10565SOL     OW32593   6.541   6.029   5.556
10565SOL    HW132594   6.482   6.044   5.635
10565SOL    HW232595   6.561   6.116   5.511
10566SOL     OW32596   3.438   1.833   6.167
10566SOL    HW132597   3.372   1.891   6.216
10566SOL    HW232598   3.399   1.742   6.153
10567SOL     OW32599   2.030   2.668   5.751
10567SOL    HW132600   1.968   2.623   5.815
10567SOL    HW232601   2.085   2.737   5.798
10568SOL     OW32602   6.364   3.017   0.544
10568SOL    HW132603   6.343   3.053   0.635
10568SOL    HW232604   6.284   3.025   0.485
10569SOL     OW32605   5.660   0.646   2.402
10569SOL    HW132606   5.655   0.650   2.502
10569SOL    HW232607   5.618   0.561   2.370
10570SOL     OW32608   1.820   4.746   3.721
10570SOL    HW132609   1.866   4.825   3.762
10570SOL    HW232610   1.833   4.666   3.780
10571SOL     OW32611   6.944   4.375   4.897
10571SOL    HW132612   6.984   4.322   4.972
10571SOL    HW232613   6.980   4.468   4.899
10572SOL     OW32614   6.839   4.647   2.649
10572SOL    HW132615   6.937   4.638   2.662
10572SOL    HW232616   6.794   4.660   2.737
10573SOL     OW32617   4.911   0.658   4.975
10573SOL    HW132618   5.002   0.695   4.953
10573SOL    HW232619   4.896   0.666   5.074
10574SOL     OW32620   0.511   1.854   4.069
10574SOL    HW132621   0.508   1.948   4.104
10574SOL    HW232622   0.475   1.792   4.138
10575SOL     OW32623   0.112   0.616   3.817
10575SOL    HW132624   0.164   0.538   3.850
10575SOL    HW232625   0.036   0.584   3.760
10576SOL     OW32626   0.784   6.096   3.743
10576SOL    HW132627   0.846   6.174   3.729
10576SOL    HW232628   0.817   6.019   3.689
10577SOL     OW32629   1.984   4.343   0.370
10577SOL    HW132630   1.970   4.412   0.299
10577SOL    HW232631   1.946   4.255   0.339
10578SOL     OW32632   3.701   1.623   3.030
10578SOL    HW132633   3.698   1.629   2.930
10578SOL    HW232634   3.786   1.577   3.058
10579SOL     OW32635   4.119   2.871   1.641
10579SOL    HW132636   4.033   2.821   1.626
10579SOL    HW232637   4.186   2.810   1.683
10580SOL     OW32638   6.485   6.511   6.187
10580SOL    HW132639   6.554   6.481   6.254
10580SOL    HW232640   6.427   6.433   6.163
10581SOL     OW32641   5.737   0.608   2.997
10581SOL    HW132642   5.640   0.592   2.977
10581SOL    HW232643   5.786   0.521   2.993
10582SOL     OW32644   4.412   4.964   6.042
10582SOL    HW132645   4.494   5.011   6.009
10582SOL    HW232646   4.334   4.992   5.987
10583SOL     OW32647   4.641   0.742   3.807
10583SOL    HW132648   4.594   0.701   3.729
10583SOL    HW232649   4.613   0.837   3.816
10584SOL     OW32650   6.367   0.308   0.281
10584SOL    HW132651   6.347   0.356   0.367
10584SOL    HW232652   6.455   0.262   0.288
10585SOL     OW32653   3.024   1.853   5.365
10585SOL    HW132654   3.061   1.923   5.427
10585SOL    HW232655   3.098   1.792   5.336
10586SOL     OW32656   5.419   4.958   5.760
10586SOL    HW132657   5.368   4.917   5.835
10586SOL    HW232658   5.501   4.903   5.740
10587SOL     OW32659   6.637   5.205   6.698
10587SOL    HW132660   6.660   5.175   6.605
10587SOL    HW232661   6.674   5.141   6.764
10588SOL     OW32662   1.608   1.834   5.033
10588SOL    HW132663   1.538   1.868   5.096
10588SOL    HW232664   1.694   1.821   5.083
10589SOL     OW32665   4.945   0.964   4.678
10589SOL    HW132666   5.026   0.993   4.730
10589SOL    HW232667   4.960   0.981   4.581
10590SOL     OW32668   0.159   0.284   0.439
10590SOL    HW132669   0.084   0.312   0.498
10590SOL    HW232670   0.236   0.254   0.495
10591SOL     OW32671   2.479   2.302   0.352
10591SOL    HW132672   2.393   2.288   0.301
10591SOL    HW232673   2.537   2.366   0.302
10592SOL     OW32674   5.495   3.991   4.071
10592SOL    HW132675   5.525   4.054   4.000
10592SOL    HW232676   5.569   3.979   4.138
10593SOL     OW32677   3.199   5.951   1.025
10593SOL    HW132678   3.125   5.912   0.971
10593SOL    HW232679   3.174   6.043   1.055
10594SOL     OW32680   4.862   1.737   2.006
10594SOL    HW132681   4.770   1.731   1.968
10594SOL    HW232682   4.856   1.754   2.104
10595SOL     OW32683   5.811   7.017   0.434
10595SOL    HW132684   5.734   6.954   0.439
10595SOL    HW232685   5.788   0.078   0.479
10596SOL     OW32686   4.168   0.980   0.223
10596SOL    HW132687   4.115   0.935   0.151
10596SOL    HW232688   4.192   1.073   0.194
10597SOL     OW32689   3.413   1.455   5.705
10597SOL    HW132690   3.417   1.402   5.790
10597SOL    HW232691   3.359   1.538   5.719
10598SOL     OW32692   3.634   2.598   7.016
10598SOL    HW132693   3.650   2.691   6.982
10598SOL    HW232694   3.715   2.542   7.000
10599SOL     OW32695   5.512   3.698   6.684
10599SOL    HW132696   5.596   3.729   6.730
10599SOL    HW232697   5.491   3.760   6.609
10600SOL     OW32698   3.269   2.558   1.692
10600SOL    HW132699   3.191   2.618   1.674
10600SOL    HW232700   3.240   2.482   1.750
10601SOL     OW32701   1.421   4.837   5.899
10601SOL    HW132702   1.474   4.776   5.839
10601SOL    HW232703   1.483   4.902   5.943
10602SOL     OW32704   1.049   1.460   1.323
10602SOL    HW132705   1.043   1.380   1.383
10602SOL    HW232706   1.145   1.480   1.303
10603SOL     OW32707   4.237   0.041   3.559
10603SOL    HW132708   4.280   6.976   3.573
10603SOL    HW232709   4.233   0.090   3.645
10604SOL     OW32710   6.485   5.184   5.199
10604SOL    HW132711   6.572   5.180   5.150
10604SOL    HW232712   6.476   5.272   5.246
10605SOL     OW32713   2.058   6.376   7.005
10605SOL    HW132714   1.964   6.410   7.015
10605SOL    HW232715   2.056   6.279   6.981
10606SOL     OW32716   0.069   0.650   1.160
10606SOL    HW132717   0.085   0.582   1.088
10606SOL    HW232718   0.093   0.741   1.126
10607SOL     OW32719   4.210   4.798   7.005
10607SOL    HW132720   4.296   4.768   6.964
10607SOL    HW232721   4.137   4.793   6.937
10608SOL     OW32722   0.099   3.679   4.426
10608SOL    HW132723   0.180   3.635   4.385
10608SOL    HW232724   0.056   3.737   4.358
10609SOL     OW32725   3.052   6.688   6.542
10609SOL    HW132726   3.057   6.621   6.468
10609SOL    HW232727   3.041   6.640   6.629
10610SOL     OW32728   0.685   2.426   3.829
10610SOL    HW132729   0.723   2.482   3.903
10610SOL    HW232730   0.586   2.441   3.824
10611SOL     OW32731   3.075   4.350   6.658
10611SOL    HW132732   3.016   4.293   6.601
10611SOL    HW232733   3.142   4.293   6.705
10612SOL     OW32734   4.975   2.130   4.306
10612SOL    HW132735   5.074   2.123   4.301
10612SOL    HW232736   4.937   2.050   4.352
10613SOL     OW32737   6.424   5.735   5.693
10613SOL    HW132738   6.425   5.646   5.649
10613SOL    HW232739   6.337   5.747   5.741
10614SOL     OW32740   4.826   1.344   3.982
10614SOL    HW132741   4.912   1.341   4.032
10614SOL    HW232742   4.829   1.279   3.906
10615SOL     OW32743   3.641   1.093   5.998
10615SOL    HW132744   3.600   1.003   5.985
10615SOL    HW232745   3.677   1.100   6.091
10616SOL     OW32746   3.013   6.580   6.774
10616SOL    HW132747   3.034   6.485   6.795
10616SOL    HW232748   3.027   6.636   6.855
10617SOL     OW32749   3.130   4.086   1.495
10617SOL    HW132750   3.075   4.150   1.549
10617SOL    HW232751   3.090   4.077   1.404
10618SOL     OW32752   1.038   4.493   5.975
10618SOL    HW132753   1.113   4.553   6.001
10618SOL    HW232754   0.959   4.548   5.946
10619SOL     OW32755   0.047   3.003   3.827
10619SOL    HW132756   6.983   2.978   3.787
10619SOL    HW232757   0.107   3.037   3.755
10620SOL     OW32758   1.186   0.163   4.700
10620SOL    HW132759   1.221   0.090   4.758
10620SOL    HW232760   1.180   0.130   4.605
10621SOL     OW32761   0.896   5.083   1.936
10621SOL    HW132762   0.925   5.150   1.867
10621SOL    HW232763   0.974   5.025   1.960
10622SOL     OW32764   4.713   2.014   2.358
10622SOL    HW132765   4.807   2.047   2.374
10622SOL    HW232766   4.673   1.986   2.445
10623SOL     OW32767   6.497   5.153   5.922
10623SOL    HW132768   6.451   5.124   5.838
10623SOL    HW232769   6.594   5.132   5.915
10624SOL     OW32770   0.302   2.662   5.739
10624SOL    HW132771   0.360   2.633   5.663
10624SOL    HW232772   0.211   2.622   5.728
10625SOL     OW32773   0.928   4.320   0.889
10625SOL    HW132774   0.963   4.230   0.914
10625SOL    HW232775   0.860   4.350   0.956
10626SOL     OW32776   3.592   2.749   0.973
10626SOL    HW132777   3.541   2.702   1.044
10626SOL    HW232778   3.529   2.780   0.901
10627SOL     OW32779   5.858   1.994   0.239
10627SOL    HW132780   5.809   2.081   0.226
10627SOL    HW232781   5.884   1.957   0.149
10628SOL     OW32782   4.380   6.589   1.089
10628SOL    HW132783   4.433   6.594   1.174
10628SOL    HW232784   4.311   6.662   1.088
10629SOL     OW32785   2.567   4.950   4.602
10629SOL    HW132786   2.561   4.967   4.701
10629SOL    HW232787   2.622   4.868   4.586
10630SOL     OW32788   6.530   1.728   2.711
10630SOL    HW132789   6.612   1.784   2.700
10630SOL    HW232790   6.555   1.631   2.710
10631SOL     OW32791   3.963   4.907   5.256
10631SOL    HW132792   3.948   4.981   5.321
10631SOL    HW232793   4.027   4.841   5.295
10632SOL     OW32794   5.462   6.632   3.468
10632SOL    HW132795   5.470   6.720   3.515
10632SOL    HW232796   5.394   6.638   3.396
10633SOL     OW32797   2.809   2.558   1.364
10633SOL    HW132798   2.717   2.580   1.332
10633SOL    HW232799   2.846   2.483   1.310
10634SOL     OW32800   2.332   5.032   0.732
10634SOL    HW132801   2.337   4.998   0.826
10634SOL    HW232802   2.255   4.988   0.685
10635SOL     OW32803   1.961   3.629   6.686
10635SOL    HW132804   1.901   3.598   6.760
10635SOL    HW232805   1.977   3.554   6.622
10636SOL     OW32806   0.614   2.059   0.999
10636SOL    HW132807   0.656   2.088   1.085
10636SOL    HW232808   0.555   2.132   0.964
10637SOL     OW32809   0.960   4.863   5.968
10637SOL    HW132810   0.909   4.779   5.987
10637SOL    HW232811   0.902   4.942   5.985
10638SOL     OW32812   5.550   6.053   2.949
10638SOL    HW132813   5.535   5.970   3.001
10638SOL    HW232814   5.502   6.047   2.861
10639SOL     OW32815   1.470   3.762   2.951
10639SOL    HW132816   1.479   3.674   2.998
10639SOL    HW232817   1.560   3.795   2.924
10640SOL     OW32818   4.514   0.134   3.802
10640SOL    HW132819   4.416   0.141   3.821
10640SOL    HW232820   4.549   0.047   3.837
10641SOL     OW32821   2.341   1.696   2.074
10641SOL    HW132822   2.276   1.724   2.145
10641SOL    HW232823   2.363   1.776   2.017
10642SOL     OW32824   6.487   1.690   0.729
10642SOL    HW132825   6.402   1.691   0.782
10642SOL    HW232826   6.565   1.686   0.792
10643SOL     OW32827   2.492   5.784   4.609
10643SOL    HW132828   2.436   5.784   4.526
10643SOL    HW232829   2.452   5.721   4.676
10644SOL     OW32830   5.852   2.908   1.168
10644SOL    HW132831   5.834   2.965   1.249
10644SOL    HW232832   5.849   2.812   1.195
10645SOL     OW32833   1.810   2.901   4.196
10645SOL    HW132834   1.743   2.976   4.191
10645SOL    HW232835   1.806   2.848   4.111
10646SOL     OW32836   0.486   6.798   5.916
10646SOL    HW132837   0.536   6.884   5.920
10646SOL    HW232838   0.475   6.769   5.821
10647SOL     OW32839   3.099   5.640   4.375
10647SOL    HW132840   3.074   5.617   4.469
10647SOL    HW232841   3.177   5.585   4.346
10648SOL     OW32842   5.955   4.710   6.183
10648SOL    HW132843   5.872   4.760   6.159
10648SOL    HW232844   6.034   4.769   6.170
10649SOL     OW32845   0.595   4.206   2.752
10649SOL    HW132846   0.555   4.206   2.844
10649SOL    HW232847   0.584   4.296   2.711
10650SOL     OW32848   0.924   6.953   4.068
10650SOL    HW132849   0.970   6.864   4.066
10650SOL    HW232850   0.990   0.001   4.051
10651SOL     OW32851   5.963   6.621   6.895
10651SOL    HW132852   5.912   6.634   6.980
10651SOL    HW232853   6.014   6.535   6.899
10652SOL     OW32854   2.966   6.255   5.819
10652SOL    HW132855   2.888   6.201   5.791
10652SOL    HW232856   2.934   6.337   5.868
10653SOL     OW32857   3.912   5.549   4.699
10653SOL    HW132858   3.903   5.502   4.611
10653SOL    HW232859   3.967   5.631   4.687
10654SOL     OW32860   5.226   0.455   6.740
10654SOL    HW132861   5.165   0.406   6.677
10654SOL    HW232862   5.212   0.421   6.833
10655SOL     OW32863   2.164   5.594   0.325
10655SOL    HW132864   2.067   5.612   0.305
10655SOL    HW232865   2.220   5.630   0.250
10656SOL     OW32866   0.332   1.655   2.682
10656SOL    HW132867   0.234   1.656   2.663
10656SOL    HW232868   0.361   1.746   2.712
10657SOL     OW32869   5.830   0.223   5.038
10657SOL    HW132870   5.772   0.274   4.975
10657SOL    HW232871   5.777   0.151   5.082
10658SOL     OW32872   6.833   4.671   4.606
10658SOL    HW132873   6.770   4.635   4.538
10658SOL    HW232874   6.792   4.661   4.697
10659SOL     OW32875   0.836   5.606   0.839
10659SOL    HW132876   0.927   5.642   0.860
10659SOL    HW232877   0.767   5.674   0.866
10660SOL     OW32878   5.034   3.852   6.204
10660SOL    HW132879   5.051   3.804   6.118
10660SOL    HW232880   4.978   3.795   6.264
10661SOL     OW32881   0.915   0.330   1.552
10661SOL    HW132882   0.848   0.332   1.626
10661SOL    HW232883   0.879   0.379   1.473
10662SOL     OW32884   4.722   0.438   2.312
10662SOL    HW132885   4.656   0.508   2.340
10662SOL    HW232886   4.814   0.475   2.314
10663SOL     OW32887   0.823   1.949   2.497
10663SOL    HW132888   0.740   1.900   2.468
10663SOL    HW232889   0.836   2.030   2.440
10664SOL     OW32890   5.800   4.168   5.174
10664SOL    HW132891   5.892   4.130   5.173
10664SOL    HW232892   5.746   4.126   5.101
10665SOL     OW32893   0.763   1.687   0.172
10665SOL    HW132894   0.812   1.773   0.186
10665SOL    HW232895   0.753   1.639   0.259
10666SOL     OW32896   3.485   3.514   1.620
10666SOL    HW132897   3.488   3.443   1.691
10666SOL    HW232898   3.531   3.596   1.653
10667SOL     OW32899   4.700   2.456   3.891
10667SOL    HW132900   4.602   2.446   3.873
10667SOL    HW232901   4.749   2.377   3.853
10668SOL     OW32902   2.691   1.133   5.324
10668SOL    HW132903   2.692   1.047   5.273
10668SOL    HW232904   2.784   1.170   5.328
10669SOL     OW32905   5.528   0.393   1.485
10669SOL    HW132906   5.507   0.311   1.537
10669SOL    HW232907   5.445   0.450   1.478
10670SOL     OW32908   5.661   5.128   5.118
10670SOL    HW132909   5.683   5.214   5.164
10670SOL    HW232910   5.745   5.083   5.088
10671SOL     OW32911   2.211   1.989   3.839
10671SOL    HW132912   2.221   2.080   3.797
10671SOL    HW232913   2.122   1.984   3.886
10672SOL     OW32914   6.111   4.042   1.702
10672SOL    HW132915   6.135   3.960   1.755
10672SOL    HW232916   6.193   4.079   1.659
10673SOL     OW32917   0.733   0.639   6.792
10673SOL    HW132918   0.672   0.715   6.811
10673SOL    HW232919   0.680   0.560   6.759
10674SOL     OW32920   3.852   3.679   2.944
10674SOL    HW132921   3.911   3.703   2.867
10674SOL    HW232922   3.892   3.715   3.029
10675SOL     OW32923   1.952   6.837   0.094
10675SOL    HW132924   1.878   6.793   0.043
10675SOL    HW232925   1.950   6.805   0.189
10676SOL     OW32926   6.543   5.803   5.411
10676SOL    HW132927   6.561   5.870   5.483
10676SOL    HW232928   6.448   5.813   5.380
10677SOL     OW32929   1.505   0.985   1.161
10677SOL    HW132930   1.483   1.057   1.228
10677SOL    HW232931   1.601   0.960   1.170
10678SOL     OW32932   4.644   5.632   4.233
10678SOL    HW132933   4.597   5.702   4.287
10678SOL    HW232934   4.663   5.666   4.142
10679SOL     OW32935   4.689   5.534   6.812
10679SOL    HW132936   4.712   5.492   6.899
10679SOL    HW232937   4.654   5.626   6.828
10680SOL     OW32938   3.881   1.865   4.411
10680SOL    HW132939   3.906   1.798   4.341
10680SOL    HW232940   3.846   1.948   4.368
10681SOL     OW32941   0.917   4.009   0.649
10681SOL    HW132942   0.970   3.934   0.688
10681SOL    HW232943   0.973   4.059   0.583
10682SOL     OW32944   0.584   1.319   5.339
10682SOL    HW132945   0.648   1.262   5.391
10682SOL    HW232946   0.507   1.263   5.309
10683SOL     OW32947   4.487   1.860   3.825
10683SOL    HW132948   4.444   1.797   3.890
10683SOL    HW232949   4.451   1.953   3.839
10684SOL     OW32950   5.123   4.910   3.039
10684SOL    HW132951   5.187   4.850   3.088
10684SOL    HW232952   5.147   4.912   2.942
10685SOL     OW32953   0.812   5.825   1.689
10685SOL    HW132954   0.783   5.904   1.742
10685SOL    HW232955   0.912   5.819   1.690
10686SOL     OW32956   0.885   4.654   5.781
10686SOL    HW132957   0.816   4.718   5.747
10686SOL    HW232958   0.879   4.568   5.732
10687SOL     OW32959   5.849   5.503   3.656
10687SOL    HW132960   5.854   5.580   3.719
10687SOL    HW232961   5.849   5.417   3.709
10688SOL     OW32962   6.574   3.748   1.988
10688SOL    HW132963   6.532   3.693   2.060
10688SOL    HW232964   6.599   3.838   2.025
10689SOL     OW32965   0.101   6.337   3.542
10689SOL    HW132966   0.038   6.302   3.473
10689SOL    HW232967   0.058   6.334   3.632
10690SOL     OW32968   6.958   5.597   4.164
10690SOL    HW132969   6.984   5.671   4.102
10690SOL    HW232970   6.984   5.509   4.124
10691SOL     OW32971   0.837   2.692   1.962
10691SOL    HW132972   0.758   2.716   2.019
10691SOL    HW232973   0.884   2.613   2.002
10692SOL     OW32974   3.232   6.215   3.621
10692SOL    HW132975   3.305   6.264   3.573
10692SOL    HW232976   3.200   6.138   3.565
10693SOL     OW32977   2.016   6.109   6.954
10693SOL    HW132978   2.070   6.031   6.923
10693SOL    HW232979   1.949   6.078   7.022
10694SOL     OW32980   5.505   6.929   1.505
10694SOL    HW132981   5.548   6.990   1.438
10694SOL    HW232982   5.433   6.876   1.460
10695SOL     OW32983   0.022   2.411   2.486
10695SOL    HW132984   6.978   2.446   2.423
10695SOL    HW232985   0.036   2.478   2.559
10696SOL     OW32986   0.452   4.118   3.734
10696SOL    HW132987   0.507   4.055   3.679
10696SOL    HW232988   0.510   4.193   3.767
10697SOL     OW32989   6.680   5.607   5.091
10697SOL    HW132990   6.730   5.521   5.097
10697SOL    HW232991   6.729   5.678   5.141
10698SOL     OW32992   5.248   4.524   5.933
10698SOL    HW132993   5.195   4.494   6.012
10698SOL    HW232994   5.250   4.624   5.930
10699SOL     OW32995   3.937   3.896   2.071
10699SOL    HW132996   3.851   3.887   2.123
10699SOL    HW232997   3.973   3.989   2.082
10700SOL     OW32998   6.710   6.595   0.833
10700SOL    HW132999   6.681   6.668   0.895
10700SOL    HW233000   6.629   6.557   0.787
10701SOL     OW33001   3.096   6.287   6.885
10701SOL    HW133002   3.085   6.194   6.851
10701SOL    HW233003   3.173   6.330   6.839
10702SOL     OW33004   5.978   2.617   1.546
10702SOL    HW133005   6.048   2.547   1.534
10702SOL    HW233006   5.919   2.593   1.623
10703SOL     OW33007   3.087   3.057   5.035
10703SOL    HW133008   3.130   3.140   5.071
10703SOL    HW233009   3.152   2.981   5.039
10704SOL     OW33010   5.982   5.894   1.631
10704SOL    HW133011   6.055   5.919   1.694
10704SOL    HW233012   5.896   5.933   1.662
10705SOL     OW33013   5.890   4.561   2.236
10705SOL    HW133014   5.847   4.479   2.274
10705SOL    HW233015   5.970   4.586   2.290
10706SOL     OW33016   5.342   6.954   2.023
10706SOL    HW133017   5.316   6.906   2.107
10706SOL    HW233018   5.381   0.018   2.047
10707SOL     OW33019   0.020   6.915   4.308
10707SOL    HW133020   0.100   6.947   4.259
10707SOL    HW233021   6.969   6.900   4.244
10708SOL     OW33022   4.029   0.567   1.981
10708SOL    HW133023   4.074   0.622   1.910
10708SOL    HW233024   3.945   0.612   2.009
10709SOL     OW33025   5.779   5.940   5.465
10709SOL    HW133026   5.817   6.025   5.428
10709SOL    HW233027   5.689   5.958   5.504
10710SOL     OW33028   0.085   0.154   4.484
10710SOL    HW133029   0.173   0.115   4.510
10710SOL    HW233030   0.042   0.094   4.416
10711SOL     OW33031   1.609   6.568   4.248
10711SOL    HW133032   1.658   6.654   4.231
10711SOL    HW233033   1.674   6.492   4.240
10712SOL     OW33034   3.242   0.967   1.747
10712SOL    HW133035   3.147   0.986   1.721
10712SOL    HW233036   3.301   1.041   1.714
10713SOL     OW33037   0.510   3.621   1.422
10713SOL    HW133038   0.545   3.709   1.388
10713SOL    HW233039   0.498   3.558   1.345
10714SOL     OW33040   6.356   4.438   5.194
10714SOL    HW133041   6.394   4.421   5.104
10714SOL    HW233042   6.308   4.526   5.194
10715SOL     OW33043   4.915   0.838   2.339
10715SOL    HW133044   4.974   0.803   2.411
10715SOL    HW233045   4.826   0.792   2.343
10716SOL     OW33046   5.675   2.330   4.220
10716SOL    HW133047   5.706   2.407   4.165
10716SOL    HW233048   5.755   2.285   4.261
10717SOL     OW33049   1.188   2.219   1.020
10717SOL    HW133050   1.248   2.165   0.961
10717SOL    HW233051   1.115   2.259   0.964
10718SOL     OW33052   1.249   2.843   6.509
10718SOL    HW133053   1.326   2.902   6.536
10718SOL    HW233054   1.232   2.776   6.582
10719SOL     OW33055   6.076   5.707   2.290
10719SOL    HW133056   6.057   5.627   2.346
10719SOL    HW233057   6.173   5.712   2.269
10720SOL     OW33058   0.564   4.239   4.840
10720SOL    HW133059   0.505   4.319   4.829
10720SOL    HW233060   0.522   4.160   4.797
10721SOL     OW33061   5.606   4.222   4.544
10721SOL    HW133062   5.522   4.265   4.512
10721SOL    HW233063   5.606   4.216   4.644
10722SOL     OW33064   0.971   5.177   0.610
10722SOL    HW133065   1.041   5.240   0.575
10722SOL    HW233066   0.917   5.142   0.533
10723SOL     OW33067   0.687   3.945   6.127
10723SOL    HW133068   0.723   3.997   6.050
10723SOL    HW233069   0.642   3.862   6.093
10724SOL     OW33070   5.513   1.066   6.888
10724SOL    HW133071   5.553   1.060   6.979
10724SOL    HW233072   5.564   1.006   6.826
10725SOL     OW33073   0.881   5.035   4.667
10725SOL    HW133074   0.919   5.031   4.575
10725SOL    HW233075   0.781   5.041   4.661
10726SOL     OW33076   5.131   0.316   5.693
10726SOL    HW133077   5.184   0.364   5.623
10726SOL    HW233078   5.140   0.364   5.780
10727SOL     OW33079   0.017   4.997   4.601
10727SOL    HW133080   0.069   4.918   4.569
10727SOL    HW233081   0.073   5.050   4.665
10728SOL     OW33082   6.919   6.288   0.278
10728SOL    HW133083   6.900   6.214   0.213
10728SOL    HW233084   6.833   6.321   0.317
10729SOL     OW33085   5.257   1.642   1.810
10729SOL    HW133086   5.274   1.718   1.747
10729SOL    HW233087   5.292   1.557   1.770
10730SOL     OW33088   1.926   0.369   1.980
10730SOL    HW133089   1.882   0.287   1.945
10730SOL    HW233090   1.924   0.368   2.080
10731SOL     OW33091   3.095   6.328   0.274
10731SOL    HW133092   3.177   6.271   0.271
10731SOL    HW233093   3.014   6.270   0.278
10732SOL     OW33094   5.160   4.704   3.500
10732SOL    HW133095   5.088   4.716   3.431
10732SOL    HW233096   5.117   4.684   3.588
10733SOL     OW33097   6.383   2.530   0.052
10733SOL    HW133098   6.401   2.443   0.007
10733SOL    HW233099   6.457   2.594   0.031
10734SOL     OW33100   0.911   0.657   6.487
10734SOL    HW133101   0.903   0.756   6.476
10734SOL    HW233102   0.819   0.618   6.498
10735SOL     OW33103   1.527   3.252   3.183
10735SOL    HW133104   1.473   3.174   3.150
10735SOL    HW233105   1.573   3.227   3.268
10736SOL     OW33106   1.386   0.158   3.171
10736SOL    HW133107   1.346   0.107   3.095
10736SOL    HW233108   1.314   0.195   3.229
10737SOL     OW33109   1.959   2.075   6.922
10737SOL    HW133110   1.862   2.071   6.901
10737SOL    HW233111   1.977   2.024   7.006
10738SOL     OW33112   2.616   0.703   3.984
10738SOL    HW133113   2.564   0.618   3.974
10738SOL    HW233114   2.682   0.711   3.909
10739SOL     OW33115   0.387   1.462   0.678
10739SOL    HW133116   0.434   1.395   0.620
10739SOL    HW233117   0.420   1.453   0.772
10740SOL     OW33118   0.671   4.812   5.416
10740SOL    HW133119   0.638   4.743   5.352
10740SOL    HW233120   0.637   4.902   5.389
10741SOL     OW33121   0.060   0.006   2.290
10741SOL    HW133122   7.017   6.996   2.225
10741SOL    HW233123   0.051   0.105   2.298
10742SOL     OW33124   5.983   0.944   1.894
10742SOL    HW133125   6.080   0.967   1.904
10742SOL    HW233126   5.968   0.904   1.803
10743SOL     OW33127   3.222   2.244   5.626
10743SOL    HW133128   3.252   2.258   5.720
10743SOL    HW233129   3.289   2.285   5.563
10744SOL     OW33130   3.555   0.817   1.993
10744SOL    HW133131   3.640   0.764   1.989
10744SOL    HW233132   3.479   0.758   1.965
10745SOL     OW33133   0.617   5.193   0.269
10745SOL    HW133134   0.543   5.150   0.320
10745SOL    HW233135   0.627   5.148   0.180
10746SOL     OW33136   1.674   3.980   1.317
10746SOL    HW133137   1.626   3.895   1.298
10746SOL    HW233138   1.685   4.032   1.232
10747SOL     OW33139   4.036   0.770   3.035
10747SOL    HW133140   4.084   0.754   2.949
10747SOL    HW233141   4.099   0.763   3.112
10748SOL     OW33142   3.811   0.685   1.594
10748SOL    HW133143   3.799   0.607   1.655
10748SOL    HW233144   3.906   0.688   1.562
10749SOL     OW33145   6.730   5.207   3.402
10749SOL    HW133146   6.809   5.245   3.450
10749SOL    HW233147   6.756   5.184   3.308
10750SOL     OW33148   4.675   6.097   4.554
10750SOL    HW133149   4.762   6.130   4.591
10750SOL    HW233150   4.613   6.074   4.628
10751SOL     OW33151   1.572   4.907   4.123
10751SOL    HW133152   1.669   4.902   4.148
10751SOL    HW233153   1.518   4.857   4.191
10752SOL     OW33154   5.912   4.548   6.429
10752SOL    HW133155   5.953   4.599   6.353
10752SOL    HW233156   5.904   4.452   6.403
10753SOL     OW33157   4.237   6.590   4.288
10753SOL    HW133158   4.291   6.593   4.204
10753SOL    HW233159   4.297   6.599   4.367
10754SOL     OW33160   1.371   1.540   3.585
10754SOL    HW133161   1.427   1.572   3.662
10754SOL    HW233162   1.404   1.450   3.555
10755SOL     OW33163   0.391   1.410   6.555
10755SOL    HW133164   0.398   1.491   6.614
10755SOL    HW233165   0.299   1.404   6.516
10756SOL     OW33166   6.697   4.014   0.680
10756SOL    HW133167   6.649   3.968   0.606
10756SOL    HW233168   6.652   3.992   0.767
10757SOL     OW33169   1.289   2.756   0.326
10757SOL    HW133170   1.342   2.822   0.380
10757SOL    HW233171   1.332   2.666   0.333
10758SOL     OW33172   0.690   6.873   4.535
10758SOL    HW133173   0.678   6.774   4.535
10758SOL    HW233174   0.674   6.908   4.627
10759SOL     OW33175   1.574   2.772   0.236
10759SOL    HW133176   1.531   2.742   0.321
10759SOL    HW233177   1.613   2.863   0.249
10760SOL     OW33178   6.178   1.851   1.234
10760SOL    HW133179   6.206   1.756   1.249
10760SOL    HW233180   6.236   1.912   1.288
10761SOL     OW33181   0.921   1.515   6.491
10761SOL    HW133182   0.970   1.480   6.572
10761SOL    HW233183   0.825   1.528   6.514
10762SOL     OW33184   3.939   2.114   4.810
10762SOL    HW133185   3.958   2.031   4.758
10762SOL    HW233186   3.986   2.110   4.898
10763SOL     OW33187   4.757   6.232   1.775
10763SOL    HW133188   4.671   6.274   1.804
10763SOL    HW233189   4.833   6.276   1.823
10764SOL     OW33190   5.440   2.025   5.962
10764SOL    HW133191   5.501   2.104   5.955
10764SOL    HW233192   5.384   2.034   6.045
10765SOL     OW33193   5.367   2.717   0.603
10765SOL    HW133194   5.330   2.666   0.681
10765SOL    HW233195   5.466   2.719   0.608
10766SOL     OW33196   5.113   3.170   1.079
10766SOL    HW133197   5.196   3.124   1.048
10766SOL    HW233198   5.131   3.268   1.090
10767SOL     OW33199   0.788   0.666   0.311
10767SOL    HW133200   0.741   0.742   0.265
10767SOL    HW233201   0.791   0.684   0.410
10768SOL     OW33202   4.529   4.236   1.052
10768SOL    HW133203   4.464   4.165   1.080
10768SOL    HW233204   4.549   4.225   0.954
10769SOL     OW33205   2.465   4.632   4.629
10769SOL    HW133206   2.564   4.642   4.642
10769SOL    HW233207   2.448   4.575   4.548
10770SOL     OW33208   5.700   0.380   4.867
10770SOL    HW133209   5.705   0.470   4.910
10770SOL    HW233210   5.607   0.345   4.875
10771SOL     OW33211   5.038   0.929   3.246
10771SOL    HW133212   5.112   0.891   3.190
10771SOL    HW233213   5.074   0.955   3.336
10772SOL     OW33214   0.166   0.091   4.852
10772SOL    HW133215   0.250   0.101   4.906
10772SOL    HW233216   0.190   0.086   4.755
10773SOL     OW33217   6.732   5.869   6.920
10773SOL    HW133218   6.704   5.925   6.843
10773SOL    HW233219   6.767   5.781   6.887
10774SOL     OW33220   1.478   1.181   6.760
10774SOL    HW133221   1.447   1.183   6.855
10774SOL    HW233222   1.484   1.274   6.725
10775SOL     OW33223   0.749   3.787   0.914
10775SOL    HW133224   0.727   3.717   0.845
10775SOL    HW233225   0.707   3.763   1.001
10776SOL     OW33226   1.504   6.380   6.379
10776SOL    HW133227   1.543   6.292   6.404
10776SOL    HW233228   1.578   6.447   6.365
10777SOL     OW33229   3.712   6.150   3.147
10777SOL    HW133230   3.612   6.143   3.151
10777SOL    HW233231   3.740   6.177   3.055
10778SOL     OW33232   5.562   6.640   4.998
10778SOL    HW133233   5.539   6.582   5.076
10778SOL    HW233234   5.652   6.615   4.963
10779SOL     OW33235   6.473   5.157   3.503
10779SOL    HW133236   6.475   5.093   3.580
10779SOL    HW233237   6.563   5.159   3.459
10780SOL     OW33238   1.711   0.567   3.716
10780SOL    HW133239   1.808   0.571   3.740
10780SOL    HW233240   1.679   0.473   3.725
10781SOL     OW33241   4.102   0.478   3.427
10781SOL    HW133242   4.172   0.448   3.492
10781SOL    HW233243   4.082   0.404   3.363
10782SOL     OW33244   5.872   2.057   2.443
10782SOL    HW133245   5.871   2.087   2.538
10782SOL    HW233246   5.803   1.986   2.430
10783SOL     OW33247   0.633   3.544   3.005
10783SOL    HW133248   0.663   3.449   3.007
10783SOL    HW233249   0.540   3.551   3.040
10784SOL     OW33250   3.680   0.653   4.175
10784SOL    HW133251   3.684   0.711   4.257
10784SOL    HW233252   3.644   0.563   4.200
10785SOL     OW33253   6.994   5.406   1.980
10785SOL    HW133254   0.064   5.394   2.009
10785SOL    HW233255   6.985   5.379   1.884
10786SOL     OW33256   4.927   4.704   2.746
10786SOL    HW133257   4.885   4.619   2.777
10786SOL    HW233258   4.905   4.778   2.810
10787SOL     OW33259   2.298   1.640   4.827
10787SOL    HW133260   2.368   1.629   4.757
10787SOL    HW233261   2.336   1.689   4.905
10788SOL     OW33262   2.340   5.181   6.168
10788SOL    HW133263   2.388   5.096   6.189
10788SOL    HW233264   2.312   5.226   6.253
10789SOL     OW33265   6.551   2.618   6.492
10789SOL    HW133266   6.554   2.670   6.578
10789SOL    HW233267   6.620   2.654   6.429
10790SOL     OW33268   1.687   1.194   1.896
10790SOL    HW133269   1.664   1.110   1.847
10790SOL    HW233270   1.746   1.172   1.974
10791SOL     OW33271   0.576   6.740   0.074
10791SOL    HW133272   0.549   6.836   0.068
10791SOL    HW233273   0.494   6.682   0.073
10792SOL     OW33274   3.367   3.262   3.738
10792SOL    HW133275   3.308   3.237   3.661
10792SOL    HW233276   3.398   3.179   3.784
10793SOL     OW33277   5.827   3.518   4.306
10793SOL    HW133278   5.766   3.596   4.320
10793SOL    HW233279   5.902   3.544   4.247
10794SOL     OW33280   3.054   3.715   3.740
10794SOL    HW133281   3.067   3.804   3.784
10794SOL    HW233282   3.030   3.647   3.810
10795SOL     OW33283   6.969   4.105   2.606
10795SOL    HW133284   7.002   4.196   2.578
10795SOL    HW233285   6.901   4.116   2.678
10796SOL     OW33286   5.595   6.766   0.399
10796SOL    HW133287   5.635   6.797   0.312
10796SOL    HW233288   5.523   6.700   0.381
10797SOL     OW33289   4.142   2.333   1.434
10797SOL    HW133290   4.168   2.282   1.516
10797SOL    HW233291   4.046   2.359   1.439
10798SOL     OW33292   2.811   6.520   0.288
10798SOL    HW133293   2.857   6.552   0.370
10798SOL    HW233294   2.872   6.458   0.238
10799SOL     OW33295   3.768   0.756   2.339
10799SOL    HW133296   3.696   0.735   2.404
10799SOL    HW233297   3.855   0.719   2.372
10800SOL     OW33298   0.337   6.744   6.514
10800SOL    HW133299   0.394   6.707   6.440
10800SOL    HW233300   0.394   6.802   6.573
10801SOL     OW33301   0.347   6.192   6.254
10801SOL    HW133302   0.367   6.101   6.219
10801SOL    HW233303   0.349   6.258   6.179
10802SOL     OW33304   0.643   2.118   2.885
10802SOL    HW133305   0.547   2.147   2.889
10802SOL    HW233306   0.690   2.144   2.969
10803SOL     OW33307   3.050   4.117   5.520
10803SOL    HW133308   2.978   4.121   5.589
10803SOL    HW233309   3.080   4.209   5.497
10804SOL     OW33310   5.753   3.529   2.031
10804SOL    HW133311   5.664   3.555   1.992
10804SOL    HW233312   5.794   3.457   1.974
10805SOL     OW33313   4.147   0.400   0.161
10805SOL    HW133314   4.086   0.321   0.170
10805SOL    HW233315   4.173   0.411   0.065
10806SOL     OW33316   4.654   3.704   6.294
10806SOL    HW133317   4.718   3.637   6.257
10806SOL    HW233318   4.696   3.794   6.293
10807SOL     OW33319   1.069   6.890   2.175
10807SOL    HW133320   1.032   6.981   2.156
10807SOL    HW233321   1.108   6.889   2.267
10808SOL     OW33322   6.335   3.297   6.451
10808SOL    HW133323   6.402   3.309   6.524
10808SOL    HW233324   6.372   3.235   6.381
10809SOL     OW33325   3.303   5.564   3.539
10809SOL    HW133326   3.283   5.591   3.634
10809SOL    HW233327   3.248   5.620   3.477
10810SOL     OW33328   1.738   0.363   4.660
10810SOL    HW133329   1.763   0.300   4.733
10810SOL    HW233330   1.705   0.310   4.581
10811SOL     OW33331   3.891   4.273   5.869
10811SOL    HW133332   3.854   4.306   5.782
10811SOL    HW233333   3.884   4.173   5.873
10812SOL     OW33334   0.920   3.876   1.113
10812SOL    HW133335   0.858   3.833   1.047
10812SOL    HW233336   0.921   3.822   1.197
10813SOL     OW33337   1.973   5.134   6.218
10813SOL    HW133338   2.020   5.159   6.134
10813SOL    HW233339   1.923   5.048   6.205
10814SOL     OW33340   1.744   6.517   6.139
10814SOL    HW133341   1.823   6.456   6.147
10814SOL    HW233342   1.723   6.533   6.043
10815SOL     OW33343   4.297   4.685   3.129
10815SOL    HW133344   4.208   4.731   3.133
10815SOL    HW233345   4.321   4.668   3.033
10816SOL     OW33346   3.145   3.274   1.537
10816SOL    HW133347   3.108   3.365   1.523
10816SOL    HW233348   3.230   3.264   1.485
10817SOL     OW33349   4.670   6.601   2.977
10817SOL    HW133350   4.601   6.668   3.007
10817SOL    HW233351   4.759   6.646   2.971
10818SOL     OW33352   4.170   4.765   5.380
10818SOL    HW133353   4.168   4.835   5.451
10818SOL    HW233354   4.180   4.675   5.423
10819SOL     OW33355   6.472   4.539   6.958
10819SOL    HW133356   6.472   4.439   6.956
10819SOL    HW233357   6.386   4.574   6.922
10820SOL     OW33358   6.121   5.836   4.257
10820SOL    HW133359   6.155   5.901   4.190
10820SOL    HW233360   6.079   5.885   4.334
10821SOL     OW33361   5.911   0.262   2.266
10821SOL    HW133362   5.880   0.269   2.361
10821SOL    HW233363   5.984   0.195   2.259
10822SOL     OW33364   7.024   3.036   3.181
10822SOL    HW133365   6.944   3.040   3.241
10822SOL    HW233366   7.008   2.969   3.108
10823SOL     OW33367   1.471   6.415   1.228
10823SOL    HW133368   1.457   6.447   1.134
10823SOL    HW233369   1.385   6.418   1.278
10824SOL     OW33370   6.896   0.618   3.344
10824SOL    HW133371   6.906   0.668   3.258
10824SOL    HW233372   6.800   0.593   3.357
10825SOL     OW33373   2.448   1.094   6.954
10825SOL    HW133374   2.369   1.033   6.953
10825SOL    HW233375   2.419   1.186   6.927
10826SOL     OW33376   1.469   2.672   3.741
10826SOL    HW133377   1.510   2.610   3.674
10826SOL    HW233378   1.447   2.621   3.825
10827SOL     OW33379   6.303   3.770   4.569
10827SOL    HW133380   6.213   3.732   4.593
10827SOL    HW233381   6.348   3.710   4.503
10828SOL     OW33382   1.030   5.255   1.065
10828SOL    HW133383   0.992   5.307   0.989
10828SOL    HW233384   0.974   5.173   1.080
10829SOL     OW33385   3.898   2.184   1.104
10829SOL    HW133386   3.936   2.116   1.042
10829SOL    HW233387   3.852   2.139   1.180
10830SOL     OW33388   5.805   2.242   2.960
10830SOL    HW133389   5.882   2.306   2.965
10830SOL    HW233390   5.839   2.150   2.942
10831SOL     OW33391   3.016   5.925   2.171
10831SOL    HW133392   2.941   5.973   2.125
10831SOL    HW233393   2.990   5.830   2.187
10832SOL     OW33394   0.925   2.758   6.520
10832SOL    HW133395   0.946   2.660   6.529
10832SOL    HW233396   1.006   2.806   6.485
10833SOL     OW33397   1.528   1.012   2.164
10833SOL    HW133398   1.519   0.996   2.263
10833SOL    HW233399   1.623   1.034   2.142
10834SOL     OW33400   0.876   2.200   0.238
10834SOL    HW133401   0.843   2.198   0.333
10834SOL    HW233402   0.922   2.287   0.220
10835SOL     OW33403   6.070   2.126   6.984
10835SOL    HW133404   6.150   2.108   0.017
10835SOL    HW233405   6.038   2.220   6.999
10836SOL     OW33406   6.721   1.641   4.954
10836SOL    HW133407   6.813   1.680   4.950
10836SOL    HW233408   6.711   1.589   5.039
10837SOL     OW33409   6.893   5.275   1.539
10837SOL    HW133410   6.796   5.288   1.520
10837SOL    HW233411   6.909   5.280   1.638
10838SOL     OW33412   5.477   6.110   4.841
10838SOL    HW133413   5.468   6.014   4.869
10838SOL    HW233414   5.572   6.129   4.818
10839SOL     OW33415   4.430   3.134   1.734
10839SOL    HW133416   4.443   3.233   1.735
10839SOL    HW233417   4.502   3.090   1.788
10840SOL     OW33418   3.109   5.459   2.320
10840SOL    HW133419   3.062   5.523   2.259
10840SOL    HW233420   3.049   5.382   2.341
10841SOL     OW33421   5.539   5.232   6.889
10841SOL    HW133422   5.483   5.309   6.857
10841SOL    HW233423   5.555   5.241   6.987
10842SOL     OW33424   4.893   2.510   1.630
10842SOL    HW133425   4.957   2.584   1.652
10842SOL    HW233426   4.805   2.528   1.675
10843SOL     OW33427   1.468   2.707   1.309
10843SOL    HW133428   1.427   2.703   1.400
10843SOL    HW233429   1.567   2.718   1.318
10844SOL     OW33430   0.108   6.668   3.229
10844SOL    HW133431   0.104   6.682   3.328
10844SOL    HW233432   0.203   6.647   3.203
10845SOL     OW33433   3.398   0.273   5.433
10845SOL    HW133434   3.473   0.284   5.369
10845SOL    HW233435   3.342   0.356   5.434
10846SOL     OW33436   4.638   1.711   0.583
10846SOL    HW133437   4.692   1.687   0.663
10846SOL    HW233438   4.640   1.635   0.518
10847SOL     OW33439   3.668   3.117   6.822
10847SOL    HW133440   3.608   3.158   6.891
10847SOL    HW233441   3.613   3.074   6.751
10848SOL     OW33442   3.496   3.468   6.804
10848SOL    HW133443   3.414   3.500   6.851
10848SOL    HW233444   3.488   3.490   6.706
10849SOL     OW33445   2.185   6.237   2.643
10849SOL    HW133446   2.100   6.186   2.631
10849SOL    HW233447   2.261   6.184   2.605
10850SOL     OW33448   2.972   5.101   6.390
10850SOL    HW133449   2.999   5.182   6.441
10850SOL    HW233450   2.936   5.032   6.453
10851SOL     OW33451   1.902   3.146   6.810
10851SOL    HW133452   1.819   3.145   6.866
10851SOL    HW233453   1.881   3.112   6.719
10852SOL     OW33454   1.174   0.526   6.544
10852SOL    HW133455   1.194   0.500   6.639
10852SOL    HW233456   1.083   0.567   6.540
10853SOL     OW33457   2.106   1.886   5.951
10853SOL    HW133458   2.031   1.907   6.014
10853SOL    HW233459   2.080   1.809   5.893
10854SOL     OW33460   4.154   5.520   4.847
10854SOL    HW133461   4.126   5.513   4.943
10854SOL    HW233462   4.073   5.514   4.789
10855SOL     OW33463   2.669   6.795   0.696
10855SOL    HW133464   2.597   6.831   0.755
10855SOL    HW233465   2.732   6.868   0.670
10856SOL     OW33466   5.756   1.609   0.603
10856SOL    HW133467   5.789   1.561   0.521
10856SOL    HW233468   5.660   1.587   0.617
10857SOL     OW33469   6.914   2.944   2.049
10857SOL    HW133470   6.909   2.844   2.051
10857SOL    HW233471   6.826   2.982   2.077
10858SOL     OW33472   0.325   1.952   5.889
10858SOL    HW133473   0.352   2.032   5.942
10858SOL    HW233474   0.263   1.895   5.943
10859SOL     OW33475   2.146   3.456   4.351
10859SOL    HW133476   2.047   3.449   4.358
10859SOL    HW233477   2.173   3.551   4.365
10860SOL     OW33478   6.725   1.905   5.792
10860SOL    HW133479   6.795   1.975   5.807
10860SOL    HW233480   6.758   1.817   5.824
10861SOL     OW33481   3.677   3.494   2.749
10861SOL    HW133482   3.654   3.398   2.768
10861SOL    HW233483   3.773   3.510   2.772
10862SOL     OW33484   2.315   1.921   6.487
10862SOL    HW133485   2.364   1.999   6.527
10862SOL    HW233486   2.294   1.940   6.392
10863SOL     OW33487   3.510   0.741   3.567
10863SOL    HW133488   3.548   0.757   3.476
10863SOL    HW233489   3.510   0.643   3.587
10864SOL     OW33490   2.962   5.195   0.136
10864SOL    HW133491   2.880   5.154   0.096
10864SOL    HW233492   3.034   5.126   0.142
10865SOL     OW33493   6.872   1.442   2.654
10865SOL    HW133494   6.872   1.441   2.554
10865SOL    HW233495   6.843   1.352   2.688
10866SOL     OW33496   4.875   4.838   0.240
10866SOL    HW133497   4.880   4.904   0.165
10866SOL    HW233498   4.964   4.793   0.250
10867SOL     OW33499   3.661   3.459   0.507
10867SOL    HW133500   3.577   3.475   0.558
10867SOL    HW233501   3.638   3.430   0.414
10868SOL     OW33502   3.489   2.149   4.295
10868SOL    HW133503   3.427   2.222   4.265
10868SOL    HW233504   3.447   2.060   4.279
10869NA      NA33505   0.291   2.110   5.454
10870NA      NA33506   4.365   4.659   5.214
10871NA      NA33507   1.968   3.908   2.511
10872NA      NA33508   4.835   4.013   4.107
10873NA      NA33509   4.420   2.483   5.131
10874NA      NA33510   3.044   4.882   1.781
10875NA      NA33511   0.025   4.238   0.597
10876NA      NA33512   3.074   3.403   3.467
10877NA      NA33513   5.058   5.572   0.966
10878NA      NA33514   3.676   6.643   5.577
10879NA      NA33515   6.060   5.466   1.624
10880NA      NA33516   2.113   0.871   4.545
10881NA      NA33517   3.760   5.183   1.939
10882NA      NA33518   3.978   3.612   1.760
   7.02453   7.02453   7.02453
